<event>
12    1  0.3310322E-013  0.1253993E+04  0.7818608E-02  0.9530917E-01
          2   -1    0    0  501    0  0.00000000000E+00  0.00000000000E+00  0.86826867674E+03  0.86826867674E+03  0.00000000000E+00 0. -1.
         -2   -1    0    0    0  501 -0.00000000000E+00 -0.00000000000E+00 -0.66741040598E+03  0.66741040598E+03  0.00000000000E+00 0.  1.
         23    2    1    2    0    0 -0.16727543674E+03 -0.14057205394E+03  0.16192359266E+03  0.28108154684E+03  0.71035287220E+02 0.  0.
    9900016    2    1    2    0    0 -0.65955298741E+01 -0.21389769783E+03  0.27508190280E+03  0.79454815844E+03  0.71403150958E+03 0.  0.
         23    2    4    4    0    0 -0.15115467577E+03  0.76364496756E+02 -0.20184345064E+02  0.19344287879E+03  0.91287826124E+02 0.  0.
        -15    1    3    3    0    0 -0.10463502341E+03 -0.12813372016E+03  0.10867923398E+03  0.19793411597E+03  0.00000000000E+00 0.  1.
        -15    1    5    5    0    0 -0.30320560641E+02  0.56990624795E+02  0.14667019443E+02  0.66199616097E+02  0.00000000000E+00 0.  1.
         15    1    3    3    0    0 -0.62640413323E+02 -0.12438333773E+02  0.53244358681E+02  0.83147430866E+02  0.00000000000E+00 0. -1.
         15    1    5    5    0    0 -0.12083411513E+03  0.19373871961E+02 -0.34851364506E+02  0.12724326269E+03  0.00000000000E+00 0. -1.
        -16    1    1    2    0    0  0.17387096661E+03  0.35446975176E+03 -0.23614722471E+03  0.46004937744E+03  0.00000000000E+00 0.  1.
         16    1    4    4    0    0 -0.58431140800E+02 -0.36817730285E+01  0.22375941058E+03  0.23129208264E+03  0.00000000000E+00 0. -1.
    9900018    1    4    4    0    0  0.20299028669E+03 -0.28658042155E+03  0.71506837288E+02  0.36981319701E+03  0.91187600000E+02 0.  0.
<mgrwt>
<rscale>  0 0.82042309E+03</rscale>
<asrwt>0</asrwt>
<pdfrwt beam="1">  1        2 0.13357980E+00 0.12539932E+04</pdfrwt>
<pdfrwt beam="2">  1       -2 0.10267852E+00 0.12539932E+04</pdfrwt>
<totfact> 0.23385186E+01</totfact>
</mgrwt>
</event>
<event>
12    1  0.3310322E-013  0.1472033E+04  0.7818608E-02  0.8903267E-01
          3   -1    0    0  501    0  0.00000000000E+00  0.00000000000E+00  0.11696781948E+04  0.11696781948E+04  0.00000000000E+00 0. -1.
         -3   -1    0    0    0  501 -0.00000000000E+00 -0.00000000000E+00 -0.46313620650E+03  0.46313620650E+03  0.00000000000E+00 0.  1.
         23    2    1    2    0    0 -0.10712316440E+03 -0.19835992312E+03  0.21831825847E+03  0.32207789940E+03  0.72451914023E+02 0.  0.
    9900016    2    1    2    0    0  0.99718510775E+02  0.28075768391E+03 -0.49825017873E+02  0.76636468525E+03  0.70431785433E+03 0.  0.
         23    2    4    4    0    0  0.17301901963E+01 -0.13282988270E+03 -0.22470667071E+03  0.27617728812E+03  0.90188886895E+02 0.  0.
        -15    1    3    3    0    0 -0.64243565082E+02 -0.16909016499E+03  0.19230834432E+03  0.26400988400E+03  0.00000000000E+00 0. -1.
        -15    1    5    5    0    0  0.19273274944E+02 -0.13671043396E+03 -0.17238693340E+03  0.22085845397E+03  0.00000000000E+00 0.  1.
         15    1    5    5    0    0 -0.17543084748E+02  0.38805512650E+01 -0.52319737309E+02  0.55318834158E+02  0.00000000000E+00 0. -1.
         15    1    3    3    0    0 -0.42879599316E+02 -0.29269758125E+02  0.26009914153E+02  0.58068015399E+02  0.00000000000E+00 0.  1.
        -16    1    4    4    0    0  0.45228194197E+02  0.28231982586E+03  0.13974736744E+03  0.31824424634E+03  0.00000000000E+00 0.  1.
         16    1    1    2    0    0  0.74046536232E+01 -0.82397760791E+02  0.53804874768E+03  0.54437181664E+03  0.00000000000E+00 0. -1.
    9900018    1    4    4    0    0  0.52760126382E+02  0.13126774075E+03  0.35134285398E+02  0.17194315078E+03  0.91187600000E+02 0.  0.
<mgrwt>
<rscale>  0 0.14720330E+04</rscale>
<asrwt>0</asrwt>
<pdfrwt beam="1">  1        3 0.17995049E+00 0.14720330E+04</pdfrwt>
<pdfrwt beam="2">  1       -3 0.71251724E-01 0.14720330E+04</pdfrwt>
<totfact> 0.94648664E-01</totfact>
</mgrwt>
</event>
<event>
11    1  0.3310322E-013  0.1145963E+04  0.7818608E-02  0.9516276E-01
         -1   -1    0    0    0  501 -0.00000000000E+00  0.00000000000E+00  0.29860426493E+03  0.29860426493E+03  0.00000000000E+00 0.  1.
          1   -1    0    0  501    0  0.00000000000E+00 -0.00000000000E+00 -0.19208061421E+04  0.19208061421E+04  0.00000000000E+00 0. -1.
    9900016    2    1    2    0    0  0.22746584834E+03 -0.13620521039E+03 -0.50933206630E+03  0.91135198205E+03  0.70770806829E+03 0.  0.
         23    2    3    3    0    0  0.72671299950E+02  0.22829553657E+03 -0.17005660975E+03  0.30655430251E+03  0.87500400077E+02 0.  0.
        -15    1    4    4    0    0  0.25798296292E+02  0.10524421086E+03 -0.12932643333E+03  0.16872232327E+03  0.00000000000E+00 0. -1.
        -15    1    1    2    0    0 -0.75664181700E+02 -0.59937903301E+02 -0.35893496528E+03  0.37168794700E+03  0.00000000000E+00 0.  1.
         15    1    4    4    0    0  0.46873003658E+02  0.12305132571E+03 -0.40730176423E+02  0.13783197924E+03  0.00000000000E+00 0.  1.
         15    1    1    2    0    0 -0.10435080848E+03 -0.16272831071E+03 -0.26443082280E+03  0.32755649037E+03  0.00000000000E+00 0. -1.
        -16    1    1    2    0    0 -0.47450858169E+02  0.35887142440E+03 -0.48950402278E+03  0.60881398761E+03  0.00000000000E+00 0.  1.
         16    1    3    3    0    0  0.18759138064E+03 -0.16365666751E+03 -0.77103472312E+02  0.26061269415E+03  0.00000000000E+00 0. -1.
    9900018    1    3    3    0    0 -0.32796832244E+02 -0.20084407945E+03 -0.26217198424E+03  0.34418498539E+03  0.91187600000E+02 0.  0.
<mgrwt>
<rscale>  0 0.83094420E+03</rscale>
<asrwt>0</asrwt>
<pdfrwt beam="1">  1        1 0.29550865E+00 0.11459629E+04</pdfrwt>
<pdfrwt beam="2">  1       -1 0.45939116E-01 0.11459629E+04</pdfrwt>
<totfact> 0.15815122E+01</totfact>
</mgrwt>
</event>
<event>
11    1  0.3310322E-013  0.9860955E+03  0.7818608E-02  0.9323928E-01
          1   -1    0    0  501    0  0.00000000000E+00  0.00000000000E+00  0.95094290890E+03  0.95094290890E+03  0.00000000000E+00 0. -1.
         -1   -1    0    0    0  501 -0.00000000000E+00 -0.00000000000E+00 -0.25563690450E+03  0.25563690450E+03  0.00000000000E+00 0.  1.
    9900016    2    1    2    0    0 -0.44956090869E+02 -0.12757946688E+02  0.49868058607E+03  0.86509418365E+03  0.70535225551E+03 0.  0.
         23    2    3    3    0    0  0.26801756504E+03 -0.80639728454E+02  0.26093801869E+03  0.39451161731E+03  0.95992633144E+02 0.  0.
        -15    1    4    4    0    0  0.57556689328E+02 -0.40036047062E+02  0.21909236729E+02  0.73455239464E+02  0.00000000000E+00 0.  1.
        -15    1    1    2    0    0  0.48009227042E+01 -0.35496438311E+02  0.11312954125E+01  0.35837491833E+02  0.00000000000E+00 0.  1.
         15    1    4    4    0    0  0.21046087571E+03 -0.40603681392E+02  0.23902878196E+03  0.32105637784E+03  0.00000000000E+00 0. -1.
         15    1    1    2    0    0  0.12440154515E+03  0.58507683427E+02  0.16659972702E+03  0.21599620945E+03  0.00000000000E+00 0. -1.
        -16    1    1    2    0    0 -0.84246376981E+02 -0.10253298428E+02  0.28894395898E+02  0.89651928465E+02  0.00000000000E+00 0.  1.
         16    1    3    3    0    0 -0.22991880426E+03  0.13288605153E+03  0.13902000466E+03  0.29974642774E+03  0.00000000000E+00 0. -1.
    9900018    1    3    3    0    0 -0.83054851640E+02 -0.65004269767E+02  0.98722562721E+02  0.17083613860E+03  0.91187600000E+02 0.  0.
<mgrwt>
<rscale>  0 0.98609554E+03</rscale>
<asrwt>0</asrwt>
<pdfrwt beam="1">  1        1 0.14629891E+00 0.98609554E+03</pdfrwt>
<pdfrwt beam="2">  1       -1 0.39328755E-01 0.98609554E+03</pdfrwt>
<totfact> 0.10420024E+02</totfact>
</mgrwt>
</event>
<event>
12    1  0.3310322E-013  0.1504531E+04  0.7818608E-02  0.8881446E-01
         -2   -1    0    0    0  501 -0.00000000000E+00  0.00000000000E+00  0.66940517188E+03  0.66940517188E+03  0.00000000000E+00 0.  1.
          2   -1    0    0  501    0  0.00000000000E+00 -0.00000000000E+00 -0.84538234482E+03  0.84538234482E+03  0.00000000000E+00 0. -1.
         23    2    1    2    0    0  0.99195899089E+02 -0.17429838778E+03  0.19362832449E+03  0.28955947423E+03  0.78313515397E+02 0.  0.
    9900016    2    1    2    0    0 -0.12492670667E+03 -0.25347443401E+02  0.87234306974E+02  0.72600550767E+03  0.70938353373E+03 0.  0.
         23    2    4    4    0    0 -0.22684470660E+03 -0.20273459097E+02 -0.14013865122E+03  0.28277744822E+03  0.91949494823E+02 0.  0.
        -15    1    5    5    0    0 -0.18604228870E+03  0.71969753556E+01 -0.14105495691E+03  0.23358088643E+03  0.00000000000E+00 0. -1.
        -15    1    3    3    0    0  0.39058928522E+02 -0.12361758859E+03  0.15460206401E+03  0.20176398663E+03  0.00000000000E+00 0. -1.
         15    1    5    5    0    0 -0.40802417904E+02 -0.27470434452E+02  0.91630568210E+00  0.49196561789E+02  0.00000000000E+00 0.  1.
         15    1    3    3    0    0  0.60136970567E+02 -0.50680799187E+02  0.39026260480E+02  0.87795487596E+02  0.00000000000E+00 0.  1.
        -16    1    1    2    0    0  0.25730807580E+02  0.19964583118E+03 -0.45683980440E+03  0.49922253480E+03  0.00000000000E+00 0.  1.
         16    1    4    4    0    0 -0.58796032447E+02 -0.11877283686E+03  0.17591381992E+03  0.22024902326E+03  0.00000000000E+00 0. -1.
    9900018    1    4    4    0    0  0.16071403238E+03  0.11369885255E+03  0.51459138275E+02  0.22297903619E+03  0.91187600000E+02 0.  0.
<mgrwt>
<rscale>  0 0.15045309E+04</rscale>
<asrwt>0</asrwt>
<pdfrwt beam="1">  1        2 0.13005882E+00 0.15045309E+04</pdfrwt>
<pdfrwt beam="2">  1       -2 0.10298541E+00 0.15045309E+04</pdfrwt>
<totfact> 0.23786544E+01</totfact>
</mgrwt>
</event>
<event>
12    1  0.3310322E-013  0.1454183E+04  0.7818608E-02  0.8915506E-01
          2   -1    0    0  501    0  0.00000000000E+00  0.00000000000E+00  0.39315933332E+04  0.39315933332E+04  0.00000000000E+00 0. -1.
         -2   -1    0    0    0  501 -0.00000000000E+00 -0.00000000000E+00 -0.13446505993E+03  0.13446505993E+03  0.00000000000E+00 0.  1.
         23    2    1    2    0    0  0.17514607135E+03  0.13842824232E+03  0.43851146254E+03  0.50307050112E+03  0.10463795552E+03 0.  0.
    9900016    2    1    2    0    0  0.37536014265E+02 -0.24411134258E+03  0.14189206996E+04  0.16088068383E+04  0.71688506136E+03 0.  0.
         23    2    4    4    0    0  0.35124288863E+03 -0.63786926986E+02  0.78796542463E+03  0.86966934074E+03  0.89414277076E+02 0.  0.
        -15    1    3    3    0    0  0.39334590559E+02  0.79159322543E+02  0.99521940904E+02  0.13310907212E+03  0.00000000000E+00 0.  1.
        -15    1    5    5    0    0  0.23809435208E+03 -0.74002671000E+02  0.60417994573E+03  0.65360440836E+03  0.00000000000E+00 0. -1.
         15    1    5    5    0    0  0.11314853655E+03  0.10215744014E+02  0.18378547889E+03  0.21606493237E+03  0.00000000000E+00 0.  1.
         15    1    3    3    0    0  0.13581148079E+03  0.59268919780E+02  0.33898952163E+03  0.36996142900E+03  0.00000000000E+00 0. -1.
        -16    1    4    4    0    0 -0.52323067186E+02  0.38911106845E+01  0.86767110926E+02  0.10139711850E+03  0.00000000000E+00 0.  1.
         16    1    1    2    0    0 -0.21268208562E+03  0.10568310025E+03  0.19396961112E+04  0.19541810538E+04  0.00000000000E+00 0. -1.
    9900018    1    4    4    0    0 -0.26138380718E+03 -0.18421552628E+03  0.54418816402E+03  0.63774037902E+03  0.91187600000E+02 0.  0.
<mgrwt>
<rscale>  0 0.14541828E+04</rscale>
<asrwt>0</asrwt>
<pdfrwt beam="1">  1        2 0.60486042E+00 0.14541828E+04</pdfrwt>
<pdfrwt beam="2">  1       -2 0.20686935E-01 0.14541828E+04</pdfrwt>
<totfact> 0.77638182E+00</totfact>
</mgrwt>
</event>
<event>
11    1  0.3310322E-013  0.1200917E+04  0.7818608E-02  0.9370134E-01
         -2   -1    0    0    0  501 -0.00000000000E+00  0.00000000000E+00  0.27621408389E+03  0.27621408389E+03  0.00000000000E+00 0.  1.
          2   -1    0    0  501    0  0.00000000000E+00 -0.00000000000E+00 -0.25312218575E+04  0.25312218575E+04  0.00000000000E+00 0. -1.
    9900016    2    1    2    0    0 -0.19687544415E+02 -0.91521656122E+02 -0.74613608586E+03  0.10398475762E+04  0.71819225152E+03 0.  0.
         23    2    3    3    0    0 -0.83850542019E+02 -0.53880405747E+02  0.89175603630E+02  0.16128781950E+03  0.90152431564E+02 0.  0.
        -15    1    1    2    0    0 -0.15074027061E+03  0.81667312627E+02 -0.30113724851E+03  0.34651958325E+03  0.00000000000E+00 0. -1.
        -15    1    4    4    0    0 -0.90845757102E+02 -0.13331264009E+02  0.72073098072E+02  0.11672705620E+03  0.00000000000E+00 0. -1.
         15    1    1    2    0    0 -0.28064500119E+03 -0.73610115652E+02 -0.46484846159E+03  0.54796364666E+03  0.00000000000E+00 0.  1.
         15    1    4    4    0    0  0.69952150831E+01 -0.40549141738E+02  0.17102505559E+02  0.44560763303E+02  0.00000000000E+00 0.  1.
        -16    1    3    3    0    0  0.77214298895E+02  0.82005629166E+02 -0.25211808498E+03  0.27613493069E+03  0.00000000000E+00 0.  1.
         16    1    1    2    0    0  0.45107281621E+03  0.83464459146E+02 -0.74288597761E+03  0.87310513525E+03  0.00000000000E+00 0. -1.
    9900018    1    3    3    0    0 -0.13051301291E+02 -0.11964687954E+03 -0.58319360451E+03  0.60242482600E+03  0.91187600000E+02 0.  0.
<mgrwt>
<rscale>  0 0.94574793E+03</rscale>
<asrwt>0</asrwt>
<pdfrwt beam="1">  1        2 0.38941875E+00 0.12009169E+04</pdfrwt>
<pdfrwt beam="2">  1       -2 0.42494474E-01 0.12009169E+04</pdfrwt>
<totfact> 0.17382140E+01</totfact>
</mgrwt>
</event>
<event>
12    1  0.3310322E-013  0.1678054E+04  0.7818608E-02  0.8773981E-01
         -1   -1    0    0    0  501 -0.00000000000E+00  0.00000000000E+00  0.36408252980E+03  0.36408252980E+03  0.00000000000E+00 0.  1.
          1   -1    0    0  501    0  0.00000000000E+00 -0.00000000000E+00 -0.19335347568E+04  0.19335347568E+04  0.00000000000E+00 0. -1.
         23    2    1    2    0    0 -0.29112015230E+03  0.54823711563E+03 -0.40772758394E+03  0.74621228441E+03  0.72636854799E+02 0.  0.
    9900016    2    1    2    0    0  0.22142738108E+03 -0.37912063939E+03 -0.86750849155E+03  0.12049650958E+04  0.71176355272E+03 0.  0.
         23    2    4    4    0    0  0.21427316785E+03  0.24608968259E+02 -0.44639571314E+03  0.50419376567E+03  0.91780329347E+02 0.  0.
        -15    1    5    5    0    0  0.46577951870E+02  0.20294855318E+02 -0.19831828082E+03  0.20472305014E+03  0.00000000000E+00 0. -1.
        -15    1    3    3    0    0 -0.24924882771E+02  0.27702433940E+02 -0.83944626365E+01  0.38198712417E+02  0.00000000000E+00 0. -1.
         15    1    5    5    0    0  0.16769521598E+03  0.43141129415E+01 -0.24807743232E+03  0.29947071553E+03  0.00000000000E+00 0.  1.
         15    1    3    3    0    0 -0.26619526952E+03  0.52053468169E+03 -0.39933312130E+03  0.70801357200E+03  0.00000000000E+00 0.  1.
        -16    1    4    4    0    0  0.86776098653E+02 -0.34815240731E+03 -0.43833121683E+03  0.56645780572E+03  0.00000000000E+00 0.  1.
         16    1    1    2    0    0  0.69692771212E+02 -0.16911647625E+03 -0.29421615150E+03  0.34643990633E+03  0.00000000000E+00 0. -1.
    9900018    1    4    4    0    0 -0.79621885423E+02 -0.55577200334E+02  0.17218438415E+02  0.13431352445E+03  0.91187600000E+02 0.  0.
<mgrwt>
<rscale>  0 0.16780539E+04</rscale>
<asrwt>0</asrwt>
<pdfrwt beam="1">  1        1 0.29746689E+00 0.16780539E+04</pdfrwt>
<pdfrwt beam="2">  1       -1 0.56012696E-01 0.16780539E+04</pdfrwt>
<totfact> 0.10165533E+01</totfact>
</mgrwt>
</event>
<event>
12    1  0.3310322E-013  0.1547934E+04  0.7818608E-02  0.8853188E-01
          2   -1    0    0  501    0  0.00000000000E+00  0.00000000000E+00  0.80100144467E+03  0.80100144467E+03  0.00000000000E+00 0.  1.
         -2   -1    0    0    0  501 -0.00000000000E+00 -0.00000000000E+00 -0.74784538205E+03  0.74784538205E+03  0.00000000000E+00 0. -1.
         23    2    1    2    0    0  0.23266743637E+02 -0.37013532574E+03  0.83829593464E+01  0.38823087970E+03  0.11450520175E+03 0.  0.
    9900016    2    1    2    0    0  0.93607069434E+02  0.12565282984E+03  0.30822888070E+03  0.78267398633E+03  0.70215568707E+03 0.  0.
         23    2    4    4    0    0 -0.20256367464E+03  0.64594679831E+02  0.96133452963E+00  0.23055037867E+03  0.89151769441E+02 0.  0.
        -15    1    5    5    0    0 -0.21904261539E+02 -0.20852725669E+02  0.50461266220E+01  0.30660988818E+02  0.00000000000E+00 0. -1.
        -15    1    3    3    0    0  0.11194341196E+02 -0.28674812586E+03 -0.42054309074E+02  0.29003166356E+03  0.00000000000E+00 0. -1.
         15    1    5    5    0    0 -0.18065941310E+03  0.85447405500E+02 -0.40847920924E+01  0.19988938985E+03  0.00000000000E+00 0.  1.
         15    1    3    3    0    0  0.12072402441E+02 -0.83387199884E+02  0.50437268421E+02  0.98199216142E+02  0.00000000000E+00 0.  1.
        -16    1    4    4    0    0  0.29334590920E+03 -0.67359933350E+02  0.20972542714E+03  0.36684320609E+03  0.00000000000E+00 0.  1.
         16    1    1    2    0    0 -0.11687381307E+03  0.24448249590E+03 -0.26345577744E+03  0.37794196069E+03  0.00000000000E+00 0. -1.
    9900018    1    4    4    0    0  0.28248348769E+01  0.12841808336E+03  0.97542119037E+02  0.18528040157E+03  0.91187600000E+02 0.  0.
<mgrwt>
<rscale>  0 0.15479344E+04</rscale>
<asrwt>0</asrwt>
<pdfrwt beam="1">  1        2 0.12323099E+00 0.15479344E+04</pdfrwt>
<pdfrwt beam="2">  1       -2 0.11505314E+00 0.15479344E+04</pdfrwt>
<totfact> 0.19499715E+01</totfact>
</mgrwt>
</event>
<event>
11    1  0.3310322E-013  0.2004925E+04  0.7818608E-02  0.8604322E-01
         -1   -1    0    0    0  501 -0.00000000000E+00  0.00000000000E+00  0.95173832738E+03  0.95173832738E+03  0.00000000000E+00 0.  1.
          1   -1    0    0  501    0  0.00000000000E+00 -0.00000000000E+00 -0.10558896447E+04  0.10558896447E+04  0.00000000000E+00 0. -1.
    9900016    2    1    2    0    0 -0.50741771030E+03 -0.32979027796E+03 -0.22914631074E+03  0.95003115123E+03  0.69556940445E+03 0.  0.
         23    2    3    3    0    0 -0.28605518857E+03 -0.24350572788E+03 -0.25185987868E+03  0.46151487115E+03  0.91869295126E+02 0.  0.
        -15    1    4    4    0    0 -0.12166126242E+03 -0.11780746141E+03 -0.61020677052E+02  0.18000995463E+03  0.00000000000E+00 0. -1.
        -15    1    1    2    0    0  0.56940888616E+03  0.12184520529E+01  0.10993962582E+02  0.56951631362E+03  0.00000000000E+00 0.  1.
         15    1    1    2    0    0  0.11363334283E+03  0.73629688997E+02 -0.41529386088E+02  0.14162823735E+03  0.00000000000E+00 0. -1.
         15    1    4    4    0    0 -0.16439392615E+03 -0.12569826647E+03 -0.19083920163E+03  0.28150491652E+03  0.00000000000E+00 0.  1.
        -16    1    3    3    0    0 -0.28959937944E+03  0.21765568820E+02  0.10800827864E+03  0.30985049429E+03  0.00000000000E+00 0.  1.
         16    1    1    2    0    0 -0.17562451869E+03  0.25494213691E+03  0.15553041691E+03  0.34645226991E+03  0.00000000000E+00 0. -1.
    9900018    1    3    3    0    0  0.68236857706E+02 -0.10805011891E+03 -0.85294710696E+02  0.17866578579E+03  0.91187600000E+02 0.  0.
<mgrwt>
<rscale>  0 0.20049246E+04</rscale>
<asrwt>0</asrwt>
<pdfrwt beam="1">  1        1 0.16244456E+00 0.20049246E+04</pdfrwt>
<pdfrwt beam="2">  1       -1 0.14642128E+00 0.20049246E+04</pdfrwt>
<totfact> 0.47282322E+00</totfact>
</mgrwt>
</event>
<event>
12    1  0.3310322E-013  0.1183934E+04  0.7818608E-02  0.9127036E-01
          2   -1    0    0  501    0  0.00000000000E+00  0.00000000000E+00  0.26265689895E+04  0.26265689895E+04  0.00000000000E+00 0. -1.
         -2   -1    0    0    0  501 -0.00000000000E+00 -0.00000000000E+00 -0.13341551141E+03  0.13341551141E+03  0.00000000000E+00 0.  1.
         23    2    1    2    0    0 -0.35771357452E+03 -0.30180822766E+02  0.66536663210E+03  0.75808938171E+03  0.55828953810E+02 0.  0.
    9900016    2    1    2    0    0  0.35945516105E+03  0.38920946168E+02  0.18262500838E+04  0.19928516399E+04  0.71101718491E+03 0.  0.
         23    2    4    4    0    0  0.19424641073E+03  0.40534423349E+02  0.76456795583E+02  0.23094017659E+03  0.90072282154E+02 0.  0.
        -15    1    3    3    0    0 -0.33757212396E+03 -0.40176936860E+02  0.63538074749E+03  0.72060933897E+03  0.00000000000E+00 0.  1.
        -15    1    5    5    0    0  0.11248835833E+03 -0.12851925749E+02  0.69935278632E+02  0.13307796945E+03  0.00000000000E+00 0. -1.
         15    1    3    3    0    0 -0.20141450555E+02  0.99961140933E+01  0.29985884615E+02  0.37480042737E+02  0.00000000000E+00 0. -1.
         15    1    5    5    0    0  0.81758052405E+02  0.53386349098E+02  0.65215169512E+01  0.97862207140E+02  0.00000000000E+00 0.  1.
        -16    1    1    2    0    0 -0.17415865337E+01 -0.87401234014E+01  0.15367622599E+01  0.90434793619E+01  0.00000000000E+00 0.  1.
         16    1    4    4    0    0  0.22018669494E+02  0.16688825326E+01  0.51807122372E+03  0.51854160857E+03  0.00000000000E+00 0. -1.
    9900018    1    4    4    0    0  0.14319008083E+03 -0.32823597138E+01  0.12317220645E+04  0.12433698547E+04  0.91187600000E+02 0.  0.
<mgrwt>
<rscale>  0 0.11839342E+04</rscale>
<asrwt>0</asrwt>
<pdfrwt beam="1">  1        2 0.40408750E+00 0.11839342E+04</pdfrwt>
<pdfrwt beam="2">  1       -2 0.20525465E-01 0.11839342E+04</pdfrwt>
<totfact> 0.59720998E+01</totfact>
</mgrwt>
</event>
