<event>
11    1  0.2075157E-012  0.2938194E+04  0.7818608E-02  0.8261604E-01
         -1   -1    0    0    0  501 -0.00000000000E+00  0.00000000000E+00  0.13658974155E+04  0.13658974155E+04  0.00000000000E+00 0.  1.
          1   -1    0    0  501    0  0.00000000000E+00 -0.00000000000E+00 -0.15800937652E+04  0.15800937652E+04  0.00000000000E+00 0. -1.
    9900016    2    1    2    0    0  0.31288681444E+03  0.19218755223E+03  0.36915469123E+03  0.22566925148E+04  0.21958032030E+04 0.  0.
        -24    2    3    3    0    0 -0.51014134061E+03  0.15013951529E+03 -0.39410530311E+03  0.66777650635E+03  0.88433087948E+02 0.  0.
        -15    1    3    3    0    0  0.65964236142E+02 -0.44719305408E+03  0.91874610051E+02  0.46127416147E+03  0.00000000000E+00 0.  1.
        -15    1    4    4    0    0 -0.29000195046E+02  0.13838301477E+02 -0.42940455157E+02  0.53632010866E+02  0.00000000000E+00 0.  1.
         15    1    4    4    0    0 -0.28429672091E+02  0.24156267980E+00 -0.36072945159E+02  0.45929968214E+02  0.00000000000E+00 0. -1.
         15    1    4    4    0    0 -0.26762343684E+03  0.83246508768E+02 -0.18104234786E+03  0.33365943248E+03  0.00000000000E+00 0. -1.
        -16    1    4    4    0    0 -0.18508803664E+03  0.52813142369E+02 -0.13404955494E+03  0.23455509479E+03  0.00000000000E+00 0.  1.
         16    1    1    2    0    0 -0.31288681444E+03 -0.19218755223E+03 -0.58335104094E+03  0.68929866593E+03  0.00000000000E+00 0. -1.
    9900018    1    3    3    0    0  0.75706391891E+03  0.48924109101E+03  0.67138538429E+03  0.11276418470E+04  0.91187600000E+02 0.  0.
<mgrwt>
<rscale>  0 0.29381940E+04</rscale>
<asrwt>0</asrwt>
<pdfrwt beam="1">  1        1 0.24309135E+00 0.29381940E+04</pdfrwt>
<pdfrwt beam="2">  1       -1 0.21013806E+00 0.29381940E+04</pdfrwt>
<totfact> 0.63209187E-01</totfact>
</mgrwt>
</event>
<event>
11    1  0.2075157E-012  0.4181217E+04  0.7818608E-02  0.7968955E-01
          2   -1    0    0  501    0  0.00000000000E+00  0.00000000000E+00  0.26374132174E+04  0.26374132174E+04  0.00000000000E+00 0. -1.
         -2   -1    0    0    0  501 -0.00000000000E+00 -0.00000000000E+00 -0.16571709201E+04  0.16571709201E+04  0.00000000000E+00 0.  1.
    9900016    2    1    2    0    0  0.12513146808E+04 -0.83760975291E+03  0.44869134584E+03  0.26977356968E+04  0.21929604277E+04 0.  0.
        -24    2    3    3    0    0  0.18684233483E+03  0.47233365966E+03 -0.49764325265E+03  0.71620960619E+03  0.85429789658E+02 0.  0.
        -15    1    4    4    0    0 -0.21647938903E+01  0.10442986688E+02 -0.19617071549E+02  0.22328721408E+02  0.00000000000E+00 0.  1.
        -15    1    3    3    0    0  0.78064456906E+03 -0.74747552170E+03  0.43519325316E+03  0.11651260732E+04  0.00000000000E+00 0.  1.
         15    1    4    4    0    0  0.32908354765E+02  0.12397609890E+03 -0.10147830254E+03  0.16355695888E+03  0.00000000000E+00 0. -1.
         15    1    4    4    0    0  0.43208987791E+01  0.13326933544E+02 -0.23095941383E+02  0.27012956749E+02  0.00000000000E+00 0. -1.
        -16    1    4    4    0    0  0.15177787517E+03  0.32458764053E+03 -0.35345193718E+03  0.50331096915E+03  0.00000000000E+00 0.  1.
         16    1    1    2    0    0 -0.12513146808E+04  0.83760975291E+03  0.53155095150E+03  0.15968484407E+04  0.00000000000E+00 0. -1.
    9900018    1    3    3    0    0  0.28382777693E+03 -0.56246789087E+03  0.51114134532E+03  0.81640001746E+03  0.91187600000E+02 0.  0.
<mgrwt>
<rscale>  0 0.41812173E+04</rscale>
<asrwt>0</asrwt>
<pdfrwt beam="1">  1        2 0.40575588E+00 0.41812173E+04</pdfrwt>
<pdfrwt beam="2">  1       -2 0.25494937E+00 0.41812173E+04</pdfrwt>
<totfact> 0.13472767E-01</totfact>
</mgrwt>
</event>
<event>
11    1  0.2075157E-012  0.2650027E+04  0.7818608E-02  0.8351404E-01
          2   -1    0    0  501    0  0.00000000000E+00  0.00000000000E+00  0.21823530965E+04  0.21823530965E+04  0.00000000000E+00 0. -1.
         -2   -1    0    0    0  501 -0.00000000000E+00 -0.00000000000E+00 -0.80448032983E+03  0.80448032983E+03  0.00000000000E+00 0.  1.
    9900016    2    1    2    0    0  0.36626170853E+03  0.18842760929E+03  0.12000435933E+04  0.25381956905E+04  0.21983357647E+04 0.  0.
        -24    2    3    3    0    0 -0.22533608545E+03  0.57072909121E+03 -0.34234887702E+02  0.61905645422E+03  0.74503818785E+02 0.  0.
        -15    1    3    3    0    0  0.52288839147E+03 -0.12650524681E+03  0.14621883144E+04  0.15580149274E+04  0.00000000000E+00 0.  1.
        -15    1    4    4    0    0 -0.90419905875E+01  0.58268330575E+01 -0.12306282932E+01  0.10827004353E+02  0.00000000000E+00 0.  1.
         15    1    4    4    0    0 -0.80482611186E+01  0.82873438132E+01  0.39858872337E+01  0.12220551197E+02  0.00000000000E+00 0. -1.
         15    1    4    4    0    0 -0.93338017564E+02  0.22940995975E+03 -0.47253682745E+01  0.24771605572E+03  0.00000000000E+00 0. -1.
        -16    1    4    4    0    0 -0.11490781618E+03  0.32720495459E+03 -0.32264778368E+02  0.34829284296E+03  0.00000000000E+00 0.  1.
         16    1    1    2    0    0 -0.36626170853E+03 -0.18842760929E+03  0.17782917337E+03  0.44863773579E+03  0.00000000000E+00 0. -1.
    9900018    1    3    3    0    0  0.68709402509E+02 -0.25579623511E+03 -0.22790983340E+03  0.36112430885E+03  0.91187600000E+02 0.  0.
<mgrwt>
<rscale>  0 0.26500265E+04</rscale>
<asrwt>0</asrwt>
<pdfrwt beam="1">  1        2 0.33574663E+00 0.26500265E+04</pdfrwt>
<pdfrwt beam="2">  1       -2 0.12376621E+00 0.26500265E+04</pdfrwt>
<totfact> 0.22876052E+00</totfact>
</mgrwt>
</event>
<event>
11    1  0.2075157E-012  0.2733303E+04  0.7818608E-02  0.8324279E-01
          2   -1    0    0  501    0  0.00000000000E+00  0.00000000000E+00  0.15358039275E+04  0.15358039275E+04  0.00000000000E+00 0. -1.
         -2   -1    0    0    0  501 -0.00000000000E+00 -0.00000000000E+00 -0.12161296434E+04  0.12161296434E+04  0.00000000000E+00 0.  1.
    9900016    2    1    2    0    0  0.13222224772E+03 -0.32264695168E+02 -0.19108592779E+03  0.22233508173E+04  0.22109390067E+04 0.  0.
        -24    2    3    3    0    0  0.69702360240E+02 -0.12972559193E+03 -0.69309995375E+03  0.71304673126E+03  0.79755544367E+02 0.  0.
        -15    1    3    3    0    0  0.58439446291E+03 -0.38707222541E+03  0.31449861120E+03  0.76827805671E+03  0.00000000000E+00 0.  1.
        -15    1    4    4    0    0  0.17204983543E+02 -0.71906587154E+01 -0.10068106560E+03  0.10239332987E+03  0.00000000000E+00 0. -1.
         15    1    4    4    0    0  0.14292398398E+02 -0.41422518071E+02 -0.23725433364E+03  0.24126689886E+03  0.00000000000E+00 0. -1.
         15    1    4    4    0    0  0.42378822747E+02 -0.34925498638E+02 -0.20460647188E+03  0.21184797240E+03  0.00000000000E+00 0.  1.
        -16    1    4    4    0    0 -0.41738444486E+01 -0.46186916504E+02 -0.15055808263E+03  0.15753853014E+03  0.00000000000E+00 0.  1.
         16    1    1    2    0    0 -0.13222224772E+03  0.32264695168E+02  0.51076021189E+03  0.52858275359E+03  0.00000000000E+00 0. -1.
    9900018    1    3    3    0    0 -0.52187457543E+03  0.48453312217E+03  0.18751541475E+03  0.74202602928E+03  0.91187600000E+02 0.  0.
<mgrwt>
<rscale>  0 0.27333033E+04</rscale>
<asrwt>0</asrwt>
<pdfrwt beam="1">  1        2 0.23627753E+00 0.27333033E+04</pdfrwt>
<pdfrwt beam="2">  1       -2 0.18709687E+00 0.27333033E+04</pdfrwt>
<totfact> 0.17192043E+00</totfact>
</mgrwt>
</event>
<event>
11    1  0.2075157E-012  0.3609152E+04  0.7818608E-02  0.8088399E-01
         -1   -1    0    0    0  501 -0.00000000000E+00  0.00000000000E+00  0.93183256261E+03  0.93183256261E+03  0.00000000000E+00 0.  1.
          1   -1    0    0  501    0  0.00000000000E+00 -0.00000000000E+00 -0.34947208361E+04  0.34947208361E+04  0.00000000000E+00 0. -1.
    9900016    2    1    2    0    0  0.64579549518E+03 -0.30319032896E+03 -0.69485723037E+03  0.24269243893E+04  0.22131785341E+04 0.  0.
        -24    2    3    3    0    0  0.19249280506E+03  0.50956757756E+03 -0.69503860683E+03  0.88658970655E+03  0.79057236805E+02 0.  0.
        -15    1    4    4    0    0  0.12774290693E+02  0.32964333055E+02 -0.43712488580E+02  0.56219315313E+02  0.00000000000E+00 0. -1.
        -15    1    3    3    0    0  0.15405957445E+03 -0.10257675232E+04 -0.27416613153E+03  0.10728934858E+04  0.00000000000E+00 0.  1.
         15    1    4    4    0    0  0.21101235249E+01  0.19968746891E+02 -0.11158973536E+02  0.22972291223E+02  0.00000000000E+00 0.  1.
         15    1    4    4    0    0  0.95356410050E+01  0.22590492664E+02 -0.50738806081E+02  0.56353218636E+02  0.00000000000E+00 0. -1.
        -16    1    4    4    0    0  0.16807274984E+03  0.43404400495E+03 -0.58942833863E+03  0.75104488138E+03  0.00000000000E+00 0.  1.
         16    1    1    2    0    0 -0.64579549518E+03  0.30319032896E+03 -0.18680310432E+04  0.19996290094E+04  0.00000000000E+00 0. -1.
    9900018    1    3    3    0    0  0.29924311566E+03  0.21300961672E+03  0.27434750798E+03  0.46744119696E+03  0.91187600000E+02 0.  0.
<mgrwt>
<rscale>  0 0.36091521E+04</rscale>
<asrwt>0</asrwt>
<pdfrwt beam="1">  1        1 0.53764936E+00 0.36091521E+04</pdfrwt>
<pdfrwt beam="2">  1       -1 0.14335886E+00 0.36091521E+04</pdfrwt>
<totfact> 0.80197060E-02</totfact>
</mgrwt>
</event>
<event>
11    1  0.2075157E-012  0.2630116E+04  0.7818608E-02  0.8358043E-01
          2   -1    0    0  501    0  0.00000000000E+00  0.00000000000E+00  0.25839780613E+04  0.25839780613E+04  0.00000000000E+00 0. -1.
         -2   -1    0    0    0  501 -0.00000000000E+00 -0.00000000000E+00 -0.66926925016E+03  0.66926925016E+03  0.00000000000E+00 0.  1.
    9900016    2    1    2    0    0  0.19486086261E+03 -0.20297452901E+03  0.12859820168E+04  0.25644318085E+04  0.22007706236E+04 0.  0.
        -24    2    3    3    0    0  0.10522958804E+03  0.36028992185E+03  0.11168354652E+04  0.11805120402E+04  0.73519568148E+02 0.  0.
        -15    1    4    4    0    0  0.49118597854E+01  0.36921465497E+02  0.67130681417E+02  0.76771409839E+02  0.00000000000E+00 0.  1.
        -15    1    3    3    0    0 -0.57363299911E+03 -0.33535899449E+03  0.46126571599E+02  0.66606916567E+03  0.00000000000E+00 0.  1.
         15    1    4    4    0    0  0.50643936858E+02  0.17625215857E+03  0.50631768723E+03  0.53850462592E+03  0.00000000000E+00 0. -1.
         15    1    4    4    0    0  0.29504011457E+01  0.11526858278E+02  0.52303113042E+02  0.53639434771E+02  0.00000000000E+00 0. -1.
        -16    1    4    4    0    0  0.46723390250E+02  0.13558943951E+03  0.49108398347E+03  0.51159656970E+03  0.00000000000E+00 0.  1.
         16    1    1    2    0    0 -0.19486086261E+03  0.20297452901E+03  0.62872679437E+03  0.68881550299E+03  0.00000000000E+00 0. -1.
    9900018    1    3    3    0    0  0.66326427368E+03 -0.22790545637E+03  0.12301998006E+03  0.71785060261E+03  0.91187600000E+02 0.  0.
<mgrwt>
<rscale>  0 0.26301156E+04</rscale>
<asrwt>0</asrwt>
<pdfrwt beam="1">  1        2 0.39753508E+00 0.26301156E+04</pdfrwt>
<pdfrwt beam="2">  1       -2 0.10296450E+00 0.26301156E+04</pdfrwt>
<totfact> 0.21135165E+00</totfact>
</mgrwt>
</event>
<event>
11    1  0.2075157E-012  0.2822919E+04  0.7818608E-02  0.8296188E-01
          1   -1    0    0  501    0  0.00000000000E+00  0.00000000000E+00  0.30630564768E+04  0.30630564768E+04  0.00000000000E+00 0. -1.
         -1   -1    0    0    0  501 -0.00000000000E+00 -0.00000000000E+00 -0.65040191377E+03  0.65040191377E+03  0.00000000000E+00 0.  1.
    9900016    2    1    2    0    0  0.20251411412E+03  0.52037072918E+03  0.18880842924E+04  0.29473176522E+04  0.21931760954E+04 0.  0.
         24    2    3    3    0    0  0.64319376986E+02  0.12284851485E+03 -0.21558950165E+03  0.26650639133E+03  0.72925191437E+02 0.  0.
        -15    1    4    4    0    0  0.33930350445E+02  0.27249424948E+02 -0.45693918345E+02  0.63100982679E+02  0.00000000000E+00 0.  1.
        -15    1    4    4    0    0  0.36547193455E+01  0.26312066288E+02 -0.31961291054E+02  0.41559667126E+02  0.00000000000E+00 0. -1.
         15    1    4    4    0    0  0.34007701080E+01  0.11642045195E+02 -0.19078351345E+01  0.12277715119E+02  0.00000000000E+00 0.  1.
         15    1    3    3    0    0 -0.21635137863E+03 -0.36002708906E+03  0.53248561733E+01  0.42006639712E+03  0.00000000000E+00 0. -1.
        -16    1    1    2    0    0 -0.20251411412E+03 -0.52037072918E+03  0.52457027054E+03  0.76614073834E+03  0.00000000000E+00 0.  1.
         16    1    4    4    0    0  0.23333537087E+02  0.57644978417E+02 -0.13602645711E+03  0.14956802641E+03  0.00000000000E+00 0. -1.
    9900018    1    3    3    0    0  0.35454611576E+03  0.75754930340E+03  0.20983489379E+04  0.22607448637E+04  0.91187600000E+02 0.  0.
<mgrwt>
<rscale>  0 0.28229189E+04</rscale>
<asrwt>0</asrwt>
<pdfrwt beam="1">  1        1 0.47123945E+00 0.28229189E+04</pdfrwt>
<pdfrwt beam="2">  1       -1 0.10006183E+00 0.28229189E+04</pdfrwt>
<totfact> 0.44164649E-01</totfact>
</mgrwt>
</event>
<event>
11    1  0.2075157E-012  0.4032152E+04  0.7818608E-02  0.7998092E-01
          1   -1    0    0  501    0  0.00000000000E+00  0.00000000000E+00  0.20154598746E+04  0.20154598746E+04  0.00000000000E+00 0. -1.
         -1   -1    0    0    0  501 -0.00000000000E+00 -0.00000000000E+00 -0.20166919463E+04  0.20166919463E+04  0.00000000000E+00 0.  1.
    9900016    2    1    2    0    0 -0.92982488033E+03 -0.14222044092E+03 -0.10586354988E+04  0.26169122760E+04  0.22006180448E+04 0.  0.
        -24    2    3    3    0    0  0.30323718387E+03  0.36854891317E+03 -0.30594044686E+03  0.57241644106E+03  0.79246033848E+02 0.  0.
        -15    1    3    3    0    0 -0.83291224735E+03  0.34917213965E+03 -0.14594137215E+03  0.91485675327E+03  0.00000000000E+00 0.  1.
        -15    1    4    4    0    0  0.46959545309E+02  0.48005539411E+02 -0.57225564222E+02  0.88229790379E+02  0.00000000000E+00 0.  1.
         15    1    4    4    0    0  0.22574818922E+02  0.82059531254E+01 -0.98164447834E+01  0.25948462464E+02  0.00000000000E+00 0. -1.
         15    1    4    4    0    0  0.57505064615E+01  0.11300475066E+02 -0.30865363110E+01  0.13049742054E+02  0.00000000000E+00 0. -1.
        -16    1    4    4    0    0  0.22795231318E+03  0.30103694557E+03 -0.23581190155E+03  0.44518844616E+03  0.00000000000E+00 0.  1.
         16    1    1    2    0    0  0.92982488033E+03  0.14222044092E+03  0.10574034271E+04  0.14152395449E+04  0.00000000000E+00 0. -1.
    9900018    1    3    3    0    0 -0.40014981685E+03 -0.85994149374E+03 -0.60675367977E+03  0.11296390817E+04  0.91187600000E+02 0.  0.
<mgrwt>
<rscale>  0 0.40321516E+04</rscale>
<asrwt>0</asrwt>
<pdfrwt beam="1">  1        1 0.31007075E+00 0.40321516E+04</pdfrwt>
<pdfrwt beam="2">  1       -1 0.31026030E+00 0.40321516E+04</pdfrwt>
<totfact> 0.64313970E-02</totfact>
</mgrwt>
</event>
<event>
11    1  0.2075157E-012  0.2618819E+04  0.7818608E-02  0.8361837E-01
         -1   -1    0    0    0  501 -0.00000000000E+00  0.00000000000E+00  0.91232665607E+03  0.91232665607E+03  0.00000000000E+00 0.  1.
          1   -1    0    0  501    0  0.00000000000E+00 -0.00000000000E+00 -0.18793188192E+04  0.18793188192E+04  0.00000000000E+00 0. -1.
    9900016    2    1    2    0    0 -0.31911020978E+03  0.56390762354E+02 -0.61657217573E+03  0.23143558236E+04  0.22070501549E+04 0.  0.
        -24    2    3    3    0    0 -0.85087536717E+02 -0.57527916767E+03  0.24338870847E+03  0.63555062977E+03  0.80625863871E+02 0.  0.
        -15    1    4    4    0    0 -0.20387144918E+01 -0.20191708910E+02  0.17362319221E+02  0.26707893856E+02  0.00000000000E+00 0.  1.
        -15    1    3    3    0    0 -0.59138231816E+03  0.70250961030E+03 -0.23204712950E+03  0.94715292804E+03  0.00000000000E+00 0.  1.
         15    1    4    4    0    0  0.63793924614E+01 -0.27504704558E+02  0.89697377189E+01  0.29625354272E+02  0.00000000000E+00 0. -1.
         15    1    4    4    0    0 -0.53765544196E+02 -0.22140724821E+03  0.75532963865E+02  0.24003568888E+03  0.00000000000E+00 0. -1.
        -16    1    4    4    0    0 -0.35662670490E+02 -0.30617550599E+03  0.14152368767E+03  0.33918169276E+03  0.00000000000E+00 0.  1.
         16    1    1    2    0    0  0.31911020978E+03 -0.56390762354E+02 -0.35041998745E+03  0.47728965175E+03  0.00000000000E+00 0. -1.
    9900018    1    3    3    0    0  0.35735964510E+03 -0.70839680273E+02 -0.62791375470E+03  0.73165226575E+03  0.91187600000E+02 0.  0.
<mgrwt>
<rscale>  0 0.26188186E+04</rscale>
<asrwt>0</asrwt>
<pdfrwt beam="1">  1        1 0.28912597E+00 0.26188186E+04</pdfrwt>
<pdfrwt beam="2">  1       -1 0.14035795E+00 0.26188186E+04</pdfrwt>
<totfact> 0.13173722E+00</totfact>
</mgrwt>
</event>
<event>
11    1  0.2075157E-012  0.3185369E+04  0.7818608E-02  0.8192692E-01
          2   -1    0    0  501    0  0.00000000000E+00  0.00000000000E+00  0.38263699487E+04  0.38263699487E+04  0.00000000000E+00 0.  1.
         -2   -1    0    0    0  501 -0.00000000000E+00 -0.00000000000E+00 -0.66293724106E+03  0.66293724106E+03  0.00000000000E+00 0. -1.
    9900016    2    1    2    0    0 -0.36239582349E+02 -0.63220985673E+02  0.11715666908E+04  0.24961086474E+04  0.22028798579E+04 0.  0.
         24    2    3    3    0    0 -0.18609512863E+03 -0.18472817110E+03  0.68966506467E+03  0.74216573136E+03  0.80101044255E+02 0.  0.
        -15    1    4    4    0    0 -0.18443062636E+02 -0.23489095909E+01  0.51833267417E+02  0.55066791688E+02  0.00000000000E+00 0.  1.
        -15    1    4    4    0    0 -0.77453869686E+02 -0.70739882706E+02  0.21994994658E+03  0.24368260491E+03  0.00000000000E+00 0.  1.
         15    1    4    4    0    0 -0.49933391415E+02 -0.35053538892E+02  0.19533598781E+03  0.20464174134E+03  0.00000000000E+00 0. -1.
         15    1    3    3    0    0  0.20431485049E+03 -0.76590691769E+03  0.22459452963E+03  0.82389360201E+03  0.00000000000E+00 0. -1.
        -16    1    1    2    0    0  0.36239582349E+02  0.63220985673E+02  0.19918660168E+04  0.19931985424E+04  0.00000000000E+00 0.  1.
         16    1    4    4    0    0 -0.40264804896E+02 -0.76585839909E+02  0.22254586286E+03  0.23877459342E+03  0.00000000000E+00 0. -1.
    9900018    1    3    3    0    0 -0.54459304201E+02  0.88741410311E+03  0.25730709654E+03  0.93004931404E+03  0.91187600000E+02 0.  0.
<mgrwt>
<rscale>  0 0.31853685E+04</rscale>
<asrwt>0</asrwt>
<pdfrwt beam="1">  1        2 0.58867229E+00 0.31853685E+04</pdfrwt>
<pdfrwt beam="2">  1       -2 0.10199035E+00 0.31853685E+04</pdfrwt>
<totfact> 0.31106567E-01</totfact>
</mgrwt>
</event>
<event>
11    1  0.2075157E-012  0.4214269E+04  0.7818608E-02  0.7962664E-01
          2   -1    0    0  501    0  0.00000000000E+00  0.00000000000E+00  0.18623622691E+04  0.18623622691E+04  0.00000000000E+00 0. -1.
         -2   -1    0    0    0  501 -0.00000000000E+00 -0.00000000000E+00 -0.23840770230E+04  0.23840770230E+04  0.00000000000E+00 0.  1.
    9900016    2    1    2    0    0 -0.14135762014E+04 -0.23808991069E+02  0.26326067979E+03  0.26293582871E+04  0.22012392580E+04 0.  0.
         24    2    3    3    0    0  0.27381753282E+03 -0.99163515393E+02 -0.43823463870E+03  0.53161049880E+03  0.75833236839E+02 0.  0.
        -15    1    4    4    0    0  0.30187166439E+02  0.43850183780E+01 -0.37240385553E+02  0.48138754865E+02  0.00000000000E+00 0.  1.
        -15    1    4    4    0    0  0.25125649402E+02 -0.11006478654E+02 -0.33135716603E+02  0.43016468300E+02  0.00000000000E+00 0. -1.
         15    1    4    4    0    0  0.66501993634E+02 -0.19098327171E+02 -0.14698240511E+03  0.16245334305E+03  0.00000000000E+00 0.  1.
         15    1    3    3    0    0 -0.78830074273E+03 -0.35342093563E+03  0.67634947803E+03  0.10971659105E+04  0.00000000000E+00 0. -1.
        -16    1    1    2    0    0  0.14135762014E+04  0.23808991069E+02 -0.78497543376E+03  0.16170810050E+04  0.00000000000E+00 0.  1.
         16    1    4    4    0    0  0.15200272335E+03 -0.73443727946E+02 -0.22087613144E+03  0.27800193258E+03  0.00000000000E+00 0. -1.
    9900018    1    3    3    0    0 -0.89909299151E+03  0.42877545995E+03  0.25145840462E+02  0.10005818778E+04  0.91187600000E+02 0.  0.
<mgrwt>
<rscale>  0 0.42142687E+04</rscale>
<asrwt>0</asrwt>
<pdfrwt beam="1">  1        2 0.28651727E+00 0.42142687E+04</pdfrwt>
<pdfrwt beam="2">  1       -2 0.36678108E+00 0.42142687E+04</pdfrwt>
<totfact> 0.75191885E-02</totfact>
</mgrwt>
</event>
<event>
11    1  0.2075157E-012  0.2380250E+04  0.7818608E-02  0.8446935E-01
          2   -1    0    0  501    0  0.00000000000E+00  0.00000000000E+00  0.11112436904E+04  0.11112436904E+04  0.00000000000E+00 0. -1.
         -2   -1    0    0    0  501 -0.00000000000E+00 -0.00000000000E+00 -0.12746059878E+04  0.12746059878E+04  0.00000000000E+00 0.  1.
    9900016    2    1    2    0    0 -0.16113177103E+03  0.10620148079E+02 -0.13321439332E+03  0.22215781612E+04  0.22116932917E+04 0.  0.
         24    2    3    3    0    0 -0.41814386482E+02 -0.24321671227E+03 -0.60441259617E+03  0.65758483371E+03  0.78742714416E+02 0.  0.
        -15    1    4    4    0    0 -0.43208974663E+01 -0.11445209897E+03 -0.32191681235E+03  0.34168463118E+03  0.00000000000E+00 0.  1.
        -15    1    4    4    0    0 -0.17932486112E+02 -0.37724955758E+02 -0.56533985391E+02  0.70291093669E+02  0.00000000000E+00 0.  1.
         15    1    4    4    0    0  0.54375531506E+01 -0.92421919030E+01 -0.25285907370E+02  0.27465655043E+02  0.00000000000E+00 0. -1.
         15    1    3    3    0    0  0.60533721397E+03  0.29193122537E+03  0.49108798699E+03  0.83236073546E+03  0.00000000000E+00 0. -1.
        -16    1    1    2    0    0  0.16113177103E+03 -0.10620148079E+02 -0.30147904095E+02  0.16427151701E+03  0.00000000000E+00 0.  1.
         16    1    4    4    0    0 -0.24998556054E+02 -0.81797465642E+02 -0.20067589106E+03  0.21814345382E+03  0.00000000000E+00 0. -1.
    9900018    1    3    3    0    0 -0.72465459852E+03 -0.38094365015E+02 -0.19889784150E+02  0.73163259202E+03  0.91187600000E+02 0.  0.
<mgrwt>
<rscale>  0 0.23802503E+04</rscale>
<asrwt>0</asrwt>
<pdfrwt beam="1">  1        2 0.17096057E+00 0.23802503E+04</pdfrwt>
<pdfrwt beam="2">  1       -2 0.19609323E+00 0.23802503E+04</pdfrwt>
<totfact> 0.27253362E+00</totfact>
</mgrwt>
</event>
<event>
11    1  0.2075157E-012  0.2286032E+04  0.7818608E-02  0.8483449E-01
         -1   -1    0    0    0  501 -0.00000000000E+00  0.00000000000E+00  0.75195493129E+03  0.75195493129E+03  0.00000000000E+00 0.  1.
          1   -1    0    0  501    0  0.00000000000E+00 -0.00000000000E+00 -0.17374527136E+04  0.17374527136E+04  0.00000000000E+00 0. -1.
    9900016    2    1    2    0    0  0.57634523308E+02  0.43790064043E+02 -0.99588590746E+03  0.24162829491E+04  0.22003170775E+04 0.  0.
         24    2    3    3    0    0 -0.85424035236E+02  0.35771474869E+02  0.73535099078E+02  0.14280619799E+03  0.80058323602E+02 0.  0.
        -15    1    4    4    0    0  0.69865291309E+01  0.14645540767E+02  0.14585046497E+02  0.21818043794E+02  0.00000000000E+00 0.  1.
        -15    1    4    4    0    0 -0.27712073582E+02  0.20309696424E+02  0.19819626429E+02  0.39664346495E+02  0.00000000000E+00 0.  1.
         15    1    3    3    0    0 -0.29514067140E+03  0.81890305334E+03 -0.10270360939E+04  0.13462961654E+04  0.00000000000E+00 0. -1.
         15    1    4    4    0    0 -0.10011261438E+02  0.98585433728E+01  0.10825322443E+01  0.14092129331E+02  0.00000000000E+00 0. -1.
        -16    1    1    2    0    0 -0.57634523308E+02 -0.43790064043E+02  0.10388125189E+02  0.73124695765E+02  0.00000000000E+00 0.  1.
         16    1    4    4    0    0 -0.54687229346E+02 -0.90423056955E+01  0.38047893908E+02  0.67231678372E+02  0.00000000000E+00 0. -1.
    9900018    1    3    3    0    0  0.43819922994E+03 -0.81088446417E+03 -0.42384912638E+02  0.92718058574E+03  0.91187600000E+02 0.  0.
<mgrwt>
<rscale>  0 0.22860325E+04</rscale>
<asrwt>0</asrwt>
<pdfrwt beam="1">  1        1 0.26730041E+00 0.22860325E+04</pdfrwt>
<pdfrwt beam="2">  1       -1 0.11568538E+00 0.22860325E+04</pdfrwt>
<totfact> 0.27515189E+00</totfact>
</mgrwt>
</event>
