<event>
11    1  0.1258509E-014  0.1947702E+04  0.7818608E-02  0.8631470E-01
         -2   -1    0    0    0  501 -0.00000000000E+00  0.00000000000E+00  0.57599161678E+03  0.57599161678E+03  0.00000000000E+00 0. -1.
          2   -1    0    0  501    0  0.00000000000E+00 -0.00000000000E+00 -0.16465272497E+04  0.16465272497E+04  0.00000000000E+00 0.  1.
    9900016    2    1    2    0    0  0.58314001945E+03  0.25338222194E+03 -0.41148089369E+03  0.10009038532E+04  0.65439832277E+03 0.  0.
         23    2    3    3    0    0 -0.87682122112E+01 -0.11020124065E+03 -0.48689999274E+02  0.13525458414E+03  0.60843171480E+02 0.  0.
        -15    1    4    4    0    0 -0.30019574976E+02 -0.39264673405E+02 -0.33367382102E+02  0.59634483712E+02  0.00000000000E+00 0.  1.
        -15    1    3    3    0    0 -0.59755020080E+01 -0.45612813413E+02 -0.51741497777E+02  0.69234514253E+02  0.00000000000E+00 0.  1.
         15    1    3    3    0    0 -0.32227364580E+01  0.12362407528E+02 -0.37108296139E+01  0.13303586230E+02  0.00000000000E+00 0. -1.
         15    1    4    4    0    0  0.21251362764E+02 -0.70936567245E+02 -0.15322617171E+02  0.75620100429E+02  0.00000000000E+00 0. -1.
        -16    1    1    2    0    0 -0.71781259997E+03 -0.37323762356E+03 -0.61127053376E+03  0.10140083421E+04  0.00000000000E+00 0.  1.
         16    1    3    3    0    0  0.60110647012E+03  0.39683386847E+03 -0.30733856703E+03  0.78311116859E+03  0.00000000000E+00 0. -1.
    9900018    1    1    2    0    0  0.13467258052E+03  0.11985540162E+03 -0.47784205471E+02  0.20760667120E+03  0.91187600000E+02 0.  0.
<mgrwt>
<rscale>  0 0.19477021E+04</rscale>
<asrwt>0</asrwt>
<pdfrwt beam="1">  1        2 0.25331188E+00 0.19477021E+04</pdfrwt>
<pdfrwt beam="2">  1       -2 0.88614096E-01 0.19477021E+04</pdfrwt>
<totfact> 0.10733687E+01</totfact>
</mgrwt>
</event>
<event>
10    1  0.1258509E-014  0.1012568E+04  0.7818608E-02  0.9294867E-01
         -1   -1    0    0    0  501 -0.00000000000E+00  0.00000000000E+00  0.19180725291E+03  0.19180725291E+03  0.00000000000E+00 0.  1.
          1   -1    0    0  501    0  0.00000000000E+00 -0.00000000000E+00 -0.13363604494E+04  0.13363604494E+04  0.00000000000E+00 0. -1.
    9900016    2    1    2    0    0 -0.15210229999E+03 -0.40863936544E+02 -0.94135918679E+03  0.11612341748E+04  0.66143988321E+03 0.  0.
        -15    1    3    3    0    0  0.78546450551E+01 -0.10374485954E+02 -0.20167585769E+02  0.24001185877E+02  0.00000000000E+00 0. -1.
        -15    1    3    3    0    0 -0.19006430661E+02 -0.19042029936E+02 -0.28620402243E+02  0.39280666175E+02  0.00000000000E+00 0. -1.
         15    1    3    3    0    0 -0.41874412941E+02 -0.21841599580E+03 -0.31746162915E+03  0.38760920998E+03  0.00000000000E+00 0.  1.
         15    1    3    3    0    0 -0.73777754004E+02 -0.88689245350E+02 -0.21247324238E+03  0.24177224397E+03  0.00000000000E+00 0.  1.
        -16    1    1    2    0    0  0.17836934707E+03  0.87247195458E+02 -0.11596796970E+03  0.22994840092E+03  0.00000000000E+00 0.  1.
         16    1    3    3    0    0 -0.25298347436E+02  0.29565782050E+03 -0.36263632725E+03  0.46857086875E+03  0.00000000000E+00 0. -1.
    9900018    1    1    2    0    0 -0.26267047084E+02 -0.46383258913E+02 -0.87226039996E+02  0.13698512663E+03  0.91187600000E+02 0.  0.
<mgrwt>
<rscale>  0 0.10125683E+04</rscale>
<asrwt>0</asrwt>
<pdfrwt beam="1">  1        1 0.20559392E+00 0.10125683E+04</pdfrwt>
<pdfrwt beam="2">  1       -1 0.29508808E-01 0.10125683E+04</pdfrwt>
<totfact> 0.89608347E+01</totfact>
</mgrwt>
</event>
<event>
11    1  0.1258509E-014  0.9270069E+03  0.7818608E-02  0.9392437E-01
         -2   -1    0    0    0  501 -0.00000000000E+00  0.00000000000E+00  0.30801848130E+03  0.30801848130E+03  0.00000000000E+00 0. -1.
          2   -1    0    0  501    0  0.00000000000E+00 -0.00000000000E+00 -0.69747581489E+03  0.69747581489E+03  0.00000000000E+00 0.  1.
    9900016    2    1    2    0    0 -0.11861452837E+03 -0.63916517542E+02 -0.36406907562E+03  0.76444383393E+03  0.65853880361E+03 0.  0.
         23    2    3    3    0    0  0.10990298107E+03 -0.41027268270E+02 -0.15875019803E+03  0.21222896475E+03  0.77959002761E+02 0.  0.
        -15    1    3    3    0    0  0.51800140816E+02 -0.27793486505E+02 -0.67325787309E+02  0.89378376118E+02  0.00000000000E+00 0.  1.
        -15    1    4    4    0    0  0.89231927194E+02 -0.66392690052E+00 -0.13275433961E+03  0.15995778291E+03  0.00000000000E+00 0. -1.
         15    1    4    4    0    0  0.20671053877E+02 -0.40363341369E+02 -0.25995858424E+02  0.52271181832E+02  0.00000000000E+00 0.  1.
         15    1    3    3    0    0  0.46271473491E+02 -0.51488242459E+02 -0.11034700031E+03  0.13026338260E+03  0.00000000000E+00 0. -1.
        -16    1    3    3    0    0 -0.32658912374E+03  0.56392479692E+02 -0.27646089972E+02  0.33257311046E+03  0.00000000000E+00 0.  1.
         16    1    1    2    0    0  0.13399648417E+03  0.14919843011E+02 -0.90400816251E+01  0.13512728282E+03  0.00000000000E+00 0. -1.
    9900018    1    1    2    0    0 -0.15381955807E+02  0.48996674531E+02 -0.16348176348E+02  0.10592317944E+03  0.91187600000E+02 0.  0.
<mgrwt>
<rscale>  0 0.92700689E+03</rscale>
<asrwt>0</asrwt>
<pdfrwt beam="1">  1        2 0.10730397E+00 0.92700689E+03</pdfrwt>
<pdfrwt beam="2">  1       -2 0.47387459E-01 0.92700689E+03</pdfrwt>
<totfact> 0.17404150E+02</totfact>
</mgrwt>
</event>
