<event>
12    1  0.1239049E-012  0.2516456E+04  0.7818608E-02  0.9208388E-01
         -2   -1    0    0    0  501 -0.00000000000E+00  0.00000000000E+00  0.54504858872E+03  0.54504858872E+03  0.00000000000E+00 0.  1.
          2   -1    0    0  501    0  0.00000000000E+00 -0.00000000000E+00 -0.31904362622E+04  0.31904362622E+04  0.00000000000E+00 0. -1.
         23    2    1    2    0    0 -0.30136464577E+02 -0.35120033753E+02 -0.23059961935E+03  0.24782770737E+03  0.78107392923E+02 0.  0.
    9900016    2    1    2    0    0 -0.77152962022E+01 -0.33404967666E+03 -0.21757651549E+04  0.28712624207E+04  0.18435143523E+04 0.  0.
         24    2    4    4    0    0 -0.88827430882E+03  0.21880874662E+02 -0.78595927599E+03  0.11879231462E+04  0.62605091491E+02 0.  0.
        -15    1    5    5    0    0 -0.18504126050E+03 -0.85343056155E+01 -0.13548288071E+03  0.22949665232E+03  0.00000000000E+00 0.  1.
        -15    1    3    3    0    0  0.14584111566E+02 -0.41983501314E+02 -0.95075589710E+02  0.10495083826E+03  0.00000000000E+00 0.  1.
         15    1    3    3    0    0 -0.44720576143E+02  0.68634675614E+01 -0.13552402964E+03  0.14287686911E+03  0.00000000000E+00 0. -1.
         15    1    4    4    0    0  0.88055901261E+03 -0.35593055132E+03 -0.13898058789E+04  0.16833392745E+04  0.00000000000E+00 0. -1.
        -16    1    1    2    0    0  0.89180521325E+01  0.29066858779E+03  0.56287405159E+02  0.29620268662E+03  0.00000000000E+00 0.  1.
         16    1    5    5    0    0 -0.70323304832E+03  0.30415180277E+02 -0.65047639528E+03  0.95842649392E+03  0.00000000000E+00 0. -1.
    9900018    1    1    2    0    0  0.28933708646E+02  0.78501122624E+02 -0.29531030439E+03  0.32019203616E+03  0.91187600000E+02 0.  0.
<mgrwt>
<rscale>  0 0.10967273E+04</rscale>
<asrwt>0</asrwt>
<pdfrwt beam="1">  1        2 0.49083634E+00 0.25164560E+04</pdfrwt>
<pdfrwt beam="2">  1       -2 0.83853630E-01 0.25164560E+04</pdfrwt>
<totfact> 0.14520487E+00</totfact>
</mgrwt>
</event>
<event>
12    1  0.1239049E-012  0.2587011E+04  0.7818608E-02  0.9023617E-01
          2   -1    0    0  501    0  0.00000000000E+00  0.00000000000E+00  0.26638678217E+04  0.26638678217E+04  0.00000000000E+00 0. -1.
         -2   -1    0    0    0  501 -0.00000000000E+00 -0.00000000000E+00 -0.76031228758E+03  0.76031228758E+03  0.00000000000E+00 0.  1.
         23    2    1    2    0    0 -0.58458111672E+02 -0.99112536310E+02  0.39474843434E+03  0.42933024852E+03  0.12352121360E+03 0.  0.
    9900016    2    1    2    0    0 -0.32429203756E+01  0.21734565417E+03  0.10492991096E+04  0.21180038154E+04  0.18269268980E+04 0.  0.
        -24    2    4    4    0    0 -0.11268649141E+03 -0.79953757129E+03  0.37341842497E+03  0.89209839925E+03  0.66630778009E+02 0.  0.
        -15    1    3    3    0    0 -0.75097258198E+02 -0.80166676623E+01  0.19673380711E+03  0.21073219026E+03  0.00000000000E+00 0. -1.
        -15    1    4    4    0    0  0.10944357104E+03  0.10168832255E+04  0.67588068460E+03  0.12259054161E+04  0.00000000000E+00 0.  1.
         15    1    3    3    0    0  0.16639146527E+02 -0.91095868647E+02  0.19801462723E+03  0.21859805827E+03  0.00000000000E+00 0.  1.
         15    1    5    5    0    0 -0.83881595774E+01 -0.28246745273E+03  0.13721756000E+03  0.31414468298E+03  0.00000000000E+00 0. -1.
        -16    1    5    5    0    0 -0.10429833184E+03 -0.51707011856E+03  0.23620086497E+03  0.57795371627E+03  0.00000000000E+00 0.  1.
         16    1    1    2    0    0 -0.21497747638E+03 -0.26534230821E+03  0.37769212713E+02  0.34358167778E+03  0.00000000000E+00 0. -1.
    9900018    1    1    2    0    0  0.27667850843E+03  0.14710919035E+03  0.42173877749E+03  0.53326436759E+03  0.91187600000E+02 0.  0.
<mgrwt>
<rscale>  0 0.13075274E+04</rscale>
<asrwt>0</asrwt>
<pdfrwt beam="1">  1        2 0.40982581E+00 0.25870112E+04</pdfrwt>
<pdfrwt beam="2">  1       -2 0.11697112E+00 0.25870112E+04</pdfrwt>
<totfact> 0.13863799E+00</totfact>
</mgrwt>
</event>
<event>
10    1  0.1239049E-012  0.3692904E+04  0.7818608E-02  0.8696152E-01
         -1   -1    0    0    0  501 -0.00000000000E+00  0.00000000000E+00  0.86202030737E+03  0.86202030737E+03  0.00000000000E+00 0.  1.
          1   -1    0    0  501    0  0.00000000000E+00 -0.00000000000E+00 -0.44398803310E+04  0.44398803310E+04  0.00000000000E+00 0. -1.
    9900016    2    1    2    0    0  0.73778183695E+03 -0.56719132059E+03 -0.28563453633E+04  0.35148881861E+04  0.18247471312E+04 0.  0.
        -15    1    1    2    0    0 -0.10052163321E+03 -0.51891986151E+02 -0.15146071332E+03  0.18904423993E+03  0.00000000000E+00 0.  1.
        -15    1    3    3    0    0 -0.46702313373E+02 -0.52862927303E+03  0.19718863683E+02  0.53105446798E+03  0.00000000000E+00 0.  1.
         15    1    3    3    0    0  0.51116298263E+03  0.19890700820E+02 -0.17197990948E+04  0.17942664688E+04  0.00000000000E+00 0. -1.
         15    1    1    2    0    0  0.41288759348E+02 -0.93236579017E+02 -0.91082216255E+02  0.13672524066E+03  0.00000000000E+00 0. -1.
        -16    1    3    3    0    0  0.27332116769E+03 -0.58452748378E+02 -0.11562651323E+04  0.11895672493E+04  0.00000000000E+00 0.  1.
         16    1    1    2    0    0 -0.86991829201E+03  0.74356956709E+03 -0.49393648272E+03  0.12464456606E+04  0.00000000000E+00 0. -1.
    9900018    1    1    2    0    0  0.19136932892E+03 -0.31249681334E+02  0.14964752055E+02  0.21479731104E+03  0.91187600000E+02 0.  0.
<mgrwt>
<rscale>  0 0.18192072E+04</rscale>
<asrwt>0</asrwt>
<pdfrwt beam="1">  1        1 0.68305851E+00 0.36929042E+04</pdfrwt>
<pdfrwt beam="2">  1       -1 0.13261851E+00 0.36929042E+04</pdfrwt>
<totfact> 0.14195352E-02</totfact>
</mgrwt>
</event>
