<event>
12    1  0.9922635E-013  0.9942020E+03  0.7818608E-02  0.9314927E-01
         -2   -1    0    0    0  501 -0.00000000000E+00  0.00000000000E+00  0.43067354644E+03  0.43067354644E+03  0.00000000000E+00 0.  1.
          2   -1    0    0  501    0  0.00000000000E+00 -0.00000000000E+00 -0.57377433205E+03  0.57377433205E+03  0.00000000000E+00 0. -1.
         23    2    1    2    0    0 -0.49925513267E+02 -0.35908091676E+02  0.56729367286E+00  0.11020125278E+03  0.91444225453E+02 0.  0.
    9900016    2    1    2    0    0 -0.54789431163E+02  0.14945528675E+02 -0.18536279910E+03  0.77960327311E+03  0.75511366399E+03 0.  0.
         23    2    4    4    0    0 -0.17083709333E+03  0.23302384262E+03  0.12246830178E+03  0.32689877853E+03  0.91536346754E+02 0.  0.
        -15    1    3    3    0    0 -0.64299350820E+02 -0.11662516556E+02 -0.27063458201E+02  0.70730838946E+02  0.00000000000E+00 0.  1.
        -15    1    5    5    0    0 -0.65984006683E+02  0.10665692815E+03  0.59568337990E+01  0.12555904320E+03  0.00000000000E+00 0. -1.
         15    1    5    5    0    0 -0.10485308664E+03  0.12636691448E+03  0.11651146798E+03  0.20133973534E+03  0.00000000000E+00 0.  1.
         15    1    3    3    0    0  0.14373837552E+02 -0.24245575120E+02  0.27630751874E+02  0.39470413831E+02  0.00000000000E+00 0. -1.
        -16    1    4    4    0    0  0.11699478340E+03 -0.20752572401E+03 -0.24314188956E+03  0.34040076957E+03  0.00000000000E+00 0.  1.
         16    1    1    2    0    0  0.10471494443E+03  0.20962563001E+02  0.41694719826E+02  0.11464335260E+03  0.00000000000E+00 0. -1.
    9900018    1    4    4    0    0 -0.94712123686E+00 -0.10552589941E+02 -0.64689211327E+02  0.11230372500E+03  0.91187600000E+02 0.  0.
<mgrwt>
<rscale>  0 0.99420204E+03</rscale>
<asrwt>0</asrwt>
<pdfrwt beam="1">  1        2 0.88272974E-01 0.99420204E+03</pdfrwt>
<pdfrwt beam="2">  1       -2 0.66257469E-01 0.99420204E+03</pdfrwt>
<totfact> 0.10958128E+02</totfact>
</mgrwt>
</event>
<event>
12    1  0.9922635E-013  0.1114947E+04  0.7818608E-02  0.9885886E-01
         -2   -1    0    0    0  501 -0.00000000000E+00  0.00000000000E+00  0.64243897515E+03  0.64243897515E+03  0.00000000000E+00 0.  1.
          2   -1    0    0  501    0  0.00000000000E+00 -0.00000000000E+00 -0.63261489639E+03  0.63261489639E+03  0.00000000000E+00 0. -1.
         23    2    1    2    0    0 -0.26918007021E+02 -0.36310423593E+02 -0.11617789842E+03  0.15300957101E+03  0.88722030956E+02 0.  0.
    9900016    2    1    2    0    0  0.16474576655E+03 -0.68428437182E+02 -0.16616756031E+03  0.78244194646E+03  0.74349184452E+03 0.  0.
         23    2    4    4    0    0  0.14420863997E+03 -0.18713836645E+03 -0.36332502944E+03  0.44248454710E+03  0.89278202069E+02 0.  0.
        -15    1    3    3    0    0 -0.35555821407E+02  0.14067510853E+01 -0.58092405671E+01  0.36054717590E+02  0.00000000000E+00 0.  1.
        -15    1    5    5    0    0  0.36491377621E+02 -0.11059123322E+03 -0.20950371972E+03  0.23969532762E+03  0.00000000000E+00 0.  1.
         15    1    5    5    0    0  0.10771726235E+03 -0.76547133226E+02 -0.15382130972E+03  0.20278921948E+03  0.00000000000E+00 0. -1.
         15    1    3    3    0    0  0.86378143853E+01 -0.37717174678E+02 -0.11036865785E+03  0.11695485342E+03  0.00000000000E+00 0. -1.
        -16    1    1    2    0    0 -0.13782775952E+03  0.10473886078E+03  0.29216953749E+03  0.33960235407E+03  0.00000000000E+00 0.  1.
         16    1    4    4    0    0 -0.28788082100E+01  0.13271138230E+03  0.20524793369E+03  0.24443263451E+03  0.00000000000E+00 0. -1.
    9900018    1    4    4    0    0  0.23415934788E+02 -0.14001453032E+02 -0.80904645590E+01  0.95524764849E+02  0.91187600000E+02 0.  0.
<mgrwt>
<rscale>  0 0.60950211E+03</rscale>
<asrwt>0</asrwt>
<pdfrwt beam="1">  1        2 0.97325369E-01 0.11149470E+04</pdfrwt>
<pdfrwt beam="2">  1       -2 0.98836765E-01 0.11149470E+04</pdfrwt>
<totfact> 0.39077403E+01</totfact>
</mgrwt>
</event>
<event>
12    1  0.9922635E-013  0.1340337E+04  0.7818608E-02  0.9301767E-01
         -2   -1    0    0    0  501 -0.00000000000E+00  0.00000000000E+00  0.41242840672E+03  0.41242840672E+03  0.00000000000E+00 0. -1.
          2   -1    0    0  501    0  0.00000000000E+00 -0.00000000000E+00 -0.19093441218E+04  0.19093441218E+04  0.00000000000E+00 0.  1.
         23    2    1    2    0    0  0.57406984185E+02 -0.41164123526E+03 -0.26595661828E+03  0.50194704798E+03  0.92053504950E+02 0.  0.
    9900016    2    1    2    0    0 -0.15893557089E+03  0.57518844201E+02 -0.30679535229E+03  0.75243076890E+03  0.66592772932E+03 0.  0.
         23    2    4    4    0    0  0.24088525890E+03  0.11250250333E+03 -0.15416502134E+03  0.32094969559E+03  0.92516658398E+02 0.  0.
        -15    1    3    3    0    0 -0.98479158308E+01 -0.19130031468E+03 -0.15413267406E+03  0.24586515218E+03  0.00000000000E+00 0.  1.
        -15    1    5    5    0    0  0.20005859069E+03  0.88487651567E+02 -0.79947966859E+02  0.23290595010E+03  0.00000000000E+00 0.  1.
         15    1    3    3    0    0  0.67254900016E+02 -0.22034092058E+03 -0.11182394422E+03  0.25608189580E+03  0.00000000000E+00 0. -1.
         15    1    5    5    0    0  0.40826668208E+02  0.24014851761E+02 -0.74217054485E+02  0.88043745482E+02  0.00000000000E+00 0. -1.
        -16    1    4    4    0    0 -0.39982082979E+03 -0.54983659126E+02 -0.15263033095E+03  0.43148107332E+03  0.00000000000E+00 0.  1.
         16    1    1    2    0    0  0.10968629235E+03  0.30954687861E+03 -0.90636125931E+03  0.96402338414E+03  0.00000000000E+00 0. -1.
    9900018    1    1    2    0    0 -0.81577056478E+01  0.44575512444E+02 -0.17802485167E+02  0.10337132747E+03  0.91187600000E+02 0.  0.
<mgrwt>
<rscale>  0 0.10062033E+04</rscale>
<asrwt>0</asrwt>
<pdfrwt beam="1">  1        2 0.29374524E+00 0.13403375E+04</pdfrwt>
<pdfrwt beam="2">  1       -2 0.63450525E-01 0.13403375E+04</pdfrwt>
<totfact> 0.16784500E+01</totfact>
</mgrwt>
</event>
<event>
12    1  0.9922635E-013  0.2749747E+04  0.7818608E-02  0.8971349E-01
          1   -1    0    0  501    0  0.00000000000E+00  0.00000000000E+00  0.80194833894E+03  0.80194833894E+03  0.00000000000E+00 0. -1.
         -1   -1    0    0    0  501 -0.00000000000E+00 -0.00000000000E+00 -0.27409931296E+04  0.27409931296E+04  0.00000000000E+00 0.  1.
         23    2    1    2    0    0 -0.74136912150E+02 -0.12663455110E+03  0.96334196874E+01  0.17271052034E+03  0.90573339261E+02 0.  0.
    9900016    2    1    2    0    0 -0.39392970355E+03 -0.93174050367E+03 -0.10672936787E+04  0.16162939257E+04  0.67079749574E+03 0.  0.
         23    2    4    4    0    0 -0.69155547203E+02 -0.37267614892E+03 -0.84846184239E+03  0.93371163916E+03  0.90884131847E+02 0.  0.
        -15    1    3    3    0    0  0.54693520390E+01 -0.19414933785E+02 -0.27498620065E+02  0.34103190042E+02  0.00000000000E+00 0.  1.
        -15    1    5    5    0    0  0.27874299029E+01 -0.21866163211E+03 -0.51206001043E+03  0.55679990428E+03  0.00000000000E+00 0.  1.
         15    1    5    5    0    0 -0.71942977106E+02 -0.15401451681E+03 -0.33640183197E+03  0.37691173488E+03  0.00000000000E+00 0. -1.
         15    1    3    3    0    0 -0.79606264189E+02 -0.10721961732E+03  0.37132039752E+02  0.13860733030E+03  0.00000000000E+00 0. -1.
        -16    1    4    4    0    0 -0.32477415635E+03 -0.55906435475E+03 -0.21883183631E+03  0.68258228659E+03  0.00000000000E+00 0.  1.
         16    1    1    2    0    0  0.53170705602E+03  0.12028600662E+04 -0.67395023175E+03  0.14777664387E+04  0.00000000000E+00 0. -1.
    9900018    1    1    2    0    0 -0.63640440313E+02 -0.14448501146E+03 -0.20743429990E+03  0.27617058379E+03  0.91187600000E+02 0.  0.
<mgrwt>
<rscale>  0 0.13760370E+04</rscale>
<asrwt>0</asrwt>
<pdfrwt beam="1">  1        1 0.12337667E+00 0.27497472E+04</pdfrwt>
<pdfrwt beam="2">  1       -1 0.42169125E+00 0.27497472E+04</pdfrwt>
<totfact> 0.96512794E-02</totfact>
</mgrwt>
</event>
<event>
12    1  0.9922635E-013  0.1648219E+04  0.7818608E-02  0.9378349E-01
          1   -1    0    0  501    0  0.00000000000E+00  0.00000000000E+00  0.13884616727E+04  0.13884616727E+04  0.00000000000E+00 0. -1.
         -1   -1    0    0    0  501 -0.00000000000E+00 -0.00000000000E+00 -0.73856484084E+03  0.73856484084E+03  0.00000000000E+00 0.  1.
         23    2    1    2    0    0  0.93266369961E+02  0.10868763778E+03 -0.20642112304E+03  0.26963396456E+03  0.97883483979E+02 0.  0.
    9900016    2    1    2    0    0 -0.34994277943E+03 -0.20445395258E+03 -0.27903607079E+02  0.77025018806E+03  0.65440459451E+03 0.  0.
         23    2    4    4    0    0 -0.28441427553E+02  0.84704876134E+02 -0.25260099820E+03  0.28294651984E+03  0.90926552558E+02 0.  0.
        -15    1    5    5    0    0 -0.55569233373E+02  0.36597218734E+02 -0.95286225268E+02  0.11621859078E+03  0.00000000000E+00 0.  1.
        -15    1    3    3    0    0 -0.71050409993E+00  0.72794067270E+02 -0.82712943961E+02  0.11018580736E+03  0.00000000000E+00 0. -1.
         15    1    5    5    0    0  0.27127805820E+02  0.48107657401E+02 -0.15731477293E+03  0.16672792906E+03  0.00000000000E+00 0. -1.
         15    1    3    3    0    0  0.93976874061E+02  0.35893570506E+02 -0.12370817907E+03  0.15944815719E+03  0.00000000000E+00 0.  1.
        -16    1    4    4    0    0 -0.32150135188E+03 -0.28915882872E+03  0.22469739112E+03  0.48730366822E+03  0.00000000000E+00 0.  1.
         16    1    1    2    0    0  0.36601371159E+03  0.16332790090E+03  0.82785644329E+03  0.91977623963E+03  0.00000000000E+00 0. -1.
    9900018    1    1    2    0    0 -0.10933730212E+03 -0.67561586090E+02  0.56365118649E+02  0.16736612125E+03  0.91187600000E+02 0.  0.
<mgrwt>
<rscale>  0 0.93879128E+03</rscale>
<asrwt>0</asrwt>
<pdfrwt beam="1">  1        1 0.21360949E+00 0.16482192E+04</pdfrwt>
<pdfrwt beam="2">  1       -1 0.11362536E+00 0.16482192E+04</pdfrwt>
<totfact> 0.52410426E+00</totfact>
</mgrwt>
</event>
<event>
12    1  0.9922635E-013  0.1287703E+04  0.7818608E-02  0.9039374E-01
         -2   -1    0    0    0  501 -0.00000000000E+00  0.00000000000E+00  0.31466464772E+03  0.31466464772E+03  0.00000000000E+00 0.  1.
          2   -1    0    0  501    0  0.00000000000E+00 -0.00000000000E+00 -0.13174175109E+04  0.13174175109E+04  0.00000000000E+00 0. -1.
         23    2    1    2    0    0 -0.11753300304E+03  0.27850564324E+02  0.75582246547E+02  0.16956648686E+03  0.91926365838E+02 0.  0.
    9900016    2    1    2    0    0  0.18043162269E+03 -0.27820100440E+02 -0.11354758128E+04  0.13775374555E+04  0.75827079033E+03 0.  0.
         23    2    4    4    0    0  0.14506574281E+03  0.33905648601E+02  0.39621623370E+02  0.17864249395E+03  0.90275161938E+02 0.  0.
        -15    1    3    3    0    0  0.12053280914E+02 -0.81586845955E+01  0.18293576522E+02  0.23377353509E+02  0.00000000000E+00 0. -1.
        -15    1    5    5    0    0  0.42303511173E+02  0.54725652840E+02  0.19653584954E+02  0.71907910120E+02  0.00000000000E+00 0.  1.
         15    1    5    5    0    0  0.10276223164E+03 -0.20820004239E+02  0.19968038416E+02  0.10673458383E+03  0.00000000000E+00 0. -1.
         15    1    3    3    0    0 -0.12958628395E+03  0.36009248919E+02  0.57288670024E+02  0.14618913335E+03  0.00000000000E+00 0.  1.
        -16    1    1    2    0    0 -0.62898619657E+02 -0.30463884193E-01  0.57140703086E+02  0.84978216220E+02  0.00000000000E+00 0.  1.
         16    1    4    4    0    0  0.39976884682E+02 -0.55252783537E+02 -0.99054812865E+03  0.99289305394E+03  0.00000000000E+00 0. -1.
    9900018    1    4    4    0    0 -0.46110047989E+01 -0.64729655039E+01 -0.18454930752E+03  0.20600190763E+03  0.91187600000E+02 0.  0.
<mgrwt>
<rscale>  0 0.12877029E+04</rscale>
<asrwt>0</asrwt>
<pdfrwt beam="1">  1        2 0.20267962E+00 0.12877029E+04</pdfrwt>
<pdfrwt beam="2">  1       -2 0.48409945E-01 0.12877029E+04</pdfrwt>
<totfact> 0.64011354E+01</totfact>
</mgrwt>
</event>
<event>
12    1  0.9922635E-013  0.1542220E+04  0.7818608E-02  0.9523864E-01
         -1   -1    0    0    0  501 -0.00000000000E+00  0.00000000000E+00  0.90483561411E+03  0.90483561411E+03  0.00000000000E+00 0.  1.
          1   -1    0    0  501    0  0.00000000000E+00 -0.00000000000E+00 -0.79358428626E+03  0.79358428626E+03  0.00000000000E+00 0. -1.
         23    2    1    2    0    0 -0.84221438067E+02 -0.27007541192E+02  0.91299157188E+02  0.15607131445E+03  0.90554189183E+02 0.  0.
    9900016    2    1    2    0    0  0.31315108615E+03 -0.12988578644E+03 -0.49045055706E+03  0.96137075116E+03  0.75416049485E+03 0.  0.
         23    2    4    4    0    0  0.63099967364E+02  0.15024368052E+03  0.94570654457E+02  0.20891005369E+03  0.90249833416E+02 0.  0.
        -15    1    5    5    0    0  0.81128848888E+02  0.80703001943E+02  0.58933483109E+02  0.12871682126E+03  0.00000000000E+00 0.  1.
        -15    1    3    3    0    0 -0.19608967627E+02  0.11464513302E+02 -0.13996323948E+02  0.26680400310E+02  0.00000000000E+00 0. -1.
         15    1    5    5    0    0 -0.18028881524E+02  0.69540678573E+02  0.35637171348E+02  0.80193232427E+02  0.00000000000E+00 0. -1.
         15    1    3    3    0    0 -0.64612470441E+02 -0.38472054495E+02  0.10529548114E+03  0.12939091414E+03  0.00000000000E+00 0.  1.
        -16    1    1    2    0    0 -0.22892964808E+03  0.15689332763E+03  0.51040272772E+03  0.58097783476E+03  0.00000000000E+00 0.  1.
         16    1    4    4    0    0  0.20783128808E+03 -0.28887581410E+03 -0.52758351206E+03  0.63638623686E+03  0.00000000000E+00 0. -1.
    9900018    1    4    4    0    0  0.42219830703E+02  0.87463471425E+01 -0.57437699463E+02  0.11607446061E+03  0.91187600000E+02 0.  0.
<mgrwt>
<rscale>  0 0.82547072E+03</rscale>
<asrwt>0</asrwt>
<pdfrwt beam="1">  1        1 0.12208989E+00 0.15422195E+04</pdfrwt>
<pdfrwt beam="2">  1       -1 0.13920548E+00 0.15422195E+04</pdfrwt>
<totfact> 0.91554275E+00</totfact>
</mgrwt>
</event>
<event>
12    1  0.9922635E-013  0.2203238E+04  0.7818608E-02  0.9267097E-01
          2   -1    0    0  501    0  0.00000000000E+00  0.00000000000E+00  0.22996945630E+04  0.22996945630E+04  0.00000000000E+00 0. -1.
         -2   -1    0    0    0  501 -0.00000000000E+00 -0.00000000000E+00 -0.58375947411E+03  0.58375947411E+03  0.00000000000E+00 0.  1.
         23    2    1    2    0    0 -0.54283386479E+02  0.25738667837E+02  0.12568917757E+03  0.16626029368E+03  0.90749935671E+02 0.  0.
    9900016    2    1    2    0    0  0.15574372945E+03  0.33184694971E+03 -0.17015081890E+03  0.78152261093E+03  0.66891537801E+03 0.  0.
         23    2    4    4    0    0 -0.18840490762E+03  0.38323375416E+02  0.11962022650E+03  0.24434328165E+03  0.91812582935E+02 0.  0.
        -15    1    5    5    0    0 -0.18210154897E+03  0.58353622615E+02  0.11392057997E+03  0.22258485562E+03  0.00000000000E+00 0.  1.
        -15    1    3    3    0    0 -0.53187666141E+02 -0.24494649137E+02  0.65657406104E+02  0.87976193610E+02  0.00000000000E+00 0.  1.
         15    1    5    5    0    0 -0.63033586464E+01 -0.20030247199E+02  0.56996465280E+01  0.21758426037E+02  0.00000000000E+00 0. -1.
         15    1    3    3    0    0 -0.10957203379E+01  0.50233316974E+02  0.60031771471E+02  0.78284100066E+02  0.00000000000E+00 0. -1.
        -16    1    4    4    0    0  0.34414863706E+03  0.29352357429E+03 -0.28977104539E+03  0.53717932928E+03  0.00000000000E+00 0.  1.
         16    1    1    2    0    0 -0.12241207191E+03 -0.35573441566E+03  0.17964238991E+04  0.18353938311E+04  0.00000000000E+00 0. -1.
    9900018    1    1    2    0    0  0.20951728942E+02 -0.18512018871E+01 -0.36027168876E+02  0.10027730144E+03  0.91187600000E+02 0.  0.
<mgrwt>
<rscale>  0 0.10386918E+04</rscale>
<asrwt>0</asrwt>
<pdfrwt beam="1">  1        2 0.35379916E+00 0.22032385E+04</pdfrwt>
<pdfrwt beam="2">  1       -2 0.89809151E-01 0.22032385E+04</pdfrwt>
<totfact> 0.43870168E+00</totfact>
</mgrwt>
</event>
<event>
12    1  0.9922635E-013  0.2330453E+04  0.7818608E-02  0.9051069E-01
         -2   -1    0    0    0  501 -0.00000000000E+00  0.00000000000E+00  0.19187396517E+04  0.19187396517E+04  0.00000000000E+00 0. -1.
          2   -1    0    0  501    0  0.00000000000E+00 -0.00000000000E+00 -0.84837347514E+03  0.84837347514E+03  0.00000000000E+00 0.  1.
         23    2    1    2    0    0 -0.13095750628E+03 -0.13254135600E+03  0.13108913224E+02  0.20805041044E+03  0.91629963298E+02 0.  0.
    9900016    2    1    2    0    0 -0.43632893826E+03 -0.28766793254E+03  0.11343981220E+04  0.14141504266E+04  0.66319420083E+03 0.  0.
         23    2    4    4    0    0  0.15817807964E+03 -0.25435631571E+02  0.16646932352E+03  0.24835004361E+03  0.91095731246E+02 0.  0.
        -15    1    3    3    0    0  0.11352347545E+02 -0.21877999650E+02  0.12807404706E+02  0.27776829891E+02  0.00000000000E+00 0. -1.
        -15    1    5    5    0    0  0.53430348694E+02 -0.53665334027E+02  0.72149119368E+02  0.10459572488E+03  0.00000000000E+00 0.  1.
         15    1    5    5    0    0  0.10474773095E+03  0.28229702456E+02  0.94320204156E+02  0.14375431873E+03  0.00000000000E+00 0. -1.
         15    1    3    3    0    0 -0.14230985383E+03 -0.11066335635E+03  0.30150851802E+00  0.18027358055E+03  0.00000000000E+00 0.  1.
        -16    1    1    2    0    0  0.62244039515E+03  0.47285211762E+03 -0.34305309606E+03  0.85364313233E+03  0.00000000000E+00 0.  1.
         16    1    4    4    0    0 -0.59450701790E+03 -0.26223230097E+03  0.96792879848E+03  0.11658003830E+04  0.00000000000E+00 0. -1.
    9900018    1    1    2    0    0 -0.55153950608E+02 -0.52642829077E+02  0.26591223741E+03  0.29126915752E+03  0.91187600000E+02 0.  0.
<mgrwt>
<rscale>  0 0.12732286E+04</rscale>
<asrwt>0</asrwt>
<pdfrwt beam="1">  1        2 0.13051900E+00 0.23304525E+04</pdfrwt>
<pdfrwt beam="2">  1       -2 0.29519071E+00 0.23304525E+04</pdfrwt>
<totfact> 0.97245526E-01</totfact>
</mgrwt>
</event>
<event>
12    1  0.9922635E-013  0.1324527E+04  0.7818608E-02  0.9631886E-01
         -2   -1    0    0    0  501 -0.00000000000E+00  0.00000000000E+00  0.32055577865E+03  0.32055577865E+03  0.00000000000E+00 0.  1.
          2   -1    0    0  501    0  0.00000000000E+00 -0.00000000000E+00 -0.19941459404E+04  0.19941459404E+04  0.00000000000E+00 0. -1.
         23    2    1    2    0    0 -0.56755831557E+02 -0.87832678129E+02  0.44987489761E+02  0.14493651389E+03  0.89704598882E+02 0.  0.
    9900016    2    1    2    0    0  0.14885069157E+03 -0.62068302247E+02 -0.42381044445E+03  0.80335983438E+03  0.66314608357E+03 0.  0.
         23    2    4    4    0    0  0.38324656628E+03 -0.32252745699E+02 -0.10838835053E+03  0.40925135842E+03  0.88433419417E+02 0.  0.
        -15    1    3    3    0    0  0.21852564382E+02 -0.29926967140E+01  0.88117915716E+01  0.23751599407E+02  0.00000000000E+00 0.  1.
        -15    1    5    5    0    0  0.28232502372E+03 -0.32123876374E+02 -0.39077785823E+02  0.28682126106E+03  0.00000000000E+00 0. -1.
         15    1    5    5    0    0  0.10092154256E+03 -0.12886932495E+00 -0.69310564709E+02  0.12243009736E+03  0.00000000000E+00 0.  1.
         15    1    3    3    0    0 -0.78608395940E+02 -0.84839981415E+02  0.36175698190E+02  0.12118491448E+03  0.00000000000E+00 0. -1.
        -16    1    4    4    0    0 -0.23439587471E+03 -0.29815556548E+02 -0.31542209392E+03  0.39410847596E+03  0.00000000000E+00 0.  1.
         16    1    1    2    0    0 -0.58762427322E+02  0.16743182816E+03 -0.12418263715E+04  0.12544397860E+04  0.00000000000E+00 0. -1.
    9900018    1    1    2    0    0 -0.33332432692E+02 -0.17530847784E+02 -0.52940835584E+02  0.11196558471E+03  0.91187600000E+02 0.  0.
<mgrwt>
<rscale>  0 0.75221229E+03</rscale>
<asrwt>0</asrwt>
<pdfrwt beam="1">  1        2 0.30679169E+00 0.13245270E+04</pdfrwt>
<pdfrwt beam="2">  1       -2 0.49316273E-01 0.13245270E+04</pdfrwt>
<totfact> 0.25592352E+01</totfact>
</mgrwt>
</event>
<event>
12    1  0.9922635E-013  0.2008910E+04  0.7818608E-02  0.9005756E-01
         -2   -1    0    0    0  501 -0.00000000000E+00  0.00000000000E+00  0.11267868928E+04  0.11267868928E+04  0.00000000000E+00 0.  1.
          2   -1    0    0  501    0  0.00000000000E+00 -0.00000000000E+00 -0.13938479683E+04  0.13938479683E+04  0.00000000000E+00 0. -1.
         23    2    1    2    0    0  0.27153415490E+03  0.25838631437E+03 -0.33372043087E+03  0.51061922687E+03  0.94172098533E+02 0.  0.
    9900016    2    1    2    0    0  0.11511624739E+03 -0.40736684688E+03  0.63579595578E+03  0.10188359788E+04  0.67423345808E+03 0.  0.
         23    2    4    4    0    0 -0.14005081786E+03 -0.39923745323E+03  0.13007196179E+03  0.45232642344E+03  0.93143450923E+02 0.  0.
        -15    1    3    3    0    0  0.14640335393E+03  0.19816475676E+03 -0.19361072854E+03  0.31335016686E+03  0.00000000000E+00 0. -1.
        -15    1    5    5    0    0 -0.11447394763E+03 -0.31850417137E+03  0.14155989718E+03  0.36686291221E+03  0.00000000000E+00 0.  1.
         15    1    5    5    0    0 -0.25576870230E+02 -0.80733281868E+02 -0.11487935399E+02  0.85463511230E+02  0.00000000000E+00 0. -1.
         15    1    3    3    0    0  0.12513080097E+03  0.60221557607E+02 -0.14010970233E+03  0.19726906001E+03  0.00000000000E+00 0.  1.
        -16    1    4    4    0    0  0.25516706525E+03 -0.81293936485E+01  0.50572399400E+03  0.56650955538E+03  0.00000000000E+00 0.  1.
         16    1    1    2    0    0 -0.42092225726E+03  0.19180343641E+03 -0.68964955549E+03  0.83040990738E+03  0.00000000000E+00 0. -1.
    9900018    1    1    2    0    0  0.34271854976E+02 -0.42822903902E+02  0.12051295504E+03  0.16076974799E+03  0.91187600000E+02 0.  0.
<mgrwt>
<rscale>  0 0.13304563E+04</rscale>
<asrwt>0</asrwt>
<pdfrwt beam="1">  1        2 0.21443815E+00 0.20089100E+04</pdfrwt>
<pdfrwt beam="2">  1       -2 0.17335183E+00 0.20089100E+04</pdfrwt>
<totfact> 0.26918446E+00</totfact>
</mgrwt>
</event>
<event>
12    1  0.9922635E-013  0.2104805E+04  0.7818608E-02  0.8559130E-01
         -2   -1    0    0    0  501 -0.00000000000E+00  0.00000000000E+00  0.58182605581E+03  0.58182605581E+03  0.00000000000E+00 0.  1.
          2   -1    0    0  501    0  0.00000000000E+00 -0.00000000000E+00 -0.19035777491E+04  0.19035777491E+04  0.00000000000E+00 0. -1.
         23    2    1    2    0    0  0.26305684740E+03  0.28968579124E+03  0.24638260756E+03  0.47090348664E+03  0.89044605751E+02 0.  0.
    9900016    2    1    2    0    0 -0.23885225674E+02 -0.45927191182E+03 -0.14495851956E+04  0.16982466111E+04  0.75580627142E+03 0.  0.
         23    2    4    4    0    0  0.14235196657E+02  0.16822156032E+03 -0.46408842342E+03  0.50221677332E+03  0.91337223895E+02 0.  0.
        -15    1    5    5    0    0 -0.19441866355E+02  0.34097989565E+02 -0.39540377360E+02  0.55714455050E+02  0.00000000000E+00 0. -1.
        -15    1    3    3    0    0  0.12831829551E+03  0.14637244222E+03  0.70487118291E+02  0.20702393738E+03  0.00000000000E+00 0. -1.
         15    1    5    5    0    0  0.33677063012E+02  0.13412357076E+03 -0.42454804606E+03  0.44650231827E+03  0.00000000000E+00 0.  1.
         15    1    3    3    0    0  0.13473855189E+03  0.14331334902E+03  0.17589548927E+03  0.26387954926E+03  0.00000000000E+00 0.  1.
        -16    1    1    2    0    0 -0.23917162172E+03  0.16958612058E+03 -0.11854910527E+03  0.31625370715E+03  0.00000000000E+00 0.  1.
         16    1    4    4    0    0 -0.69817719339E+02 -0.54399226878E+03 -0.76570807960E+03  0.94186568341E+03  0.00000000000E+00 0. -1.
    9900018    1    4    4    0    0  0.31697297008E+02 -0.83501203364E+02 -0.21978869256E+03  0.25416415438E+03  0.91187600000E+02 0.  0.
<mgrwt>
<rscale>  0 0.21048051E+04</rscale>
<asrwt>0</asrwt>
<pdfrwt beam="1">  1        2 0.29285811E+00 0.21048051E+04</pdfrwt>
<pdfrwt beam="2">  1       -2 0.89511702E-01 0.21048051E+04</pdfrwt>
<totfact> 0.74511518E+00</totfact>
</mgrwt>
</event>
<event>
12    1  0.9922635E-013  0.2819202E+04  0.7818608E-02  0.9088090E-01
         -1   -1    0    0    0  501 -0.00000000000E+00  0.00000000000E+00  0.86619182906E+03  0.86619182906E+03  0.00000000000E+00 0.  1.
          1   -1    0    0  501    0  0.00000000000E+00 -0.00000000000E+00 -0.24633419394E+04  0.24633419394E+04  0.00000000000E+00 0. -1.
         23    2    1    2    0    0 -0.45833788752E+02 -0.26880966167E+01 -0.44242431084E+02  0.11092817111E+03  0.90772817418E+02 0.  0.
    9900016    2    1    2    0    0  0.30164349171E+03 -0.54918836252E+03 -0.16280173744E+04  0.18645851195E+04  0.65851381365E+03 0.  0.
         23    2    4    4    0    0  0.18475926510E+03 -0.28985990615E+02 -0.73326390255E+02  0.22101081742E+03  0.92156650411E+02 0.  0.
        -15    1    3    3    0    0 -0.31701162836E+02  0.28956060751E+02 -0.59242332778E+02  0.73164685282E+02  0.00000000000E+00 0.  1.
        -15    1    5    5    0    0  0.14154568198E+03 -0.31794736815E+02 -0.94163875663E+02  0.17295352224E+03  0.00000000000E+00 0. -1.
         15    1    3    3    0    0 -0.14132625916E+02 -0.31644157368E+02  0.14999901694E+02  0.37763485825E+02  0.00000000000E+00 0. -1.
         15    1    5    5    0    0  0.43213583122E+02  0.28087462005E+01  0.20837485408E+02  0.48057295176E+02  0.00000000000E+00 0.  1.
        -16    1    1    2    0    0 -0.31422051022E+03  0.72142121635E+03  0.46591601227E+03  0.91447297989E+03  0.00000000000E+00 0.  1.
         16    1    4    4    0    0  0.11688422661E+03 -0.52020237191E+03 -0.15546909842E+04  0.16435743021E+04  0.00000000000E+00 0. -1.
    9900018    1    1    2    0    0  0.58410807268E+02 -0.16954475721E+03 -0.39080631706E+03  0.43954749794E+03  0.91187600000E+02 0.  0.
<mgrwt>
<rscale>  0 0.12287116E+04</rscale>
<asrwt>0</asrwt>
<pdfrwt beam="1">  1        1 0.37897568E+00 0.28192020E+04</pdfrwt>
<pdfrwt beam="2">  1       -1 0.13326028E+00 0.28192020E+04</pdfrwt>
<totfact> 0.58905541E-01</totfact>
</mgrwt>
</event>
<event>
12    1  0.9922635E-013  0.1722830E+04  0.7818608E-02  0.9318013E-01
          1   -1    0    0  501    0  0.00000000000E+00  0.00000000000E+00  0.20044759045E+04  0.20044759045E+04  0.00000000000E+00 0. -1.
         -1   -1    0    0    0  501 -0.00000000000E+00 -0.00000000000E+00 -0.47573464463E+03  0.47573464463E+03  0.00000000000E+00 0.  1.
         23    2    1    2    0    0  0.43902098002E+02 -0.16212172322E+03  0.33374493949E+03  0.38350821331E+03  0.86498657163E+02 0.  0.
    9900016    2    1    2    0    0 -0.32746744712E+03 -0.89008652883E+02  0.11444972488E+04  0.13640591412E+04  0.66001963533E+03 0.  0.
         23    2    4    4    0    0 -0.18089333294E+03 -0.27322794665E+03  0.10613547641E+04  0.11143925798E+04  0.89559911667E+02 0.  0.
        -15    1    5    5    0    0 -0.90515579377E+02 -0.17403083334E+03  0.49721150583E+03  0.53450826242E+03  0.00000000000E+00 0. -1.
        -15    1    3    3    0    0  0.23368097940E+02 -0.78950391786E+02  0.76561372308E+02  0.11243165077E+03  0.00000000000E+00 0.  1.
         15    1    3    3    0    0  0.20534000063E+02 -0.83171331436E+02  0.25718356718E+03  0.27107656254E+03  0.00000000000E+00 0. -1.
         15    1    5    5    0    0 -0.90377753565E+02 -0.99197113304E+02  0.56414325831E+03  0.57988431736E+03  0.00000000000E+00 0.  1.
        -16    1    1    2    0    0  0.40461555794E+03  0.25673694956E+03 -0.13036406077E+03  0.49661091343E+03  0.00000000000E+00 0.  1.
         16    1    4    4    0    0 -0.14657411418E+03  0.18421929376E+03  0.83142484649E+02  0.24966656143E+03  0.00000000000E+00 0. -1.
    9900018    1    1    2    0    0 -0.12105020882E+03 -0.56065734543E+01  0.18086313237E+03  0.23603228119E+03  0.91187600000E+02 0.  0.
<mgrwt>
<rscale>  0 0.99141290E+03</rscale>
<asrwt>0</asrwt>
<pdfrwt beam="1">  1        1 0.30838090E+00 0.17228304E+04</pdfrwt>
<pdfrwt beam="2">  1       -1 0.73189946E-01 0.17228304E+04</pdfrwt>
<totfact> 0.52649830E+00</totfact>
</mgrwt>
</event>
<event>
12    1  0.9922635E-013  0.1291458E+04  0.7818608E-02  0.9640307E-01
          2   -1    0    0  501    0  0.00000000000E+00  0.00000000000E+00  0.19149394841E+04  0.19149394841E+04  0.00000000000E+00 0. -1.
         -2   -1    0    0    0  501 -0.00000000000E+00 -0.00000000000E+00 -0.27634020638E+03  0.27634020638E+03  0.00000000000E+00 0.  1.
         23    2    1    2    0    0  0.69227355899E+02 -0.88421030006E+02  0.73261432306E+02  0.16195814087E+03  0.90843252789E+02 0.  0.
    9900016    2    1    2    0    0 -0.79682960617E+02 -0.17261814474E+03  0.11837361650E+04  0.13657601356E+04  0.65415826957E+03 0.  0.
         23    2    4    4    0    0  0.14634585243E+03  0.14543930492E+03  0.17892921676E+03  0.28785171241E+03  0.90957373485E+02 0.  0.
        -15    1    3    3    0    0  0.29625050107E+02 -0.97227876906E+02  0.39033545311E+02  0.10887847033E+03  0.00000000000E+00 0. -1.
        -15    1    5    5    0    0  0.50539486869E+02  0.46682150258E+02  0.11967556538E+03  0.13804239868E+03  0.00000000000E+00 0.  1.
         15    1    3    3    0    0  0.39602305792E+02  0.88068468991E+01  0.34227886995E+02  0.53079670538E+02  0.00000000000E+00 0.  1.
         15    1    5    5    0    0  0.95806365559E+02  0.98757154663E+02  0.59253651382E+02  0.14980931373E+03  0.00000000000E+00 0. -1.
        -16    1    1    2    0    0  0.82769138135E+02  0.34587228546E+03  0.13981732357E+03  0.38213512276E+03  0.00000000000E+00 0.  1.
         16    1    4    4    0    0 -0.22602881304E+03 -0.31805744966E+03  0.10048069482E+04  0.10779084232E+04  0.00000000000E+00 0. -1.
    9900018    1    1    2    0    0 -0.72313533418E+02 -0.84833110711E+02  0.24178435688E+03  0.28142629126E+03  0.91187600000E+02 0.  0.
<mgrwt>
<rscale>  0 0.74684899E+03</rscale>
<asrwt>0</asrwt>
<pdfrwt beam="1">  1        2 0.29460607E+00 0.12914579E+04</pdfrwt>
<pdfrwt beam="2">  1       -2 0.42513879E-01 0.12914579E+04</pdfrwt>
<totfact> 0.38292206E+01</totfact>
</mgrwt>
</event>
