<event>
12    1  0.4685946E-012  0.2521855E+04  0.7818608E-02  0.8749193E-01
         -2   -1    0    0    0  501 -0.00000000000E+00  0.00000000000E+00  0.62459975303E+03  0.62459975303E+03  0.00000000000E+00 0.  1.
          2   -1    0    0  501    0  0.00000000000E+00 -0.00000000000E+00 -0.47430681609E+04  0.47430681609E+04  0.00000000000E+00 0. -1.
         23    2    1    2    0    0  0.79663655244E+02 -0.53425927568E+03 -0.10898413174E+02  0.54772130926E+03  0.90003253249E+02 0.  0.
    9900016    2    1    2    0    0 -0.66687530075E+02  0.49275128445E+03 -0.14264050252E+04  0.16176881312E+04  0.57881995375E+03 0.  0.
         23    2    4    4    0    0  0.24351518575E+03  0.29365362346E+03 -0.80152746955E+03  0.89219687481E+03  0.89648662665E+02 0.  0.
        -15    1    3    3    0    0  0.52494359421E+02 -0.43509873161E+03  0.24616933851E+02  0.43894482279E+03  0.00000000000E+00 0. -1.
        -15    1    5    5    0    0  0.61368361749E+02  0.22889156372E+02 -0.12866177272E+03  0.14437396255E+03  0.00000000000E+00 0. -1.
         15    1    5    5    0    0  0.18214682400E+03  0.27076446709E+03 -0.67286569683E+03  0.74782291226E+03  0.00000000000E+00 0.  1.
         15    1    3    3    0    0  0.27169295823E+02 -0.99160544063E+02 -0.35515347025E+02  0.10877648647E+03  0.00000000000E+00 0.  1.
        -16    1    1    2    0    0  0.39668224934E+03 -0.72289046815E+03 -0.90973864731E+03  0.12278240274E+04  0.00000000000E+00 0.  1.
         16    1    4    4    0    0 -0.31020271583E+03  0.19909766099E+03 -0.62487755568E+03  0.72549125640E+03  0.00000000000E+00 0. -1.
    9900018    1    1    2    0    0 -0.40965837451E+03  0.76439845938E+03 -0.17714263221E+04  0.19744344460E+04  0.91187600000E+02 0.  0.
<mgrwt>
<rscale>  0 0.17215060E+04</rscale>
<asrwt>0</asrwt>
<pdfrwt beam="1">  1        2 0.72970279E+00 0.25218553E+04</pdfrwt>
<pdfrwt beam="2">  1       -2 0.96092270E-01 0.25218553E+04</pdfrwt>
<totfact> 0.54936577E-02</totfact>
</mgrwt>
</event>
<event>
12    1  0.4685946E-012  0.1542147E+04  0.7818608E-02  0.9427517E-01
          2   -1    0    0  501    0  0.00000000000E+00  0.00000000000E+00  0.14820763804E+04  0.14820763804E+04  0.00000000000E+00 0. -1.
         -2   -1    0    0    0  501 -0.00000000000E+00 -0.00000000000E+00 -0.54396223367E+03  0.54396223367E+03  0.00000000000E+00 0.  1.
         23    2    1    2    0    0 -0.13900434765E+03 -0.71871619312E+02 -0.61782852257E+02  0.18810167073E+03  0.84127161898E+02 0.  0.
    9900016    2    1    2    0    0 -0.46958818694E+03 -0.96003759295E+02  0.58799550028E+03  0.10841267149E+04  0.77450773941E+03 0.  0.
         23    2    4    4    0    0 -0.36292580643E+03 -0.28132676714E+03  0.15001845178E+03  0.49190410667E+03  0.92758953245E+02 0.  0.
        -15    1    5    5    0    0 -0.14249695808E+03 -0.56035653835E+02  0.55113292490E+02  0.16273552953E+03  0.00000000000E+00 0. -1.
        -15    1    3    3    0    0 -0.36651411209E+02 -0.65549927134E+02 -0.27406684968E+02  0.79945264224E+02  0.00000000000E+00 0.  1.
         15    1    3    3    0    0 -0.10235293644E+03 -0.63216921784E+01 -0.34376167288E+02  0.10815640651E+03  0.00000000000E+00 0. -1.
         15    1    5    5    0    0 -0.22042884835E+03 -0.22529111331E+03  0.94905159286E+02  0.32916857714E+03  0.00000000000E+00 0.  1.
        -16    1    1    2    0    0  0.60859253460E+03  0.16787537861E+03  0.41190149869E+03  0.75381022846E+03  0.00000000000E+00 0.  1.
         16    1    4    4    0    0  0.79497649652E+02  0.16730175238E+03  0.15845664797E+03  0.24375861408E+03  0.00000000000E+00 0. -1.
    9900018    1    4    4    0    0 -0.18616003017E+03  0.18021255463E+02  0.27952040053E+03  0.34846399411E+03  0.91187600000E+02 0.  0.
<mgrwt>
<rscale>  0 0.89845290E+03</rscale>
<asrwt>0</asrwt>
<pdfrwt beam="1">  1        2 0.22801175E+00 0.15421473E+04</pdfrwt>
<pdfrwt beam="2">  1       -2 0.83686498E-01 0.15421473E+04</pdfrwt>
<totfact> 0.15533533E+01</totfact>
</mgrwt>
</event>
<event>
12    1  0.4685946E-012  0.9956826E+03  0.7818608E-02  0.9915645E-01
         -2   -1    0    0    0  501 -0.00000000000E+00  0.00000000000E+00  0.99516649785E+02  0.99516649785E+02  0.00000000000E+00 0.  1.
          2   -1    0    0  501    0  0.00000000000E+00 -0.00000000000E+00 -0.32671139908E+04  0.32671139908E+04  0.00000000000E+00 0. -1.
         23    2    1    2    0    0  0.84174813626E+02 -0.21159841372E+02 -0.20484522708E+03  0.24104525771E+03  0.92779906609E+02 0.  0.
    9900016    2    1    2    0    0  0.79801872242E+02  0.38251257466E+02 -0.27361428627E+04  0.28453493703E+04  0.77569567252E+03 0.  0.
         23    2    4    4    0    0 -0.86755279947E+02 -0.25587324746E+03 -0.51388783047E+03  0.58774072806E+03  0.91437758856E+02 0.  0.
        -15    1    3    3    0    0  0.64131267883E+02 -0.52411258771E+02 -0.17426580436E+03  0.19294644370E+03  0.00000000000E+00 0. -1.
        -15    1    5    5    0    0 -0.44664117801E+02 -0.35079733070E+02 -0.69592702228E+02  0.89825471302E+02  0.00000000000E+00 0. -1.
         15    1    3    3    0    0  0.20043545743E+02  0.31251417399E+02 -0.30579422723E+02  0.48098814014E+02  0.00000000000E+00 0.  1.
         15    1    5    5    0    0 -0.42091162146E+02 -0.22079351439E+03 -0.44429512825E+03  0.49791525675E+03  0.00000000000E+00 0.  1.
        -16    1    1    2    0    0 -0.16397668587E+03 -0.17091416094E+02 -0.22660925127E+03  0.28023601263E+03  0.00000000000E+00 0.  1.
         16    1    4    4    0    0  0.10500629288E+03  0.21330808518E+03 -0.10058183689E+04  0.10335362848E+04  0.00000000000E+00 0. -1.
    9900018    1    4    4    0    0  0.61550859314E+02  0.80816419746E+02 -0.12164366634E+04  0.12240723575E+04  0.91187600000E+02 0.  0.
<mgrwt>
<rscale>  0 0.59509026E+03</rscale>
<asrwt>0</asrwt>
<pdfrwt beam="1">  1        2 0.50263290E+00 0.99568263E+03</pdfrwt>
<pdfrwt beam="2">  1       -2 0.15310254E-01 0.99568263E+03</pdfrwt>
<totfact> 0.40896499E+01</totfact>
</mgrwt>
</event>
<event>
12    1  0.4685946E-012  0.2602460E+04  0.7818608E-02  0.9019109E-01
         -1   -1    0    0    0  501 -0.00000000000E+00  0.00000000000E+00  0.68328258700E+03  0.68328258700E+03  0.00000000000E+00 0.  1.
          1   -1    0    0  501    0  0.00000000000E+00 -0.00000000000E+00 -0.28607404544E+04  0.28607404544E+04  0.00000000000E+00 0. -1.
         23    2    1    2    0    0  0.14142940107E+03 -0.16039742674E+02 -0.26601121088E+03  0.31502503269E+03  0.90660123983E+02 0.  0.
    9900016    2    1    2    0    0  0.28998107789E+03 -0.10510487091E+04 -0.71904087495E+03  0.15717037339E+04  0.87432284242E+03 0.  0.
         23    2    4    4    0    0 -0.16670216982E+03 -0.34560310889E+03  0.22482323884E+02  0.39317490941E+03  0.82764317207E+02 0.  0.
        -15    1    3    3    0    0  0.54096572217E+02  0.11730549533E+02 -0.18365247065E+03  0.19181312493E+03  0.00000000000E+00 0.  1.
        -15    1    5    5    0    0 -0.38957286405E+02 -0.78018570492E+02  0.40426349639E+02  0.96118974457E+02  0.00000000000E+00 0.  1.
         15    1    3    3    0    0  0.87332828849E+02 -0.27770292207E+02 -0.82358740226E+02  0.12321190777E+03  0.00000000000E+00 0. -1.
         15    1    5    5    0    0 -0.12774488342E+03 -0.26758453840E+03 -0.17944025755E+02  0.29705593495E+03  0.00000000000E+00 0. -1.
        -16    1    4    4    0    0  0.21949606421E+02 -0.56653535913E+02 -0.23615046904E+03  0.24384103917E+03  0.00000000000E+00 0.  1.
         16    1    1    2    0    0 -0.43141047895E+03  0.10670884518E+04 -0.11924057815E+04  0.16572942748E+04  0.00000000000E+00 0. -1.
    9900018    1    4    4    0    0  0.43473364129E+03 -0.64879206434E+03 -0.50537272980E+03  0.93468778532E+03  0.91187600000E+02 0.  0.
<mgrwt>
<rscale>  0 0.13132679E+04</rscale>
<asrwt>0</asrwt>
<pdfrwt beam="1">  1        1 0.44011391E+00 0.26024603E+04</pdfrwt>
<pdfrwt beam="2">  1       -1 0.10512040E+00 0.26024603E+04</pdfrwt>
<totfact> 0.56044534E-01</totfact>
</mgrwt>
</event>
<event>
12    1  0.4685946E-012  0.2136515E+04  0.7818608E-02  0.9050552E-01
          2   -1    0    0  501    0  0.00000000000E+00  0.00000000000E+00  0.19037643180E+04  0.19037643180E+04  0.00000000000E+00 0. -1.
         -2   -1    0    0    0  501 -0.00000000000E+00 -0.00000000000E+00 -0.77120787158E+03  0.77120787158E+03  0.00000000000E+00 0.  1.
         23    2    1    2    0    0 -0.25339490569E+02  0.25283832069E+03  0.32704290346E+02  0.27197994475E+03  0.91291913917E+02 0.  0.
    9900016    2    1    2    0    0  0.68009325805E+03  0.30964012253E+03  0.11957266621E+04  0.15345013606E+04  0.60541583249E+03 0.  0.
         23    2    4    4    0    0  0.20239259972E+03  0.28940020295E+03  0.22701498766E+03  0.43032575956E+03  0.94494512168E+02 0.  0.
        -15    1    3    3    0    0 -0.88285363888E+01  0.69478806629E+02 -0.31781944833E+02  0.76911245229E+02  0.00000000000E+00 0.  1.
        -15    1    5    5    0    0  0.17023759206E+03  0.18202430794E+03  0.12522908385E+03  0.27891936088E+03  0.00000000000E+00 0. -1.
         15    1    3    3    0    0 -0.16510954180E+02  0.18335951406E+03  0.64486235178E+02  0.19506869952E+03  0.00000000000E+00 0. -1.
         15    1    5    5    0    0  0.32155007661E+02  0.10737589502E+03  0.10178590381E+03  0.15140639869E+03  0.00000000000E+00 0.  1.
        -16    1    1    2    0    0 -0.65475376748E+03 -0.56247844322E+03 -0.95874505960E+02  0.86849088425E+03  0.00000000000E+00 0.  1.
         16    1    4    4    0    0  0.31208791651E+03 -0.60404143529E+02  0.66995565607E+03  0.74154440817E+03  0.00000000000E+00 0. -1.
    9900018    1    4    4    0    0  0.16561274182E+03  0.80644063112E+02  0.29875601834E+03  0.36263119289E+03  0.91187600000E+02 0.  0.
<mgrwt>
<rscale>  0 0.12738639E+04</rscale>
<asrwt>0</asrwt>
<pdfrwt beam="1">  1        2 0.29288682E+00 0.21365151E+04</pdfrwt>
<pdfrwt beam="2">  1       -2 0.11864737E+00 0.21365151E+04</pdfrwt>
<totfact> 0.37596659E+00</totfact>
</mgrwt>
</event>
<event>
12    1  0.4685946E-012  0.2712330E+04  0.7818608E-02  0.8888884E-01
          2   -1    0    0  501    0  0.00000000000E+00  0.00000000000E+00  0.23799664055E+04  0.23799664055E+04  0.00000000000E+00 0. -1.
         -2   -1    0    0    0  501 -0.00000000000E+00 -0.00000000000E+00 -0.94013605734E+03  0.94013605734E+03  0.00000000000E+00 0.  1.
         23    2    1    2    0    0 -0.28995028874E+02 -0.22949591342E+03 -0.11431747800E+00  0.24924348542E+03  0.92807413393E+02 0.  0.
    9900016    2    1    2    0    0  0.48809433269E+03  0.79055486603E+02  0.20702768352E+04  0.22766781813E+04  0.80791801514E+03 0.  0.
         23    2    4    4    0    0 -0.16519177693E+03 -0.13238947110E+03  0.37982810807E+03  0.44510322659E+03  0.95037863097E+02 0.  0.
        -15    1    5    5    0    0 -0.46945249737E+02 -0.29228307883E+02  0.32927655034E+02  0.64361330942E+02  0.00000000000E+00 0. -1.
        -15    1    3    3    0    0  0.16240525266E+00 -0.61654484218E+02  0.40942320178E+02  0.74010643703E+02  0.00000000000E+00 0.  1.
         15    1    5    5    0    0 -0.11824652720E+03 -0.10316116322E+03  0.34690045303E+03  0.38074189565E+03  0.00000000000E+00 0.  1.
         15    1    3    3    0    0 -0.29157434126E+02 -0.16784142920E+03 -0.41056637656E+02  0.17523284172E+03  0.00000000000E+00 0. -1.
        -16    1    1    2    0    0 -0.45909930381E+03  0.15044042682E+03 -0.63033216963E+03  0.79418079607E+03  0.00000000000E+00 0.  1.
         16    1    4    4    0    0  0.37361219443E+03  0.15899689912E+03  0.95345812621E+03  0.10363148577E+04  0.00000000000E+00 0. -1.
    9900018    1    4    4    0    0  0.27967391518E+03  0.52448058591E+02  0.73699060096E+03  0.79526009706E+03  0.91187600000E+02 0.  0.
<mgrwt>
<rscale>  0 0.14933543E+04</rscale>
<asrwt>0</asrwt>
<pdfrwt beam="1">  1        2 0.36614868E+00 0.27123300E+04</pdfrwt>
<pdfrwt beam="2">  1       -2 0.14463632E+00 0.27123300E+04</pdfrwt>
<totfact> 0.11691082E+00</totfact>
</mgrwt>
</event>
<event>
12    1  0.4685946E-012  0.1586047E+04  0.7818608E-02  0.9163117E-01
          1   -1    0    0  501    0  0.00000000000E+00  0.00000000000E+00  0.20441712693E+04  0.20441712693E+04  0.00000000000E+00 0. -1.
         -1   -1    0    0    0  501 -0.00000000000E+00 -0.00000000000E+00 -0.61790217245E+03  0.61790217245E+03  0.00000000000E+00 0.  1.
         23    2    1    2    0    0  0.81051694105E+02 -0.41230255297E+03  0.88920325072E+03  0.98756352668E+03  0.89646672260E+02 0.  0.
    9900016    2    1    2    0    0  0.17002431776E+03  0.60923684739E+02  0.64674836083E+02  0.67489427481E+03  0.64705446738E+03 0.  0.
         23    2    4    4    0    0  0.12400218109E+03 -0.26142588420E+03 -0.86673408676E+02  0.31582106104E+03  0.92253070290E+02 0.  0.
        -15    1    3    3    0    0  0.19715141231E+02 -0.10836517641E+03  0.33339356228E+03  0.35111674073E+03  0.00000000000E+00 0.  1.
        -15    1    5    5    0    0  0.39102240915E+02 -0.30408550522E+02  0.11479854792E+02  0.50847342659E+02  0.00000000000E+00 0.  1.
         15    1    3    3    0    0  0.61336552874E+02 -0.30393737656E+03  0.55580968844E+03  0.63644678596E+03  0.00000000000E+00 0. -1.
         15    1    5    5    0    0  0.84899940175E+02 -0.23101733368E+03 -0.98153263468E+02  0.26497371838E+03  0.00000000000E+00 0. -1.
        -16    1    4    4    0    0  0.46022136667E+02  0.32234956894E+03  0.15134824476E+03  0.35907321377E+03  0.00000000000E+00 0.  1.
         16    1    1    2    0    0 -0.37784630858E+03  0.17644475635E+03  0.60150784329E+03  0.73192367805E+03  0.00000000000E+00 0. -1.
    9900018    1    1    2    0    0  0.12677029672E+03  0.17493411188E+03 -0.12911683321E+03  0.26769196223E+03  0.91187600000E+02 0.  0.
<mgrwt>
<rscale>  0 0.11442363E+04</rscale>
<asrwt>0</asrwt>
<pdfrwt beam="1">  1        1 0.31448788E+00 0.15860466E+04</pdfrwt>
<pdfrwt beam="2">  1       -1 0.95061874E-01 0.15860466E+04</pdfrwt>
<totfact> 0.28264218E+00</totfact>
</mgrwt>
</event>
<event>
12    1  0.4685946E-012  0.1666344E+04  0.7818608E-02  0.8780796E-01
          2   -1    0    0  501    0  0.00000000000E+00  0.00000000000E+00  0.34774546327E+04  0.34774546327E+04  0.00000000000E+00 0. -1.
         -2   -1    0    0    0  501 -0.00000000000E+00 -0.00000000000E+00 -0.19962184574E+03  0.19962184574E+03  0.00000000000E+00 0.  1.
         23    2    1    2    0    0 -0.10631067799E+03  0.23714874268E+03  0.34626546198E+03  0.44225555002E+03  0.90270232933E+02 0.  0.
    9900016    2    1    2    0    0  0.18793728357E+03 -0.13536467691E+03  0.12256143037E+04  0.13970065806E+04  0.62916845646E+03 0.  0.
         23    2    4    4    0    0  0.21505529111E+03  0.16586564621E+03  0.93339336121E+03  0.97644960099E+03  0.92035132981E+02 0.  0.
        -15    1    5    5    0    0  0.87458174909E+02  0.16827646604E+02  0.33949728660E+03  0.35098505617E+03  0.00000000000E+00 0. -1.
        -15    1    3    3    0    0 -0.77108722272E+02  0.12205483151E+03  0.12422758254E+03  0.19046162135E+03  0.00000000000E+00 0. -1.
         15    1    5    5    0    0  0.12759711620E+03  0.14903799961E+03  0.59389607461E+03  0.62546454482E+03  0.00000000000E+00 0.  1.
         15    1    3    3    0    0 -0.29201955715E+02  0.11509391117E+03  0.22203787944E+03  0.25179392867E+03  0.00000000000E+00 0.  1.
        -16    1    4    4    0    0 -0.27118007537E+02 -0.30123032312E+03  0.29222094248E+03  0.42055697963E+03  0.00000000000E+00 0.  1.
         16    1    1    2    0    0 -0.12743128205E+03  0.89068612395E+02  0.15795512742E+04  0.15871843551E+04  0.00000000000E+00 0. -1.
    9900018    1    1    2    0    0  0.45804676470E+02 -0.19085267817E+03  0.12640174709E+03  0.25062999264E+03  0.91187600000E+02 0.  0.
<mgrwt>
<rscale>  0 0.16663444E+04</rscale>
<asrwt>0</asrwt>
<pdfrwt beam="1">  1        2 0.53499298E+00 0.16663444E+04</pdfrwt>
<pdfrwt beam="2">  1       -2 0.30711056E-01 0.16663444E+04</pdfrwt>
<totfact> 0.79751588E+00</totfact>
</mgrwt>
</event>
<event>
12    1  0.4685946E-012  0.1660453E+04  0.7818608E-02  0.9236726E-01
          2   -1    0    0  501    0  0.00000000000E+00  0.00000000000E+00  0.14824673359E+04  0.14824673359E+04  0.00000000000E+00 0.  1.
         -2   -1    0    0    0  501 -0.00000000000E+00 -0.00000000000E+00 -0.67283732446E+03  0.67283732446E+03  0.00000000000E+00 0. -1.
         23    2    1    2    0    0  0.11451348515E+02  0.26981922909E+03  0.31132795080E+03  0.42169310513E+03  0.89254872133E+02 0.  0.
    9900016    2    1    2    0    0 -0.91484244431E+02 -0.82333085975E+03  0.54395967831E+03  0.11724832207E+04  0.62656340439E+03 0.  0.
         23    2    4    4    0    0 -0.53678953886E+02 -0.46118726888E+02  0.29929677170E+03  0.32200925358E+03  0.95409825401E+02 0.  0.
        -15    1    5    5    0    0 -0.31591012465E+02  0.25294808273E+02  0.70251621871E+02  0.81074717203E+02  0.00000000000E+00 0. -1.
        -15    1    3    3    0    0 -0.25577974093E+02  0.10064929054E+03  0.72352022233E+02  0.12656748226E+03  0.00000000000E+00 0.  1.
         15    1    5    5    0    0 -0.22087941421E+02 -0.71413535161E+02  0.22904514983E+03  0.24093453638E+03  0.00000000000E+00 0.  1.
         15    1    3    3    0    0  0.37029322608E+02  0.16916993855E+03  0.23897592856E+03  0.29512562287E+03  0.00000000000E+00 0. -1.
        -16    1    4    4    0    0 -0.25514039910E+02 -0.29745642000E+03 -0.11726826579E+02  0.29877885885E+03  0.00000000000E+00 0.  1.
         16    1    1    2    0    0  0.80032895916E+02  0.55351163065E+03 -0.45657617673E+02  0.56112833447E+03  0.00000000000E+00 0. -1.
    9900018    1    4    4    0    0 -0.12291250635E+02 -0.47975571286E+03  0.25638973318E+03  0.55169510832E+03  0.91187600000E+02 0.  0.
<mgrwt>
<rscale>  0 0.10682268E+04</rscale>
<asrwt>0</asrwt>
<pdfrwt beam="1">  1        2 0.22807190E+00 0.16604530E+04</pdfrwt>
<pdfrwt beam="2">  1       -2 0.10351344E+00 0.16604530E+04</pdfrwt>
<totfact> 0.93484803E+00</totfact>
</mgrwt>
</event>
<event>
12    1  0.4685946E-012  0.8905759E+03  0.7818608E-02  0.1011791E+00
         -2   -1    0    0    0  501 -0.00000000000E+00  0.00000000000E+00  0.50221879085E+03  0.50221879085E+03  0.00000000000E+00 0.  1.
          2   -1    0    0  501    0  0.00000000000E+00 -0.00000000000E+00 -0.10394087588E+04  0.10394087588E+04  0.00000000000E+00 0. -1.
         23    2    1    2    0    0 -0.89912938091E-01 -0.15728940173E+02  0.30300648069E+03  0.31726834788E+03  0.92730089974E+02 0.  0.
    9900016    2    1    2    0    0  0.81968372645E+01 -0.93800538672E+02 -0.70576320834E+03  0.10507656389E+04  0.77274898416E+03 0.  0.
         23    2    4    4    0    0  0.11028381741E+03  0.66107011007E+00  0.60905116888E+02  0.15554373598E+03  0.91222054041E+02 0.  0.
        -15    1    5    5    0    0  0.32874488519E+02 -0.35204791025E+02  0.50181648248E+02  0.69557940793E+02  0.00000000000E+00 0.  1.
        -15    1    3    3    0    0 -0.46217357163E+02 -0.36355229403E+01  0.15145326796E+03  0.15838987817E+03  0.00000000000E+00 0. -1.
         15    1    3    3    0    0  0.46127444225E+02 -0.12093417233E+02  0.15155321273E+03  0.15887846972E+03  0.00000000000E+00 0.  1.
         15    1    5    5    0    0  0.77409328893E+02  0.35865861135E+02  0.10723468640E+02  0.85985795189E+02  0.00000000000E+00 0. -1.
        -16    1    1    2    0    0 -0.81069243264E+01  0.10952947885E+03 -0.13443324025E+03  0.17359356279E+03  0.00000000000E+00 0.  1.
         16    1    4    4    0    0  0.16033067537E+02 -0.20405608245E+03 -0.63728523407E+03  0.66934924636E+03  0.00000000000E+00 0. -1.
    9900018    1    4    4    0    0 -0.11812004768E+03  0.10959447366E+03 -0.12938309116E+03  0.22587265659E+03  0.91187600000E+02 0.  0.
<mgrwt>
<rscale>  0 0.50768959E+03</rscale>
<asrwt>0</asrwt>
<pdfrwt beam="1">  1        2 0.15990904E+00 0.89057587E+03</pdfrwt>
<pdfrwt beam="2">  1       -2 0.77264431E-01 0.89057587E+03</pdfrwt>
<totfact> 0.35670863E+01</totfact>
</mgrwt>
</event>
<event>
12    1  0.4685946E-012  0.1728303E+04  0.7818608E-02  0.8745385E-01
         -2   -1    0    0    0  501 -0.00000000000E+00  0.00000000000E+00  0.78939848142E+03  0.78939848142E+03  0.00000000000E+00 0.  1.
          2   -1    0    0  501    0  0.00000000000E+00 -0.00000000000E+00 -0.94598280549E+03  0.94598280549E+03  0.00000000000E+00 0. -1.
         23    2    1    2    0    0  0.10412140616E+03  0.34952169460E+03 -0.19596686965E+03  0.42400756148E+03  0.91502546255E+02 0.  0.
    9900016    2    1    2    0    0 -0.28114907484E+03 -0.30581060575E+03  0.29938018556E+03  0.99380762591E+03  0.85173949828E+03 0.  0.
         23    2    4    4    0    0  0.10882108466E+03 -0.17600168894E+03 -0.20273478002E+03  0.30304568154E+03  0.88975676979E+02 0.  0.
        -15    1    3    3    0    0 -0.37134389339E+00  0.12015931427E+03 -0.92122524256E+02  0.15140990119E+03  0.00000000000E+00 0.  1.
        -15    1    5    5    0    0  0.36449450143E+02 -0.10516870130E+03 -0.55574270773E+02  0.12440867221E+03  0.00000000000E+00 0. -1.
         15    1    3    3    0    0  0.10449275005E+03  0.22936238034E+03 -0.10384434539E+03  0.27259766029E+03  0.00000000000E+00 0. -1.
         15    1    5    5    0    0  0.72371634512E+02 -0.70832987636E+02 -0.14716050925E+03  0.17863700933E+03  0.00000000000E+00 0.  1.
        -16    1    4    4    0    0 -0.23057887435E+03 -0.88651673895E+02  0.14329069110E+03  0.28558354074E+03  0.00000000000E+00 0.  1.
         16    1    1    2    0    0  0.17702766869E+03 -0.43711088858E+02 -0.25999763998E+03  0.31756609952E+03  0.00000000000E+00 0. -1.
    9900018    1    4    4    0    0 -0.15939128515E+03 -0.41157242914E+02  0.35882427448E+03  0.40517840364E+03  0.91187600000E+02 0.  0.
<mgrwt>
<rscale>  0 0.17283025E+04</rscale>
<asrwt>0</asrwt>
<pdfrwt beam="1">  1        2 0.14553582E+00 0.17283025E+04</pdfrwt>
<pdfrwt beam="2">  1       -2 0.12144592E+00 0.17283025E+04</pdfrwt>
<totfact> 0.13366975E+01</totfact>
</mgrwt>
</event>
