<event>
11    1  0.5636761E-009  0.3679438E+04  0.7818608E-02  0.8072534E-01
          2   -1    0    0  501    0  0.00000000000E+00  0.00000000000E+00  0.25743148909E+04  0.25743148909E+04  0.00000000000E+00 0. -1.
         -2   -1    0    0    0  501 -0.00000000000E+00 -0.00000000000E+00 -0.13147444694E+04  0.13147444694E+04  0.00000000000E+00 0.  1.
    9900016    2    1    2    0    0 -0.68828099595E+03  0.12310238207E+03  0.18131550554E+04  0.26775987395E+04  0.18420420270E+04 0.  0.
         24    2    3    3    0    0 -0.26728620555E+03  0.39939476145E+03  0.16584332844E+04  0.17284728560E+04  0.79116143158E+02 0.  0.
        -15    1    4    4    0    0 -0.25562963544E+03  0.38594011162E+03  0.15208431198E+04  0.15897358508E+04  0.00000000000E+00 0.  1.
        -15    1    3    3    0    0 -0.26480760622E+03 -0.92840819947E+02  0.18757390923E+03  0.33752993583E+03  0.00000000000E+00 0.  1.
         15    1    3    3    0    0  0.23164862625E+02 -0.97553789723E+02  0.24798090843E+03  0.26748436159E+03  0.00000000000E+00 0. -1.
         15    1    3    3    0    0 -0.17935204681E+03 -0.85897769712E+02 -0.28083304671E+03  0.34411158606E+03  0.00000000000E+00 0. -1.
        -16    1    1    2    0    0  0.63536786666E+03 -0.15061091434E+03 -0.74533948613E+03  0.99091216719E+03  0.00000000000E+00 0.  1.
         16    1    4    4    0    0 -0.11656570110E+02  0.13454649831E+02  0.13759016457E+03  0.13873700521E+03  0.00000000000E+00 0. -1.
    9900018    1    1    2    0    0  0.52913129293E+02  0.27508532274E+02  0.19175485233E+03  0.22054845360E+03  0.91187600000E+02 0.  0.
<mgrwt>
<rscale>  0 0.36794381E+04</rscale>
<asrwt>0</asrwt>
<pdfrwt beam="1">  1        2 0.39604844E+00 0.36794381E+04</pdfrwt>
<pdfrwt beam="2">  1       -2 0.20226838E+00 0.36794381E+04</pdfrwt>
<totfact> 0.32785868E-01</totfact>
</mgrwt>
</event>
<event>
11    1  0.5636761E-009  0.2782795E+04  0.7818608E-02  0.8308630E-01
          2   -1    0    0  501    0  0.00000000000E+00  0.00000000000E+00  0.20336508122E+04  0.20336508122E+04  0.00000000000E+00 0. -1.
         -2   -1    0    0    0  501 -0.00000000000E+00 -0.00000000000E+00 -0.95197627273E+03  0.95197627273E+03  0.00000000000E+00 0.  1.
    9900016    2    1    2    0    0 -0.12759455635E+03  0.66229712463E+03  0.44038562310E+03  0.20201044631E+04  0.18525562590E+04 0.  0.
        -24    2    3    3    0    0 -0.46461927428E+03 -0.25150273009E+03 -0.20166941052E+03  0.57112336938E+03  0.79916573020E+02 0.  0.
        -15    1    3    3    0    0 -0.21776700702E+03  0.33072585835E+03  0.33564178285E+03  0.51909292918E+03  0.00000000000E+00 0.  1.
        -15    1    3    3    0    0  0.36728542952E+03  0.57846002926E+03  0.19799089618E+03  0.71324258647E+03  0.00000000000E+00 0.  1.
         15    1    3    3    0    0  0.18750629544E+03  0.46139671078E+01  0.10842235459E+03  0.21664557807E+03  0.00000000000E+00 0. -1.
         15    1    4    4    0    0 -0.95417582575E+02 -0.66929754951E+02 -0.77942501645E+02  0.14021105778E+03  0.00000000000E+00 0. -1.
        -16    1    4    4    0    0 -0.36920169171E+03 -0.18457297514E+03 -0.12372690887E+03  0.43091231160E+03  0.00000000000E+00 0.  1.
         16    1    1    2    0    0  0.12109539102E+03 -0.50978359663E+03  0.56920768080E+03  0.77365418179E+03  0.00000000000E+00 0. -1.
    9900018    1    1    2    0    0  0.64991653265E+01 -0.15251352800E+03  0.72081235617E+02  0.19186844007E+03  0.91187600000E+02 0.  0.
<mgrwt>
<rscale>  0 0.27827952E+04</rscale>
<asrwt>0</asrwt>
<pdfrwt beam="1">  1        2 0.31286935E+00 0.27827952E+04</pdfrwt>
<pdfrwt beam="2">  1       -2 0.14645789E+00 0.27827952E+04</pdfrwt>
<totfact> 0.17797385E+00</totfact>
</mgrwt>
</event>
<event>
11    1  0.5636761E-009  0.2286106E+04  0.7818608E-02  0.8483419E-01
          1   -1    0    0  501    0  0.00000000000E+00  0.00000000000E+00  0.38235288538E+04  0.38235288538E+04  0.00000000000E+00 0. -1.
         -1   -1    0    0    0  501 -0.00000000000E+00 -0.00000000000E+00 -0.34171842963E+03  0.34171842963E+03  0.00000000000E+00 0.  1.
    9900016    2    1    2    0    0  0.22849034690E+03 -0.14823710425E+03  0.27301350419E+04  0.33094827740E+04  0.18506368653E+04 0.  0.
        -24    2    3    3    0    0  0.17244816577E+03 -0.37615116688E+03  0.53684938024E+03  0.68248026452E+03  0.79649131690E+02 0.  0.
        -15    1    3    3    0    0 -0.17643950756E+03 -0.44742108397E+03  0.42251526621E+03  0.64018409570E+03  0.00000000000E+00 0.  1.
        -15    1    3    3    0    0  0.53313928526E+02  0.41129544520E+03  0.15350894678E+04  0.15901276655E+04  0.00000000000E+00 0.  1.
         15    1    4    4    0    0  0.10343645737E+03 -0.29304437239E+03  0.36356156459E+03  0.47827932858E+03  0.00000000000E+00 0. -1.
         15    1    3    3    0    0  0.17916776017E+03  0.26403970139E+03  0.23568092758E+03  0.39669074834E+03  0.00000000000E+00 0. -1.
        -16    1    4    4    0    0  0.69011708398E+02 -0.83106794489E+02  0.17328781565E+03  0.20420093594E+03  0.00000000000E+00 0.  1.
         16    1    1    2    0    0 -0.49477409629E+02  0.18832613835E+03  0.45822449283E+03  0.49787993962E+03  0.00000000000E+00 0. -1.
    9900018    1    1    2    0    0 -0.17901293727E+03 -0.40089034091E+02  0.29345088948E+03  0.35788456980E+03  0.91187600000E+02 0.  0.
<mgrwt>
<rscale>  0 0.22861061E+04</rscale>
<asrwt>0</asrwt>
<pdfrwt beam="1">  1        1 0.58823518E+00 0.22861061E+04</pdfrwt>
<pdfrwt beam="2">  1       -1 0.52572069E-01 0.22861061E+04</pdfrwt>
<totfact> 0.45094762E-01</totfact>
</mgrwt>
</event>
<event>
11    1  0.5636761E-009  0.2902560E+04  0.7818608E-02  0.8272116E-01
         -2   -1    0    0    0  501 -0.00000000000E+00  0.00000000000E+00  0.16556987634E+04  0.16556987634E+04  0.00000000000E+00 0. -1.
          2   -1    0    0  501    0  0.00000000000E+00 -0.00000000000E+00 -0.12720993628E+04  0.12720993628E+04  0.00000000000E+00 0.  1.
    9900016    2    1    2    0    0  0.61382150543E+01  0.72637368377E+03  0.11689042350E+03  0.20023270654E+04  0.18622550576E+04 0.  0.
         24    2    3    3    0    0  0.97006736104E+02  0.12182770458E+03 -0.43372862003E+03  0.46755187115E+03  0.78942636947E+02 0.  0.
        -15    1    3    3    0    0 -0.12128930222E+03 -0.12554539584E+03  0.25655682252E+03  0.31031297819E+03  0.00000000000E+00 0.  1.
        -15    1    4    4    0    0  0.49007319213E+02  0.98478536422E+01 -0.16689231716E+03  0.17421751658E+03  0.00000000000E+00 0.  1.
         15    1    3    3    0    0 -0.37771982447E+03  0.46870221445E+03  0.40721789971E+03  0.72676024208E+03  0.00000000000E+00 0. -1.
         15    1    3    3    0    0  0.40814060564E+03  0.26138916059E+03 -0.11315567870E+03  0.49770197394E+03  0.00000000000E+00 0. -1.
        -16    1    1    2    0    0 -0.66214343409E+02 -0.61891235793E+03  0.52909914817E+01  0.62246673860E+03  0.00000000000E+00 0.  1.
         16    1    4    4    0    0  0.47999416890E+02  0.11197985094E+03 -0.26683630287E+03  0.29333435456E+03  0.00000000000E+00 0. -1.
    9900018    1    1    2    0    0  0.60076128355E+02 -0.10746132585E+03  0.26141798555E+03  0.30300432227E+03  0.91187600000E+02 0.  0.
<mgrwt>
<rscale>  0 0.29025598E+04</rscale>
<asrwt>0</asrwt>
<pdfrwt beam="1">  1        2 0.19570759E+00 0.29025598E+04</pdfrwt>
<pdfrwt beam="2">  1       -2 0.25472289E+00 0.29025598E+04</pdfrwt>
<totfact> 0.89027488E-01</totfact>
</mgrwt>
</event>
<event>
11    1  0.5636761E-009  0.2602542E+04  0.7818608E-02  0.8367338E-01
          1   -1    0    0  501    0  0.00000000000E+00  0.00000000000E+00  0.18593767596E+04  0.18593767596E+04  0.00000000000E+00 0. -1.
         -1   -1    0    0    0  501 -0.00000000000E+00 -0.00000000000E+00 -0.91068508975E+03  0.91068508975E+03  0.00000000000E+00 0.  1.
    9900016    2    1    2    0    0  0.28863078297E+02  0.49276446615E+03  0.54295779388E+03  0.19792309366E+04  0.18381790006E+04 0.  0.
         24    2    3    3    0    0 -0.15658123878E+03 -0.35696648348E+03  0.10200215485E+03  0.41056403094E+03  0.78839262059E+02 0.  0.
        -15    1    4    4    0    0 -0.14563244094E+03 -0.24850121860E+03  0.63491876318E+02  0.29494555745E+03  0.00000000000E+00 0.  1.
        -15    1    3    3    0    0 -0.25191593917E+03  0.19217456477E+03 -0.84674986856E+02  0.32796731111E+03  0.00000000000E+00 0.  1.
         15    1    3    3    0    0 -0.97836177475E+02  0.40114501820E+03  0.49758070285E+03  0.64658781237E+03  0.00000000000E+00 0. -1.
         15    1    3    3    0    0  0.53519643372E+03  0.25641136665E+03  0.28049923039E+02  0.59411178224E+03  0.00000000000E+00 0. -1.
        -16    1    1    2    0    0  0.14148269367E+03 -0.45054994357E+03  0.22578240456E+03  0.52344082614E+03  0.00000000000E+00 0.  1.
         16    1    4    4    0    0 -0.10948797833E+02 -0.10846526488E+03  0.38510278527E+02  0.11561847349E+03  0.00000000000E+00 0. -1.
    9900018    1    1    2    0    0 -0.17034577197E+03 -0.42214522581E+02  0.17995147144E+03  0.26739008660E+03  0.91187600000E+02 0.  0.
<mgrwt>
<rscale>  0 0.26025424E+04</rscale>
<asrwt>0</asrwt>
<pdfrwt beam="1">  1        1 0.28605796E+00 0.26025424E+04</pdfrwt>
<pdfrwt beam="2">  1       -1 0.14010540E+00 0.26025424E+04</pdfrwt>
<totfact> 0.13674646E+00</totfact>
</mgrwt>
</event>
<event>
11    1  0.5636761E-009  0.2804475E+04  0.7818608E-02  0.8301880E-01
         -2   -1    0    0    0  501 -0.00000000000E+00  0.00000000000E+00  0.17760657864E+04  0.17760657864E+04  0.00000000000E+00 0.  1.
          2   -1    0    0  501    0  0.00000000000E+00 -0.00000000000E+00 -0.11070929989E+04  0.11070929989E+04  0.00000000000E+00 0. -1.
    9900016    2    1    2    0    0 -0.19220206074E+03  0.34842025045E+03  0.54695385936E+03  0.19656069141E+04  0.18455659602E+04 0.  0.
        -24    2    3    3    0    0  0.45285050852E+03 -0.61661153848E+02  0.14887575601E+02  0.46347300859E+03  0.75563938692E+02 0.  0.
        -15    1    3    3    0    0 -0.22521514778E+03  0.35894356847E+03 -0.32484862747E+03  0.53393724248E+03  0.00000000000E+00 0.  1.
        -15    1    3    3    0    0 -0.16416336727E+03 -0.55234835685E+02  0.30687609455E+03  0.35238251323E+03  0.00000000000E+00 0.  1.
         15    1    3    3    0    0 -0.25567405420E+03  0.10637267151E+03  0.55003881668E+03  0.61581414980E+03  0.00000000000E+00 0. -1.
         15    1    4    4    0    0  0.97152140757E+02  0.97826281614E+01 -0.17607767841E+02  0.99218303532E+02  0.00000000000E+00 0. -1.
        -16    1    4    4    0    0  0.35569836776E+03 -0.71443782009E+02  0.32495343442E+02  0.36425470506E+03  0.00000000000E+00 0.  1.
         16    1    1    2    0    0  0.25764438765E+03  0.95870448588E+02 -0.21477023288E+03  0.34885244206E+03  0.00000000000E+00 0. -1.
    9900018    1    1    2    0    0 -0.65442326913E+02 -0.44429069904E+03  0.33678916102E+03  0.56869942921E+03  0.91187600000E+02 0.  0.
<mgrwt>
<rscale>  0 0.28044750E+04</rscale>
<asrwt>0</asrwt>
<pdfrwt beam="1">  1        2 0.17032200E+00 0.28044750E+04</pdfrwt>
<pdfrwt beam="2">  1       -2 0.27324089E+00 0.28044750E+04</pdfrwt>
<totfact> 0.86872607E-01</totfact>
</mgrwt>
</event>
<event>
11    1  0.5636761E-009  0.3565072E+04  0.7818608E-02  0.8098539E-01
         -1   -1    0    0    0  501 -0.00000000000E+00  0.00000000000E+00  0.23603642508E+04  0.23603642508E+04  0.00000000000E+00 0.  1.
          1   -1    0    0  501    0  0.00000000000E+00 -0.00000000000E+00 -0.13461630948E+04  0.13461630948E+04  0.00000000000E+00 0. -1.
    9900016    2    1    2    0    0 -0.18678469541E+03  0.97782554456E+03 -0.64846608547E+02  0.20955172129E+04  0.18428119787E+04 0.  0.
         24    2    3    3    0    0  0.20716907623E+03  0.68390732155E+03  0.62012877554E+03  0.94950581586E+03  0.79707875858E+02 0.  0.
        -15    1    3    3    0    0 -0.29627246136E+03 -0.14546905948E+03 -0.55969728990E+02  0.33477041266E+03  0.00000000000E+00 0.  1.
        -15    1    4    4    0    0  0.46799541777E+02  0.76373328113E+02  0.95575121817E+02  0.13098735156E+03  0.00000000000E+00 0.  1.
         15    1    3    3    0    0  0.11783361524E+02  0.10378725282E+03 -0.33794409484E+03  0.35371860666E+03  0.00000000000E+00 0. -1.
         15    1    3    3    0    0 -0.10946467181E+03  0.33560002967E+03 -0.29106156025E+03  0.45752237775E+03  0.00000000000E+00 0. -1.
        -16    1    1    2    0    0 -0.46292172276E+02 -0.63398521686E+03  0.98998742708E+03  0.11765013073E+04  0.00000000000E+00 0.  1.
         16    1    4    4    0    0  0.16036953446E+03  0.60753399344E+03  0.52455365372E+03  0.81851846430E+03  0.00000000000E+00 0. -1.
    9900018    1    1    2    0    0  0.23307686769E+03 -0.34384032770E+03  0.89060337466E+02  0.43450882535E+03  0.91187600000E+02 0.  0.
<mgrwt>
<rscale>  0 0.35650724E+04</rscale>
<asrwt>0</asrwt>
<pdfrwt beam="1">  1        1 0.20710201E+00 0.35650724E+04</pdfrwt>
<pdfrwt beam="2">  1       -1 0.36313296E+00 0.35650724E+04</pdfrwt>
<totfact> 0.86390645E-02</totfact>
</mgrwt>
</event>
<event>
11    1  0.5636761E-009  0.3189336E+04  0.7818608E-02  0.8191639E-01
         -2   -1    0    0    0  501 -0.00000000000E+00  0.00000000000E+00  0.15871959852E+04  0.15871959852E+04  0.00000000000E+00 0.  1.
          2   -1    0    0  501    0  0.00000000000E+00 -0.00000000000E+00 -0.16021753291E+04  0.16021753291E+04  0.00000000000E+00 0. -1.
    9900016    2    1    2    0    0  0.24403989535E+03  0.17314957147E+03  0.83302572259E+03  0.20524423979E+04  0.18517698824E+04 0.  0.
        -24    2    3    3    0    0  0.74541537992E+03  0.30391029710E+03  0.29583393507E+03  0.86152857321E+03  0.81903650854E+02 0.  0.
        -15    1    3    3    0    0 -0.55054809768E+03 -0.38785661759E+03  0.36165997515E+03  0.76441736067E+03  0.00000000000E+00 0.  1.
        -15    1    3    3    0    0  0.85701143738E+02  0.18329455952E+03  0.24571160722E+03  0.31830139100E+03  0.00000000000E+00 0.  1.
         15    1    4    4    0    0  0.45455821529E+03  0.19336663301E+03  0.13944365531E+03  0.51328194869E+03  0.00000000000E+00 0. -1.
         15    1    3    3    0    0 -0.36528530618E+02  0.73801332438E+02 -0.70179794845E+02  0.10819507301E+03  0.00000000000E+00 0. -1.
        -16    1    4    4    0    0  0.29085716463E+03  0.11054366409E+03  0.15639027976E+03  0.34824662452E+03  0.00000000000E+00 0.  1.
         16    1    1    2    0    0 -0.30420006461E+03 -0.17121905388E+03 -0.93450383274E+03  0.99757258239E+03  0.00000000000E+00 0. -1.
    9900018    1    1    2    0    0  0.60160169258E+02 -0.19305175895E+01  0.86498766313E+02  0.13935633402E+03  0.91187600000E+02 0.  0.
<mgrwt>
<rscale>  0 0.31893361E+04</rscale>
<asrwt>0</asrwt>
<pdfrwt beam="1">  1        2 0.24648851E+00 0.31893361E+04</pdfrwt>
<pdfrwt beam="2">  1       -2 0.24418400E+00 0.31893361E+04</pdfrwt>
<totfact> 0.65414794E-01</totfact>
</mgrwt>
</event>
<event>
11    1  0.5636761E-009  0.2411254E+04  0.7818608E-02  0.8435302E-01
         -2   -1    0    0    0  501 -0.00000000000E+00  0.00000000000E+00  0.10748572067E+04  0.10748572067E+04  0.00000000000E+00 0. -1.
          2   -1    0    0  501    0  0.00000000000E+00 -0.00000000000E+00 -0.13523063226E+04  0.13523063226E+04  0.00000000000E+00 0.  1.
    9900016    2    1    2    0    0 -0.43265155721E+03 -0.50224866659E+02 -0.41872204390E+03  0.19504218590E+04  0.18544830467E+04 0.  0.
        -24    2    3    3    0    0  0.64533836394E+02 -0.73613953178E+02  0.44966357287E+03  0.46707324419E+03  0.79852717723E+02 0.  0.
        -15    1    3    3    0    0  0.72726346106E+02 -0.22650428430E+03  0.15135640838E+03  0.28196112246E+03  0.00000000000E+00 0.  1.
        -15    1    3    3    0    0 -0.15130363750E+03  0.32940182447E+02 -0.34584886643E+03  0.37893176794E+03  0.00000000000E+00 0.  1.
         15    1    3    3    0    0 -0.41860810221E+03  0.21695318837E+03 -0.67389315872E+03  0.82245572437E+03  0.00000000000E+00 0. -1.
         15    1    4    4    0    0  0.69774430356E+02 -0.42254910089E+02  0.20960204281E+03  0.22491546169E+03  0.00000000000E+00 0. -1.
        -16    1    4    4    0    0 -0.52405939617E+01 -0.31359043090E+02  0.24006153006E+03  0.24215778250E+03  0.00000000000E+00 0.  1.
         16    1    1    2    0    0  0.17415658080E+03 -0.10123115298E+02  0.47182744341E+02  0.18071857531E+03  0.00000000000E+00 0. -1.
    9900018    1    1    2    0    0  0.25849497641E+03  0.60347981956E+02  0.94090183647E+02  0.29602309506E+03  0.91187600000E+02 0.  0.
<mgrwt>
<rscale>  0 0.24112538E+04</rscale>
<asrwt>0</asrwt>
<pdfrwt beam="1">  1        2 0.20804713E+00 0.24112538E+04</pdfrwt>
<pdfrwt beam="2">  1       -2 0.16536265E+00 0.24112538E+04</pdfrwt>
<totfact> 0.31871892E+00</totfact>
</mgrwt>
</event>
<event>
11    1  0.5636761E-009  0.3463999E+04  0.7818608E-02  0.8122375E-01
         -1   -1    0    0    0  501 -0.00000000000E+00  0.00000000000E+00  0.19437489596E+04  0.19437489596E+04  0.00000000000E+00 0.  1.
          1   -1    0    0  501    0  0.00000000000E+00 -0.00000000000E+00 -0.15433175815E+04  0.15433175815E+04  0.00000000000E+00 0. -1.
    9900016    2    1    2    0    0  0.22242738144E+03  0.44554050765E+03 -0.71447343189E+03  0.20383265246E+04  0.18429114065E+04 0.  0.
         24    2    3    3    0    0 -0.18570280141E+03 -0.19066772470E+03 -0.18708477169E+03  0.33463661806E+03  0.78366081027E+02 0.  0.
        -15    1    4    4    0    0 -0.21247794819E+02 -0.10973659084E+02 -0.49264263891E+02  0.54761826805E+02  0.00000000000E+00 0.  1.
        -15    1    3    3    0    0  0.23311262337E+03 -0.66734361940E+02 -0.17514552284E+03  0.29911690760E+03  0.00000000000E+00 0.  1.
         15    1    3    3    0    0  0.11336404971E+03  0.93191383321E+03 -0.55673295796E+03  0.10914515045E+04  0.00000000000E+00 0. -1.
         15    1    3    3    0    0  0.61653509765E+02 -0.22897123892E+03  0.20448982060E+03  0.31312149439E+03  0.00000000000E+00 0. -1.
        -16    1    1    2    0    0 -0.11419163349E+03 -0.36366254151E+03  0.12037481934E+04  0.12626558860E+04  0.00000000000E+00 0.  1.
         16    1    4    4    0    0 -0.16445500659E+03 -0.17969406562E+03 -0.13782050780E+03  0.27987479125E+03  0.00000000000E+00 0. -1.
    9900018    1    1    2    0    0 -0.10823574794E+03 -0.81877966137E+02 -0.88843383441E+02  0.18608413056E+03  0.91187600000E+02 0.  0.
<mgrwt>
<rscale>  0 0.34639988E+04</rscale>
<asrwt>0</asrwt>
<pdfrwt beam="1">  1        1 0.23743347E+00 0.34639988E+04</pdfrwt>
<pdfrwt beam="2">  1       -1 0.29903830E+00 0.34639988E+04</pdfrwt>
<totfact> 0.16735334E-01</totfact>
</mgrwt>
</event>
<event>
11    1  0.5636761E-009  0.3017562E+04  0.7818608E-02  0.8238734E-01
         -1   -1    0    0    0  501 -0.00000000000E+00  0.00000000000E+00  0.13479733982E+04  0.13479733982E+04  0.00000000000E+00 0.  1.
          1   -1    0    0  501    0  0.00000000000E+00 -0.00000000000E+00 -0.16887724347E+04  0.16887724347E+04  0.00000000000E+00 0. -1.
    9900016    2    1    2    0    0 -0.16178741605E+03 -0.58031988448E+03 -0.50046698123E+03  0.20072226359E+04  0.18481150328E+04 0.  0.
         24    2    3    3    0    0  0.13652995206E+03 -0.32255576492E+03  0.47506455172E+03  0.59555235134E+03  0.79458326114E+02 0.  0.
        -15    1    4    4    0    0  0.52969094804E+02 -0.20971236025E+03  0.25345085326E+03  0.33320014115E+03  0.00000000000E+00 0.  1.
        -15    1    3    3    0    0 -0.11350565983E+03 -0.14765341845E+03  0.84214914622E+02  0.20439476177E+03  0.00000000000E+00 0.  1.
         15    1    3    3    0    0 -0.24502473878E+03  0.97775005877E+02 -0.23073920412E+03  0.35048203194E+03  0.00000000000E+00 0. -1.
         15    1    3    3    0    0  0.60213030501E+02 -0.20788570699E+03 -0.82900724345E+03  0.85679349082E+03  0.00000000000E+00 0. -1.
        -16    1    1    2    0    0 -0.73230813754E+02  0.43276145293E+03  0.44226766078E+03  0.62309382199E+03  0.00000000000E+00 0.  1.
         16    1    4    4    0    0  0.83560857254E+02 -0.11284340467E+03  0.22161369847E+03  0.26235221019E+03  0.00000000000E+00 0. -1.
    9900018    1    1    2    0    0  0.23501822981E+03  0.14755843155E+03 -0.28259971604E+03  0.40642937512E+03  0.91187600000E+02 0.  0.
<mgrwt>
<rscale>  0 0.30175621E+04</rscale>
<asrwt>0</asrwt>
<pdfrwt beam="1">  1        1 0.25981114E+00 0.30175621E+04</pdfrwt>
<pdfrwt beam="2">  1       -1 0.20738052E+00 0.30175621E+04</pdfrwt>
<totfact> 0.55217683E-01</totfact>
</mgrwt>
</event>
<event>
11    1  0.5636761E-009  0.2405381E+04  0.7818608E-02  0.8437492E-01
          2   -1    0    0  501    0  0.00000000000E+00  0.00000000000E+00  0.14712624515E+04  0.14712624515E+04  0.00000000000E+00 0. -1.
         -2   -1    0    0    0  501 -0.00000000000E+00 -0.00000000000E+00 -0.98314524904E+03  0.98314524904E+03  0.00000000000E+00 0.  1.
    9900016    2    1    2    0    0  0.10028773555E+02 -0.48422791819E+02 -0.14022280598E+02  0.18233893271E+04  0.18226647170E+04 0.  0.
        -24    2    3    3    0    0  0.26966318552E+03 -0.79577156495E+02 -0.34187000785E+02  0.29489342261E+03  0.82113471583E+02 0.  0.
        -15    1    3    3    0    0 -0.25215783396E+03 -0.57819400509E+03 -0.40482504305E+02  0.63208441992E+03  0.00000000000E+00 0.  1.
        -15    1    3    3    0    0  0.63658331413E+02  0.65648600763E+03  0.23671235119E+03  0.70075601930E+03  0.00000000000E+00 0.  1.
         15    1    4    4    0    0  0.14234607445E+03 -0.71748100711E+02 -0.48287273439E+02  0.16655886540E+03  0.00000000000E+00 0. -1.
         15    1    3    3    0    0 -0.71134909425E+02 -0.47137637864E+02 -0.17606512670E+03  0.19565546525E+03  0.00000000000E+00 0. -1.
        -16    1    4    4    0    0  0.12731711107E+03 -0.78290557846E+01  0.14100272654E+02  0.12833455721E+03  0.00000000000E+00 0.  1.
         16    1    1    2    0    0 -0.15124333011E+03  0.67221382601E+02  0.40131042966E+03  0.43410058758E+03  0.00000000000E+00 0. -1.
    9900018    1    1    2    0    0  0.14121455655E+03 -0.18798590782E+02  0.10082905342E+03  0.19691778590E+03  0.91187600000E+02 0.  0.
<mgrwt>
<rscale>  0 0.24053812E+04</rscale>
<asrwt>0</asrwt>
<pdfrwt beam="1">  1        2 0.22634807E+00 0.24053812E+04</pdfrwt>
<pdfrwt beam="2">  1       -2 0.15125312E+00 0.24053812E+04</pdfrwt>
<totfact> 0.34720324E+00</totfact>
</mgrwt>
</event>
<event>
11    1  0.5636761E-009  0.3176711E+04  0.7818608E-02  0.8194995E-01
          2   -1    0    0  501    0  0.00000000000E+00  0.00000000000E+00  0.17519118380E+04  0.17519118380E+04  0.00000000000E+00 0. -1.
         -2   -1    0    0    0  501 -0.00000000000E+00 -0.00000000000E+00 -0.14400685500E+04  0.14400685500E+04  0.00000000000E+00 0.  1.
    9900016    2    1    2    0    0  0.30047547603E+03 -0.17934654879E+03  0.57382257301E+03  0.19655904468E+04  0.18471120061E+04 0.  0.
         24    2    3    3    0    0 -0.30748625488E+03 -0.45631516369E+03 -0.33756165789E+02  0.55689593595E+03  0.78881424939E+02 0.  0.
        -15    1    4    4    0    0 -0.85196899359E+02 -0.11998843637E+03  0.25703673927E+02  0.14938679786E+03  0.00000000000E+00 0.  1.
        -15    1    3    3    0    0  0.28411101906E+03  0.67805009524E+01  0.59314926521E+00  0.28419253715E+03  0.00000000000E+00 0.  1.
         15    1    3    3    0    0 -0.21551687086E+03 -0.12449479995E+03  0.48600864723E+02  0.25359124767E+03  0.00000000000E+00 0. -1.
         15    1    3    3    0    0  0.53936758271E+03  0.39468291390E+03  0.55838472481E+03  0.87091072602E+03  0.00000000000E+00 0. -1.
        -16    1    1    2    0    0 -0.19802962130E+02  0.41134369073E+03 -0.59564522437E+03  0.72414710006E+03  0.00000000000E+00 0.  1.
         16    1    4    4    0    0 -0.22228935552E+03 -0.33632672732E+03 -0.59459839715E+02  0.40750913809E+03  0.00000000000E+00 0. -1.
    9900018    1    1    2    0    0 -0.28067251390E+03 -0.23199714194E+03  0.33366593938E+03  0.50224284108E+03  0.91187600000E+02 0.  0.
<mgrwt>
<rscale>  0 0.31767110E+04</rscale>
<asrwt>0</asrwt>
<pdfrwt beam="1">  1        2 0.26952490E+00 0.31767110E+04</pdfrwt>
<pdfrwt beam="2">  1       -2 0.22154901E+00 0.31767110E+04</pdfrwt>
<totfact> 0.74812806E-01</totfact>
</mgrwt>
</event>
<event>
11    1  0.5636761E-009  0.4122052E+04  0.7818608E-02  0.7980367E-01
          2   -1    0    0  501    0  0.00000000000E+00  0.00000000000E+00  0.20183961956E+04  0.20183961956E+04  0.00000000000E+00 0. -1.
         -2   -1    0    0    0  501 -0.00000000000E+00 -0.00000000000E+00 -0.21045565186E+04  0.21045565186E+04  0.00000000000E+00 0.  1.
    9900016    2    1    2    0    0 -0.48596829796E+03 -0.91729954286E+03 -0.43941470460E+03  0.21673582200E+04  0.18511490306E+04 0.  0.
         24    2    3    3    0    0  0.55938600274E+02  0.43200527671E+03 -0.64310470782E+02  0.44779710488E+03  0.81416978505E+02 0.  0.
        -15    1    3    3    0    0 -0.29520278073E+03 -0.11584310623E+04 -0.37854413805E+03  0.12539548925E+04  0.00000000000E+00 0.  1.
        -15    1    4    4    0    0  0.69777579310E+02  0.35330425427E+03 -0.72883603192E+02  0.36743002909E+03  0.00000000000E+00 0.  1.
         15    1    3    3    0    0 -0.32296210250E+03 -0.97511759831E+02 -0.34767069903E+02  0.33914865783E+03  0.00000000000E+00 0. -1.
         15    1    3    3    0    0  0.76257984997E+02 -0.93361997408E+02  0.38206974144E+02  0.12645756485E+03  0.00000000000E+00 0. -1.
        -16    1    1    2    0    0  0.25804029343E+03 -0.13528725471E+03 -0.49990331570E+03  0.57861106053E+03  0.00000000000E+00 0.  1.
         16    1    4    4    0    0 -0.13838979036E+02  0.78701022431E+02  0.85731324100E+01  0.80367075795E+02  0.00000000000E+00 0. -1.
    9900018    1    1    2    0    0  0.22792800453E+03  0.10525867976E+04  0.85315769726E+03  0.13769834336E+04  0.91187600000E+02 0.  0.
<mgrwt>
<rscale>  0 0.41220523E+04</rscale>
<asrwt>0</asrwt>
<pdfrwt beam="1">  1        2 0.31052249E+00 0.41220523E+04</pdfrwt>
<pdfrwt beam="2">  1       -2 0.32377792E+00 0.41220523E+04</pdfrwt>
<totfact> 0.11565096E-01</totfact>
</mgrwt>
</event>
<event>
11    1  0.5636761E-009  0.3537318E+04  0.7818608E-02  0.8105002E-01
          2   -1    0    0  501    0  0.00000000000E+00  0.00000000000E+00  0.20961848006E+04  0.20961848006E+04  0.00000000000E+00 0. -1.
         -2   -1    0    0    0  501 -0.00000000000E+00 -0.00000000000E+00 -0.14923090360E+04  0.14923090360E+04  0.00000000000E+00 0.  1.
    9900016    2    1    2    0    0  0.77964308354E+03 -0.58917728940E+03  0.23845595179E+03  0.21037947469E+04  0.18477331734E+04 0.  0.
        -24    2    3    3    0    0 -0.33038374054E+03 -0.21963330713E+03  0.50328634703E+03  0.64644061203E+03  0.84829901335E+02 0.  0.
        -15    1    3    3    0    0  0.74431698070E+02 -0.28794042148E+03 -0.50812561129E+02  0.30171456771E+03  0.00000000000E+00 0.  1.
        -15    1    3    3    0    0  0.79101714659E+03 -0.91458349138E+02 -0.35646311832E+03  0.87243263955E+03  0.00000000000E+00 0.  1.
         15    1    4    4    0    0 -0.20539555838E+02 -0.18832407055E+02  0.80189093351E+02  0.84893012681E+02  0.00000000000E+00 0. -1.
         15    1    3    3    0    0  0.24457797941E+03  0.98547883431E+01  0.14244528421E+03  0.28320692764E+03  0.00000000000E+00 0. -1.
        -16    1    4    4    0    0 -0.30984418470E+03 -0.20080090007E+03  0.42309725368E+03  0.56154759934E+03  0.00000000000E+00 0.  1.
         16    1    1    2    0    0 -0.37000504965E+02  0.57863320335E+03  0.44679759963E+03  0.73199283905E+03  0.00000000000E+00 0. -1.
    9900018    1    1    2    0    0 -0.74264257858E+03  0.10544086058E+02 -0.81377786800E+02  0.75270625070E+03  0.91187600000E+02 0.  0.
<mgrwt>
<rscale>  0 0.35373185E+04</rscale>
<asrwt>0</asrwt>
<pdfrwt beam="1">  1        2 0.32248997E+00 0.35373185E+04</pdfrwt>
<pdfrwt beam="2">  1       -2 0.22958601E+00 0.35373185E+04</pdfrwt>
<totfact> 0.41608532E-01</totfact>
</mgrwt>
</event>
<event>
11    1  0.5636761E-009  0.4930960E+04  0.7818608E-02  0.7839246E-01
          2   -1    0    0  501    0  0.00000000000E+00  0.00000000000E+00  0.26404378648E+04  0.26404378648E+04  0.00000000000E+00 0. -1.
         -2   -1    0    0    0  501 -0.00000000000E+00 -0.00000000000E+00 -0.23021151452E+04  0.23021151452E+04  0.00000000000E+00 0.  1.
    9900016    2    1    2    0    0  0.24286981528E+03 -0.78004900877E+03  0.11947473777E+04  0.23415622852E+04  0.18406603259E+04 0.  0.
         24    2    3    3    0    0  0.39334811524E+03  0.12473589284E+03  0.13530998760E+03  0.44153694491E+03  0.79776551980E+02 0.  0.
        -15    1    4    4    0    0  0.13779785649E+03  0.52748084593E+01  0.52298229296E+02  0.14748280458E+03  0.00000000000E+00 0.  1.
        -15    1    3    3    0    0 -0.31476167299E+02 -0.48662739393E+03  0.34907438740E+03  0.59970817701E+03  0.00000000000E+00 0.  1.
         15    1    3    3    0    0 -0.41263881405E+03 -0.30060137836E+03  0.81968060796E+03  0.96566468228E+03  0.00000000000E+00 0. -1.
         15    1    3    3    0    0  0.29363668139E+03 -0.11755612932E+03 -0.10931760524E+03  0.33465248096E+03  0.00000000000E+00 0. -1.
        -16    1    1    2    0    0 -0.90242122221E+03  0.11670812764E+04 -0.10452551448E+04  0.18080379105E+04  0.00000000000E+00 0.  1.
         16    1    4    4    0    0  0.25555025875E+03  0.11946108438E+03  0.83011758309E+02  0.29405414033E+03  0.00000000000E+00 0. -1.
    9900018    1    1    2    0    0  0.65955140693E+03 -0.38703226765E+03  0.18883048680E+03  0.79295281431E+03  0.91187600000E+02 0.  0.
<mgrwt>
<rscale>  0 0.49309601E+04</rscale>
<asrwt>0</asrwt>
<pdfrwt beam="1">  1        2 0.40622121E+00 0.49309601E+04</pdfrwt>
<pdfrwt beam="2">  1       -2 0.35417156E+00 0.49309601E+04</pdfrwt>
<totfact> 0.30878330E-02</totfact>
</mgrwt>
</event>
<event>
11    1  0.5636761E-009  0.3180608E+04  0.7818608E-02  0.8193957E-01
          2   -1    0    0  501    0  0.00000000000E+00  0.00000000000E+00  0.31682799230E+04  0.31682799230E+04  0.00000000000E+00 0. -1.
         -2   -1    0    0    0  501 -0.00000000000E+00 -0.00000000000E+00 -0.79824595690E+03  0.79824595690E+03  0.00000000000E+00 0.  1.
    9900016    2    1    2    0    0 -0.84478747576E+03 -0.38394567853E+03  0.18125356071E+04  0.27514246119E+04  0.18503977692E+04 0.  0.
         24    2    3    3    0    0 -0.18211839844E+03  0.26456996668E+03  0.17919540561E+03  0.37707232222E+03  0.83115368458E+02 0.  0.
        -15    1    4    4    0    0 -0.11539128150E+03  0.11145714036E+03  0.11816277125E+03  0.19924929735E+03  0.00000000000E+00 0.  1.
        -15    1    3    3    0    0 -0.22430276289E+03 -0.80008208914E+02  0.33396404850E+02  0.24047528520E+03  0.00000000000E+00 0.  1.
         15    1    3    3    0    0 -0.34312019625E+03 -0.89181026846E+03  0.15067394158E+04  0.17841862826E+04  0.00000000000E+00 0. -1.
         15    1    3    3    0    0 -0.95246118184E+02  0.32330283216E+03  0.93204380875E+02  0.34969072182E+03  0.00000000000E+00 0. -1.
        -16    1    1    2    0    0  0.66024365130E+03  0.70814042777E+02  0.19103073001E+03  0.69096240675E+03  0.00000000000E+00 0.  1.
         16    1    4    4    0    0 -0.66727116937E+02  0.15311282632E+03  0.61032634363E+02  0.17782302488E+03  0.00000000000E+00 0. -1.
    9900018    1    1    2    0    0  0.18454382446E+03  0.31313163575E+03  0.36646762898E+03  0.52413886131E+03  0.91187600000E+02 0.  0.
<mgrwt>
<rscale>  0 0.31806079E+04</rscale>
<asrwt>0</asrwt>
<pdfrwt beam="1">  1        2 0.48742767E+00 0.31806079E+04</pdfrwt>
<pdfrwt beam="2">  1       -2 0.12280707E+00 0.31806079E+04</pdfrwt>
<totfact> 0.57438135E-01</totfact>
</mgrwt>
</event>
<event>
11    1  0.5636761E-009  0.3781591E+04  0.7818608E-02  0.8050117E-01
          2   -1    0    0  501    0  0.00000000000E+00  0.00000000000E+00  0.23926906361E+04  0.23926906361E+04  0.00000000000E+00 0. -1.
         -2   -1    0    0    0  501 -0.00000000000E+00 -0.00000000000E+00 -0.14941785673E+04  0.14941785673E+04  0.00000000000E+00 0.  1.
    9900016    2    1    2    0    0  0.25457248322E+03 -0.72611459816E+03  0.74337393645E+03  0.21313879146E+04  0.18434099040E+04 0.  0.
         24    2    3    3    0    0  0.42771832732E+03 -0.15612020753E+03 -0.16368592358E+03  0.49061461196E+03  0.81198085961E+02 0.  0.
        -15    1    4    4    0    0  0.26735855176E+03 -0.57895634582E+02 -0.11195099283E+03  0.29557659667E+03  0.00000000000E+00 0.  1.
        -15    1    3    3    0    0  0.19903497068E+03 -0.12232957303E+03 -0.62352743849E+01  0.23370563245E+03  0.00000000000E+00 0.  1.
         15    1    3    3    0    0 -0.51355351710E+03 -0.63605709094E+03  0.80678440657E+03  0.11485673322E+04  0.00000000000E+00 0. -1.
         15    1    3    3    0    0  0.14137270232E+03  0.18839227334E+03  0.10651072785E+03  0.25850033803E+03  0.00000000000E+00 0. -1.
        -16    1    1    2    0    0 -0.11075895323E+03  0.95360341732E+03 -0.46992474316E+03  0.10688574683E+04  0.00000000000E+00 0.  1.
         16    1    4    4    0    0  0.16035977556E+03 -0.98224572947E+02 -0.51734930759E+02  0.19503801529E+03  0.00000000000E+00 0. -1.
    9900018    1    1    2    0    0 -0.14381352999E+03 -0.22748881916E+03  0.62506287543E+03  0.68662382051E+03  0.91187600000E+02 0.  0.
<mgrwt>
<rscale>  0 0.37815907E+04</rscale>
<asrwt>0</asrwt>
<pdfrwt beam="1">  1        2 0.36810625E+00 0.37815907E+04</pdfrwt>
<pdfrwt beam="2">  1       -2 0.22987363E+00 0.37815907E+04</pdfrwt>
<totfact> 0.27610116E-01</totfact>
</mgrwt>
</event>
<event>
11    1  0.5636761E-009  0.3012252E+04  0.7818608E-02  0.8240241E-01
         -2   -1    0    0    0  501 -0.00000000000E+00  0.00000000000E+00  0.15920773426E+04  0.15920773426E+04  0.00000000000E+00 0.  1.
          2   -1    0    0  501    0  0.00000000000E+00 -0.00000000000E+00 -0.14248153664E+04  0.14248153664E+04  0.00000000000E+00 0. -1.
    9900016    2    1    2    0    0 -0.82365147701E+02  0.66451359934E+03  0.11728028711E+03  0.19636387676E+04  0.18422161118E+04 0.  0.
        -24    2    3    3    0    0  0.16614776925E+03 -0.55031841866E+02  0.40883454408E+03  0.45191766772E+03  0.80313816497E+02 0.  0.
        -15    1    3    3    0    0 -0.35868959898E+03  0.44310815744E+03  0.19465153862E+03  0.60240541921E+03  0.00000000000E+00 0.  1.
        -15    1    3    3    0    0  0.21311353824E+03 -0.10820000236E+03  0.47262158890E+02  0.24363565493E+03  0.00000000000E+00 0.  1.
         15    1    4    4    0    0  0.12425324306E+03 -0.76786001126E+01  0.22000756019E+03  0.25278677943E+03  0.00000000000E+00 0. -1.
         15    1    3    3    0    0 -0.10293685621E+03  0.38463728613E+03 -0.53346795448E+03  0.66568002576E+03  0.00000000000E+00 0. -1.
        -16    1    4    4    0    0  0.41894526187E+02 -0.47353241753E+02  0.18882698389E+03  0.19913088829E+03  0.00000000000E+00 0.  1.
         16    1    1    2    0    0  0.26772637488E+03 -0.12954657238E+03 -0.26554505782E+03  0.39871531693E+03  0.00000000000E+00 0. -1.
    9900018    1    1    2    0    0 -0.18536122718E+03 -0.53496702695E+03  0.31552674697E+03  0.65453862446E+03  0.91187600000E+02 0.  0.
<mgrwt>
<rscale>  0 0.30122525E+04</rscale>
<asrwt>0</asrwt>
<pdfrwt beam="1">  1        2 0.21920236E+00 0.30122525E+04</pdfrwt>
<pdfrwt beam="2">  1       -2 0.24493498E+00 0.30122525E+04</pdfrwt>
<totfact> 0.82702425E-01</totfact>
</mgrwt>
</event>
<event>
11    1  0.5636761E-009  0.4202565E+04  0.7818608E-02  0.7964884E-01
          2   -1    0    0  501    0  0.00000000000E+00  0.00000000000E+00  0.12114570949E+04  0.12114570949E+04  0.00000000000E+00 0. -1.
         -2   -1    0    0    0  501 -0.00000000000E+00 -0.00000000000E+00 -0.36446929753E+04  0.36446929753E+04  0.00000000000E+00 0.  1.
    9900016    2    1    2    0    0  0.32059369233E+03 -0.37382203294E+03 -0.46063136225E+03  0.19611702175E+04  0.18415982575E+04 0.  0.
         24    2    3    3    0    0 -0.10820885923E+03 -0.53949541196E+02  0.23380028915E+03  0.27512455053E+03  0.80070174766E+02 0.  0.
        -15    1    3    3    0    0  0.36796707974E+03 -0.62841844313E+03 -0.43633344533E+03  0.84893838820E+03  0.00000000000E+00 0.  1.
        -15    1    4    4    0    0 -0.67635319735E+02 -0.19633649694E+02  0.57282535211E+02  0.90781636448E+02  0.00000000000E+00 0.  1.
         15    1    3    3    0    0  0.77695632562E+02  0.42760461582E+03 -0.44038927487E+03  0.61872856101E+03  0.00000000000E+00 0. -1.
         15    1    3    3    0    0 -0.16860160740E+02 -0.11905866443E+03  0.18229106880E+03  0.21837871774E+03  0.00000000000E+00 0. -1.
        -16    1    1    2    0    0  0.59227061403E+03  0.46836743158E+03 -0.18063899389E+04  0.19578552405E+04  0.00000000000E+00 0.  1.
         16    1    4    4    0    0 -0.40573539494E+02 -0.34315891502E+02  0.17651775394E+03  0.18434291408E+03  0.00000000000E+00 0. -1.
    9900018    1    1    2    0    0 -0.91286430635E+03 -0.94545398637E+02 -0.16621457922E+03  0.93712461229E+03  0.91187600000E+02 0.  0.
<mgrwt>
<rscale>  0 0.42025655E+04</rscale>
<asrwt>0</asrwt>
<pdfrwt beam="1">  1        2 0.18637801E+00 0.42025655E+04</pdfrwt>
<pdfrwt beam="2">  1       -2 0.56072200E+00 0.42025655E+04</pdfrwt>
<totfact> 0.10943944E-02</totfact>
</mgrwt>
</event>
<event>
11    1  0.5636761E-009  0.2091950E+04  0.7818608E-02  0.8564798E-01
          2   -1    0    0  501    0  0.00000000000E+00  0.00000000000E+00  0.15567859973E+04  0.15567859973E+04  0.00000000000E+00 0. -1.
         -2   -1    0    0    0  501 -0.00000000000E+00 -0.00000000000E+00 -0.70277099758E+03  0.70277099758E+03  0.00000000000E+00 0.  1.
    9900016    2    1    2    0    0 -0.30799620786E+02  0.45833483587E+01  0.76045739595E+03  0.20001033016E+04  0.18496345970E+04 0.  0.
         24    2    3    3    0    0  0.25129032844E+03 -0.14115336910E+03  0.45333064044E+03  0.54438154897E+03  0.88156103128E+02 0.  0.
        -15    1    4    4    0    0  0.16245659998E+03 -0.10333414524E+03  0.36890547501E+03  0.41612659364E+03  0.00000000000E+00 0.  1.
        -15    1    3    3    0    0 -0.26575670680E+03 -0.15796552622E+03 -0.11500904955E+03  0.32985878215E+03  0.00000000000E+00 0.  1.
         15    1    3    3    0    0  0.89832783989E+02  0.54080521950E+03 -0.86238604377E+02  0.55495703564E+03  0.00000000000E+00 0. -1.
         15    1    3    3    0    0 -0.10616602642E+03 -0.23710297582E+03  0.50837440944E+03  0.57090593488E+03  0.00000000000E+00 0. -1.
        -16    1    1    2    0    0  0.96446995093E+02 -0.63047299552E+02  0.40620556893E+02  0.12217616169E+03  0.00000000000E+00 0.  1.
         16    1    4    4    0    0  0.88833728468E+02 -0.37819223862E+02  0.84425165432E+02  0.12825495532E+03  0.00000000000E+00 0. -1.
    9900018    1    1    2    0    0 -0.65647374308E+02  0.58463951193E+02  0.52937046879E+02  0.13727753155E+03  0.91187600000E+02 0.  0.
<mgrwt>
<rscale>  0 0.20919503E+04</rscale>
<asrwt>0</asrwt>
<pdfrwt beam="1">  1        2 0.23950554E+00 0.20919503E+04</pdfrwt>
<pdfrwt beam="2">  1       -2 0.10811862E+00 0.20919503E+04</pdfrwt>
<totfact> 0.74499826E+00</totfact>
</mgrwt>
</event>
<event>
11    1  0.5636761E-009  0.3189585E+04  0.7818608E-02  0.8191573E-01
          1   -1    0    0  501    0  0.00000000000E+00  0.00000000000E+00  0.23822348993E+04  0.23822348993E+04  0.00000000000E+00 0. -1.
         -1   -1    0    0    0  501 -0.00000000000E+00 -0.00000000000E+00 -0.10676375320E+04  0.10676375320E+04  0.00000000000E+00 0.  1.
    9900016    2    1    2    0    0  0.25568805374E+03  0.85439665016E+03  0.13417322047E+04  0.24525672924E+04  0.18491811696E+04 0.  0.
         24    2    3    3    0    0 -0.42483421269E+03  0.24612490959E+03  0.28861123534E+03  0.57520537011E+03  0.80642378689E+02 0.  0.
        -15    1    3    3    0    0  0.37404279014E+02  0.43686624603E+03  0.32010640927E+03  0.54288056722E+03  0.00000000000E+00 0.  1.
        -15    1    4    4    0    0 -0.29761897547E+03  0.14744847794E+03  0.22940826837E+03  0.40366602755E+03  0.00000000000E+00 0.  1.
         15    1    3    3    0    0  0.68180701699E+03 -0.13589357537E+02  0.86681834867E+03  0.11029141076E+04  0.00000000000E+00 0. -1.
         15    1    3    3    0    0 -0.38689029570E+02  0.18499485208E+03 -0.13380378855E+03  0.23156724755E+03  0.00000000000E+00 0. -1.
        -16    1    1    2    0    0  0.20321127230E+02 -0.55470730849E+03  0.93099616642E+02  0.56283273263E+03  0.00000000000E+00 0.  1.
         16    1    4    4    0    0 -0.12721523723E+03  0.98676431649E+02  0.59202966972E+02  0.17153934255E+03  0.00000000000E+00 0. -1.
    9900018    1    1    2    0    0 -0.27600918097E+03 -0.29968934167E+03 -0.12023445407E+03  0.43447240629E+03  0.91187600000E+02 0.  0.
<mgrwt>
<rscale>  0 0.31895852E+04</rscale>
<asrwt>0</asrwt>
<pdfrwt beam="1">  1        1 0.36649768E+00 0.31895852E+04</pdfrwt>
<pdfrwt beam="2">  1       -1 0.16425193E+00 0.31895852E+04</pdfrwt>
<totfact> 0.37138457E-01</totfact>
</mgrwt>
</event>
