<event>
12    1  0.3111898E-012  0.1023837E+04  0.7818608E-02  0.9282781E-01
          2   -1    0    0  501    0  0.00000000000E+00  0.00000000000E+00  0.76272414137E+03  0.76272414137E+03  0.00000000000E+00 0. -1.
         -2   -1    0    0    0  501 -0.00000000000E+00 -0.00000000000E+00 -0.34358477580E+03  0.34358477580E+03  0.00000000000E+00 0.  1.
         23    2    1    2    0    0 -0.45177551357E+02  0.13750770156E+03  0.18260810275E+03  0.24881731187E+03  0.87263717337E+02 0.  0.
    9900016    2    1    2    0    0 -0.40625068958E+02 -0.62334012671E+02  0.23746868352E+03  0.74341245772E+03  0.70052464716E+03 0.  0.
         23    2    4    4    0    0 -0.12622113390E+03 -0.43948829044E+02  0.32475926388E+03  0.36281203449E+03  0.91108279973E+02 0.  0.
        -15    1    3    3    0    0 -0.26643893370E+02  0.10234491036E+03  0.63739586610E+02  0.12347919919E+03  0.00000000000E+00 0. -1.
        -15    1    5    5    0    0 -0.12132517613E+03 -0.70979528214E+01  0.21557554228E+03  0.24747321820E+03  0.00000000000E+00 0.  1.
         15    1    5    5    0    0 -0.48959577638E+01 -0.36850876223E+02  0.10918372160E+03  0.11533881629E+03  0.00000000000E+00 0. -1.
         15    1    3    3    0    0 -0.18533657987E+02  0.35162791204E+02  0.11886851614E+03  0.12533811269E+03  0.00000000000E+00 0.  1.
        -16    1    1    2    0    0  0.85802620315E+02 -0.75173688891E+02 -0.93742069972E+00  0.11407914758E+03  0.00000000000E+00 0.  1.
         16    1    4    4    0    0 -0.84091454719E+02  0.80767147456E+02 -0.11306684028E+03  0.16241556341E+03  0.00000000000E+00 0. -1.
    9900018    1    4    4    0    0  0.16968751966E+03 -0.99152331083E+02  0.25776259923E+02  0.21818485982E+03  0.91187600000E+02 0.  0.
<mgrwt>
<rscale>  0 0.10238367E+04</rscale>
<asrwt>0</asrwt>
<pdfrwt beam="1">  1        2 0.11734218E+00 0.10238367E+04</pdfrwt>
<pdfrwt beam="2">  1       -2 0.52859196E-01 0.10238367E+04</pdfrwt>
<totfact> 0.12351058E+02</totfact>
</mgrwt>
</event>
<event>
12    1  0.3111898E-012  0.1340324E+04  0.7818608E-02  0.9367766E-01
         -2   -1    0    0    0  501 -0.00000000000E+00  0.00000000000E+00  0.32345055803E+03  0.32345055803E+03  0.00000000000E+00 0.  1.
          2   -1    0    0  501    0  0.00000000000E+00 -0.00000000000E+00 -0.24260827577E+04  0.24260827577E+04  0.00000000000E+00 0. -1.
         23    2    1    2    0    0 -0.29530930385E+03 -0.12861440936E+03 -0.85530140219E+03  0.91860363535E+03  0.92427804524E+02 0.  0.
    9900016    2    1    2    0    0 -0.42696892519E+01  0.49317235296E+03 -0.85760405521E+03  0.12189353986E+04  0.71209661591E+03 0.  0.
         23    2    4    4    0    0  0.29974589272E+03  0.19097644718E+03 -0.21237868966E+03  0.42415088615E+03  0.92085084694E+02 0.  0.
        -15    1    3    3    0    0 -0.60530556793E+02 -0.60782406209E+02 -0.29742900329E+03  0.30955203312E+03  0.00000000000E+00 0. -1.
        -15    1    5    5    0    0  0.16348732437E+03  0.13054991953E+03 -0.16889677928E+03  0.26888196066E+03  0.00000000000E+00 0. -1.
         15    1    3    3    0    0 -0.23477874706E+03 -0.67832003147E+02 -0.55787239890E+03  0.60905160223E+03  0.00000000000E+00 0.  1.
         15    1    5    5    0    0  0.13625856835E+03  0.60426527653E+02 -0.43481910383E+02  0.15526892550E+03  0.00000000000E+00 0.  1.
        -16    1    4    4    0    0 -0.10042180496E+03  0.14168831100E+03 -0.15498586533E+03  0.23276755538E+03  0.00000000000E+00 0.  1.
         16    1    1    2    0    0  0.29957899311E+03 -0.36455794360E+03 -0.38972674229E+03  0.61199428184E+03  0.00000000000E+00 0. -1.
    9900018    1    4    4    0    0 -0.20359377701E+03  0.16050759478E+03 -0.49023950021E+03  0.56201695702E+03  0.91187600000E+02 0.  0.
<mgrwt>
<rscale>  0 0.94776596E+03</rscale>
<asrwt>0</asrwt>
<pdfrwt beam="1">  1        2 0.37324350E+00 0.13403244E+04</pdfrwt>
<pdfrwt beam="2">  1       -2 0.49761625E-01 0.13403244E+04</pdfrwt>
<totfact> 0.14345991E+01</totfact>
</mgrwt>
</event>
<event>
12    1  0.3111898E-012  0.1889397E+04  0.7818608E-02  0.8660152E-01
         -2   -1    0    0    0  501 -0.00000000000E+00  0.00000000000E+00  0.10863604646E+04  0.10863604646E+04  0.00000000000E+00 0.  1.
          2   -1    0    0  501    0  0.00000000000E+00 -0.00000000000E+00 -0.82150904813E+03  0.82150904813E+03  0.00000000000E+00 0. -1.
         23    2    1    2    0    0  0.49018717762E+03 -0.27344849702E+03  0.17687303130E+03  0.59551083885E+03  0.91057895665E+02 0.  0.
    9900016    2    1    2    0    0 -0.47510475890E+03  0.31866841529E+03  0.41438001130E+03  0.98249454750E+03  0.68286942476E+03 0.  0.
         23    2    4    4    0    0 -0.16942192267E+03  0.13724620609E+03 -0.86513644102E+02  0.25218221279E+03  0.92579419236E+02 0.  0.
        -15    1    3    3    0    0  0.39839036925E+03 -0.21916482107E+03  0.17947084816E+03  0.48883319286E+03  0.00000000000E+00 0.  1.
        -15    1    5    5    0    0 -0.73156954623E+02  0.11759084569E+03 -0.46378102915E+02  0.14604956498E+03  0.00000000000E+00 0. -1.
         15    1    3    3    0    0  0.91796808365E+02 -0.54283675951E+02 -0.25978168552E+01  0.10667764599E+03  0.00000000000E+00 0. -1.
         15    1    5    5    0    0 -0.96264968050E+02  0.19655360395E+02 -0.40135541187E+02  0.10613264781E+03  0.00000000000E+00 0.  1.
        -16    1    1    2    0    0 -0.15082418720E+02 -0.45219918271E+02 -0.32640162611E+03  0.32986412641E+03  0.00000000000E+00 0.  1.
         16    1    4    4    0    0 -0.45002536020E+02  0.22642995129E+03  0.12755470355E+03  0.26375358479E+03  0.00000000000E+00 0. -1.
    9900018    1    4    4    0    0 -0.26068030020E+03 -0.45007742089E+02  0.37333895185E+03  0.46655874992E+03  0.91187600000E+02 0.  0.
<mgrwt>
<rscale>  0 0.18893967E+04</rscale>
<asrwt>0</asrwt>
<pdfrwt beam="1">  1        2 0.12638601E+00 0.18893967E+04</pdfrwt>
<pdfrwt beam="2">  1       -2 0.16713238E+00 0.18893967E+04</pdfrwt>
<totfact> 0.69595848E+00</totfact>
</mgrwt>
</event>
<event>
12    1  0.3111898E-012  0.1515573E+04  0.7818608E-02  0.9344758E-01
         -1   -1    0    0    0  501 -0.00000000000E+00  0.00000000000E+00  0.48083553567E+03  0.48083553567E+03  0.00000000000E+00 0.  1.
          1   -1    0    0  501    0  0.00000000000E+00 -0.00000000000E+00 -0.16246789694E+04  0.16246789694E+04  0.00000000000E+00 0. -1.
         23    2    1    2    0    0  0.20781002701E+03 -0.10763718646E+03 -0.17655235801E+03  0.30756758841E+03  0.93039320120E+02 0.  0.
    9900016    2    1    2    0    0 -0.33412026668E+02 -0.37363496344E+03 -0.11927334963E+03  0.80740584807E+03  0.70495292193E+03 0.  0.
         23    2    4    4    0    0  0.19733911855E+03  0.44040333383E+02 -0.83004898645E+01  0.22051181754E+03  0.87602995785E+02 0.  0.
        -15    1    5    5    0    0  0.12286203546E+03 -0.51156380919E+01  0.24597308657E+02  0.12540445408E+03  0.00000000000E+00 0.  1.
        -15    1    3    3    0    0  0.26138230862E+02 -0.46360076554E+02 -0.70913319047E+02  0.88663197715E+02  0.00000000000E+00 0.  1.
         15    1    3    3    0    0  0.18167179615E+03 -0.61277109902E+02 -0.10563903896E+03  0.21890439069E+03  0.00000000000E+00 0. -1.
         15    1    5    5    0    0  0.74477083085E+02  0.49155971475E+02 -0.32897798521E+02  0.95107363459E+02  0.00000000000E+00 0. -1.
        -16    1    4    4    0    0 -0.50167686069E+02  0.47216762400E+02 -0.61203381403E+01  0.69164137499E+02  0.00000000000E+00 0.  1.
         16    1    1    2    0    0 -0.17439800034E+03  0.48127214990E+03 -0.84801772607E+03  0.99054106857E+03  0.00000000000E+00 0. -1.
    9900018    1    4    4    0    0 -0.18058345915E+03 -0.46489205923E+03 -0.10485252163E+03  0.51772989303E+03  0.91187600000E+02 0.  0.
<mgrwt>
<rscale>  0 0.96764701E+03</rscale>
<asrwt>0</asrwt>
<pdfrwt beam="1">  1        1 0.24995062E+00 0.15155729E+04</pdfrwt>
<pdfrwt beam="2">  1       -1 0.73974696E-01 0.15155729E+04</pdfrwt>
<totfact> 0.94998590E+00</totfact>
</mgrwt>
</event>
<event>
12    1  0.3111898E-012  0.9259428E+03  0.7818608E-02  0.1001392E+00
         -2   -1    0    0    0  501 -0.00000000000E+00  0.00000000000E+00  0.12651554009E+04  0.12651554009E+04  0.00000000000E+00 0. -1.
          2   -1    0    0  501    0  0.00000000000E+00 -0.00000000000E+00 -0.21508083454E+03  0.21508083454E+03  0.00000000000E+00 0.  1.
         23    2    1    2    0    0  0.59534458276E+02 -0.35609007711E+02  0.91260433642E+02  0.14730918154E+03  0.92515809818E+02 0.  0.
    9900016    2    1    2    0    0 -0.20728761046E+03  0.90669989313E+01  0.63251923904E+03  0.97375602243E+03  0.71068265741E+03 0.  0.
         23    2    4    4    0    0  0.90992131489E+02  0.90639751220E+02  0.19958230091E+03  0.25396633462E+03  0.90391768377E+02 0.  0.
        -15    1    3    3    0    0  0.62347837992E+02 -0.62336516646E+02  0.63363251646E+02  0.10857253736E+03  0.00000000000E+00 0.  1.
        -15    1    5    5    0    0  0.65496292907E+02  0.57093150865E+01  0.62554863814E+02  0.90749499448E+02  0.00000000000E+00 0.  1.
         15    1    3    3    0    0 -0.28133797160E+01  0.26727508935E+02  0.27897181996E+02  0.38736644184E+02  0.00000000000E+00 0. -1.
         15    1    5    5    0    0  0.25495838582E+02  0.84930436134E+02  0.13702743710E+03  0.16321683517E+03  0.00000000000E+00 0. -1.
        -16    1    4    4    0    0 -0.18307240599E+03 -0.27336721161E+03  0.20509052429E+03  0.38769480441E+03  0.00000000000E+00 0.  1.
         16    1    1    2    0    0  0.14775315218E+03  0.26542008780E+02  0.32629489364E+03  0.35917103144E+03  0.00000000000E+00 0. -1.
    9900018    1    4    4    0    0 -0.11520733596E+03  0.19179445932E+03  0.22784641384E+03  0.33209488339E+03  0.91187600000E+02 0.  0.
<mgrwt>
<rscale>  0 0.55044095E+03</rscale>
<asrwt>0</asrwt>
<pdfrwt beam="1">  1        2 0.33089360E-01 0.92594276E+03</pdfrwt>
<pdfrwt beam="2">  1       -2 0.19463929E+00 0.92594276E+03</pdfrwt>
<totfact> 0.23073352E+01</totfact>
</mgrwt>
</event>
<event>
12    1  0.3111898E-012  0.1886946E+04  0.7818608E-02  0.8661381E-01
         -2   -1    0    0    0  501 -0.00000000000E+00  0.00000000000E+00  0.63901453460E+03  0.63901453460E+03  0.00000000000E+00 0.  1.
          2   -1    0    0  501    0  0.00000000000E+00 -0.00000000000E+00 -0.13929910507E+04  0.13929910507E+04  0.00000000000E+00 0. -1.
         23    2    1    2    0    0 -0.52618505230E+03 -0.26595211669E+03  0.85667477221E+02  0.60302886128E+03  0.93293371957E+02 0.  0.
    9900016    2    1    2    0    0  0.31418536068E+03  0.41649284875E+03 -0.73751808846E+03  0.11496273340E+04  0.71100727309E+03 0.  0.
         23    2    4    4    0    0  0.11864464096E+03  0.48249077664E+03 -0.27786705279E+03  0.57644461196E+03  0.90578094822E+02 0.  0.
        -15    1    5    5    0    0  0.31909974889E+02  0.66004720926E+02 -0.10704699326E+02  0.74090891947E+02  0.00000000000E+00 0. -1.
        -15    1    3    3    0    0 -0.51181064128E+03 -0.23821918076E+03  0.72654750858E+02  0.56918997131E+03  0.00000000000E+00 0. -1.
         15    1    3    3    0    0 -0.14374411015E+02 -0.27732935933E+02  0.13012726363E+02  0.33838889977E+02  0.00000000000E+00 0.  1.
         15    1    5    5    0    0  0.86734666069E+02  0.41648605572E+03 -0.26716235346E+03  0.50235372001E+03  0.00000000000E+00 0.  1.
        -16    1    4    4    0    0  0.19530508679E+03  0.40074196408E+02 -0.30774114621E+03  0.36668055745E+03  0.00000000000E+00 0.  1.
         16    1    1    2    0    0  0.21199969161E+03 -0.15054073205E+03 -0.10212590487E+03  0.27934939000E+03  0.00000000000E+00 0. -1.
    9900018    1    4    4    0    0  0.23563293729E+00 -0.10607212430E+03 -0.15190988946E+03  0.20650216460E+03  0.91187600000E+02 0.  0.
<mgrwt>
<rscale>  0 0.18869462E+04</rscale>
<asrwt>0</asrwt>
<pdfrwt beam="1">  1        2 0.21430632E+00 0.18869462E+04</pdfrwt>
<pdfrwt beam="2">  1       -2 0.98309928E-01 0.18869462E+04</pdfrwt>
<totfact> 0.11777089E+01</totfact>
</mgrwt>
</event>
<event>
12    1  0.3111898E-012  0.1804497E+04  0.7818608E-02  0.8703912E-01
         -1   -1    0    0    0  501 -0.00000000000E+00  0.00000000000E+00  0.52986372043E+03  0.52986372043E+03  0.00000000000E+00 0.  1.
          1   -1    0    0  501    0  0.00000000000E+00 -0.00000000000E+00 -0.15363431608E+04  0.15363431608E+04  0.00000000000E+00 0. -1.
         23    2    1    2    0    0  0.30779946629E+03 -0.27228634923E+03  0.11642782499E+03  0.43693665454E+03  0.92075155304E+02 0.  0.
    9900016    2    1    2    0    0 -0.30612960898E+03 -0.45660001971E+02 -0.10464703816E+04  0.13022606429E+04  0.71062110104E+03 0.  0.
         23    2    4    4    0    0 -0.24585001808E+03 -0.96669614569E+02 -0.36586183644E+02  0.28194400425E+03  0.91469267686E+02 0.  0.
        -15    1    5    5    0    0 -0.88431141646E+02 -0.43483653669E+02  0.29892445212E+02  0.10297792594E+03  0.00000000000E+00 0.  1.
        -15    1    3    3    0    0  0.20498872943E+03 -0.15583562712E+03  0.11392840706E+03  0.28157557388E+03  0.00000000000E+00 0.  1.
         15    1    5    5    0    0 -0.15741887643E+03 -0.53185960900E+02 -0.66478628856E+02  0.17896607832E+03  0.00000000000E+00 0. -1.
         15    1    3    3    0    0  0.10281073686E+03 -0.11645072211E+03  0.24994179385E+01  0.15536108065E+03  0.00000000000E+00 0. -1.
        -16    1    1    2    0    0 -0.16698573061E+01  0.31794635120E+03 -0.76436883717E+02  0.32700958374E+03  0.00000000000E+00 0.  1.
         16    1    4    4    0    0 -0.31605202869E+02  0.29607441333E+02 -0.43458825134E+03  0.43674069840E+03  0.00000000000E+00 0. -1.
    9900018    1    4    4    0    0 -0.28674388034E+02  0.21402171266E+02 -0.57529594664E+03  0.58357594028E+03  0.91187600000E+02 0.  0.
<mgrwt>
<rscale>  0 0.18044972E+04</rscale>
<asrwt>0</asrwt>
<pdfrwt beam="1">  1        1 0.23636048E+00 0.18044972E+04</pdfrwt>
<pdfrwt beam="2">  1       -1 0.81517497E-01 0.18044972E+04</pdfrwt>
<totfact> 0.87249024E+00</totfact>
</mgrwt>
</event>
<event>
12    1  0.3111898E-012  0.1199353E+04  0.7818608E-02  0.9113423E-01
         -1   -1    0    0    0  501 -0.00000000000E+00  0.00000000000E+00  0.42125208315E+03  0.42125208315E+03  0.00000000000E+00 0. -1.
          1   -1    0    0  501    0  0.00000000000E+00 -0.00000000000E+00 -0.85367422704E+03  0.85367422704E+03  0.00000000000E+00 0.  1.
         23    2    1    2    0    0 -0.13586896854E+03 -0.79235751115E+02 -0.25386570255E+03  0.31287131373E+03  0.93284420751E+02 0.  0.
    9900016    2    1    2    0    0  0.18482334697E+03 -0.16384716716E+02  0.25244021900E+02  0.73167610453E+03  0.70730794763E+03 0.  0.
         23    2    4    4    0    0 -0.28638140860E+02 -0.10916063670E+03  0.14824643351E+03  0.20727380211E+03  0.90825306350E+02 0.  0.
        -15    1    5    5    0    0 -0.19220056749E+01 -0.10935776935E+03  0.84689405246E+02  0.13832971909E+03  0.00000000000E+00 0. -1.
        -15    1    3    3    0    0 -0.10445937556E+03 -0.19976474666E+02 -0.10432094269E+03  0.14897543343E+03  0.00000000000E+00 0. -1.
         15    1    3    3    0    0 -0.31409592980E+02 -0.59259276449E+02 -0.14954475986E+03  0.16389588029E+03  0.00000000000E+00 0.  1.
         15    1    5    5    0    0 -0.26716135185E+02  0.19713264991E+00  0.63557028266E+02  0.68944083013E+02  0.00000000000E+00 0.  1.
        -16    1    1    2    0    0 -0.48954378430E+02  0.95620467831E+02 -0.20380046324E+03  0.23037889194E+03  0.00000000000E+00 0.  1.
         16    1    4    4    0    0  0.42922474620E+01  0.14448152901E+02 -0.25089540272E+03  0.25134771854E+03  0.00000000000E+00 0. -1.
    9900018    1    4    4    0    0  0.20916924037E+03  0.78327767087E+02  0.12789299111E+03  0.27305458388E+03  0.91187600000E+02 0.  0.
<mgrwt>
<rscale>  0 0.11993532E+04</rscale>
<asrwt>0</asrwt>
<pdfrwt beam="1">  1        1 0.13133450E+00 0.11993532E+04</pdfrwt>
<pdfrwt beam="2">  1       -1 0.64808013E-01 0.11993532E+04</pdfrwt>
<totfact> 0.47521459E+01</totfact>
</mgrwt>
</event>
<event>
12    1  0.3111898E-012  0.1418816E+04  0.7818608E-02  0.9376867E-01
          2   -1    0    0  501    0  0.00000000000E+00  0.00000000000E+00  0.20061120190E+04  0.20061120190E+04  0.00000000000E+00 0. -1.
         -2   -1    0    0    0  501 -0.00000000000E+00 -0.00000000000E+00 -0.36728147683E+03  0.36728147683E+03  0.00000000000E+00 0.  1.
         23    2    1    2    0    0 -0.61939961457E+02  0.24981524947E+03  0.42940194406E+03  0.50905514379E+03  0.92232814991E+02 0.  0.
    9900016    2    1    2    0    0 -0.13165897591E+03  0.13802694345E+03  0.19244827242E+03  0.75882892288E+03  0.70880143452E+03 0.  0.
         23    2    4    4    0    0 -0.21314363545E+03 -0.16530446650E+03 -0.45175278760E+02  0.28847256514E+03  0.91759680953E+02 0.  0.
        -15    1    5    5    0    0 -0.11734577613E+03 -0.12068729051E+03  0.11188485085E+02  0.16870280218E+03  0.00000000000E+00 0.  1.
        -15    1    3    3    0    0 -0.33858758679E+02  0.20991308798E+03  0.27803959178E+03  0.35002276303E+03  0.00000000000E+00 0.  1.
         15    1    5    5    0    0 -0.95797859317E+02 -0.44617175994E+02 -0.56363763845E+02  0.11976976295E+03  0.00000000000E+00 0. -1.
         15    1    3    3    0    0 -0.28081202778E+02  0.39902161493E+02  0.15136235228E+03  0.15903238075E+03  0.00000000000E+00 0. -1.
        -16    1    1    2    0    0  0.19359893736E+03 -0.38784219292E+03  0.10169803257E+04  0.11055094292E+04  0.00000000000E+00 0.  1.
         16    1    4    4    0    0  0.91308031285E+02  0.29683548066E+03  0.20790266458E+03  0.37372714257E+03  0.00000000000E+00 0. -1.
    9900018    1    4    4    0    0 -0.98233717433E+01  0.64959292919E+01  0.29720886601E+02  0.96629215167E+02  0.91187600000E+02 0.  0.
<mgrwt>
<rscale>  0 0.94004113E+03</rscale>
<asrwt>0</asrwt>
<pdfrwt beam="1">  1        2 0.30863261E+00 0.14188164E+04</pdfrwt>
<pdfrwt beam="2">  1       -2 0.56504844E-01 0.14188164E+04</pdfrwt>
<totfact> 0.18872611E+01</totfact>
</mgrwt>
</event>
<event>
12    1  0.3111898E-012  0.1479191E+04  0.7818608E-02  0.8898409E-01
          2   -1    0    0  501    0  0.00000000000E+00  0.00000000000E+00  0.18123390637E+04  0.18123390637E+04  0.00000000000E+00 0. -1.
         -2   -1    0    0    0  501 -0.00000000000E+00 -0.00000000000E+00 -0.30182093032E+03  0.30182093032E+03  0.00000000000E+00 0.  1.
         23    2    1    2    0    0 -0.29502808610E+03  0.18866719681E+03  0.45916167104E+03  0.58567034067E+03  0.97690455230E+02 0.  0.
    9900016    2    1    2    0    0 -0.27990168622E+02 -0.27199238062E+03  0.58181860401E+03  0.95251250142E+03  0.70285409064E+03 0.  0.
         23    2    4    4    0    0  0.83648150803E+02 -0.46292470929E+03  0.29454013986E+03  0.56245929632E+03  0.91160662712E+02 0.  0.
        -15    1    3    3    0    0 -0.24124699012E+03  0.10939807851E+03  0.30293980733E+03  0.40241840997E+03  0.00000000000E+00 0.  1.
        -15    1    5    5    0    0 -0.19261724331E+01 -0.14327196189E+03  0.52997768231E+02  0.15277214615E+03  0.00000000000E+00 0.  1.
         15    1    5    5    0    0  0.85574323236E+02 -0.31965274740E+03  0.24154237163E+03  0.40968715017E+03  0.00000000000E+00 0. -1.
         15    1    3    3    0    0 -0.53781095988E+02  0.79269118293E+02  0.15622186371E+03  0.18325193069E+03  0.00000000000E+00 0. -1.
        -16    1    1    2    0    0  0.32301825473E+03  0.83325183810E+02  0.46953785828E+03  0.57597715189E+03  0.00000000000E+00 0.  1.
         16    1    4    4    0    0 -0.70275479219E+02  0.12464281865E+03  0.16994886822E+03  0.22216456295E+03  0.00000000000E+00 0. -1.
    9900018    1    4    4    0    0 -0.41362840206E+02  0.66289510017E+02  0.11732959593E+03  0.16788864215E+03  0.91187600000E+02 0.  0.
<mgrwt>
<rscale>  0 0.14791915E+04</rscale>
<asrwt>0</asrwt>
<pdfrwt beam="1">  1        2 0.27882139E+00 0.14791915E+04</pdfrwt>
<pdfrwt beam="2">  1       -2 0.46433990E-01 0.14791915E+04</pdfrwt>
<totfact> 0.36142109E+01</totfact>
</mgrwt>
</event>
<event>
12    1  0.3111898E-012  0.1367139E+04  0.7818608E-02  0.9332042E-01
          2   -1    0    0  501    0  0.00000000000E+00  0.00000000000E+00  0.11730555456E+04  0.11730555456E+04  0.00000000000E+00 0. -1.
         -2   -1    0    0    0  501 -0.00000000000E+00 -0.00000000000E+00 -0.64472020808E+03  0.64472020808E+03  0.00000000000E+00 0.  1.
         23    2    1    2    0    0  0.25083410853E+03 -0.24096195739E+03  0.22257674234E+02  0.35997498372E+03  0.90034270875E+02 0.  0.
    9900016    2    1    2    0    0 -0.43255346434E+03 -0.12728027921E+03  0.50937324577E+02  0.84479424715E+03  0.71258679471E+03 0.  0.
         23    2    4    4    0    0 -0.93613928883E+01 -0.43830086781E+02 -0.14117779238E+03  0.17425127289E+03  0.91780307583E+02 0.  0.
        -15    1    5    5    0    0 -0.42090768533E+02 -0.86050271495E+01 -0.10687356626E+03  0.11518523540E+03  0.00000000000E+00 0.  1.
        -15    1    3    3    0    0  0.12421142722E+03 -0.17695690474E+03 -0.99695781975E+00  0.21620180090E+03  0.00000000000E+00 0.  1.
         15    1    5    5    0    0  0.32729375644E+02 -0.35225059631E+02 -0.34304226118E+02  0.59066037497E+02  0.00000000000E+00 0. -1.
         15    1    3    3    0    0  0.12662268131E+03 -0.64005052646E+02  0.23254632054E+02  0.14377318282E+03  0.00000000000E+00 0. -1.
        -16    1    1    2    0    0  0.18171935581E+03  0.36824223659E+03  0.45514033872E+03  0.61300652282E+03  0.00000000000E+00 0.  1.
         16    1    4    4    0    0 -0.33352223608E+03  0.45888400906E+02 -0.77348445118E+02  0.34543539086E+03  0.00000000000E+00 0. -1.
    9900018    1    4    4    0    0 -0.89669835374E+02 -0.12933859333E+03  0.26946356207E+03  0.32510758339E+03  0.91187600000E+02 0.  0.
<mgrwt>
<rscale>  0 0.97885777E+03</rscale>
<asrwt>0</asrwt>
<pdfrwt beam="1">  1        2 0.18047008E+00 0.13671388E+04</pdfrwt>
<pdfrwt beam="2">  1       -2 0.99187724E-01 0.13671388E+04</pdfrwt>
<totfact> 0.16029273E+01</totfact>
</mgrwt>
</event>
<event>
12    1  0.3111898E-012  0.2205747E+04  0.7818608E-02  0.8516040E-01
         -2   -1    0    0    0  501 -0.00000000000E+00  0.00000000000E+00  0.69378878618E+03  0.69378878618E+03  0.00000000000E+00 0. -1.
          2   -1    0    0  501    0  0.00000000000E+00 -0.00000000000E+00 -0.17531696954E+04  0.17531696954E+04  0.00000000000E+00 0.  1.
         23    2    1    2    0    0 -0.38300683443E+03  0.21271389868E+03 -0.12739963999E+04  0.13503162659E+04  0.91355093220E+02 0.  0.
    9900016    2    1    2    0    0  0.16392164491E+03 -0.23435326096E+03  0.35529785876E+03  0.83537968309E+03  0.69987919664E+03 0.  0.
         23    2    4    4    0    0 -0.43876130612E+02 -0.18321171520E+03  0.25816305965E+03  0.33221714032E+03  0.90710614199E+02 0.  0.
        -15    1    3    3    0    0 -0.14736098842E+03  0.35608612714E+02 -0.38785629912E+03  0.41643215891E+03  0.00000000000E+00 0. -1.
        -15    1    5    5    0    0 -0.57897773443E+02 -0.13717537409E+03  0.13895156804E+03  0.20365847316E+03  0.00000000000E+00 0.  1.
         15    1    3    3    0    0 -0.23564584601E+03  0.17710528596E+03 -0.88614010076E+03  0.93388410696E+03  0.00000000000E+00 0.  1.
         15    1    5    5    0    0  0.14021642831E+02 -0.46036341106E+02  0.11921149161E+03  0.12855866716E+03  0.00000000000E+00 0. -1.
        -16    1    4    4    0    0  0.68497876085E+02  0.18429537710E+03 -0.65716141163E+01  0.19672298076E+03  0.00000000000E+00 0.  1.
         16    1    1    2    0    0  0.21908518952E+03  0.21639362289E+02 -0.14068236814E+03  0.26126253266E+03  0.00000000000E+00 0. -1.
    9900018    1    4    4    0    0  0.13929989943E+03 -0.23543692286E+03  0.10370641322E+03  0.30643956201E+03  0.91187600000E+02 0.  0.
<mgrwt>
<rscale>  0 0.22057466E+04</rscale>
<asrwt>0</asrwt>
<pdfrwt beam="1">  1        2 0.26971841E+00 0.22057466E+04</pdfrwt>
<pdfrwt beam="2">  1       -2 0.10673674E+00 0.22057466E+04</pdfrwt>
<totfact> 0.59147084E+00</totfact>
</mgrwt>
</event>
<event>
12    1  0.3111898E-012  0.1211618E+04  0.7818608E-02  0.9464300E-01
          2   -1    0    0  501    0  0.00000000000E+00  0.00000000000E+00  0.17448884866E+04  0.17448884866E+04  0.00000000000E+00 0. -1.
         -2   -1    0    0    0  501 -0.00000000000E+00 -0.00000000000E+00 -0.33681785467E+03  0.33681785467E+03  0.00000000000E+00 0.  1.
         23    2    1    2    0    0 -0.27451780561E+03 -0.14212984875E+03  0.29218467304E+03  0.43452125277E+03  0.88746360184E+02 0.  0.
    9900016    2    1    2    0    0 -0.67184988989E+02  0.18302055116E+03  0.35233341310E+03  0.80966175177E+03  0.70242648968E+03 0.  0.
         23    2    4    4    0    0 -0.16940707524E+02  0.32730606639E+01  0.31126189445E+03  0.32640306651E+03  0.96733109073E+02 0.  0.
        -15    1    5    5    0    0 -0.94682977466E+00 -0.45643687518E+02  0.17129131017E+03  0.17727085389E+03  0.00000000000E+00 0. -1.
        -15    1    3    3    0    0 -0.12403308300E+03 -0.20632286373E+02  0.14185539009E+03  0.18955961758E+03  0.00000000000E+00 0. -1.
         15    1    5    5    0    0 -0.15993877750E+02  0.48916748182E+02  0.13997058428E+03  0.14913221262E+03  0.00000000000E+00 0.  1.
         15    1    3    3    0    0 -0.15048472262E+03 -0.12149756238E+03  0.15032928295E+03  0.24496163520E+03  0.00000000000E+00 0.  1.
        -16    1    4    4    0    0 -0.34441000625E+02  0.28975351320E+03  0.12427914836E+03  0.31715703942E+03  0.00000000000E+00 0.  1.
         16    1    1    2    0    0  0.34170279460E+03 -0.40890702414E+02  0.76355254574E+03  0.83752333668E+03  0.00000000000E+00 0. -1.
    9900018    1    4    4    0    0 -0.15803280840E+02 -0.11000602270E+03 -0.83207629709E+02  0.16610164584E+03  0.91187600000E+02 0.  0.
<mgrwt>
<rscale>  0 0.86967821E+03</rscale>
<asrwt>0</asrwt>
<pdfrwt beam="1">  1        2 0.26844438E+00 0.12116176E+04</pdfrwt>
<pdfrwt beam="2">  1       -2 0.51818133E-01 0.12116176E+04</pdfrwt>
<totfact> 0.32043598E+01</totfact>
</mgrwt>
</event>
<event>
12    1  0.3111898E-012  0.1510042E+04  0.7818608E-02  0.9292704E-01
         -2   -1    0    0    0  501 -0.00000000000E+00  0.00000000000E+00  0.12172227616E+04  0.12172227616E+04  0.00000000000E+00 0. -1.
          2   -1    0    0  501    0  0.00000000000E+00 -0.00000000000E+00 -0.76498236574E+03  0.76498236574E+03  0.00000000000E+00 0.  1.
         23    2    1    2    0    0 -0.99486948121E+01  0.29394554697E+03  0.35387812508E+03  0.46896243996E+03  0.90515642670E+02 0.  0.
    9900016    2    1    2    0    0 -0.42050006811E+03 -0.53446795113E+03  0.21859348454E+03  0.10057067683E+04  0.70794540338E+03 0.  0.
         23    2    4    4    0    0  0.31394313256E+02 -0.38554987575E+03  0.61599188656E+02  0.40238427633E+03  0.92110456526E+02 0.  0.
        -15    1    5    5    0    0 -0.10702829274E+02 -0.30770495429E+03  0.61042888864E+02  0.31388393353E+03  0.00000000000E+00 0.  1.
        -15    1    3    3    0    0 -0.19709242706E+02  0.24736002451E+02  0.74136957420E+02  0.80601566491E+02  0.00000000000E+00 0. -1.
         15    1    5    5    0    0  0.42097142530E+02 -0.77844921454E+02  0.55629979229E+00  0.88500342795E+02  0.00000000000E+00 0. -1.
         15    1    3    3    0    0  0.97605478941E+01  0.26920954452E+03  0.27974116766E+03  0.38836087347E+03  0.00000000000E+00 0.  1.
        -16    1    4    4    0    0 -0.28774513825E+03 -0.23118314963E+03  0.14932679625E+03  0.39817258235E+03  0.00000000000E+00 0.  1.
         16    1    1    2    0    0  0.43044876292E+03  0.24052240417E+03 -0.12023121379E+03  0.50753591910E+03  0.00000000000E+00 0. -1.
    9900018    1    4    4    0    0 -0.16414924311E+03  0.82265074241E+02  0.76674996336E+01  0.20514990958E+03  0.91187600000E+02 0.  0.
<mgrwt>
<rscale>  0 0.10145731E+04</rscale>
<asrwt>0</asrwt>
<pdfrwt beam="1">  1        2 0.11768959E+00 0.15100425E+04</pdfrwt>
<pdfrwt beam="2">  1       -2 0.18726504E+00 0.15100425E+04</pdfrwt>
<totfact> 0.56446719E+00</totfact>
</mgrwt>
</event>
<event>
12    1  0.3111898E-012  0.1481281E+04  0.7818608E-02  0.8896997E-01
          1   -1    0    0  501    0  0.00000000000E+00  0.00000000000E+00  0.18668609429E+04  0.18668609429E+04  0.00000000000E+00 0. -1.
         -1   -1    0    0    0  501 -0.00000000000E+00 -0.00000000000E+00 -0.29383466107E+03  0.29383466107E+03  0.00000000000E+00 0.  1.
         23    2    1    2    0    0 -0.36389456428E+03 -0.77424809854E+02  0.59635151127E+03  0.70865918463E+03  0.90271035651E+02 0.  0.
    9900016    2    1    2    0    0  0.14417749845E+03 -0.15468650221E+03  0.57474101844E+03  0.93851719740E+03  0.71117664931E+03 0.  0.
         23    2    4    4    0    0 -0.11005357845E+03 -0.17000591304E+03  0.36041992265E+01  0.22177726435E+03  0.90323663190E+02 0.  0.
        -15    1    5    5    0    0 -0.12129629358E+03 -0.16776376817E+03  0.12304129351E+02  0.20738578627E+03  0.00000000000E+00 0.  1.
        -15    1    3    3    0    0 -0.15810036773E+03  0.52049773843E+01  0.20620983343E+03  0.25989481231E+03  0.00000000000E+00 0.  1.
         15    1    5    5    0    0  0.11242715134E+02 -0.22421448742E+01 -0.86999301245E+01  0.14391478083E+02  0.00000000000E+00 0. -1.
         15    1    3    3    0    0 -0.20579419655E+03 -0.82629787239E+02  0.39014167784E+03  0.44876437232E+03  0.00000000000E+00 0. -1.
        -16    1    4    4    0    0  0.25246231724E+03  0.10652168298E+03  0.25100463295E+03  0.37160115222E+03  0.00000000000E+00 0.  1.
         16    1    1    2    0    0  0.21971706582E+03  0.23211131206E+03  0.40193375214E+03  0.51351922195E+03  0.00000000000E+00 0. -1.
    9900018    1    4    4    0    0  0.17687596601E+01 -0.91202272150E+02  0.32013218627E+03  0.34513878083E+03  0.91187600000E+02 0.  0.
<mgrwt>
<rscale>  0 0.14812811E+04</rscale>
<asrwt>0</asrwt>
<pdfrwt beam="1">  1        1 0.28720937E+00 0.14812811E+04</pdfrwt>
<pdfrwt beam="2">  1       -1 0.45205334E-01 0.14812811E+04</pdfrwt>
<totfact> 0.17268367E+01</totfact>
</mgrwt>
</event>
<event>
12    1  0.3111898E-012  0.1763615E+04  0.7818608E-02  0.8725891E-01
         -1   -1    0    0    0  501 -0.00000000000E+00  0.00000000000E+00  0.48995281316E+03  0.48995281316E+03  0.00000000000E+00 0.  1.
          1   -1    0    0  501    0  0.00000000000E+00 -0.00000000000E+00 -0.15870599381E+04  0.15870599381E+04  0.00000000000E+00 0. -1.
         23    2    1    2    0    0 -0.35864167863E+03 -0.19449514125E+03  0.19441684587E+03  0.46119134333E+03  0.91909366145E+02 0.  0.
    9900016    2    1    2    0    0  0.37245146957E+03  0.18084384795E+03 -0.88991761810E+03  0.12137458794E+04  0.71400357012E+03 0.  0.
         23    2    4    4    0    0 -0.38416100946E+02  0.33334050800E+03 -0.31569359765E+03  0.46984922686E+03  0.92217987930E+02 0.  0.
        -15    1    5    5    0    0 -0.24730997345E+02  0.18826534238E+03 -0.23878420418E+03  0.30507926435E+03  0.00000000000E+00 0.  1.
        -15    1    3    3    0    0 -0.20812904492E+03 -0.65866565022E+02  0.79870311098E+02  0.23245509313E+03  0.00000000000E+00 0. -1.
         15    1    3    3    0    0 -0.15051263372E+03 -0.12862857623E+03  0.11454653477E+03  0.22873625021E+03  0.00000000000E+00 0.  1.
         15    1    5    5    0    0 -0.13685103602E+02  0.14507516562E+03 -0.76909393463E+02  0.16476996251E+03  0.00000000000E+00 0. -1.
        -16    1    4    4    0    0  0.30741620477E+03 -0.12693552557E+03 -0.39797115435E+03  0.51865054738E+03  0.00000000000E+00 0.  1.
         16    1    1    2    0    0 -0.13809790937E+02  0.13651293301E+02 -0.40160635274E+03  0.40207552860E+03  0.00000000000E+00 0. -1.
    9900018    1    4    4    0    0  0.10345136575E+03 -0.25561134486E+02 -0.17625286611E+03  0.22524610513E+03  0.91187600000E+02 0.  0.
<mgrwt>
<rscale>  0 0.17636150E+04</rscale>
<asrwt>0</asrwt>
<pdfrwt beam="1">  1        1 0.24416307E+00 0.17636150E+04</pdfrwt>
<pdfrwt beam="2">  1       -1 0.75377356E-01 0.17636150E+04</pdfrwt>
<totfact> 0.95372811E+00</totfact>
</mgrwt>
</event>
<event>
12    1  0.3111898E-012  0.1498499E+04  0.7818608E-02  0.8885452E-01
         -2   -1    0    0    0  501 -0.00000000000E+00  0.00000000000E+00  0.52804971488E+03  0.52804971488E+03  0.00000000000E+00 0.  1.
          2   -1    0    0  501    0  0.00000000000E+00 -0.00000000000E+00 -0.10631092271E+04  0.10631092271E+04  0.00000000000E+00 0. -1.
         23    2    1    2    0    0  0.26111644613E+03  0.35188593611E+03 -0.12578859000E+03  0.46532993268E+03  0.93293442420E+02 0.  0.
    9900016    2    1    2    0    0 -0.11017612681E+02 -0.25628167663E+03 -0.18521492531E+03  0.77670053628E+03  0.70933593518E+03 0.  0.
         23    2    4    4    0    0 -0.21719588524E+03  0.34723397438E+02  0.56752528016E+02  0.24539218096E+03  0.92826214767E+02 0.  0.
        -15    1    5    5    0    0 -0.18096392835E+03  0.55807847889E+02  0.21445315363E+02  0.19058426168E+03  0.00000000000E+00 0.  1.
        -15    1    3    3    0    0  0.65575101002E+02  0.10350513631E+03  0.63819539283E+01  0.12269529921E+03  0.00000000000E+00 0.  1.
         15    1    5    5    0    0 -0.36231956889E+02 -0.21084450451E+02  0.35307212653E+02  0.54807919283E+02  0.00000000000E+00 0. -1.
         15    1    3    3    0    0  0.19554134513E+03  0.24838079980E+03 -0.13217054393E+03  0.34263463346E+03  0.00000000000E+00 0. -1.
        -16    1    4    4    0    0  0.21531714843E+03 -0.12069972931E+03 -0.23024812007E+03  0.33755606328E+03  0.00000000000E+00 0.  1.
         16    1    1    2    0    0 -0.25009883345E+03 -0.95604259482E+02 -0.22405599693E+03  0.34912847304E+03  0.00000000000E+00 0. -1.
    9900018    1    4    4    0    0 -0.91388758706E+01 -0.17030534476E+03 -0.11719333259E+02  0.19375229204E+03  0.91187600000E+02 0.  0.
<mgrwt>
<rscale>  0 0.14984986E+04</rscale>
<asrwt>0</asrwt>
<pdfrwt beam="1">  1        2 0.16355526E+00 0.14984986E+04</pdfrwt>
<pdfrwt beam="2">  1       -2 0.81238418E-01 0.14984986E+04</pdfrwt>
<totfact> 0.29641407E+01</totfact>
</mgrwt>
</event>
<event>
12    1  0.3111898E-012  0.8866893E+03  0.7818608E-02  0.1003511E+00
          1   -1    0    0  501    0  0.00000000000E+00  0.00000000000E+00  0.10084589234E+04  0.10084589234E+04  0.00000000000E+00 0. -1.
         -1   -1    0    0    0  501 -0.00000000000E+00 -0.00000000000E+00 -0.60571388623E+03  0.60571388623E+03  0.00000000000E+00 0.  1.
         23    2    1    2    0    0  0.37360843092E+02  0.78768780496E+02 -0.39971755685E+03  0.41827814587E+03  0.87075419482E+02 0.  0.
    9900016    2    1    2    0    0 -0.10502958697E+03 -0.20497655818E+03  0.69035126519E+03  0.10140254467E+04  0.70612756194E+03 0.  0.
         23    2    4    4    0    0 -0.17782385276E+03 -0.90890324463E+02  0.40914511384E+03  0.46560133637E+03  0.97480801004E+02 0.  0.
        -15    1    3    3    0    0 -0.27267374282E+02  0.18081600194E+02 -0.14260630094E+03  0.14631134964E+03  0.00000000000E+00 0. -1.
        -15    1    5    5    0    0 -0.45327829142E+02 -0.17443719127E+02  0.20910727021E+03  0.21467357985E+03  0.00000000000E+00 0.  1.
         15    1    3    3    0    0  0.64628217374E+02  0.60687180302E+02 -0.25711125592E+03  0.27196679623E+03  0.00000000000E+00 0.  1.
         15    1    5    5    0    0 -0.13249602362E+03 -0.73446605336E+02  0.20003784363E+03  0.25092775652E+03  0.00000000000E+00 0. -1.
        -16    1    4    4    0    0  0.14602110018E+02  0.14223075431E+03  0.22188493946E+03  0.26396161737E+03  0.00000000000E+00 0.  1.
         16    1    1    2    0    0  0.67668743876E+02  0.12620777768E+03  0.11211132881E+03  0.18186921700E+03  0.00000000000E+00 0. -1.
    9900018    1    4    4    0    0  0.58192155774E+02 -0.25631698802E+03  0.59321211892E+02  0.28446249299E+03  0.91187600000E+02 0.  0.
<mgrwt>
<rscale>  0 0.54137280E+03</rscale>
<asrwt>0</asrwt>
<pdfrwt beam="1">  1        1 0.15514753E+00 0.88668925E+03</pdfrwt>
<pdfrwt beam="2">  1       -1 0.93186752E-01 0.88668925E+03</pdfrwt>
<totfact> 0.16895028E+01</totfact>
</mgrwt>
</event>
<event>
12    1  0.3111898E-012  0.1976209E+04  0.7818608E-02  0.8617825E-01
         -2   -1    0    0    0  501 -0.00000000000E+00  0.00000000000E+00  0.16822196052E+04  0.16822196052E+04  0.00000000000E+00 0.  1.
          2   -1    0    0  501    0  0.00000000000E+00 -0.00000000000E+00 -0.58039414497E+03  0.58039414497E+03  0.00000000000E+00 0. -1.
         23    2    1    2    0    0 -0.33871076222E+03  0.23875770367E+03 -0.16576614997E+03  0.45480535431E+03  0.87402930918E+02 0.  0.
    9900016    2    1    2    0    0  0.23878328775E+03  0.12526044142E+03  0.12050675501E+04  0.14251806810E+04  0.71150863414E+03 0.  0.
         23    2    4    4    0    0  0.30588476699E+03 -0.94467202228E+02  0.70080152838E+03  0.77511955851E+03  0.84841056232E+02 0.  0.
        -15    1    3    3    0    0 -0.28865487988E+03  0.21816785518E+03 -0.11261696847E+03  0.37894779891E+03  0.00000000000E+00 0.  1.
        -15    1    5    5    0    0  0.10624301968E+03  0.81074321260E+01  0.23793189326E+03  0.26070077774E+03  0.00000000000E+00 0.  1.
         15    1    3    3    0    0 -0.50055882340E+02  0.20589848487E+02 -0.53149181501E+02  0.75857555403E+02  0.00000000000E+00 0. -1.
         15    1    5    5    0    0  0.19964174731E+03 -0.10257463435E+03  0.46286963512E+03  0.51441878076E+03  0.00000000000E+00 0. -1.
        -16    1    1    2    0    0  0.99927474473E+02 -0.36401814509E+03  0.62524060109E+02  0.38262771489E+03  0.00000000000E+00 0.  1.
         16    1    4    4    0    0 -0.10912400117E+03  0.24570363101E+03  0.46886640581E+03  0.54047574267E+03  0.00000000000E+00 0. -1.
    9900018    1    4    4    0    0  0.42022521921E+02 -0.25975987360E+02  0.35399615919E+02  0.10958537981E+03  0.91187600000E+02 0.  0.
<mgrwt>
<rscale>  0 0.19762089E+04</rscale>
<asrwt>0</asrwt>
<pdfrwt beam="1">  1        2 0.89291408E-01 0.19762089E+04</pdfrwt>
<pdfrwt beam="2">  1       -2 0.25880301E+00 0.19762089E+04</pdfrwt>
<totfact> 0.27267857E+00</totfact>
</mgrwt>
</event>
<event>
12    1  0.3111898E-012  0.1504140E+04  0.7818608E-02  0.8881705E-01
         -2   -1    0    0    0  501 -0.00000000000E+00  0.00000000000E+00  0.10083332048E+04  0.10083332048E+04  0.00000000000E+00 0.  1.
          2   -1    0    0  501    0  0.00000000000E+00 -0.00000000000E+00 -0.56093473885E+03  0.56093473885E+03  0.00000000000E+00 0. -1.
         23    2    1    2    0    0  0.36229320581E+03 -0.16537604671E+03  0.19938044405E+03  0.45443220291E+03  0.90279907907E+02 0.  0.
    9900016    2    1    2    0    0 -0.24354080230E+03  0.55877578968E+02 -0.12003505572E+02  0.80872588705E+03  0.76906374900E+03 0.  0.
         23    2    4    4    0    0  0.21588438994E+03 -0.37070629074E+02  0.82539763147E+02  0.25115775588E+03  0.91033534904E+02 0.  0.
        -15    1    3    3    0    0  0.77554296825E+02  0.26586713770E+01  0.33366118671E+02  0.84469138534E+02  0.00000000000E+00 0.  1.
        -15    1    5    5    0    0  0.80678617310E+02 -0.14449253816E+02  0.79283854150E+02  0.11403398509E+03  0.00000000000E+00 0. -1.
         15    1    5    5    0    0  0.13520577263E+03 -0.22621375258E+02  0.32559089968E+01  0.13712377079E+03  0.00000000000E+00 0.  1.
         15    1    3    3    0    0  0.28473890898E+03 -0.16803471808E+03  0.16601432538E+03  0.36996306437E+03  0.00000000000E+00 0. -1.
        -16    1    1    2    0    0 -0.11875240351E+03  0.10949846774E+03  0.26002152745E+03  0.30610985367E+03  0.00000000000E+00 0.  1.
         16    1    4    4    0    0 -0.24090455491E+03  0.14503423567E+02 -0.17202186924E+03  0.29637286881E+03  0.00000000000E+00 0. -1.
    9900018    1    4    4    0    0 -0.21852063733E+03  0.78444784475E+02  0.77478600518E+02  0.26119526237E+03  0.91187600000E+02 0.  0.
<mgrwt>
<rscale>  0 0.15041398E+04</rscale>
<asrwt>0</asrwt>
<pdfrwt beam="1">  1        2 0.86297653E-01 0.15041398E+04</pdfrwt>
<pdfrwt beam="2">  1       -2 0.15512818E+00 0.15041398E+04</pdfrwt>
<totfact> 0.14215832E+01</totfact>
</mgrwt>
</event>
<event>
12    1  0.3111898E-012  0.1055955E+04  0.7818608E-02  0.9700685E-01
         -1   -1    0    0    0  501 -0.00000000000E+00  0.00000000000E+00  0.18333828468E+03  0.18333828468E+03  0.00000000000E+00 0.  1.
          1   -1    0    0  501    0  0.00000000000E+00 -0.00000000000E+00 -0.25262881267E+04  0.25262881267E+04  0.00000000000E+00 0. -1.
         23    2    1    2    0    0 -0.38158024823E+02  0.19597407038E+03 -0.11543606020E+03  0.24449784127E+03  0.81190142706E+02 0.  0.
    9900016    2    1    2    0    0 -0.21445335466E+03 -0.96718426937E+02 -0.18737350342E+04  0.20192321762E+04  0.71489223500E+03 0.  0.
         23    2    4    4    0    0 -0.29988052338E+03  0.15810222779E+03 -0.13074456229E+04  0.13538251384E+04  0.92216083128E+02 0.  0.
        -15    1    5    5    0    0 -0.41316199281E+02 -0.62802490082E+01 -0.22516120530E+03  0.22900663357E+03  0.00000000000E+00 0.  1.
        -15    1    3    3    0    0  0.22868428220E+02  0.47449491421E+02 -0.13759698817E+02  0.54440321058E+02  0.00000000000E+00 0. -1.
         15    1    5    5    0    0 -0.25856432410E+03  0.16438247680E+03 -0.10822844176E+04  0.11248185049E+04  0.00000000000E+00 0. -1.
         15    1    3    3    0    0 -0.61026453043E+02  0.14852457896E+03 -0.10167636138E+03  0.19005752022E+03  0.00000000000E+00 0.  1.
        -16    1    4    4    0    0  0.98469380697E+02 -0.20524534553E+03 -0.47431644670E+03  0.52611592107E+03  0.00000000000E+00 0.  1.
         16    1    1    2    0    0  0.25261137949E+03 -0.99255643444E+02 -0.35377874759E+03  0.44589639385E+03  0.00000000000E+00 0. -1.
    9900018    1    4    4    0    0 -0.13042211980E+02 -0.49575309198E+02 -0.91972964623E+02  0.13929111670E+03  0.91187600000E+02 0.  0.
<mgrwt>
<rscale>  0 0.70976021E+03</rscale>
<asrwt>0</asrwt>
<pdfrwt beam="1">  1        1 0.38865970E+00 0.10559551E+04</pdfrwt>
<pdfrwt beam="2">  1       -1 0.28205891E-01 0.10559551E+04</pdfrwt>
<totfact> 0.14915643E+01</totfact>
</mgrwt>
</event>
<event>
12    1  0.3111898E-012  0.1454831E+04  0.7818608E-02  0.8915058E-01
         -2   -1    0    0    0  501 -0.00000000000E+00  0.00000000000E+00  0.19598725380E+04  0.19598725380E+04  0.00000000000E+00 0.  1.
          2   -1    0    0  501    0  0.00000000000E+00 -0.00000000000E+00 -0.26998347333E+03  0.26998347333E+03  0.00000000000E+00 0. -1.
         23    2    1    2    0    0 -0.19918549764E+03 -0.35754957153E+03  0.55539662373E+03  0.69581967487E+03  0.90460221738E+02 0.  0.
    9900016    2    1    2    0    0  0.15869624036E+03  0.59634098915E+02  0.86238239141E+03  0.11285281518E+04  0.70790654603E+03 0.  0.
         23    2    4    4    0    0 -0.18080336008E+03  0.27226248449E+02  0.45891211667E+03  0.50218513353E+03  0.90324160087E+02 0.  0.
        -15    1    5    5    0    0 -0.91409760559E+02 -0.89513978083E+01  0.12824455516E+03  0.15774199750E+03  0.00000000000E+00 0. -1.
        -15    1    3    3    0    0 -0.64876840859E+02 -0.11932333752E+03  0.11776574459E+03  0.17976605340E+03  0.00000000000E+00 0.  1.
         15    1    5    5    0    0 -0.89393599522E+02  0.36177646257E+02  0.33066756151E+03  0.34444313603E+03  0.00000000000E+00 0.  1.
         15    1    3    3    0    0 -0.13430865678E+03 -0.23822623401E+03  0.43763087914E+03  0.51605362147E+03  0.00000000000E+00 0. -1.
        -16    1    1    2    0    0  0.40489257277E+02  0.29791547261E+03  0.27211004951E+03  0.40550818465E+03  0.00000000000E+00 0.  1.
         16    1    4    4    0    0  0.33175618532E+03  0.68686273514E+02  0.40482992292E+03  0.52788941754E+03  0.00000000000E+00 0. -1.
    9900018    1    4    4    0    0  0.77434151277E+01 -0.36278423048E+02 -0.13596481780E+01  0.98453600714E+02  0.91187600000E+02 0.  0.
<mgrwt>
<rscale>  0 0.14548308E+04</rscale>
<asrwt>0</asrwt>
<pdfrwt beam="1">  1        2 0.41535920E-01 0.14548308E+04</pdfrwt>
<pdfrwt beam="2">  1       -2 0.30151884E+00 0.14548308E+04</pdfrwt>
<totfact> 0.37408235E+00</totfact>
</mgrwt>
</event>
<event>
12    1  0.3111898E-012  0.1165186E+04  0.7818608E-02  0.9143887E-01
          2   -1    0    0  501    0  0.00000000000E+00  0.00000000000E+00  0.11342468274E+04  0.11342468274E+04  0.00000000000E+00 0. -1.
         -2   -1    0    0    0  501 -0.00000000000E+00 -0.00000000000E+00 -0.29924243176E+03  0.29924243176E+03  0.00000000000E+00 0.  1.
         23    2    1    2    0    0  0.10381267175E+03 -0.21168709893E+03  0.76384329960E+02  0.26360493616E+03  0.89802549137E+02 0.  0.
    9900016    2    1    2    0    0  0.58378151702E+01  0.16049008298E+03  0.73545137280E+03  0.10466725051E+04  0.72721624326E+03 0.  0.
         23    2    4    4    0    0 -0.77517352934E+02 -0.90259647064E+02  0.55530675281E+03  0.57533023472E+03  0.92106163618E+02 0.  0.
        -15    1    5    5    0    0 -0.75216598615E+02 -0.48919405246E+02  0.48895878670E+03  0.49712306324E+03  0.00000000000E+00 0.  1.
        -15    1    3    3    0    0  0.85748026368E+02 -0.83012064582E+02  0.16322488696E+02  0.12045808619E+03  0.00000000000E+00 0.  1.
         15    1    5    5    0    0 -0.23007543191E+01 -0.41340241818E+02  0.66347966108E+02  0.78207171479E+02  0.00000000000E+00 0. -1.
         15    1    3    3    0    0  0.18064645382E+02 -0.12867503435E+03  0.60061841264E+02  0.14314684996E+03  0.00000000000E+00 0. -1.
        -16    1    1    2    0    0 -0.10965048692E+03  0.51197015957E+02  0.23168692859E+02  0.12321181783E+03  0.00000000000E+00 0.  1.
         16    1    4    4    0    0 -0.10958351405E+03  0.10331150608E+03  0.14594146682E+03  0.20971582100E+03  0.00000000000E+00 0. -1.
    9900018    1    4    4    0    0  0.19293868216E+03  0.14743822396E+03  0.34203153171E+02  0.26162644942E+03  0.91187600000E+02 0.  0.
<mgrwt>
<rscale>  0 0.11651863E+04</rscale>
<asrwt>0</asrwt>
<pdfrwt beam="1">  1        2 0.17449951E+00 0.11651863E+04</pdfrwt>
<pdfrwt beam="2">  1       -2 0.46037298E-01 0.11651863E+04</pdfrwt>
<totfact> 0.91790881E+01</totfact>
</mgrwt>
</event>
<event>
12    1  0.3111898E-012  0.1623962E+04  0.7818608E-02  0.8805961E-01
         -1   -1    0    0    0  501 -0.00000000000E+00  0.00000000000E+00  0.26314941589E+03  0.26314941589E+03  0.00000000000E+00 0.  1.
          1   -1    0    0  501    0  0.00000000000E+00 -0.00000000000E+00 -0.25054694518E+04  0.25054694518E+04  0.00000000000E+00 0. -1.
         23    2    1    2    0    0  0.33072063719E+03 -0.22905906295E+03 -0.37488873578E+03  0.55775062833E+03  0.93273817341E+02 0.  0.
    9900016    2    1    2    0    0 -0.23091551255E+03  0.24033764868E+03 -0.71946840931E+03  0.10585197382E+04  0.70124538135E+03 0.  0.
         23    2    4    4    0    0 -0.68877727753E+02  0.44626055650E+03 -0.56075307633E+03  0.72572576195E+03  0.91330407202E+02 0.  0.
        -15    1    5    5    0    0 -0.15573492199E+02  0.18063831006E+03 -0.29474882732E+03  0.34604855718E+03  0.00000000000E+00 0.  1.
        -15    1    3    3    0    0  0.14534217941E+03 -0.15711466033E+03 -0.18854388080E+03  0.28523351940E+03  0.00000000000E+00 0.  1.
         15    1    5    5    0    0 -0.53304235554E+02  0.26562224644E+03 -0.26600424901E+03  0.37967720477E+03  0.00000000000E+00 0. -1.
         15    1    3    3    0    0  0.18537845778E+03 -0.71944402626E+02 -0.18634485498E+03  0.27251710892E+03  0.00000000000E+00 0. -1.
        -16    1    1    2    0    0 -0.99805124635E+02 -0.11278585726E+02 -0.11479628909E+04  0.11523485012E+04  0.00000000000E+00 0.  1.
         16    1    4    4    0    0 -0.50805816254E+02 -0.59890993458E+02 -0.83046767642E+02  0.11430191459E+03  0.00000000000E+00 0. -1.
    9900018    1    4    4    0    0 -0.11123196855E+03 -0.14603191436E+03 -0.75668565334E+02  0.21849206167E+03  0.91187600000E+02 0.  0.
<mgrwt>
<rscale>  0 0.16239616E+04</rscale>
<asrwt>0</asrwt>
<pdfrwt beam="1">  1        1 0.38545684E+00 0.16239616E+04</pdfrwt>
<pdfrwt beam="2">  1       -1 0.40484525E-01 0.16239616E+04</pdfrwt>
<totfact> 0.76768609E+00</totfact>
</mgrwt>
</event>
<event>
12    1  0.3385769E-012  0.1845952E+04  0.7818608E-02  0.8682237E-01
          2   -1    0    0  501    0  0.00000000000E+00  0.00000000000E+00  0.10988293982E+04  0.10988293982E+04  0.00000000000E+00 0. -1.
         -2   -1    0    0    0  501 -0.00000000000E+00 -0.00000000000E+00 -0.77526582548E+03  0.77526582548E+03  0.00000000000E+00 0.  1.
         23    2    1    2    0    0  0.32050122393E+03 -0.30567716533E+03 -0.15656382807E+03  0.47843933169E+03  0.90732562526E+02 0.  0.
    9900016    2    1    2    0    0  0.11321757699E+03  0.37281211654E+03  0.40928248938E+03  0.95109082209E+03  0.76501928196E+03 0.  0.
         23    2    4    4    0    0  0.10365335699E+03  0.12047291269E+02  0.51297245012E+03  0.53129506822E+03  0.90799555568E+02 0.  0.
        -15    1    3    3    0    0  0.17981613972E+03 -0.15084862154E+03 -0.12786818997E+03  0.26728154581E+03  0.00000000000E+00 0.  1.
        -15    1    5    5    0    0  0.44825943699E+02 -0.33871097714E+02  0.13855400459E+03  0.14951196834E+03  0.00000000000E+00 0.  1.
         15    1    3    3    0    0  0.14068508420E+03 -0.15482854379E+03 -0.28695638099E+02  0.21115778588E+03  0.00000000000E+00 0. -1.
         15    1    5    5    0    0  0.58827413288E+02  0.45918388983E+02  0.37441844553E+03  0.38178309988E+03  0.00000000000E+00 0. -1.
        -16    1    4    4    0    0 -0.58666043852E+02  0.12534123119E+03  0.20235932361E+00  0.13839136492E+03  0.00000000000E+00 0.  1.
         16    1    1    2    0    0 -0.43371880092E+03 -0.67134951207E+02  0.70844911458E+02  0.44456506995E+03  0.00000000000E+00 0. -1.
    9900018    1    4    4    0    0  0.68230263853E+02  0.23542359409E+03 -0.10389232007E+03  0.28140438895E+03  0.91187600000E+02 0.  0.
<mgrwt>
<rscale>  0 0.18459522E+04</rscale>
<asrwt>0</asrwt>
<pdfrwt beam="1">  1        2 0.16905068E+00 0.18459522E+04</pdfrwt>
<pdfrwt beam="2">  1       -2 0.11927166E+00 0.18459522E+04</pdfrwt>
<totfact> 0.11067176E+01</totfact>
</mgrwt>
</event>
<event>
12    1  0.3111898E-012  0.1575155E+04  0.7818608E-02  0.8835958E-01
          5   -1    0    0  501    0  0.00000000000E+00  0.00000000000E+00  0.69336740943E+03  0.69336740943E+03  0.00000000000E+00 0. -1.
         -5   -1    0    0    0  501 -0.00000000000E+00 -0.00000000000E+00 -0.89458806401E+03  0.89458806401E+03  0.00000000000E+00 0.  1.
         23    2    1    2    0    0  0.85220589531E+02 -0.27263603040E+03 -0.45769353787E+03  0.54663945143E+03  0.87967956102E+02 0.  0.
    9900016    2    1    2    0    0  0.14858925807E+03  0.16694466514E+03  0.13347633899E+03  0.75677101777E+03  0.71058929871E+03 0.  0.
         23    2    4    4    0    0  0.24633765597E+02  0.92844601309E+01 -0.18585143921E+03  0.21135625531E+03  0.97147751360E+02 0.  0.
        -15    1    5    5    0    0 -0.15616709918E+01 -0.30713757814E+02 -0.14573118668E+03  0.14894076845E+03  0.00000000000E+00 0.  1.
        -15    1    3    3    0    0  0.58079054722E+02 -0.10485063854E+03 -0.12582178068E+03  0.17377558371E+03  0.00000000000E+00 0. -1.
         15    1    5    5    0    0  0.26195436589E+02  0.39998217945E+02 -0.40120252532E+02  0.62415486860E+02  0.00000000000E+00 0. -1.
         15    1    3    3    0    0  0.27141534809E+02 -0.16778539186E+03 -0.33187175719E+03  0.37286386772E+03  0.00000000000E+00 0.  1.
        -16    1    4    4    0    0  0.24381425387E+03  0.41305726184E+02  0.21875824926E+03  0.33016166499E+03  0.00000000000E+00 0.  1.
         16    1    1    2    0    0 -0.23380984760E+03  0.10569136526E+03  0.12299654430E+03  0.28454500423E+03  0.00000000000E+00 0. -1.
    9900018    1    4    4    0    0 -0.11985876141E+03  0.11635447883E+03  0.10056952894E+03  0.21525309748E+03  0.91187600000E+02 0.  0.
<mgrwt>
<rscale>  0 0.15751549E+04</rscale>
<asrwt>0</asrwt>
<pdfrwt beam="1">  1        5 0.10667191E+00 0.15751549E+04</pdfrwt>
<pdfrwt beam="2">  1       -5 0.13762893E+00 0.15751549E+04</pdfrwt>
<totfact> 0.21393137E-01</totfact>
</mgrwt>
</event>
<event>
12    1  0.3282494E-012  0.1443300E+04  0.7818608E-02  0.8923059E-01
          1   -1    0    0  501    0  0.00000000000E+00  0.00000000000E+00  0.27460310791E+04  0.27460310791E+04  0.00000000000E+00 0. -1.
         -1   -1    0    0    0  501 -0.00000000000E+00 -0.00000000000E+00 -0.18964780139E+03  0.18964780139E+03  0.00000000000E+00 0.  1.
         23    2    1    2    0    0 -0.20457682651E+03 -0.13356803140E+03  0.17747571305E+03  0.31466102000E+03  0.88441120684E+02 0.  0.
    9900016    2    1    2    0    0  0.21874762988E+02  0.14010076966E+02  0.10061647081E+04  0.12310189041E+04  0.70877735219E+03 0.  0.
         23    2    4    4    0    0  0.65199842736E+02 -0.16406140377E+02 -0.44514596682E+02  0.12000068249E+03  0.88873131734E+02 0.  0.
        -15    1    5    5    0    0  0.73499447125E+02  0.11043542147E+02 -0.97914985073E+01  0.74966672554E+02  0.00000000000E+00 0.  1.
        -15    1    3    3    0    0 -0.11612008388E+03 -0.23587046467E+02  0.87207780244E+02  0.14712382396E+03  0.00000000000E+00 0.  1.
         15    1    5    5    0    0 -0.82996043887E+01 -0.27449682523E+02 -0.34723098175E+02  0.45034009931E+02  0.00000000000E+00 0. -1.
         15    1    3    3    0    0 -0.88456742626E+02 -0.10998098494E+03  0.90267932803E+02  0.16753719604E+03  0.00000000000E+00 0. -1.
        -16    1    4    4    0    0  0.12768167835E+03  0.35054570037E+02  0.67934389126E+03  0.69212683553E+03  0.00000000000E+00 0.  1.
         16    1    1    2    0    0  0.18270206352E+03  0.11955795444E+03  0.13727428566E+04  0.13899989564E+04  0.00000000000E+00 0. -1.
    9900018    1    4    4    0    0 -0.17100675809E+03 -0.46383526941E+01  0.37133541353E+03  0.41889138612E+03  0.91187600000E+02 0.  0.
<mgrwt>
<rscale>  0 0.14433000E+04</rscale>
<asrwt>0</asrwt>
<pdfrwt beam="1">  1        1 0.42246629E+00 0.14433000E+04</pdfrwt>
<pdfrwt beam="2">  1       -1 0.29176587E-01 0.14433000E+04</pdfrwt>
<totfact> 0.95256391E+00</totfact>
</mgrwt>
</event>
<event>
12    1  0.3111898E-012  0.1840702E+04  0.7818608E-02  0.8684949E-01
         -1   -1    0    0    0  501 -0.00000000000E+00  0.00000000000E+00  0.56390369010E+03  0.56390369010E+03  0.00000000000E+00 0.  1.
          1   -1    0    0  501    0  0.00000000000E+00 -0.00000000000E+00 -0.15021116825E+04  0.15021116825E+04  0.00000000000E+00 0. -1.
         23    2    1    2    0    0 -0.36760645575E+02 -0.49640693221E+03 -0.87175475463E+03  0.10081050364E+04  0.92456609984E+02 0.  0.
    9900016    2    1    2    0    0  0.82255838016E+02  0.22044027481E+03 -0.66748936837E+01  0.77190184168E+03  0.73513805598E+03 0.  0.
         23    2    4    4    0    0  0.79705513482E+02  0.12112248179E+03 -0.45363126468E+02  0.17608986925E+03  0.89029233041E+02 0.  0.
        -15    1    5    5    0    0  0.77254231579E+02  0.52561179578E+02 -0.52392675171E+02  0.10712556328E+03  0.00000000000E+00 0.  1.
        -15    1    3    3    0    0  0.11848429147E+02 -0.95365136814E+02 -0.11160700205E+03  0.14727870688E+03  0.00000000000E+00 0.  1.
         15    1    3    3    0    0 -0.48609074721E+02 -0.40104179539E+03 -0.76014775258E+03  0.86082632949E+03  0.00000000000E+00 0. -1.
         15    1    5    5    0    0  0.24512819025E+01  0.68561302211E+02  0.70295487023E+01  0.68964305976E+02  0.00000000000E+00 0. -1.
        -16    1    4    4    0    0  0.60933886423E+02  0.26225382895E+03  0.20551003654E+03  0.33870988239E+03  0.00000000000E+00 0.  1.
         16    1    1    2    0    0 -0.45495192442E+02  0.27596665740E+03 -0.59778344088E+02  0.28600849455E+03  0.00000000000E+00 0. -1.
    9900018    1    4    4    0    0 -0.58383561888E+02 -0.16293603593E+03 -0.16682180375E+03  0.25710209004E+03  0.91187600000E+02 0.  0.
<mgrwt>
<rscale>  0 0.18407024E+04</rscale>
<asrwt>0</asrwt>
<pdfrwt beam="1">  1        1 0.23109411E+00 0.18407024E+04</pdfrwt>
<pdfrwt beam="2">  1       -1 0.86754414E-01 0.18407024E+04</pdfrwt>
<totfact> 0.80276317E+00</totfact>
</mgrwt>
</event>
<event>
12    1  0.3111898E-012  0.1379815E+04  0.7818608E-02  0.8968560E-01
         -5   -1    0    0    0  501 -0.00000000000E+00  0.00000000000E+00  0.79026433213E+03  0.79026433213E+03  0.00000000000E+00 0.  1.
          5   -1    0    0  501    0  0.00000000000E+00 -0.00000000000E+00 -0.60229524821E+03  0.60229524821E+03  0.00000000000E+00 0. -1.
         23    2    1    2    0    0  0.98138247653E+02 -0.31282993086E+03 -0.20892753077E+03  0.39924599052E+03  0.90845839437E+02 0.  0.
    9900016    2    1    2    0    0  0.37134311890E+02  0.29081901933E+03  0.36400647980E+03  0.85237067030E+03  0.71279757513E+03 0.  0.
         23    2    4    4    0    0 -0.12793669908E+03  0.71794586794E+02  0.97433457345E+02  0.19832493609E+03  0.91198903494E+02 0.  0.
        -15    1    5    5    0    0 -0.72202507162E+02  0.69406030744E+01  0.54600891782E+01  0.72740542927E+02  0.00000000000E+00 0.  1.
        -15    1    3    3    0    0  0.10136981558E+02 -0.13553411029E+03 -0.47976856881E+02  0.14413199591E+03  0.00000000000E+00 0. -1.
         15    1    3    3    0    0  0.88001266095E+02 -0.17729582056E+03 -0.16095067389E+03  0.25511399461E+03  0.00000000000E+00 0.  1.
         15    1    5    5    0    0 -0.55734191922E+02  0.64853983719E+02  0.91973368167E+02  0.12558439316E+03  0.00000000000E+00 0. -1.
        -16    1    1    2    0    0 -0.13527255954E+03  0.22010911523E+02  0.32890134878E+02  0.14094291952E+03  0.00000000000E+00 0.  1.
         16    1    4    4    0    0  0.27862161474E+03  0.31614697488E+03  0.20367159251E+03  0.46803956192E+03  0.00000000000E+00 0. -1.
    9900018    1    4    4    0    0 -0.11355060377E+03 -0.97122542340E+02  0.62901429952E+02  0.18600617229E+03  0.91187600000E+02 0.  0.
<mgrwt>
<rscale>  0 0.13798151E+04</rscale>
<asrwt>0</asrwt>
<pdfrwt beam="1">  1        5 0.92660807E-01 0.13798151E+04</pdfrwt>
<pdfrwt beam="2">  1       -5 0.12157913E+00 0.13798151E+04</pdfrwt>
<totfact> 0.42821500E-01</totfact>
</mgrwt>
</event>
<event>
12    1  0.3111898E-012  0.1077733E+04  0.7818608E-02  0.9894039E-01
         -2   -1    0    0    0  501 -0.00000000000E+00  0.00000000000E+00  0.71461261321E+03  0.71461261321E+03  0.00000000000E+00 0.  1.
          2   -1    0    0  501    0  0.00000000000E+00 -0.00000000000E+00 -0.49241566329E+03  0.49241566329E+03  0.00000000000E+00 0. -1.
         23    2    1    2    0    0  0.20690280894E+02  0.46246006070E+02  0.42025455497E+01  0.10746954766E+03  0.94685064734E+02 0.  0.
    9900016    2    1    2    0    0  0.21962997384E+03  0.27417249339E+02 -0.48759999829E+02  0.73303722580E+03  0.69712051029E+03 0.  0.
         23    2    4    4    0    0  0.13820473434E+03  0.16564379298E+03 -0.66651953073E+02  0.24480471707E+03  0.94596257355E+02 0.  0.
        -15    1    3    3    0    0  0.45157620457E-01 -0.21714565204E+02  0.25332933549E+02  0.33365879329E+02  0.00000000000E+00 0.  1.
        -15    1    5    5    0    0 -0.16242704941E+01  0.15573776115E+02 -0.33562529984E+02  0.37035444861E+02  0.00000000000E+00 0.  1.
         15    1    5    5    0    0  0.13982900483E+03  0.15007001687E+03 -0.33089423089E+02  0.20776927221E+03  0.00000000000E+00 0. -1.
         15    1    3    3    0    0  0.20645123273E+02  0.67960571273E+02 -0.21130387999E+02  0.74103668329E+02  0.00000000000E+00 0. -1.
        -16    1    1    2    0    0 -0.24032025473E+03 -0.73663255409E+02  0.26675440420E+03  0.36652150304E+03  0.00000000000E+00 0.  1.
         16    1    4    4    0    0 -0.17585148815E+03  0.57955814181E+01 -0.20883686151E+02  0.17718200528E+03  0.00000000000E+00 0. -1.
    9900018    1    4    4    0    0  0.25727672764E+03 -0.14402212506E+03  0.38775639394E+02  0.31105050345E+03  0.91187600000E+02 0.  0.
<mgrwt>
<rscale>  0 0.60551037E+03</rscale>
<asrwt>0</asrwt>
<pdfrwt beam="1">  1        2 0.75756256E-01 0.10777327E+04</pdfrwt>
<pdfrwt beam="2">  1       -2 0.10994040E+00 0.10777327E+04</pdfrwt>
<totfact> 0.40935821E+01</totfact>
</mgrwt>
</event>
<event>
12    1  0.3111898E-012  0.1625565E+04  0.7818608E-02  0.8804995E-01
          2   -1    0    0  501    0  0.00000000000E+00  0.00000000000E+00  0.23450845897E+04  0.23450845897E+04  0.00000000000E+00 0. -1.
         -2   -1    0    0    0  501 -0.00000000000E+00 -0.00000000000E+00 -0.28170211126E+03  0.28170211126E+03  0.00000000000E+00 0.  1.
         23    2    1    2    0    0 -0.27480899159E+03 -0.27570599069E+03  0.13590575063E+04  0.14163513921E+04  0.86488064395E+02 0.  0.
    9900016    2    1    2    0    0  0.60126124102E+02  0.29904331675E+03  0.55993474116E+03  0.95066251738E+03  0.70511718991E+03 0.  0.
         23    2    4    4    0    0 -0.25365794600E+03  0.14029265166E+03  0.23270698832E+03  0.38303481329E+03  0.92405325053E+02 0.  0.
        -15    1    5    5    0    0 -0.75089554499E+02  0.89071324851E+02  0.68830711931E+02  0.13531374287E+03  0.00000000000E+00 0. -1.
        -15    1    3    3    0    0 -0.89126444005E+02 -0.14745117847E+03  0.54431257654E+03  0.57093042836E+03  0.00000000000E+00 0.  1.
         15    1    3    3    0    0 -0.18568254758E+03 -0.12825481222E+03  0.81474492981E+03  0.84542096377E+03  0.00000000000E+00 0. -1.
         15    1    5    5    0    0 -0.17856839150E+03  0.51221326807E+02  0.16387627639E+03  0.24772107041E+03  0.00000000000E+00 0.  1.
        -16    1    1    2    0    0  0.21468286748E+03 -0.23337326056E+02  0.14439023093E+03  0.25977279143E+03  0.00000000000E+00 0.  1.
         16    1    4    4    0    0  0.53825783855E+02 -0.81075806635E+02  0.86303868285E+02  0.13007251481E+03  0.00000000000E+00 0. -1.
    9900018    1    4    4    0    0  0.25995828624E+03  0.23982647173E+03  0.24092388455E+03  0.43755518928E+03  0.91187600000E+02 0.  0.
<mgrwt>
<rscale>  0 0.16255649E+04</rscale>
<asrwt>0</asrwt>
<pdfrwt beam="1">  1        2 0.36078223E+00 0.16255649E+04</pdfrwt>
<pdfrwt beam="2">  1       -2 0.43338788E-01 0.16255649E+04</pdfrwt>
<totfact> 0.20673835E+01</totfact>
</mgrwt>
</event>
<event>
12    1  0.3111898E-012  0.1552139E+04  0.7818608E-02  0.8850502E-01
          2   -1    0    0  501    0  0.00000000000E+00  0.00000000000E+00  0.97817761546E+03  0.97817761546E+03  0.00000000000E+00 0. -1.
         -2   -1    0    0    0  501 -0.00000000000E+00 -0.00000000000E+00 -0.61572059417E+03  0.61572059417E+03  0.00000000000E+00 0.  1.
         23    2    1    2    0    0 -0.25795561310E+03 -0.26387206355E+03  0.25805444126E+03  0.45882758179E+03  0.88097053861E+02 0.  0.
    9900016    2    1    2    0    0  0.39234728728E+03 -0.24872898232E+02  0.71177076047E+02  0.81485396813E+03  0.71018712908E+03 0.  0.
         23    2    4    4    0    0  0.37950655581E+03  0.12241225380E+03 -0.10391096933E+03  0.42174692267E+03  0.89794161554E+02 0.  0.
        -15    1    3    3    0    0 -0.59870998049E+02 -0.27080985494E+02  0.75830606051E+02  0.10034040560E+03  0.00000000000E+00 0.  1.
        -15    1    5    5    0    0  0.27743758990E+03  0.51308730389E+02 -0.51697282974E+02  0.28683934732E+03  0.00000000000E+00 0.  1.
         15    1    5    5    0    0  0.10206896591E+03  0.71103523413E+02 -0.52213686359E+02  0.13490757535E+03  0.00000000000E+00 0. -1.
         15    1    3    3    0    0 -0.19808461505E+03 -0.23679107806E+03  0.18222383521E+03  0.35848717618E+03  0.00000000000E+00 0. -1.
        -16    1    4    4    0    0  0.67671076760E+02 -0.76683674190E+02  0.23181906195E+03  0.25337686950E+03  0.00000000000E+00 0.  1.
         16    1    1    2    0    0 -0.13439167417E+03  0.28874496178E+03  0.33225503984E+02  0.32021665971E+03  0.00000000000E+00 0. -1.
    9900018    1    4    4    0    0 -0.54830345293E+02 -0.70601477843E+02 -0.56731016566E+02  0.13973017596E+03  0.91187600000E+02 0.  0.
<mgrwt>
<rscale>  0 0.15521393E+04</rscale>
<asrwt>0</asrwt>
<pdfrwt beam="1">  1        2 0.15048886E+00 0.15521393E+04</pdfrwt>
<pdfrwt beam="2">  1       -2 0.94726246E-01 0.15521393E+04</pdfrwt>
<totfact> 0.23503391E+01</totfact>
</mgrwt>
</event>
<event>
12    1  0.3111898E-012  0.1973201E+04  0.7818608E-02  0.8619253E-01
         -1   -1    0    0    0  501 -0.00000000000E+00  0.00000000000E+00  0.48634297120E+03  0.48634297120E+03  0.00000000000E+00 0.  1.
          1   -1    0    0  501    0  0.00000000000E+00 -0.00000000000E+00 -0.20014286653E+04  0.20014286653E+04  0.00000000000E+00 0. -1.
         23    2    1    2    0    0  0.21643110637E+03 -0.45131045634E+03 -0.15377501779E+03  0.53128488715E+03  0.89962900210E+02 0.  0.
    9900016    2    1    2    0    0 -0.48646282846E+03  0.50370866885E+03 -0.61388365520E+03  0.11600510297E+04  0.69173458994E+03 0.  0.
         23    2    4    4    0    0 -0.30707426012E+03 -0.26719184257E+02 -0.68606264280E+02  0.32861859120E+03  0.90966163741E+02 0.  0.
        -15    1    5    5    0    0 -0.26350310418E+03 -0.16268427975E+02 -0.90056135234E+02  0.27894202831E+03  0.00000000000E+00 0. -1.
        -15    1    3    3    0    0  0.15704311816E+02 -0.11415087300E+03 -0.21592934033E+02  0.11723183022E+03  0.00000000000E+00 0. -1.
         15    1    3    3    0    0  0.20072679455E+03 -0.33715958334E+03 -0.13218208376E+03  0.41405305693E+03  0.00000000000E+00 0.  1.
         15    1    5    5    0    0 -0.43571155938E+02 -0.10450756282E+02  0.21449870954E+02  0.49676562890E+02  0.00000000000E+00 0.  1.
        -16    1    1    2    0    0  0.27003172209E+03 -0.52398212513E+02 -0.74742702116E+03  0.79643571967E+03  0.00000000000E+00 0.  1.
         16    1    4    4    0    0  0.39944524979E+02  0.21117723182E+03 -0.10914656741E+03  0.24104846295E+03  0.00000000000E+00 0. -1.
    9900018    1    4    4    0    0 -0.21933309331E+03  0.31925062129E+03 -0.43613082351E+03  0.59038397558E+03  0.91187600000E+02 0.  0.
<mgrwt>
<rscale>  0 0.19732012E+04</rscale>
<asrwt>0</asrwt>
<pdfrwt beam="1">  1        1 0.30791210E+00 0.19732012E+04</pdfrwt>
<pdfrwt beam="2">  1       -1 0.74821997E-01 0.19732012E+04</pdfrwt>
<totfact> 0.49672077E+00</totfact>
</mgrwt>
</event>
<event>
12    1  0.3111898E-012  0.1440426E+04  0.7818608E-02  0.9551370E-01
          1   -1    0    0  501    0  0.00000000000E+00  0.00000000000E+00  0.34110025319E+04  0.34110025319E+04  0.00000000000E+00 0. -1.
         -1   -1    0    0    0  501 -0.00000000000E+00 -0.00000000000E+00 -0.21467755707E+03  0.21467755707E+03  0.00000000000E+00 0.  1.
         23    2    1    2    0    0 -0.10120200346E+03  0.34682719615E+02  0.26158823885E+02  0.14361437125E+03  0.92174112520E+02 0.  0.
    9900016    2    1    2    0    0  0.23149268386E+02  0.39752708865E+03  0.10839569918E+04  0.13501261774E+04  0.69951001421E+03 0.  0.
         23    2    4    4    0    0  0.12033917881E+03  0.29764642170E+03  0.26594979816E+03  0.42716817165E+03  0.93104465101E+02 0.  0.
        -15    1    3    3    0    0 -0.16626958571E+02  0.52144657074E+02  0.72480298063E+01  0.55209192611E+02  0.00000000000E+00 0.  1.
        -15    1    5    5    0    0  0.75672645565E+02  0.19028108956E+03  0.22413006566E+03  0.30359105498E+03  0.00000000000E+00 0.  1.
         15    1    3    3    0    0 -0.84575044890E+02 -0.17461937459E+02  0.18910794078E+02  0.88405178642E+02  0.00000000000E+00 0. -1.
         15    1    5    5    0    0  0.44666533244E+02  0.10736533214E+03  0.41819732498E+02  0.12357711667E+03  0.00000000000E+00 0. -1.
        -16    1    4    4    0    0 -0.71010170809E+02 -0.12400183448E+03  0.12975499010E+03  0.19301620856E+03  0.00000000000E+00 0.  1.
         16    1    1    2    0    0  0.78052735075E+02 -0.43220980826E+03  0.20862091591E+04  0.21319395403E+04  0.00000000000E+00 0. -1.
    9900018    1    4    4    0    0 -0.26179739614E+02  0.22388250143E+03  0.68825220349E+03  0.72994179715E+03  0.91187600000E+02 0.  0.
<mgrwt>
<rscale>  0 0.80600203E+03</rscale>
<asrwt>0</asrwt>
<pdfrwt beam="1">  1        1 0.52476958E+00 0.14404264E+04</pdfrwt>
<pdfrwt beam="2">  1       -1 0.33027319E-01 0.14404264E+04</pdfrwt>
<totfact> 0.24785650E+00</totfact>
</mgrwt>
</event>
<event>
12    1  0.3111898E-012  0.1492561E+04  0.7818608E-02  0.8889415E-01
         -2   -1    0    0    0  501 -0.00000000000E+00  0.00000000000E+00  0.26402472055E+03  0.26402472055E+03  0.00000000000E+00 0.  1.
          2   -1    0    0  501    0  0.00000000000E+00 -0.00000000000E+00 -0.21094025495E+04  0.21094025495E+04  0.00000000000E+00 0. -1.
         23    2    1    2    0    0 -0.33000363986E+03  0.72926589754E+02 -0.18885067758E+03  0.40034357279E+03  0.10192991730E+03 0.  0.
    9900016    2    1    2    0    0  0.18768320997E+03 -0.90507118374E+02 -0.74902451621E+03  0.10543208266E+04  0.71213633080E+03 0.  0.
         23    2    4    4    0    0  0.26580421205E+03  0.12554278800E+03 -0.14279885279E+03  0.33883030270E+03  0.89451612074E+02 0.  0.
        -15    1    3    3    0    0 -0.91705578687E+02  0.11949852557E+01 -0.67264808280E+01  0.91959701480E+02  0.00000000000E+00 0. -1.
        -15    1    5    5    0    0  0.39738670842E+02  0.53628824185E+02 -0.52791966443E+02  0.85101142558E+02  0.00000000000E+00 0. -1.
         15    1    5    5    0    0  0.22606554121E+03  0.71913963819E+02 -0.90006886352E+02  0.25372916014E+03  0.00000000000E+00 0.  1.
         15    1    3    3    0    0 -0.23829806117E+03  0.71731604498E+02 -0.18212419676E+03  0.30838387131E+03  0.00000000000E+00 0.  1.
        -16    1    4    4    0    0  0.48154243381E+02 -0.21900389422E+03 -0.35847030923E+03  0.42282679603E+03  0.00000000000E+00 0.  1.
         16    1    1    2    0    0  0.14232042989E+03  0.17580528620E+02 -0.90750263521E+03  0.91876287075E+03  0.00000000000E+00 0. -1.
    9900018    1    4    4    0    0 -0.12627524547E+03  0.29539878446E+01 -0.24775535418E+03  0.29266372782E+03  0.91187600000E+02 0.  0.
<mgrwt>
<rscale>  0 0.14925608E+04</rscale>
<asrwt>0</asrwt>
<pdfrwt beam="1">  1        2 0.32452347E+00 0.14925608E+04</pdfrwt>
<pdfrwt beam="2">  1       -2 0.40619188E-01 0.14925608E+04</pdfrwt>
<totfact> 0.32228967E+01</totfact>
</mgrwt>
</event>
<event>
12    1  0.3111898E-012  0.1664354E+04  0.7818608E-02  0.8781960E-01
          2   -1    0    0  501    0  0.00000000000E+00  0.00000000000E+00  0.71246105319E+03  0.71246105319E+03  0.00000000000E+00 0. -1.
         -2   -1    0    0    0  501 -0.00000000000E+00 -0.00000000000E+00 -0.97200865529E+03  0.97200865529E+03  0.00000000000E+00 0.  1.
         23    2    1    2    0    0  0.24141915530E+03 -0.38397582163E+03 -0.10113680171E+03  0.47334025351E+03  0.90009459473E+02 0.  0.
    9900016    2    1    2    0    0 -0.93950236787E+02  0.30726862274E+03 -0.43432649204E+03  0.88901061791E+03  0.70601680118E+03 0.  0.
         23    2    4    4    0    0 -0.14352955573E+03  0.16156554694E+03  0.60890087241E+02  0.24306792967E+03  0.93114211500E+02 0.  0.
        -15    1    5    5    0    0 -0.15249478585E+03  0.12415882044E+03  0.54643352723E+02  0.20409793825E+03  0.00000000000E+00 0. -1.
        -15    1    3    3    0    0  0.22042429649E+03 -0.28940867447E+03 -0.62859530280E+02  0.36918230170E+03  0.00000000000E+00 0. -1.
         15    1    5    5    0    0  0.89652301172E+01  0.37406726502E+02  0.62467345177E+01  0.38969991414E+02  0.00000000000E+00 0.  1.
         15    1    3    3    0    0  0.20994858815E+02 -0.94567147154E+02 -0.38277271430E+02  0.10415795181E+03  0.00000000000E+00 0.  1.
        -16    1    4    4    0    0 -0.15550243734E+03  0.18099852772E+02 -0.18632758585E+03  0.24336512062E+03  0.00000000000E+00 0.  1.
         16    1    1    2    0    0 -0.14746891852E+03  0.76707198884E+02  0.27591569165E+03  0.32211883706E+03  0.00000000000E+00 0. -1.
    9900018    1    4    4    0    0  0.20508175628E+03  0.12760322303E+03 -0.30888899343E+03  0.40257756762E+03  0.91187600000E+02 0.  0.
<mgrwt>
<rscale>  0 0.16643537E+04</rscale>
<asrwt>0</asrwt>
<pdfrwt beam="1">  1        2 0.10960939E+00 0.16643537E+04</pdfrwt>
<pdfrwt beam="2">  1       -2 0.14953979E+00 0.16643537E+04</pdfrwt>
<totfact> 0.11541466E+01</totfact>
</mgrwt>
</event>
<event>
12    1  0.3111898E-012  0.1564559E+04  0.7818608E-02  0.8842622E-01
          1   -1    0    0  501    0  0.00000000000E+00  0.00000000000E+00  0.79846217472E+03  0.79846217472E+03  0.00000000000E+00 0. -1.
         -1   -1    0    0    0  501 -0.00000000000E+00 -0.00000000000E+00 -0.76642452714E+03  0.76642452714E+03  0.00000000000E+00 0.  1.
         23    2    1    2    0    0  0.27526521492E+02  0.31700034957E+03 -0.32881344012E+03  0.46580425378E+03  0.87226105140E+02 0.  0.
    9900016    2    1    2    0    0  0.95829381757E+02 -0.45362133383E+03  0.34040103914E+03  0.91387937928E+03  0.71017396989E+03 0.  0.
         23    2    4    4    0    0  0.31840122175E+03 -0.26207022333E+02  0.14385293036E+03  0.36249105316E+03  0.92951342202E+02 0.  0.
        -15    1    5    5    0    0  0.15153258475E+03 -0.12276015956E+02  0.11930431417E+03  0.19325202247E+03  0.00000000000E+00 0.  1.
        -15    1    3    3    0    0  0.30922117200E+01  0.37176019223E+02 -0.88876137869E+02  0.96387686252E+02  0.00000000000E+00 0.  1.
         15    1    3    3    0    0  0.24434309772E+02  0.27982433035E+03 -0.23993730226E+03  0.36941656753E+03  0.00000000000E+00 0. -1.
         15    1    5    5    0    0  0.16686863700E+03 -0.13931006377E+02  0.24548616189E+02  0.16923903069E+03  0.00000000000E+00 0. -1.
        -16    1    4    4    0    0 -0.17281669240E+03 -0.24855780555E+03  0.76531557867E+02  0.31225577853E+03  0.00000000000E+00 0.  1.
         16    1    1    2    0    0 -0.12335590325E+03  0.13662098426E+03  0.20450048565E+02  0.18520306880E+03  0.00000000000E+00 0. -1.
    9900018    1    4    4    0    0 -0.49755147595E+02 -0.17885650595E+03  0.12001655091E+03  0.23913254759E+03  0.91187600000E+02 0.  0.
<mgrwt>
<rscale>  0 0.15645587E+04</rscale>
<asrwt>0</asrwt>
<pdfrwt beam="1">  1        1 0.12284033E+00 0.15645587E+04</pdfrwt>
<pdfrwt beam="2">  1       -1 0.11791147E+00 0.15645587E+04</pdfrwt>
<totfact> 0.13795510E+01</totfact>
</mgrwt>
</event>
<event>
12    1  0.3111898E-012  0.1574629E+04  0.7818608E-02  0.9341111E-01
         -2   -1    0    0    0  501 -0.00000000000E+00  0.00000000000E+00  0.19511015351E+04  0.19511015351E+04  0.00000000000E+00 0.  1.
          2   -1    0    0  501    0  0.00000000000E+00 -0.00000000000E+00 -0.41777565064E+03  0.41777565064E+03  0.00000000000E+00 0. -1.
         23    2    1    2    0    0 -0.14851149026E+03  0.14671925821E+03  0.14667761651E+03  0.27072304391E+03  0.90523145372E+02 0.  0.
    9900016    2    1    2    0    0 -0.14513454649E+03  0.67611956027E+02  0.65105920599E+02  0.72751923781E+03  0.70668949851E+03 0.  0.
         23    2    4    4    0    0 -0.17856825843E+03  0.13655646740E+03 -0.17529915081E+03  0.29882746560E+03  0.89631301525E+02 0.  0.
        -15    1    5    5    0    0 -0.18163623903E+03  0.11245605680E+03 -0.13804392675E+03  0.25435057254E+03  0.00000000000E+00 0.  1.
        -15    1    3    3    0    0 -0.15001290099E+03  0.11056891069E+03  0.99464631726E+02  0.21124054402E+03  0.00000000000E+00 0. -1.
         15    1    5    5    0    0  0.30679806011E+01  0.24100410597E+02 -0.37255224058E+02  0.44476893052E+02  0.00000000000E+00 0. -1.
         15    1    3    3    0    0  0.15014107328E+01  0.36150347516E+02  0.47212984786E+02  0.59482499881E+02  0.00000000000E+00 0.  1.
        -16    1    4    4    0    0  0.24938830597E+02 -0.17851018451E+03  0.22005208332E+03  0.28444815102E+03  0.00000000000E+00 0.  1.
         16    1    1    2    0    0  0.29364603675E+03 -0.21433121424E+03  0.13215423474E+04  0.13706349040E+04  0.00000000000E+00 0. -1.
    9900018    1    4    4    0    0  0.84948813418E+01  0.10956567313E+03  0.20352988085E+02  0.14424362120E+03  0.91187600000E+02 0.  0.
<mgrwt>
<rscale>  0 0.97084630E+03</rscale>
<asrwt>0</asrwt>
<pdfrwt beam="1">  1        2 0.64273178E-01 0.15746293E+04</pdfrwt>
<pdfrwt beam="2">  1       -2 0.30016946E+00 0.15746293E+04</pdfrwt>
<totfact> 0.23025331E+00</totfact>
</mgrwt>
</event>
<event>
12    1  0.3111898E-012  0.1331243E+04  0.7818608E-02  0.9375380E-01
          1   -1    0    0  501    0  0.00000000000E+00  0.00000000000E+00  0.11027683123E+04  0.11027683123E+04  0.00000000000E+00 0. -1.
         -1   -1    0    0    0  501 -0.00000000000E+00 -0.00000000000E+00 -0.64150086860E+03  0.64150086860E+03  0.00000000000E+00 0.  1.
         23    2    1    2    0    0 -0.26878400874E+03 -0.17114313956E+03 -0.76548648218E+01  0.33285266271E+03  0.95903495985E+02 0.  0.
    9900016    2    1    2    0    0  0.20185815841E+03 -0.33550585904E+03  0.22627067715E+03  0.84568505234E+03  0.71461450506E+03 0.  0.
         23    2    4    4    0    0  0.31638532821E+03  0.48506730344E+02 -0.39866658837E+02  0.33518405158E+03  0.91139558669E+02 0.  0.
        -15    1    3    3    0    0 -0.22256690919E+03 -0.94628670536E+02 -0.19727571840E+02  0.24265158446E+03  0.00000000000E+00 0. -1.
        -15    1    5    5    0    0  0.17587702880E+03 -0.11994907349E+02 -0.45629032481E+02  0.18209507316E+03  0.00000000000E+00 0.  1.
         15    1    5    5    0    0  0.14050829940E+03  0.60501637694E+02  0.57623736444E+01  0.15308897842E+03  0.00000000000E+00 0. -1.
         15    1    3    3    0    0 -0.46217099555E+02 -0.76514469027E+02  0.12072707018E+02  0.90201078244E+02  0.00000000000E+00 0.  1.
        -16    1    4    4    0    0 -0.10296614379E+03 -0.19068522673E+03  0.17190515375E+03  0.27661211894E+03  0.00000000000E+00 0.  1.
         16    1    1    2    0    0  0.66925850330E+02  0.50664899860E+03  0.24265163133E+03  0.56573146581E+03  0.00000000000E+00 0. -1.
    9900018    1    4    4    0    0 -0.11561026009E+02 -0.19332736265E+03  0.94232182234E+02  0.23388888181E+03  0.91187600000E+02 0.  0.
<mgrwt>
<rscale>  0 0.94129844E+03</rscale>
<asrwt>0</asrwt>
<pdfrwt beam="1">  1        1 0.16965666E+00 0.13312432E+04</pdfrwt>
<pdfrwt beam="2">  1       -1 0.98692441E-01 0.13312432E+04</pdfrwt>
<totfact> 0.12085445E+01</totfact>
</mgrwt>
</event>
<event>
12    1  0.3111898E-012  0.1649306E+04  0.7818608E-02  0.8790817E-01
         -2   -1    0    0    0  501 -0.00000000000E+00  0.00000000000E+00  0.12640584032E+04  0.12640584032E+04  0.00000000000E+00 0.  1.
          2   -1    0    0  501    0  0.00000000000E+00 -0.00000000000E+00 -0.53799123392E+03  0.53799123392E+03  0.00000000000E+00 0. -1.
         23    2    1    2    0    0 -0.11509157715E+03  0.34987617623E+03  0.37331491301E+03  0.53235922736E+03  0.91558248430E+02 0.  0.
    9900016    2    1    2    0    0 -0.16662133187E+03 -0.38243948104E+03  0.49199828802E+03  0.95376005465E+03  0.70254772190E+03 0.  0.
         23    2    4    4    0    0 -0.19672613336E+03 -0.36205079913E+03  0.13446546263E+03  0.44295623291E+03  0.91363619318E+02 0.  0.
        -15    1    5    5    0    0 -0.39885418418E+02 -0.14876873388E+03  0.23102799577E+02  0.15574569699E+03  0.00000000000E+00 0.  1.
        -15    1    3    3    0    0 -0.83463662175E+02  0.13411623163E+03  0.19296795686E+03  0.24937918691E+03  0.00000000000E+00 0.  1.
         15    1    5    5    0    0 -0.15684071494E+03 -0.21328206525E+03  0.11136266305E+03  0.28721053592E+03  0.00000000000E+00 0. -1.
         15    1    3    3    0    0 -0.31627914974E+02  0.21575994459E+03  0.18034695615E+03  0.28298004044E+03  0.00000000000E+00 0. -1.
        -16    1    1    2    0    0  0.28171290902E+03  0.32563304812E+02 -0.13924603175E+03  0.31593035512E+03  0.00000000000E+00 0.  1.
         16    1    4    4    0    0  0.75134945448E+02 -0.14115191680E+03  0.30506435688E+03  0.34443197512E+03  0.00000000000E+00 0. -1.
    9900018    1    4    4    0    0 -0.45030143958E+02  0.12076323490E+03  0.52468468506E+02  0.16637184662E+03  0.91187600000E+02 0.  0.
<mgrwt>
<rscale>  0 0.16493057E+04</rscale>
<asrwt>0</asrwt>
<pdfrwt beam="1">  1        2 0.82767882E-01 0.16493057E+04</pdfrwt>
<pdfrwt beam="2">  1       -2 0.19447052E+00 0.16493057E+04</pdfrwt>
<totfact> 0.78032259E+00</totfact>
</mgrwt>
</event>
<event>
12    1  0.3111898E-012  0.1544877E+04  0.7818608E-02  0.8855146E-01
          1   -1    0    0  501    0  0.00000000000E+00  0.00000000000E+00  0.75778698341E+03  0.75778698341E+03  0.00000000000E+00 0. -1.
         -1   -1    0    0    0  501 -0.00000000000E+00 -0.00000000000E+00 -0.78737360526E+03  0.78737360526E+03  0.00000000000E+00 0.  1.
         23    2    1    2    0    0  0.14015919758E+03  0.50017796093E+03  0.12637809879E+03  0.54267455068E+03  0.93282639550E+02 0.  0.
    9900016    2    1    2    0    0 -0.17070836659E+03 -0.31184313201E+03 -0.14325303974E+03  0.81126667091E+03  0.71501377087E+03 0.  0.
         23    2    4    4    0    0 -0.24287509031E+03 -0.40149475194E+03 -0.11714847337E+03  0.49233986508E+03  0.92132690200E+02 0.  0.
        -15    1    5    5    0    0 -0.22887114125E+03 -0.31117317503E+03 -0.10369543897E+03  0.39995435766E+03  0.00000000000E+00 0.  1.
        -15    1    3    3    0    0  0.11948354380E+03  0.47899777995E+03  0.10148222653E+03  0.50399784993E+03  0.00000000000E+00 0. -1.
         15    1    5    5    0    0 -0.14003949063E+02 -0.90321576913E+02 -0.13453034401E+02  0.92385507413E+02  0.00000000000E+00 0. -1.
         15    1    3    3    0    0  0.20675653779E+02  0.21180180981E+02  0.24895872258E+02  0.38676700751E+02  0.00000000000E+00 0.  1.
        -16    1    1    2    0    0  0.30549169019E+02 -0.18833482892E+03 -0.12711680893E+02  0.19121936707E+03  0.00000000000E+00 0.  1.
         16    1    4    4    0    0 -0.52792787306E+02  0.36406924677E+02 -0.11578536983E+03  0.13235858274E+03  0.00000000000E+00 0. -1.
    9900018    1    4    4    0    0  0.12495951102E+03  0.53244695251E+02  0.89680803466E+02  0.18656822310E+03  0.91187600000E+02 0.  0.
<mgrwt>
<rscale>  0 0.15448773E+04</rscale>
<asrwt>0</asrwt>
<pdfrwt beam="1">  1        1 0.11658261E+00 0.15448773E+04</pdfrwt>
<pdfrwt beam="2">  1       -1 0.12113440E+00 0.15448773E+04</pdfrwt>
<totfact> 0.14055242E+01</totfact>
</mgrwt>
</event>
<event>
12    1  0.3111898E-012  0.1416706E+04  0.7818608E-02  0.9309086E-01
          1   -1    0    0  501    0  0.00000000000E+00  0.00000000000E+00  0.10992784186E+04  0.10992784186E+04  0.00000000000E+00 0. -1.
         -1   -1    0    0    0  501 -0.00000000000E+00 -0.00000000000E+00 -0.91810572183E+03  0.91810572183E+03  0.00000000000E+00 0.  1.
         23    2    1    2    0    0 -0.30629444274E+03 -0.14575462920E+03  0.45480289101E+03  0.57449484714E+03  0.90210654206E+02 0.  0.
    9900016    2    1    2    0    0 -0.32043025397E+03  0.11173853754E+03 -0.13948018562E+03  0.80106598052E+03  0.71210317689E+03 0.  0.
         23    2    4    4    0    0  0.39453202410E+02  0.58746932456E+02  0.12579526726E+03  0.17475493501E+03  0.98524518741E+02 0.  0.
        -15    1    3    3    0    0 -0.90577351710E+02 -0.31686678369E+01  0.14452787889E+03  0.17059485594E+03  0.00000000000E+00 0.  1.
        -15    1    5    5    0    0  0.58627313688E+01  0.66115764231E+02  0.29747551571E+02  0.72736392015E+02  0.00000000000E+00 0. -1.
         15    1    5    5    0    0  0.33590471041E+02 -0.73688317747E+01  0.96047715687E+02  0.10201854300E+03  0.00000000000E+00 0.  1.
         15    1    3    3    0    0 -0.21571709103E+03 -0.14258596137E+03  0.31027501212E+03  0.40389999119E+03  0.00000000000E+00 0. -1.
        -16    1    1    2    0    0  0.62672469671E+03  0.34016091664E+02 -0.13415000864E+03  0.64182331274E+03  0.00000000000E+00 0.  1.
         16    1    4    4    0    0 -0.27235632489E+03 -0.20568407398E+01 -0.36553273570E+03  0.45584688128E+03  0.00000000000E+00 0. -1.
    9900018    1    4    4    0    0 -0.87527131490E+02  0.55048445821E+02  0.10025728282E+03  0.17046416423E+03  0.91187600000E+02 0.  0.
<mgrwt>
<rscale>  0 0.99950635E+03</rscale>
<asrwt>0</asrwt>
<pdfrwt beam="1">  1        1 0.16911976E+00 0.14167060E+04</pdfrwt>
<pdfrwt beam="2">  1       -1 0.14124703E+00 0.14167060E+04</pdfrwt>
<totfact> 0.50108299E+00</totfact>
</mgrwt>
</event>
<event>
12    1  0.3111898E-012  0.2099980E+04  0.7818608E-02  0.8561252E-01
         -2   -1    0    0    0  501 -0.00000000000E+00  0.00000000000E+00  0.21538557723E+04  0.21538557723E+04  0.00000000000E+00 0.  1.
          2   -1    0    0  501    0  0.00000000000E+00 -0.00000000000E+00 -0.51186316531E+03  0.51186316531E+03  0.00000000000E+00 0. -1.
         23    2    1    2    0    0 -0.37979755558E+03  0.22422235816E+03  0.11338321397E+04  0.12197716266E+04  0.88009378484E+02 0.  0.
    9900016    2    1    2    0    0  0.66506275440E+03 -0.35939739793E+03  0.38946758766E+03  0.11086988497E+04  0.71137414950E+03 0.  0.
         23    2    4    4    0    0  0.85894507584E+02  0.90729758627E+02 -0.47885067845E+01  0.15477056095E+03  0.91220837568E+02 0.  0.
        -15    1    3    3    0    0 -0.11641117098E+03  0.25013318634E+02  0.32469810742E+03  0.34584113087E+03  0.00000000000E+00 0. -1.
        -15    1    5    5    0    0  0.15950013430E+02  0.48644686255E+02 -0.40885591719E+02  0.65515952557E+02  0.00000000000E+00 0.  1.
         15    1    5    5    0    0  0.69944494154E+02  0.42085072372E+02  0.36097084934E+02  0.89254608395E+02  0.00000000000E+00 0. -1.
         15    1    3    3    0    0 -0.26338638460E+03  0.19920903952E+03  0.80913403233E+03  0.87393049568E+03  0.00000000000E+00 0.  1.
        -16    1    1    2    0    0 -0.28526519882E+03  0.13517503978E+03  0.11869287962E+03  0.33724846139E+03  0.00000000000E+00 0.  1.
         16    1    4    4    0    0  0.28138967925E+02 -0.13852945013E+03 -0.75619076879E+02  0.16031361408E+03  0.00000000000E+00 0. -1.
    9900018    1    4    4    0    0  0.55102927889E+03 -0.31159770643E+03  0.46987517132E+03  0.79361467468E+03  0.91187600000E+02 0.  0.
<mgrwt>
<rscale>  0 0.20999804E+04</rscale>
<asrwt>0</asrwt>
<pdfrwt beam="1">  1        2 0.78748181E-01 0.20999804E+04</pdfrwt>
<pdfrwt beam="2">  1       -2 0.33136242E+00 0.20999804E+04</pdfrwt>
<totfact> 0.11257513E+00</totfact>
</mgrwt>
</event>
<event>
12    1  0.3111898E-012  0.1077665E+04  0.7818608E-02  0.9614363E-01
         -1   -1    0    0    0  501 -0.00000000000E+00  0.00000000000E+00  0.31291059240E+03  0.31291059240E+03  0.00000000000E+00 0. -1.
          1   -1    0    0  501    0  0.00000000000E+00 -0.00000000000E+00 -0.15401799506E+04  0.15401799506E+04  0.00000000000E+00 0.  1.
         23    2    1    2    0    0 -0.13634145378E+03  0.21671874224E+03 -0.44546826577E+03  0.52170980886E+03  0.90460729552E+02 0.  0.
    9900016    2    1    2    0    0  0.15018531389E+03  0.86328757531E+02 -0.70707999316E+03  0.10189504503E+04  0.71294433208E+03 0.  0.
         23    2    4    4    0    0  0.21354102169E+03  0.28414170299E+03 -0.59788381675E+03  0.70292817632E+03  0.10152185686E+03 0.  0.
        -15    1    3    3    0    0 -0.11573217721E+03  0.17693422302E+03 -0.28347932519E+03  0.35363849328E+03  0.00000000000E+00 0. -1.
        -15    1    5    5    0    0  0.19243645992E+03  0.28807182079E+03 -0.54422117631E+03  0.64513088113E+03  0.00000000000E+00 0. -1.
         15    1    3    3    0    0 -0.20609276571E+02  0.39784519222E+02 -0.16198894058E+03  0.16807131558E+03  0.00000000000E+00 0.  1.
         15    1    5    5    0    0  0.21104561764E+02 -0.39301178014E+01 -0.53662640433E+02  0.57797295191E+02  0.00000000000E+00 0.  1.
        -16    1    4    4    0    0 -0.21504141572E+02 -0.15865250998E+03  0.34918977931E+01  0.16014131378E+03  0.00000000000E+00 0.  1.
         16    1    1    2    0    0 -0.13843860107E+02 -0.30304749977E+03 -0.74721099303E+02  0.31243028384E+03  0.00000000000E+00 0. -1.
    9900018    1    4    4    0    0 -0.41851566230E+02 -0.39160435480E+02 -0.11268807421E+03  0.15588096024E+03  0.91187600000E+02 0.  0.
<mgrwt>
<rscale>  0 0.76352819E+03</rscale>
<asrwt>0</asrwt>
<pdfrwt beam="1">  1        1 0.23695076E+00 0.10776649E+04</pdfrwt>
<pdfrwt beam="2">  1       -1 0.48140092E-01 0.10776649E+04</pdfrwt>
<totfact> 0.26435066E+01</totfact>
</mgrwt>
</event>
<event>
12    1  0.3111898E-012  0.1092149E+04  0.7818608E-02  0.9718765E-01
         -2   -1    0    0    0  501 -0.00000000000E+00  0.00000000000E+00  0.34575340608E+03  0.34575340608E+03  0.00000000000E+00 0.  1.
          2   -1    0    0  501    0  0.00000000000E+00 -0.00000000000E+00 -0.12090165072E+04  0.12090165072E+04  0.00000000000E+00 0. -1.
         23    2    1    2    0    0 -0.37583897364E+02  0.15474322113E+03 -0.41537007811E+02  0.18801358185E+03  0.90916280806E+02 0.  0.
    9900016    2    1    2    0    0 -0.13932105668E+03 -0.52732581765E+02 -0.88003687526E+03  0.11543847688E+04  0.73208483843E+03 0.  0.
         23    2    4    4    0    0  0.93575075082E+02 -0.71134868176E+02 -0.57689596433E+02  0.15933971947E+03  0.90799738530E+02 0.  0.
        -15    1    3    3    0    0 -0.38627248808E+02  0.10396624613E+03  0.15108033188E+02  0.11193434393E+03  0.00000000000E+00 0. -1.
        -15    1    5    5    0    0  0.86970311914E+02 -0.13676397489E+02 -0.19925758756E+02  0.90265801191E+02  0.00000000000E+00 0.  1.
         15    1    5    5    0    0  0.66047631681E+01 -0.57458470688E+02 -0.37763837677E+02  0.69073918279E+02  0.00000000000E+00 0. -1.
         15    1    3    3    0    0  0.10433514442E+01  0.50776974999E+02 -0.56645040999E+02  0.76079237917E+02  0.00000000000E+00 0.  1.
        -16    1    1    2    0    0  0.17690495404E+03 -0.10201063936E+03  0.58310781958E+02  0.21237156260E+03  0.00000000000E+00 0.  1.
         16    1    4    4    0    0 -0.35598531764E+03  0.45642830403E+02 -0.36472652253E+03  0.51169742092E+03  0.00000000000E+00 0. -1.
    9900018    1    4    4    0    0  0.12308918588E+03 -0.27240543993E+02 -0.45762075630E+03  0.48334762843E+03  0.91187600000E+02 0.  0.
<mgrwt>
<rscale>  0 0.69910466E+03</rscale>
<asrwt>0</asrwt>
<pdfrwt beam="1">  1        2 0.18600254E+00 0.10921488E+04</pdfrwt>
<pdfrwt beam="2">  1       -2 0.53192832E-01 0.10921488E+04</pdfrwt>
<totfact> 0.61816129E+01</totfact>
</mgrwt>
</event>
<event>
12    1  0.3111898E-012  0.1102824E+04  0.7818608E-02  0.9202444E-01
          1   -1    0    0  501    0  0.00000000000E+00  0.00000000000E+00  0.38524001063E+03  0.38524001063E+03  0.00000000000E+00 0. -1.
         -1   -1    0    0    0  501 -0.00000000000E+00 -0.00000000000E+00 -0.78926159358E+03  0.78926159358E+03  0.00000000000E+00 0.  1.
         23    2    1    2    0    0 -0.94638660884E+02 -0.16078049248E+02  0.40375762353E+02  0.14100747119E+03  0.95068001689E+02 0.  0.
    9900016    2    1    2    0    0  0.76417265054E+02  0.59551501592E+02 -0.14367634094E+03  0.72910115874E+03  0.70820874677E+03 0.  0.
         23    2    4    4    0    0  0.19730850842E+03  0.11119566970E+03 -0.15707206129E+03  0.29006683247E+03  0.90399172621E+02 0.  0.
        -15    1    5    5    0    0  0.12501524552E+03  0.60090701361E+02 -0.14509220621E+03  0.20072730832E+03  0.00000000000E+00 0.  1.
        -15    1    3    3    0    0  0.17205981010E+02 -0.21557824186E+01 -0.70620203010E+01  0.18723389412E+02  0.00000000000E+00 0. -1.
         15    1    5    5    0    0  0.72293262892E+02  0.51104968336E+02 -0.11979855084E+02  0.89339524154E+02  0.00000000000E+00 0. -1.
         15    1    3    3    0    0 -0.11184464189E+03 -0.13922266829E+02  0.47437782654E+02  0.12228408178E+03  0.00000000000E+00 0.  1.
        -16    1    1    2    0    0  0.18221395830E+02 -0.43473452344E+02 -0.30072100436E+03  0.30439297427E+03  0.00000000000E+00 0.  1.
         16    1    4    4    0    0 -0.16166007816E+03 -0.18487124864E+03 -0.66380658965E+02  0.25439683829E+03  0.00000000000E+00 0. -1.
    9900018    1    4    4    0    0  0.40768834802E+02  0.13322708053E+03  0.79776379315E+02  0.18463748798E+03  0.91187600000E+02 0.  0.
<mgrwt>
<rscale>  0 0.11028239E+04</rscale>
<asrwt>0</asrwt>
<pdfrwt beam="1">  1        1 0.59267694E-01 0.11028239E+04</pdfrwt>
<pdfrwt beam="2">  1       -1 0.12142486E+00 0.11028239E+04</pdfrwt>
<totfact> 0.37806252E+01</totfact>
</mgrwt>
</event>
<event>
12    1  0.3111898E-012  0.8842432E+03  0.7818608E-02  0.1014105E+00
         -2   -1    0    0    0  501 -0.00000000000E+00  0.00000000000E+00  0.22780218607E+03  0.22780218607E+03  0.00000000000E+00 0.  1.
          2   -1    0    0  501    0  0.00000000000E+00 -0.00000000000E+00 -0.11139435315E+04  0.11139435315E+04  0.00000000000E+00 0. -1.
         23    2    1    2    0    0  0.33898547896E+01  0.40860617209E+01  0.55506435454E+00  0.89501140515E+02  0.89341810151E+02 0.  0.
    9900016    2    1    2    0    0 -0.14670750694E+03  0.20496584941E+02 -0.64648584102E+03  0.97145039393E+03  0.70980893390E+03 0.  0.
         23    2    4    4    0    0 -0.14100954284E+03  0.14392807417E+03 -0.12950256211E+03  0.25712348600E+03  0.93501827542E+02 0.  0.
        -15    1    3    3    0    0  0.94319795739E+01  0.43259922889E+02 -0.15250363114E+02  0.46829016028E+02  0.00000000000E+00 0.  1.
        -15    1    5    5    0    0 -0.10044225178E+03  0.92790363551E+02 -0.13431109821E+03  0.19167203398E+03  0.00000000000E+00 0. -1.
         15    1    3    3    0    0 -0.60421247843E+01 -0.39173861168E+02  0.15805427469E+02  0.42672124486E+02  0.00000000000E+00 0. -1.
         15    1    5    5    0    0 -0.40567291059E+02  0.51137710622E+02  0.48085360982E+01  0.65451452016E+02  0.00000000000E+00 0.  1.
        -16    1    4    4    0    0 -0.80512879565E+02 -0.14716812359E+03 -0.56151272120E+03  0.58603525188E+03  0.00000000000E+00 0.  1.
         16    1    1    2    0    0  0.14331765215E+03 -0.24582646662E+02 -0.24021056877E+03  0.28079418314E+03  0.00000000000E+00 0. -1.
    9900018    1    4    4    0    0  0.74814915458E+02  0.23736634361E+02  0.44529442294E+02  0.12829165604E+03  0.91187600000E+02 0.  0.
<mgrwt>
<rscale>  0 0.49875106E+03</rscale>
<asrwt>0</asrwt>
<pdfrwt beam="1">  1        2 0.17137593E+00 0.88424316E+03</pdfrwt>
<pdfrwt beam="2">  1       -2 0.35046490E-01 0.88424316E+03</pdfrwt>
<totfact> 0.16376194E+02</totfact>
</mgrwt>
</event>
<event>
12    1  0.3111898E-012  0.1177847E+04  0.7818608E-02  0.9448599E-01
          2   -1    0    0  501    0  0.00000000000E+00  0.00000000000E+00  0.16472797452E+04  0.16472797452E+04  0.00000000000E+00 0. -1.
         -2   -1    0    0    0  501 -0.00000000000E+00 -0.00000000000E+00 -0.40925965526E+03  0.40925965526E+03  0.00000000000E+00 0.  1.
         23    2    1    2    0    0  0.19490898143E+03 -0.30112445897E+03  0.33033566830E+02  0.37151231869E+03  0.90910591107E+02 0.  0.
    9900016    2    1    2    0    0 -0.41894153406E+02 -0.76974079045E+02  0.55263945729E+03  0.91565803098E+03  0.72480282216E+03 0.  0.
         23    2    4    4    0    0 -0.59356806337E+02 -0.26675429506E+03  0.44474072201E+03  0.52969334661E+03  0.89998040189E+02 0.  0.
        -15    1    5    5    0    0 -0.59922498770E+02 -0.15517099839E+03  0.33050535470E+03  0.37000342443E+03  0.00000000000E+00 0. -1.
        -15    1    3    3    0    0  0.13332687037E+03 -0.13691021309E+03 -0.84552945666E+01  0.19129023189E+03  0.00000000000E+00 0.  1.
         15    1    5    5    0    0  0.56569243278E+00 -0.11158329667E+03  0.11423536731E+03  0.15968992219E+03  0.00000000000E+00 0.  1.
         15    1    3    3    0    0  0.61582111054E+02 -0.16421424588E+03  0.41488861397E+02  0.18022208680E+03  0.00000000000E+00 0. -1.
        -16    1    1    2    0    0 -0.15301482802E+03  0.37809853801E+03  0.65234706581E+03  0.76936905079E+03  0.00000000000E+00 0.  1.
         16    1    4    4    0    0  0.59059645327E+02  0.73578335892E+02 -0.93456353478E+02  0.13280023804E+03  0.00000000000E+00 0. -1.
    9900018    1    4    4    0    0 -0.41596992396E+02  0.11620188012E+03  0.20135508875E+03  0.25316444632E+03  0.91187600000E+02 0.  0.
<mgrwt>
<rscale>  0 0.88181825E+03</rscale>
<asrwt>0</asrwt>
<pdfrwt beam="1">  1        2 0.25342765E+00 0.11778471E+04</pdfrwt>
<pdfrwt beam="2">  1       -2 0.62963025E-01 0.11778471E+04</pdfrwt>
<totfact> 0.24155275E+01</totfact>
</mgrwt>
</event>
