<event>
11    1  0.1973952E-014  0.6009278E+04  0.7818608E-02  0.7689252E-01
          2   -1    0    0  501    0  0.00000000000E+00  0.00000000000E+00  0.32974868699E+04  0.32974868699E+04  0.00000000000E+00 0.  1.
         -2   -1    0    0    0  501 -0.00000000000E+00 -0.00000000000E+00 -0.27377991362E+04  0.27377991362E+04  0.00000000000E+00 0. -1.
    9900016    2    1    2    0    0 -0.53693962763E+03  0.11393467716E+04 -0.40338178577E+03  0.23040414776E+04  0.18866571060E+04 0.  0.
        -24    2    3    3    0    0 -0.16024862665E+03  0.12197387049E+04  0.43651903192E+03  0.13074829559E+04  0.74301307938E+02 0.  0.
        -15    1    1    2    0    0  0.65691226414E+03 -0.71418933919E+03  0.21169219399E+04  0.23287246799E+04  0.00000000000E+00 0.  1.
        -15    1    3    3    0    0 -0.33394455481E+03 -0.93556423682E+02 -0.82367123875E+03  0.89370357482E+03  0.00000000000E+00 0.  1.
         15    1    4    4    0    0 -0.33408479633E+02  0.49801441307E+03  0.15784781363E+03  0.52349824680E+03  0.00000000000E+00 0. -1.
         15    1    1    2    0    0  0.15323038093E+02 -0.46107267220E+03 -0.33085809514E+03  0.56770580732E+03  0.00000000000E+00 0. -1.
        -16    1    4    4    0    0 -0.12684014702E+03  0.72172429179E+03  0.27867121829E+03  0.78398470914E+03  0.00000000000E+00 0.  1.
         16    1    1    2    0    0 -0.13529567460E+03  0.35915239744E+02 -0.82299432531E+03  0.83481404127E+03  0.00000000000E+00 0. -1.
    9900018    1    3    3    0    0 -0.42746446173E+02  0.13164490465E+02 -0.16229578936E+02  0.10285494687E+03  0.91187600000E+02 0.  0.
<mgrwt>
<rscale>  0 0.60092784E+04</rscale>
<asrwt>0</asrwt>
<pdfrwt beam="1">  1        2 0.50730567E+00 0.60092784E+04</pdfrwt>
<pdfrwt beam="2">  1       -2 0.42119987E+00 0.60092784E+04</pdfrwt>
<totfact> 0.40537946E-03</totfact>
</mgrwt>
</event>
<event>
11    1  0.1973952E-014  0.3194725E+04  0.7818608E-02  0.8473630E-01
         -1   -1    0    0    0  501 -0.00000000000E+00  0.00000000000E+00  0.19907907135E+04  0.19907907135E+04  0.00000000000E+00 0.  1.
          1   -1    0    0  501    0  0.00000000000E+00 -0.00000000000E+00 -0.23373084516E+04  0.23373084516E+04  0.00000000000E+00 0. -1.
    9900016    2    1    2    0    0 -0.67343808366E+03  0.10192698873E+03  0.21521310358E+03  0.20181035647E+04  0.18874632061E+04 0.  0.
         24    2    3    3    0    0 -0.53867887243E+03  0.77544605326E+03 -0.36044441121E+03  0.10137721762E+04  0.79513159217E+02 0.  0.
        -15    1    1    2    0    0  0.97159704552E+01 -0.26234021517E+03  0.53964743749E+03  0.60011344375E+03  0.00000000000E+00 0.  1.
        -15    1    4    4    0    0 -0.22370336275E+03  0.25740977919E+03 -0.11925818078E+03  0.36128313358E+03  0.00000000000E+00 0.  1.
         15    1    1    2    0    0  0.60335280569E+01  0.41721639803E+03 -0.19141926895E+02  0.41769886235E+03  0.00000000000E+00 0. -1.
         15    1    3    3    0    0 -0.76785768466E+02 -0.70138984047E+03  0.53532864452E+03  0.88567517759E+03  0.00000000000E+00 0. -1.
        -16    1    1    2    0    0  0.65768858514E+03 -0.25680317159E+03 -0.10822363523E+04  0.12921832944E+04  0.00000000000E+00 0.  1.
         16    1    4    4    0    0 -0.31497550968E+03  0.51803627407E+03 -0.24118623043E+03  0.65248904259E+03  0.00000000000E+00 0. -1.
    9900018    1    3    3    0    0 -0.57973442762E+02  0.27870775949E+02  0.40328870265E+02  0.11865621091E+03  0.91187600000E+02 0.  0.
<mgrwt>
<rscale>  0 0.23109149E+04</rscale>
<asrwt>0</asrwt>
<pdfrwt beam="1">  1        1 0.35958591E+00 0.31947253E+04</pdfrwt>
<pdfrwt beam="2">  1       -1 0.30627550E+00 0.31947253E+04</pdfrwt>
<totfact> 0.42672265E-02</totfact>
</mgrwt>
</event>
<event>
11    1  0.1973952E-014  0.2298369E+04  0.7818608E-02  0.8724732E-01
         -2   -1    0    0    0  501 -0.00000000000E+00  0.00000000000E+00  0.16241940227E+04  0.16241940227E+04  0.00000000000E+00 0.  1.
          2   -1    0    0  501    0  0.00000000000E+00 -0.00000000000E+00 -0.18446338936E+04  0.18446338936E+04  0.00000000000E+00 0. -1.
    9900016    2    1    2    0    0  0.65198747627E+03  0.27319896113E+03  0.20285330367E+03  0.20201968787E+04  0.18815739753E+04 0.  0.
         24    2    3    3    0    0  0.92019068838E+03  0.35791931975E+03  0.77152408864E+03  0.12554373446E+04  0.77565226690E+02 0.  0.
        -15    1    4    4    0    0  0.37007253153E+03  0.17494658968E+03  0.28779504245E+03  0.50038582543E+03  0.00000000000E+00 0.  1.
        -15    1    1    2    0    0 -0.42301509804E+03 -0.67699500716E+01 -0.29481947493E+03  0.51566086549E+03  0.00000000000E+00 0.  1.
         15    1    3    3    0    0 -0.28068410278E+03 -0.11927115827E+03 -0.59000235203E+03  0.66416259315E+03  0.00000000000E+00 0. -1.
         15    1    1    2    0    0 -0.24757133878E+03 -0.26046900355E+03 -0.46958037600E+03  0.59130482758E+03  0.00000000000E+00 0. -1.
        -16    1    1    2    0    0  0.18598960558E+02 -0.59600075080E+01  0.34110667632E+03  0.34166534453E+03  0.00000000000E+00 0.  1.
         16    1    4    4    0    0  0.55011815685E+03  0.18297273007E+03  0.48372904619E+03  0.75505151915E+03  0.00000000000E+00 0. -1.
    9900018    1    3    3    0    0  0.12480890673E+02  0.34550799642E+02  0.21331567054E+02  0.10059694098E+03  0.91187600000E+02 0.  0.
<mgrwt>
<rscale>  0 0.17657437E+04</rscale>
<asrwt>0</asrwt>
<pdfrwt beam="1">  1        2 0.28378983E+00 0.22983691E+04</pdfrwt>
<pdfrwt beam="2">  1       -2 0.24987600E+00 0.22983691E+04</pdfrwt>
<totfact> 0.46037226E-01</totfact>
</mgrwt>
</event>
<event>
11    1  0.1973952E-014  0.5135904E+04  0.7818608E-02  0.7807878E-01
          2   -1    0    0  501    0  0.00000000000E+00  0.00000000000E+00  0.13626728895E+04  0.13626728895E+04  0.00000000000E+00 0. -1.
         -2   -1    0    0    0  501 -0.00000000000E+00 -0.00000000000E+00 -0.48392966563E+04  0.48392966563E+04  0.00000000000E+00 0.  1.
    9900016    2    1    2    0    0  0.82185181264E+03 -0.20758540938E+03 -0.47806829898E+03  0.21251727808E+04  0.18892532772E+04 0.  0.
        -24    2    3    3    0    0  0.12160965279E+04 -0.25466529178E+03 -0.74400687020E+03  0.14504959567E+04  0.81529881776E+02 0.  0.
        -15    1    1    2    0    0 -0.47591653310E+03  0.62592612782E+03 -0.92974393952E+03  0.12176632774E+04  0.00000000000E+00 0.  1.
        -15    1    3    3    0    0 -0.45759949136E+03  0.31168338773E+02  0.31061061652E+03  0.55393836744E+03  0.00000000000E+00 0.  1.
         15    1    1    2    0    0 -0.88150756522E+03 -0.19373728624E+03 -0.20914992326E+04  0.22779286125E+04  0.00000000000E+00 0. -1.
         15    1    4    4    0    0  0.96687029361E+03 -0.17621568669E+03 -0.56289458672E+03  0.11325813210E+04  0.00000000000E+00 0. -1.
        -16    1    4    4    0    0  0.24922623425E+03 -0.78449605099E+02 -0.18111228348E+03  0.31791463572E+03  0.00000000000E+00 0.  1.
         16    1    1    2    0    0  0.53557228568E+03 -0.22460343219E+03  0.22687704326E+02  0.58120487512E+03  0.00000000000E+00 0. -1.
    9900018    1    3    3    0    0  0.63354776134E+02  0.15911543629E+02 -0.44672045300E+02  0.12073845661E+03  0.91187600000E+02 0.  0.
<mgrwt>
<rscale>  0 0.51359043E+04</rscale>
<asrwt>0</asrwt>
<pdfrwt beam="1">  1        2 0.20964198E+00 0.51359043E+04</pdfrwt>
<pdfrwt beam="2">  1       -2 0.74450718E+00 0.51359043E+04</pdfrwt>
<totfact> 0.16729950E-03</totfact>
</mgrwt>
</event>
<event>
11    1  0.1973952E-014  0.3049083E+04  0.7818608E-02  0.8300615E-01
         -2   -1    0    0    0  501 -0.00000000000E+00  0.00000000000E+00  0.36051560677E+04  0.36051560677E+04  0.00000000000E+00 0. -1.
          2   -1    0    0  501    0  0.00000000000E+00 -0.00000000000E+00 -0.22410995757E+04  0.22410995757E+04  0.00000000000E+00 0.  1.
    9900016    2    1    2    0    0  0.57761632766E+03  0.23228015906E+03  0.83887438851E+03  0.21566581487E+04  0.18867616268E+04 0.  0.
        -24    2    3    3    0    0  0.75029978439E+03 -0.15104082631E+03 -0.33116429342E+03  0.83729055734E+03  0.74983934955E+02 0.  0.
        -15    1    3    3    0    0 -0.21732900711E+03  0.37729799548E+03  0.11283512400E+04  0.12094470619E+04  0.00000000000E+00 0.  1.
        -15    1    1    2    0    0  0.10246684212E+04  0.73106141556E+03 -0.50442864340E+03  0.13560399784E+04  0.00000000000E+00 0.  1.
         15    1    1    2    0    0 -0.75217510432E+03 -0.49656609333E+03 -0.23898992612E+02  0.90161878554E+03  0.00000000000E+00 0. -1.
         15    1    4    4    0    0  0.35864718351E+03 -0.90559259970E+02 -0.12413956236E+03  0.39017869335E+03  0.00000000000E+00 0. -1.
        -16    1    4    4    0    0  0.39165260089E+03 -0.60481566342E+02 -0.20702473106E+03  0.44711186399E+03  0.00000000000E+00 0.  1.
         16    1    1    2    0    0 -0.85010964457E+03 -0.46677548129E+03  0.10535097395E+04  0.14319387309E+04  0.00000000000E+00 0. -1.
    9900018    1    3    3    0    0  0.44645550377E+02  0.60229898880E+01  0.41687441908E+02  0.10992052939E+03  0.91187600000E+02 0.  0.
<mgrwt>
<rscale>  0 0.28085627E+04</rscale>
<asrwt>0</asrwt>
<pdfrwt beam="1">  1        2 0.34478455E+00 0.30490834E+04</pdfrwt>
<pdfrwt beam="2">  1       -2 0.55463940E+00 0.30490834E+04</pdfrwt>
<totfact> 0.31336181E-03</totfact>
</mgrwt>
</event>
<event>
11    1  0.1973952E-014  0.3336200E+04  0.7818608E-02  0.8296406E-01
          1   -1    0    0  501    0  0.00000000000E+00  0.00000000000E+00  0.27838458608E+04  0.27838458608E+04  0.00000000000E+00 0.  1.
         -1   -1    0    0    0  501 -0.00000000000E+00 -0.00000000000E+00 -0.25035178196E+04  0.25035178196E+04  0.00000000000E+00 0. -1.
    9900016    2    1    2    0    0 -0.30414461882E+01 -0.18634651896E+03  0.32466908307E+03  0.19248851337E+04  0.18881309512E+04 0.  0.
        -24    2    3    3    0    0 -0.18927392871E+03  0.25024610976E+03 -0.66665667780E+03  0.74112571923E+03  0.79927905726E+02 0.  0.
        -15    1    3    3    0    0  0.15156787400E+03 -0.42896744972E+03  0.98583755143E+03  0.10857539183E+04  0.00000000000E+00 0.  1.
        -15    1    1    2    0    0  0.62952443730E+03 -0.26213480784E+03  0.11333627835E+04  0.13226968185E+04  0.00000000000E+00 0.  1.
         15    1    1    2    0    0  0.48655051986E+03  0.12746384748E+03 -0.29210661374E+03  0.58163967762E+03  0.00000000000E+00 0. -1.
         15    1    4    4    0    0 -0.84274230560E+02  0.84481152640E+02 -0.33684514102E+03  0.35735676867E+03  0.00000000000E+00 0. -1.
        -16    1    4    4    0    0 -0.10499969815E+03  0.16576495712E+03 -0.32981153679E+03  0.38376895056E+03  0.00000000000E+00 0.  1.
         16    1    1    2    0    0 -0.11130335110E+04  0.32101747931E+03 -0.88559721153E+03  0.14581420506E+04  0.00000000000E+00 0. -1.
    9900018    1    3    3    0    0  0.34664608522E+02 -0.76251789981E+01  0.54882094446E+01  0.98005496149E+02  0.91187600000E+02 0.  0.
<mgrwt>
<rscale>  0 0.28222102E+04</rscale>
<asrwt>0</asrwt>
<pdfrwt beam="1">  1        1 0.42828398E+00 0.33362003E+04</pdfrwt>
<pdfrwt beam="2">  1       -1 0.38515659E+00 0.33362003E+04</pdfrwt>
<totfact> 0.60495043E-03</totfact>
</mgrwt>
</event>
<event>
11    1  0.1973952E-014  0.3259475E+04  0.7818608E-02  0.8494710E-01
         -2   -1    0    0    0  501 -0.00000000000E+00  0.00000000000E+00  0.20927722430E+04  0.20927722430E+04  0.00000000000E+00 0. -1.
          2   -1    0    0  501    0  0.00000000000E+00 -0.00000000000E+00 -0.20982762547E+04  0.20982762547E+04  0.00000000000E+00 0.  1.
    9900016    2    1    2    0    0 -0.34681036334E+03 -0.87433304257E+03  0.66469658784E+03  0.21338767357E+04  0.17963498189E+04 0.  0.
         24    2    3    3    0    0 -0.10429930442E+04 -0.69300762567E+03  0.65249026989E+03  0.14143642437E+04  0.81170204874E+02 0.  0.
        -15    1    1    2    0    0  0.13729790350E+03  0.21337637483E+02 -0.53553079087E+03  0.55326235824E+03  0.00000000000E+00 0.  1.
        -15    1    4    4    0    0 -0.52879662299E+03 -0.30906959279E+03  0.29594376136E+03  0.68024450866E+03  0.00000000000E+00 0.  1.
         15    1    3    3    0    0  0.69618268083E+03 -0.18132541690E+03  0.12206317951E+02  0.71951249197E+03  0.00000000000E+00 0. -1.
         15    1    1    2    0    0 -0.33901507418E+03 -0.17577492586E+02  0.46347657200E+02  0.34261975146E+03  0.00000000000E+00 0. -1.
        -16    1    1    2    0    0  0.55920764417E+03  0.88859660161E+03 -0.19117636785E+03  0.10671764209E+04  0.00000000000E+00 0.  1.
         16    1    4    4    0    0 -0.51419642118E+03 -0.38393803287E+03  0.35654650854E+03  0.73411973505E+03  0.00000000000E+00 0. -1.
    9900018    1    1    2    0    0 -0.10680110153E+02 -0.18023703937E+02  0.10158901965E+02  0.94113231479E+02  0.91187600000E+02 0.  0.
<mgrwt>
<rscale>  0 0.22578944E+04</rscale>
<asrwt>0</asrwt>
<pdfrwt beam="1">  1        2 0.32281173E+00 0.32594748E+04</pdfrwt>
<pdfrwt beam="2">  1       -2 0.32196496E+00 0.32594748E+04</pdfrwt>
<totfact> 0.11139906E-01</totfact>
</mgrwt>
</event>
<event>
11    1  0.1973952E-014  0.4527495E+04  0.7818608E-02  0.7905841E-01
          1   -1    0    0  501    0  0.00000000000E+00  0.00000000000E+00  0.27238419062E+04  0.27238419062E+04  0.00000000000E+00 0. -1.
         -1   -1    0    0    0  501 -0.00000000000E+00 -0.00000000000E+00 -0.18813690975E+04  0.18813690975E+04  0.00000000000E+00 0.  1.
    9900016    2    1    2    0    0  0.20345776490E+03  0.55451020637E+03  0.41206200549E+03  0.20266923881E+04  0.18944155586E+04 0.  0.
         24    2    3    3    0    0 -0.23627964891E+02  0.88611572704E+03  0.89844990061E+03  0.12646136632E+04  0.79222035413E+02 0.  0.
        -15    1    1    2    0    0  0.76485756139E+02  0.26498542197E+03 -0.47123851717E+03  0.54601564521E+03  0.00000000000E+00 0.  1.
        -15    1    4    4    0    0  0.15199912419E+02  0.64810385809E+03  0.67389026401E+03  0.93509236771E+03  0.00000000000E+00 0.  1.
         15    1    3    3    0    0  0.19059014386E+03 -0.39139053708E+03 -0.47839435116E+03  0.64681706121E+03  0.00000000000E+00 0. -1.
         15    1    1    2    0    0  0.22427198624E+02 -0.12349663603E+04  0.36150958892E+03  0.12869864308E+04  0.00000000000E+00 0. -1.
        -16    1    1    2    0    0 -0.30237071967E+03  0.41547073194E+03  0.54013973149E+03  0.74551653955E+03  0.00000000000E+00 0.  1.
         16    1    4    4    0    0 -0.38827877310E+02  0.23801186894E+03  0.22455963660E+03  0.32952129552E+03  0.00000000000E+00 0. -1.
    9900018    1    3    3    0    0  0.36495585934E+02  0.59785016412E+02 -0.79935439588E+01  0.11526166370E+03  0.91187600000E+02 0.  0.
<mgrwt>
<rscale>  0 0.45274947E+04</rscale>
<asrwt>0</asrwt>
<pdfrwt beam="1">  1        1 0.41905260E+00 0.45274947E+04</pdfrwt>
<pdfrwt beam="2">  1       -1 0.28944140E+00 0.45274947E+04</pdfrwt>
<totfact> 0.27364122E-02</totfact>
</mgrwt>
</event>
<event>
11    1  0.1973952E-014  0.3034836E+04  0.7818608E-02  0.8413333E-01
          2   -1    0    0  501    0  0.00000000000E+00  0.00000000000E+00  0.41653698626E+04  0.41653698626E+04  0.00000000000E+00 0.  1.
         -2   -1    0    0    0  501 -0.00000000000E+00 -0.00000000000E+00 -0.14054501607E+04  0.14054501607E+04  0.00000000000E+00 0. -1.
    9900016    2    1    2    0    0 -0.21281352509E+03  0.12955371980E+03  0.11812230534E+04  0.21538981890E+04  0.17837925171E+04 0.  0.
        -24    2    3    3    0    0  0.53246721602E+03  0.44508505737E+03 -0.27560618227E+02  0.69919499838E+03  0.80573033012E+02 0.  0.
        -15    1    1    2    0    0  0.84963466531E+02  0.22558729426E+03  0.92855680407E+03  0.95933631035E+03  0.00000000000E+00 0.  1.
        -15    1    3    3    0    0 -0.74528074112E+03 -0.31553133757E+03  0.12087836716E+04  0.14547031906E+04  0.00000000000E+00 0.  1.
         15    1    4    4    0    0  0.10288300721E+03  0.12251359748E+03 -0.25358949051E+02  0.16198015631E+03  0.00000000000E+00 0. -1.
         15    1    1    2    0    0  0.48097732054E+03 -0.85098052826E+03  0.11347580556E+04  0.14977259052E+04  0.00000000000E+00 0. -1.
        -16    1    4    4    0    0  0.42958420881E+03  0.32257145989E+03 -0.22016691766E+01  0.53721484207E+03  0.00000000000E+00 0.  1.
         16    1    1    2    0    0 -0.26635456321E+03  0.44714922390E+03 -0.59136620034E+03  0.78778243487E+03  0.00000000000E+00 0. -1.
    9900018    1    1    2    0    0 -0.86772698759E+02  0.48690290299E+02  0.10674798924E+03  0.17207718390E+03  0.91187600000E+02 0.  0.
<mgrwt>
<rscale>  0 0.24711577E+04</rscale>
<asrwt>0</asrwt>
<pdfrwt beam="1">  1        2 0.64082613E+00 0.30348360E+04</pdfrwt>
<pdfrwt beam="2">  1       -2 0.21622310E+00 0.30348360E+04</pdfrwt>
<totfact> 0.21163625E-02</totfact>
</mgrwt>
</event>
<event>
11    1  0.1973952E-014  0.6733866E+04  0.7818608E-02  0.7605522E-01
         -2   -1    0    0    0  501 -0.00000000000E+00  0.00000000000E+00  0.30355699338E+04  0.30355699338E+04  0.00000000000E+00 0. -1.
          2   -1    0    0  501    0  0.00000000000E+00 -0.00000000000E+00 -0.37344679985E+04  0.37344679985E+04  0.00000000000E+00 0.  1.
    9900016    2    1    2    0    0 -0.54121103533E+03  0.42645345800E+03  0.15238316933E+03  0.19294688228E+04  0.17957887880E+04 0.  0.
        -24    2    3    3    0    0 -0.57625455402E+03 -0.68117320126E+02 -0.71900489605E+03  0.92689939215E+03  0.73926736059E+02 0.  0.
        -15    1    3    3    0    0  0.35043518682E+02  0.49457077813E+03  0.87138806537E+03  0.10025694306E+04  0.00000000000E+00 0.  1.
        -15    1    1    2    0    0  0.24823945403E+04 -0.54197910585E+03 -0.94418859823E+03  0.27106302060E+04  0.00000000000E+00 0.  1.
         15    1    1    2    0    0 -0.94270493001E+03 -0.30425623887E+03 -0.47440441784E+01  0.99059928826E+03  0.00000000000E+00 0. -1.
         15    1    4    4    0    0 -0.45740686188E+03 -0.47054457316E+02 -0.51991989194E+03  0.69408346276E+03  0.00000000000E+00 0. -1.
        -16    1    4    4    0    0 -0.11884769214E+03 -0.21062862809E+02 -0.19908500411E+03  0.23281592939E+03  0.00000000000E+00 0.  1.
         16    1    1    2    0    0 -0.93857939727E+03  0.40241332017E+03  0.61338188751E+02  0.10230494312E+04  0.00000000000E+00 0. -1.
    9900018    1    1    2    0    0 -0.59899177690E+02  0.17368566539E+02  0.36313219602E+02  0.11629018404E+03  0.91187600000E+02 0.  0.
<mgrwt>
<rscale>  0 0.67338663E+04</rscale>
<asrwt>0</asrwt>
<pdfrwt beam="1">  1        2 0.57453353E+00 0.67338663E+04</pdfrwt>
<pdfrwt beam="2">  1       -2 0.46701076E+00 0.67338663E+04</pdfrwt>
<totfact> 0.94342906E-04</totfact>
</mgrwt>
</event>
<event>
11    1  0.1973952E-014  0.3019376E+04  0.7818608E-02  0.8551725E-01
         -2   -1    0    0    0  501 -0.00000000000E+00  0.00000000000E+00  0.19957758538E+04  0.19957758538E+04  0.00000000000E+00 0.  1.
          2   -1    0    0  501    0  0.00000000000E+00 -0.00000000000E+00 -0.19271464985E+04  0.19271464985E+04  0.00000000000E+00 0. -1.
    9900016    2    1    2    0    0 -0.33512415519E+03 -0.73794832735E+03  0.13504805148E+03  0.19774411574E+04  0.17986549479E+04 0.  0.
        -24    2    3    3    0    0  0.35588753236E+03 -0.47505679468E+03 -0.66030360916E+03  0.89153445131E+03  0.80609724892E+02 0.  0.
        -15    1    3    3    0    0 -0.69101168755E+03 -0.26289153267E+03  0.79535166064E+03  0.10859067061E+04  0.00000000000E+00 0.  1.
        -15    1    1    2    0    0 -0.19916000456E+03  0.33667364697E+03  0.41998127916E+03  0.57393216221E+03  0.00000000000E+00 0.  1.
         15    1    4    4    0    0  0.14207535337E+03 -0.15795598525E+03 -0.18702825377E+03  0.28304605106E+03  0.00000000000E+00 0. -1.
         15    1    1    2    0    0  0.18458561213E+03 -0.23301950894E+03  0.55243048882E+02  0.30236027219E+03  0.00000000000E+00 0. -1.
        -16    1    4    4    0    0  0.21381217899E+03 -0.31710080944E+03 -0.47327535538E+03  0.60848840025E+03  0.00000000000E+00 0.  1.
         16    1    1    2    0    0  0.38494251266E+03  0.65211983435E+03 -0.58876332305E+03  0.95920970959E+03  0.00000000000E+00 0. -1.
    9900018    1    1    2    0    0 -0.35243965043E+02 -0.17825645039E+02  0.47120298810E+02  0.10997905094E+03  0.91187600000E+02 0.  0.
<mgrwt>
<rscale>  0 0.21217436E+04</rscale>
<asrwt>0</asrwt>
<pdfrwt beam="1">  1        2 0.29648408E+00 0.30193765E+04</pdfrwt>
<pdfrwt beam="2">  1       -2 0.30704244E+00 0.30193765E+04</pdfrwt>
<totfact> 0.17515998E-01</totfact>
</mgrwt>
</event>
<event>
11    1  0.1973952E-014  0.2975141E+04  0.7818608E-02  0.8451040E-01
         -2   -1    0    0    0  501 -0.00000000000E+00  0.00000000000E+00  0.14747759707E+04  0.14747759707E+04  0.00000000000E+00 0.  1.
          2   -1    0    0  501    0  0.00000000000E+00 -0.00000000000E+00 -0.29760530856E+04  0.29760530856E+04  0.00000000000E+00 0. -1.
    9900016    2    1    2    0    0  0.18225034213E+02 -0.28698720264E+02 -0.33669141725E+03  0.18281451174E+04  0.17965516111E+04 0.  0.
        -24    2    3    3    0    0 -0.15697404421E+03 -0.73105709211E+03 -0.69189218001E+03  0.10218141794E+04  0.79398400948E+02 0.  0.
        -15    1    3    3    0    0  0.17519907842E+03  0.70235837185E+03  0.35520076275E+03  0.80633093792E+03  0.00000000000E+00 0.  1.
        -15    1    1    2    0    0  0.57089428602E+03 -0.22726033964E+03 -0.51078525487E+03  0.79904262988E+03  0.00000000000E+00 0.  1.
         15    1    1    2    0    0  0.30488877554E+03  0.12808310664E+03  0.26382516483E+03  0.42304392828E+03  0.00000000000E+00 0. -1.
         15    1    4    4    0    0 -0.78953414131E+02 -0.37331691388E+03 -0.29908996580E+03  0.48482364570E+03  0.00000000000E+00 0. -1.
        -16    1    4    4    0    0 -0.78020630076E+02 -0.35774017824E+03 -0.39280221421E+03  0.53699053374E+03  0.00000000000E+00 0.  1.
         16    1    1    2    0    0 -0.93569793152E+03  0.11428785572E+03 -0.88830575174E+03  0.12952526555E+04  0.00000000000E+00 0. -1.
    9900018    1    1    2    0    0  0.41689835753E+02  0.13588097545E+02 -0.29319855793E+02  0.10534472525E+03  0.91187600000E+02 0.  0.
<mgrwt>
<rscale>  0 0.23694240E+04</rscale>
<asrwt>0</asrwt>
<pdfrwt beam="1">  1        2 0.45785431E+00 0.29751415E+04</pdfrwt>
<pdfrwt beam="2">  1       -2 0.22688862E+00 0.29751415E+04</pdfrwt>
<totfact> 0.13323111E-01</totfact>
</mgrwt>
</event>
<event>
11    1  0.1973952E-014  0.3386279E+04  0.7818608E-02  0.8442160E-01
         -2   -1    0    0    0  501 -0.00000000000E+00  0.00000000000E+00  0.26689967776E+04  0.26689967776E+04  0.00000000000E+00 0. -1.
          2   -1    0    0  501    0  0.00000000000E+00 -0.00000000000E+00 -0.19264054753E+04  0.19264054753E+04  0.00000000000E+00 0.  1.
    9900016    2    1    2    0    0  0.70054884791E+03  0.27548854538E+03  0.73336104640E+03  0.20748874161E+04  0.17890435260E+04 0.  0.
         24    2    3    3    0    0 -0.56760902679E+02 -0.69472834514E+03  0.17312247377E+03  0.72259080243E+03  0.79352398929E+02 0.  0.
        -15    1    1    2    0    0 -0.19641697949E+03  0.65791777147E+01 -0.62744715540E+02  0.20630030233E+03  0.00000000000E+00 0.  1.
        -15    1    4    4    0    0 -0.38384248841E+02 -0.47568287832E+03  0.15613168161E+03  0.50212015822E+03  0.00000000000E+00 0.  1.
         15    1    3    3    0    0  0.75730975059E+03  0.97021689051E+03  0.56023857263E+03  0.13522966136E+04  0.00000000000E+00 0. -1.
         15    1    1    2    0    0 -0.24090541025E+03  0.29553073561E+03  0.92521835130E+03  0.10007011692E+04  0.00000000000E+00 0. -1.
        -16    1    1    2    0    0 -0.27947663763E+03 -0.64852816840E+03 -0.93451686740E+03  0.11713316147E+04  0.00000000000E+00 0.  1.
         16    1    4    4    0    0 -0.18376653838E+02 -0.21904546682E+03  0.16990792163E+02  0.22047064421E+03  0.00000000000E+00 0. -1.
    9900018    1    1    2    0    0  0.16250179460E+02  0.70929709701E+02  0.81273487551E+02  0.14218175067E+03  0.91187600000E+02 0.  0.
<mgrwt>
<rscale>  0 0.23929171E+04</rscale>
<asrwt>0</asrwt>
<pdfrwt beam="1">  1        2 0.29637007E+00 0.33862794E+04</pdfrwt>
<pdfrwt beam="2">  1       -2 0.41061489E+00 0.33862794E+04</pdfrwt>
<totfact> 0.37092523E-02</totfact>
</mgrwt>
</event>
<event>
11    1  0.1973952E-014  0.2899241E+04  0.7818608E-02  0.8643074E-01
         -2   -1    0    0    0  501 -0.00000000000E+00  0.00000000000E+00  0.14507843622E+04  0.14507843622E+04  0.00000000000E+00 0.  1.
          2   -1    0    0  501    0  0.00000000000E+00 -0.00000000000E+00 -0.21610188835E+04  0.21610188835E+04  0.00000000000E+00 0. -1.
    9900016    2    1    2    0    0 -0.76866353134E+03  0.41942332233E+03 -0.86969384241E+03  0.21740938345E+04  0.17898483382E+04 0.  0.
        -24    2    3    3    0    0  0.26394922438E+03 -0.32638252430E+03 -0.78930007337E+03  0.89777936609E+03  0.82573840485E+02 0.  0.
        -15    1    1    2    0    0  0.41149280524E+03  0.18550060743E+03  0.30579526151E+02  0.45240679873E+03  0.00000000000E+00 0.  1.
        -15    1    3    3    0    0 -0.10326127557E+04  0.74580584663E+03 -0.80393769044E+02  0.12763144684E+04  0.00000000000E+00 0.  1.
         15    1    1    2    0    0 -0.11086489301E+02  0.21382660728E+02  0.12999086714E+03  0.13220345670E+03  0.00000000000E+00 0. -1.
         15    1    4    4    0    0  0.19021804244E+03 -0.21468182372E+03 -0.60964845931E+03  0.67375250133E+03  0.00000000000E+00 0. -1.
        -16    1    4    4    0    0  0.73731181939E+02 -0.11170070058E+03 -0.17965161405E+03  0.22402686475E+03  0.00000000000E+00 0.  1.
         16    1    1    2    0    0  0.34878637378E+03 -0.66529698934E+03  0.11354918147E+02  0.75126623292E+03  0.00000000000E+00 0. -1.
    9900018    1    1    2    0    0  0.19470841623E+02  0.38990398854E+02 -0.12465990318E+02  0.10183292289E+03  0.91187600000E+02 0.  0.
<mgrwt>
<rscale>  0 0.19238523E+04</rscale>
<asrwt>0</asrwt>
<pdfrwt beam="1">  1        2 0.33246444E+00 0.28992406E+04</pdfrwt>
<pdfrwt beam="2">  1       -2 0.22319760E+00 0.28992406E+04</pdfrwt>
<totfact> 0.43280163E-01</totfact>
</mgrwt>
</event>
<event>
11    1  0.1973952E-014  0.3090805E+04  0.7818608E-02  0.8448987E-01
          2   -1    0    0  501    0  0.00000000000E+00  0.00000000000E+00  0.20212564591E+04  0.20212564591E+04  0.00000000000E+00 0. -1.
         -2   -1    0    0    0  501 -0.00000000000E+00 -0.00000000000E+00 -0.22892364643E+04  0.22892364643E+04  0.00000000000E+00 0.  1.
    9900016    2    1    2    0    0  0.79139824713E+02  0.23991379975E+03 -0.83824933717E+03  0.20009970469E+04  0.17993069464E+04 0.  0.
        -24    2    3    3    0    0 -0.41995045534E+03 -0.64504521177E+03 -0.53471488268E+03  0.94063073057E+03  0.80152700311E+02 0.  0.
        -15    1    1    2    0    0 -0.58565150913E+03  0.42637978812E+03  0.21093195408E+03  0.75450626446E+03  0.00000000000E+00 0.  1.
        -15    1    3    3    0    0  0.49909028005E+03  0.88495901152E+03 -0.30353445448E+03  0.10603663163E+04  0.00000000000E+00 0.  1.
         15    1    1    2    0    0  0.22123424803E+03  0.26677661402E+03  0.18766101650E+03  0.39412055441E+03  0.00000000000E+00 0. -1.
         15    1    4    4    0    0 -0.37063098135E+03 -0.58446453017E+03 -0.50632241169E+03  0.85751297130E+03  0.00000000000E+00 0. -1.
        -16    1    4    4    0    0 -0.49319473995E+02 -0.60580681595E+02 -0.28392470993E+02  0.83117759274E+02  0.00000000000E+00 0.  1.
         16    1    1    2    0    0  0.25949579744E+03 -0.97549019088E+03  0.23874747383E+03  0.10372654133E+04  0.00000000000E+00 0. -1.
    9900018    1    1    2    0    0  0.25781638947E+02  0.42419988979E+02 -0.67071112391E+02  0.12360364429E+03  0.91187600000E+02 0.  0.
<mgrwt>
<rscale>  0 0.23748318E+04</rscale>
<asrwt>0</asrwt>
<pdfrwt beam="1">  1        2 0.31096253E+00 0.30908054E+04</pdfrwt>
<pdfrwt beam="2">  1       -2 0.35219023E+00 0.30908054E+04</pdfrwt>
<totfact> 0.80155429E-02</totfact>
</mgrwt>
</event>
<event>
11    1  0.2298053E-014  0.3783564E+04  0.7818608E-02  0.8192887E-01
         -2   -1    0    0    0  501 -0.00000000000E+00  0.00000000000E+00  0.41792712947E+04  0.41792712947E+04  0.00000000000E+00 0.  1.
          2   -1    0    0  501    0  0.00000000000E+00 -0.00000000000E+00 -0.25223514060E+04  0.25223514060E+04  0.00000000000E+00 0. -1.
    9900016    2    1    2    0    0 -0.19485990876E+03 -0.68828093749E+03  0.87473543549E+03  0.21170115090E+04  0.17902163596E+04 0.  0.
        -24    2    3    3    0    0 -0.38973291110E+03 -0.11756627196E+04  0.19218048431E+03  0.12559669399E+04  0.80281027665E+02 0.  0.
        -15    1    1    2    0    0  0.22762358019E+03  0.10296162666E+04  0.21858476782E+04  0.24269017745E+04  0.00000000000E+00 0.  1.
        -15    1    3    3    0    0  0.19487300234E+03  0.48738178210E+03  0.68255495118E+03  0.86104456908E+03  0.00000000000E+00 0.  1.
         15    1    4    4    0    0 -0.19373154663E+03 -0.46303479693E+03  0.67941088146E+02  0.50650678849E+03  0.00000000000E+00 0. -1.
         15    1    1    2    0    0  0.44640031538E+03  0.94402973211E+02 -0.16066093928E+02  0.45655589175E+03  0.00000000000E+00 0. -1.
        -16    1    4    4    0    0 -0.19600136448E+03 -0.71262792266E+03  0.12423939617E+03  0.74946015144E+03  0.00000000000E+00 0.  1.
         16    1    1    2    0    0 -0.52713657873E+03 -0.43074405373E+03 -0.14345029597E+04  0.15878325333E+04  0.00000000000E+00 0. -1.
    9900018    1    1    2    0    0  0.47972591930E+02 -0.49942485562E+01  0.46905828665E+02  0.11332099211E+03  0.91187600000E+02 0.  0.
<mgrwt>
<rscale>  0 0.31846352E+04</rscale>
<asrwt>0</asrwt>
<pdfrwt beam="1">  1        2 0.38805406E+00 0.37835641E+04</pdfrwt>
<pdfrwt beam="2">  1       -2 0.64296481E+00 0.37835641E+04</pdfrwt>
<totfact> 0.89125404E-04</totfact>
</mgrwt>
</event>
<event>
11    1  0.1973952E-014  0.3251029E+04  0.7818608E-02  0.8277413E-01
          2   -1    0    0  501    0  0.00000000000E+00  0.00000000000E+00  0.21331199506E+04  0.21331199506E+04  0.00000000000E+00 0. -1.
         -2   -1    0    0    0  501 -0.00000000000E+00 -0.00000000000E+00 -0.32803555528E+04  0.32803555528E+04  0.00000000000E+00 0.  1.
    9900016    2    1    2    0    0  0.62283628317E+02 -0.36340742344E+03 -0.47289301836E+02  0.18271338644E+04  0.17889208128E+04 0.  0.
        -24    2    3    3    0    0  0.89883513272E+03 -0.28122068127E+03 -0.21633486386E+03  0.96972527909E+03  0.81096709024E+02 0.  0.
        -15    1    1    2    0    0 -0.13096080960E+04  0.27933431153E+03 -0.98987094517E+03  0.16652163555E+04  0.00000000000E+00 0.  1.
        -15    1    3    3    0    0 -0.83655150440E+03 -0.82186742170E+02  0.16904556202E+03  0.85740858530E+03  0.00000000000E+00 0.  1.
         15    1    4    4    0    0  0.59334870135E+02 -0.11078547272E+02 -0.33656420340E+02  0.69109446921E+02  0.00000000000E+00 0. -1.
         15    1    1    2    0    0 -0.48574074363E+02  0.35251524006E+03  0.29972561144E+03  0.46525463708E+03  0.00000000000E+00 0. -1.
        -16    1    4    4    0    0  0.83950026258E+03 -0.27014213400E+03 -0.18267844352E+03  0.90061583217E+03  0.00000000000E+00 0.  1.
         16    1    1    2    0    0  0.12680143708E+04 -0.27259746850E+03 -0.35052905660E+03  0.13435179358E+04  0.00000000000E+00 0. -1.
    9900018    1    1    2    0    0  0.27884171225E+02  0.41553403414E+01 -0.59271910062E+02  0.11235271058E+03  0.91187600000E+02 0.  0.
<mgrwt>
<rscale>  0 0.28848032E+04</rscale>
<asrwt>0</asrwt>
<pdfrwt beam="1">  1        2 0.32817230E+00 0.32510286E+04</pdfrwt>
<pdfrwt beam="2">  1       -2 0.50467008E+00 0.32510286E+04</pdfrwt>
<totfact> 0.68702814E-03</totfact>
</mgrwt>
</event>
<event>
11    1  0.1973952E-014  0.6280672E+04  0.7818608E-02  0.7656544E-01
         -2   -1    0    0    0  501 -0.00000000000E+00  0.00000000000E+00  0.27914385824E+04  0.27914385824E+04  0.00000000000E+00 0. -1.
          2   -1    0    0  501    0  0.00000000000E+00 -0.00000000000E+00 -0.35328411970E+04  0.35328411970E+04  0.00000000000E+00 0.  1.
    9900016    2    1    2    0    0 -0.55790980149E+03  0.38959924014E+03  0.68639531333E+03  0.21248124454E+04  0.18922575108E+04 0.  0.
         24    2    3    3    0    0 -0.71712341892E+03  0.98544328550E+03  0.33982099048E+03  0.12678820026E+04  0.81743502148E+02 0.  0.
        -15    1    4    4    0    0 -0.36404590400E+03  0.50675032535E+03  0.13172873130E+03  0.63771292218E+03  0.00000000000E+00 0.  1.
        -15    1    1    2    0    0  0.74791158207E+03  0.63163718981E+03 -0.64239499627E+02  0.98105248965E+03  0.00000000000E+00 0.  1.
         15    1    1    2    0    0 -0.11299487131E+04 -0.28973051354E+03  0.26943051380E+03  0.11972137096E+04  0.00000000000E+00 0. -1.
         15    1    3    3    0    0  0.24162295365E+03 -0.60901470936E+03  0.32528280853E+03  0.73149810216E+03  0.00000000000E+00 0. -1.
        -16    1    1    2    0    0  0.93994693257E+03 -0.73150591641E+03 -0.16329889421E+04  0.20212011347E+04  0.00000000000E+00 0.  1.
         16    1    4    4    0    0 -0.35307751491E+03  0.47869296015E+03  0.20809225918E+03  0.63016908046E+03  0.00000000000E+00 0. -1.
    9900018    1    3    3    0    0 -0.82409336226E+02  0.13170664005E+02  0.21291514322E+02  0.12543234058E+03  0.91187600000E+02 0.  0.
<mgrwt>
<rscale>  0 0.62806717E+04</rscale>
<asrwt>0</asrwt>
<pdfrwt beam="1">  1        2 0.54351403E+00 0.62806717E+04</pdfrwt>
<pdfrwt beam="2">  1       -2 0.42945209E+00 0.62806717E+04</pdfrwt>
<totfact> 0.24132144E-03</totfact>
</mgrwt>
</event>
<event>
11    1  0.1973952E-014  0.5709706E+04  0.7818608E-02  0.7727475E-01
          2   -1    0    0  501    0  0.00000000000E+00  0.00000000000E+00  0.20344209671E+04  0.20344209671E+04  0.00000000000E+00 0.  1.
         -2   -1    0    0    0  501 -0.00000000000E+00 -0.00000000000E+00 -0.40061455386E+04  0.40061455386E+04  0.00000000000E+00 0. -1.
    9900016    2    1    2    0    0  0.12106187771E+04  0.17898193254E+03 -0.20718329861E+04  0.30611755446E+04  0.18922662173E+04 0.  0.
        -24    2    3    3    0    0  0.48417608559E+03  0.49852902267E+03  0.97907252444E+02  0.70615219494E+03  0.78150009769E+02 0.  0.
        -15    1    1    2    0    0 -0.18312888628E+03  0.72089953979E+03  0.86904571695E+03  0.11438849565E+04  0.00000000000E+00 0.  1.
        -15    1    3    3    0    0  0.63421151763E+03 -0.32036145880E+03 -0.20781007620E+04  0.21962145820E+04  0.00000000000E+00 0.  1.
         15    1    4    4    0    0  0.29005267293E+03  0.25274171106E+03  0.76249018793E+02  0.39220254774E+03  0.00000000000E+00 0. -1.
         15    1    1    2    0    0 -0.82137849724E+02 -0.57210490138E+03 -0.72606871799E+01  0.57801674899E+03  0.00000000000E+00 0. -1.
        -16    1    4    4    0    0  0.19412341266E+03  0.24578731161E+03  0.21658233652E+02  0.31394964720E+03  0.00000000000E+00 0.  1.
         16    1    1    2    0    0 -0.94535204106E+03 -0.32777657095E+03 -0.76167661516E+03  0.12574892556E+04  0.00000000000E+00 0. -1.
    9900018    1    3    3    0    0  0.92231173837E+02  0.81436867173E+00 -0.91639476545E+02  0.15880876764E+03  0.91187600000E+02 0.  0.
<mgrwt>
<rscale>  0 0.57097063E+04</rscale>
<asrwt>0</asrwt>
<pdfrwt beam="1">  1        2 0.31298784E+00 0.57097063E+04</pdfrwt>
<pdfrwt beam="2">  1       -2 0.61633008E+00 0.57097063E+04</pdfrwt>
<totfact> 0.19725799E-03</totfact>
</mgrwt>
</event>
<event>
11    1  0.1973952E-014  0.3197593E+04  0.7818608E-02  0.8395313E-01
         -2   -1    0    0    0  501 -0.00000000000E+00  0.00000000000E+00  0.30373015069E+04  0.30373015069E+04  0.00000000000E+00 0.  1.
          2   -1    0    0  501    0  0.00000000000E+00 -0.00000000000E+00 -0.16200668523E+04  0.16200668523E+04  0.00000000000E+00 0. -1.
    9900016    2    1    2    0    0  0.16317322420E+03 -0.34447785826E+03  0.25622633758E+03  0.19467776982E+04  0.18918247737E+04 0.  0.
        -24    2    3    3    0    0 -0.55883481340E+03 -0.10609099385E+03  0.76793566844E+03  0.95895028263E+03  0.79427992885E+02 0.  0.
        -15    1    1    2    0    0  0.32294293225E+03 -0.52275495062E+03  0.68512020347E+03  0.92030134689E+03  0.00000000000E+00 0.  1.
        -15    1    3    3    0    0  0.69849763671E+03 -0.24584536460E+03 -0.49798265853E+03  0.89237078616E+03  0.00000000000E+00 0.  1.
         15    1    4    4    0    0 -0.41563237192E+03 -0.11209150109E+03  0.59351243159E+03  0.73319286661E+03  0.00000000000E+00 0. -1.
         15    1    1    2    0    0 -0.16033755635E+03 -0.28953324608E+03 -0.22393831731E+03  0.39960731040E+03  0.00000000000E+00 0. -1.
        -16    1    4    4    0    0 -0.14320244148E+03  0.60005072414E+01  0.17442323685E+03  0.22575741602E+03  0.00000000000E+00 0.  1.
         16    1    1    2    0    0 -0.32577860010E+03  0.11567660550E+04  0.69982643083E+03  0.13906820037E+04  0.00000000000E+00 0. -1.
    9900018    1    3    3    0    0  0.23510400887E+02  0.74585001847E+01 -0.13726672331E+02  0.95456629429E+02  0.91187600000E+02 0.  0.
<mgrwt>
<rscale>  0 0.25216511E+04</rscale>
<asrwt>0</asrwt>
<pdfrwt beam="1">  1        2 0.24924105E+00 0.31975929E+04</pdfrwt>
<pdfrwt beam="2">  1       -2 0.46727715E+00 0.31975929E+04</pdfrwt>
<totfact> 0.23526387E-02</totfact>
</mgrwt>
</event>
<event>
11    1  0.1973952E-014  0.3744319E+04  0.7818608E-02  0.8197653E-01
          1   -1    0    0  501    0  0.00000000000E+00  0.00000000000E+00  0.23823264360E+04  0.23823264360E+04  0.00000000000E+00 0. -1.
         -1   -1    0    0    0  501 -0.00000000000E+00 -0.00000000000E+00 -0.37621788121E+04  0.37621788121E+04  0.00000000000E+00 0.  1.
    9900016    2    1    2    0    0  0.65185894271E+02 -0.63364054185E+03 -0.30842008206E+03  0.20253516046E+04  0.18976766422E+04 0.  0.
        -24    2    3    3    0    0  0.27360604465E+03  0.44845957035E+03  0.33721089125E+03  0.62854075286E+03  0.73321476532E+02 0.  0.
        -15    1    3    3    0    0 -0.23401968847E+03 -0.11045597995E+04 -0.64321919760E+03  0.12994416114E+04  0.00000000000E+00 0.  1.
        -15    1    1    2    0    0  0.15636272578E+04 -0.39881085203E+03 -0.12291249909E+04  0.20284793665E+04  0.00000000000E+00 0.  1.
         15    1    4    4    0    0  0.18571715377E+03  0.36339975639E+03  0.26117542544E+03  0.48452331936E+03  0.00000000000E+00 0. -1.
         15    1    1    2    0    0 -0.30184969960E+03  0.46392137839E+01 -0.21589430690E+03  0.37114029046E+03  0.00000000000E+00 0. -1.
        -16    1    4    4    0    0  0.87888890883E+02  0.85059813957E+02  0.76035465815E+02  0.14401743350E+03  0.00000000000E+00 0.  1.
         16    1    1    2    0    0 -0.13269634525E+04  0.10278121801E+04  0.37358700371E+03  0.17195339866E+04  0.00000000000E+00 0. -1.
    9900018    1    3    3    0    0  0.25599538095E+02  0.22459687327E+02 -0.24117757094E+01  0.97369240324E+02  0.91187600000E+02 0.  0.
<mgrwt>
<rscale>  0 0.31667533E+04</rscale>
<asrwt>0</asrwt>
<pdfrwt beam="1">  1        1 0.36651176E+00 0.37443185E+04</pdfrwt>
<pdfrwt beam="2">  1       -1 0.57879674E+00 0.37443185E+04</pdfrwt>
<totfact> 0.66495073E-04</totfact>
</mgrwt>
</event>
<event>
11    1  0.1973952E-014  0.3903340E+04  0.7818608E-02  0.8174931E-01
          2   -1    0    0  501    0  0.00000000000E+00  0.00000000000E+00  0.25462658381E+04  0.25462658381E+04  0.00000000000E+00 0. -1.
         -2   -1    0    0    0  501 -0.00000000000E+00 -0.00000000000E+00 -0.32881504836E+04  0.32881504836E+04  0.00000000000E+00 0.  1.
    9900016    2    1    2    0    0 -0.84472347996E+02  0.85463575043E+03 -0.54356439468E+03  0.21513208362E+04  0.18960963176E+04 0.  0.
        -24    2    3    3    0    0  0.73007638546E+03  0.45190449834E+03  0.24747514148E+03  0.89743130713E+03  0.83125213671E+02 0.  0.
        -15    1    1    2    0    0  0.39898160553E+02  0.74488360295E+03  0.61221945348E+03  0.96501611612E+03  0.00000000000E+00 0.  1.
        -15    1    3    3    0    0 -0.75784473538E+03  0.34861917746E+03 -0.76281719454E+03  0.11303778333E+04  0.00000000000E+00 0.  1.
         15    1    1    2    0    0 -0.24943830289E+03  0.15341382387E+03 -0.89195521994E+03  0.93879677390E+03  0.00000000000E+00 0. -1.
         15    1    4    4    0    0  0.24422542229E+03  0.14248048540E+03  0.12178908577E+03  0.30786251319E+03  0.00000000000E+00 0. -1.
        -16    1    4    4    0    0  0.48585096317E+03  0.30942401294E+03  0.12568605571E+03  0.58956879394E+03  0.00000000000E+00 0.  1.
         16    1    1    2    0    0  0.29401249034E+03 -0.17529331773E+04  0.81415515661E+02  0.17792825955E+04  0.00000000000E+00 0. -1.
    9900018    1    3    3    0    0 -0.56703998082E+02  0.54112074630E+02 -0.28222341621E+02  0.12351169572E+03  0.91187600000E+02 0.  0.
<mgrwt>
<rscale>  0 0.32531079E+04</rscale>
<asrwt>0</asrwt>
<pdfrwt beam="1">  1        2 0.39173321E+00 0.39033398E+04</pdfrwt>
<pdfrwt beam="2">  1       -2 0.50586930E+00 0.39033398E+04</pdfrwt>
<totfact> 0.37330192E-03</totfact>
</mgrwt>
</event>
<event>
11    1  0.1973952E-014  0.5574471E+04  0.7818608E-02  0.7745524E-01
          2   -1    0    0  501    0  0.00000000000E+00  0.00000000000E+00  0.33973997635E+04  0.33973997635E+04  0.00000000000E+00 0.  1.
         -2   -1    0    0    0  501 -0.00000000000E+00 -0.00000000000E+00 -0.22866550723E+04  0.22866550723E+04  0.00000000000E+00 0. -1.
    9900016    2    1    2    0    0  0.10032095342E+04  0.48609624248E+02  0.87786658215E+02  0.21487827934E+04  0.18975691636E+04 0.  0.
        -24    2    3    3    0    0  0.14046555312E+04 -0.33386324419E+03  0.28415559340E+03  0.14736849256E+04  0.80504854222E+02 0.  0.
        -15    1    3    3    0    0 -0.40180464542E+03  0.35852886078E+03 -0.21347935536E+03  0.57927830294E+03  0.00000000000E+00 0.  1.
        -15    1    1    2    0    0  0.75045484741E+02 -0.70375260689E+03  0.58549675936E+03  0.91853470903E+03  0.00000000000E+00 0.  1.
         15    1    4    4    0    0  0.72075443990E+03 -0.14222805401E+03  0.11530554129E+03  0.74364719447E+03  0.00000000000E+00 0. -1.
         15    1    1    2    0    0  0.31978684220E+03  0.77234125084E+03  0.81123929152E+03  0.11648535617E+04  0.00000000000E+00 0. -1.
        -16    1    4    4    0    0  0.68390109133E+03 -0.19163519018E+03  0.16885005211E+03  0.73003773118E+03  0.00000000000E+00 0.  1.
         16    1    1    2    0    0 -0.13980418612E+04 -0.11719826821E+03 -0.37377801792E+03  0.14518837716E+04  0.00000000000E+00 0. -1.
    9900018    1    3    3    0    0  0.35864842133E+00  0.23944007662E+02  0.17110420172E+02  0.95819564828E+02  0.91187600000E+02 0.  0.
<mgrwt>
<rscale>  0 0.55744709E+04</rscale>
<asrwt>0</asrwt>
<pdfrwt beam="1">  1        2 0.52267689E+00 0.55744709E+04</pdfrwt>
<pdfrwt beam="2">  1       -2 0.35179309E+00 0.55744709E+04</pdfrwt>
<totfact> 0.10080278E-02</totfact>
</mgrwt>
</event>
