<event>
12    1  0.7143776E-011  0.2116254E+04  0.7818608E-02  0.9169614E-01
          2   -1    0    0  501    0  0.00000000000E+00  0.00000000000E+00  0.19641734605E+04  0.19641734605E+04  0.00000000000E+00 0. -1.
         -2   -1    0    0    0  501 -0.00000000000E+00 -0.00000000000E+00 -0.70355283115E+03  0.70355283115E+03  0.00000000000E+00 0.  1.
         23    2    1    2    0    0  0.14039193448E+03 -0.59560400991E+02 -0.43674808992E+02  0.18182237874E+03  0.88851290571E+02 0.  0.
    9900016    2    1    2    0    0  0.69913101165E+03  0.53935840165E+03  0.57246697766E+03  0.12732300927E+04  0.71673200813E+03 0.  0.
         23    2    4    4    0    0 -0.23942404914E+02 -0.19049619734E+02 -0.78687494792E+02  0.13523882160E+03  0.10564890093E+03 0.  0.
        -15    1    5    5    0    0  0.24602670293E+02 -0.37923474389E+02 -0.68648023747E+02  0.82195087807E+02  0.00000000000E+00 0.  1.
        -15    1    3    3    0    0  0.21278783213E+02 -0.27199688157E+01  0.25083400279E+02  0.33005481590E+02  0.00000000000E+00 0. -1.
         15    1    5    5    0    0 -0.48545075206E+02  0.18873854655E+02 -0.10039471045E+02  0.53043733798E+02  0.00000000000E+00 0. -1.
         15    1    3    3    0    0  0.11911315127E+03 -0.56840432176E+02 -0.68758209271E+02  0.14881689715E+03  0.00000000000E+00 0.  1.
        -16    1    4    4    0    0  0.22797836220E+03  0.25033712186E+03  0.18453446514E+03  0.38561091405E+03  0.00000000000E+00 0.  1.
         16    1    1    2    0    0 -0.83952294613E+03 -0.47979800066E+03  0.73182846071E+03  0.12126738203E+04  0.00000000000E+00 0. -1.
    9900018    1    4    4    0    0  0.49509505437E+03  0.30807089952E+03  0.46662000732E+03  0.75238035701E+03  0.91187600000E+02 0.  0.
<mgrwt>
<rscale>  0 0.11372643E+04</rscale>
<asrwt>0</asrwt>
<pdfrwt beam="1">  1        2 0.30218053E+00 0.21162542E+04</pdfrwt>
<pdfrwt beam="2">  1       -2 0.10823890E+00 0.21162542E+04</pdfrwt>
<totfact> 0.43677154E+00</totfact>
</mgrwt>
</event>
<event>
12    1  0.7143776E-011  0.1193285E+04  0.7818608E-02  0.9530576E-01
         -2   -1    0    0    0  501 -0.00000000000E+00  0.00000000000E+00  0.65770510193E+03  0.65770510193E+03  0.00000000000E+00 0.  1.
          2   -1    0    0  501    0  0.00000000000E+00 -0.00000000000E+00 -0.94133044776E+03  0.94133044776E+03  0.00000000000E+00 0. -1.
         23    2    1    2    0    0 -0.24557198174E+03 -0.57297313408E+02 -0.30530333574E+03  0.40555380471E+03  0.87608112427E+02 0.  0.
    9900016    2    1    2    0    0 -0.99725085042E+02  0.29467165452E+03  0.24925298373E+01  0.77402409035E+03  0.70875285056E+03 0.  0.
         23    2    4    4    0    0 -0.47977018938E+02  0.47190228558E+03 -0.72523607204E+02  0.49141064530E+03  0.10597729582E+03 0.  0.
        -15    1    3    3    0    0 -0.14056390988E+03 -0.75465589900E+02 -0.16705840409E+03  0.23100168483E+03  0.00000000000E+00 0.  1.
        -15    1    5    5    0    0  0.19160077016E+02  0.28479549158E+02 -0.20364607735E+02  0.39911283112E+02  0.00000000000E+00 0.  1.
         15    1    5    5    0    0 -0.67137095954E+02  0.44342273642E+03 -0.52158999469E+02  0.45149936218E+03  0.00000000000E+00 0. -1.
         15    1    3    3    0    0 -0.10500807186E+03  0.18168276492E+02 -0.13824493166E+03  0.17455211988E+03  0.00000000000E+00 0. -1.
        -16    1    4    4    0    0 -0.11544570646E+02 -0.14088768382E+03  0.10059124121E+03  0.17349701545E+03  0.00000000000E+00 0.  1.
         16    1    1    2    0    0  0.34529706678E+03 -0.23737434111E+03  0.19185460072E+02  0.41945765462E+03  0.00000000000E+00 0. -1.
    9900018    1    4    4    0    0 -0.40203495457E+02 -0.36342947244E+02 -0.25575104172E+02  0.10911642960E+03  0.91187600000E+02 0.  0.
<mgrwt>
<rscale>  0 0.82066647E+03</rscale>
<asrwt>0</asrwt>
<pdfrwt beam="1">  1        2 0.14482007E+00 0.11932849E+04</pdfrwt>
<pdfrwt beam="2">  1       -2 0.10118540E+00 0.11932849E+04</pdfrwt>
<totfact> 0.21676556E+01</totfact>
</mgrwt>
</event>
<event>
12    1  0.7143777E-011  0.1735567E+04  0.7818608E-02  0.9132926E-01
         -2   -1    0    0    0  501 -0.00000000000E+00  0.00000000000E+00  0.24325245974E+04  0.24325245974E+04  0.00000000000E+00 0.  1.
          2   -1    0    0  501    0  0.00000000000E+00 -0.00000000000E+00 -0.45566773090E+03  0.45566773090E+03  0.00000000000E+00 0. -1.
         23    2    1    2    0    0 -0.13975290371E+03 -0.32716140649E+03  0.29305711385E+03  0.47005771182E+03  0.92229715800E+02 0.  0.
    9900016    2    1    2    0    0 -0.21362152177E+03  0.48364694015E+03  0.18061371017E+04  0.20127611667E+04  0.71381213695E+03 0.  0.
         23    2    4    4    0    0 -0.64268379036E+02  0.18337808458E+03  0.28886887320E+03  0.36555751305E+03  0.11148597668E+03 0.  0.
        -15    1    3    3    0    0 -0.61840759957E+02 -0.12663091205E+03  0.17490456765E+03  0.22461361326E+03  0.00000000000E+00 0.  1.
        -15    1    5    5    0    0  0.69226952038E+01  0.68569035391E+02  0.33431960149E+02  0.76598513581E+02  0.00000000000E+00 0. -1.
         15    1    5    5    0    0 -0.71191074240E+02  0.11480904919E+03  0.25543691305E+03  0.28895899947E+03  0.00000000000E+00 0.  1.
         15    1    3    3    0    0 -0.77912143749E+02 -0.20053049444E+03  0.11815254620E+03  0.24544409856E+03  0.00000000000E+00 0. -1.
        -16    1    4    4    0    0  0.10596104361E+02 -0.10884761096E+03  0.65007202560E+02  0.12722427529E+03  0.00000000000E+00 0.  1.
         16    1    1    2    0    0  0.35337442548E+03 -0.15648553366E+03 -0.12233734902E+03  0.40537344979E+03  0.00000000000E+00 0. -1.
    9900018    1    4    4    0    0 -0.15994924710E+03  0.40911646653E+03  0.14522610259E+04  0.15199793783E+04  0.91187600000E+02 0.  0.
<mgrwt>
<rscale>  0 0.11773393E+04</rscale>
<asrwt>0</asrwt>
<pdfrwt beam="1">  1        2 0.70102729E-01 0.17355672E+04</pdfrwt>
<pdfrwt beam="2">  1       -2 0.37423455E+00 0.17355672E+04</pdfrwt>
<totfact> 0.70768157E-01</totfact>
</mgrwt>
</event>
