<event>
10    1  0.1563220E-012  0.5598794E+04  0.7818608E-02  0.8139698E-01
          2   -1    0    0  501    0  0.00000000000E+00  0.00000000000E+00  0.41614338637E+04  0.41614338637E+04  0.00000000000E+00 0.  1.
         -2   -1    0    0    0  501 -0.00000000000E+00 -0.00000000000E+00 -0.24303276319E+04  0.24303276319E+04  0.00000000000E+00 0. -1.
         24    2    1    2    0    0 -0.42418871432E+00 -0.75071634316E+03  0.30490261288E+03  0.81417097335E+03  0.79583683512E+02 0.  0.
        -15    1    1    2    0    0 -0.10508922061E+04 -0.47678376394E+03  0.60023589205E+03  0.13007614356E+04  0.00000000000E+00 0.  1.
        -15    1    3    3    0    0  0.23565005844E+02 -0.50735706851E+03  0.23636113544E+03  0.56020807815E+03  0.00000000000E+00 0.  1.
         15    1    1    2    0    0  0.12011773952E+04 -0.48945898649E+03 -0.32451799125E+03  0.13370524151E+04  0.00000000000E+00 0. -1.
         15    1    1    2    0    0 -0.25066810776E+03  0.12266150352E+04 -0.42692067552E+03  0.13227547800E+04  0.00000000000E+00 0. -1.
        -16    1    1    2    0    0  0.36642572444E+03  0.27397396632E+03  0.12624700046E+04  0.13428179543E+04  0.00000000000E+00 0.  1.
         16    1    3    3    0    0 -0.23989194558E+02 -0.24335927465E+03  0.68541477441E+02  0.25396289521E+03  0.00000000000E+00 0. -1.
    9900018    1    1    2    0    0 -0.26561861705E+03  0.21637009204E+03  0.31493638900E+03  0.47420393710E+03  0.91187600000E+02 0.  0.
<mgrwt>
<rscale>  0 0.33927084E+04</rscale>
<asrwt>0</asrwt>
<pdfrwt beam="1">  1        2 0.64022059E+00 0.55987941E+04</pdfrwt>
<pdfrwt beam="2">  1       -2 0.37389656E+00 0.55987941E+04</pdfrwt>
<totfact> 0.18481439E-03</totfact>
</mgrwt>
</event>
<event>
10    1  0.1563220E-012  0.2171763E+04  0.7818608E-02  0.8530274E-01
          2   -1    0    0  501    0  0.00000000000E+00  0.00000000000E+00  0.19622195929E+04  0.19622195929E+04  0.00000000000E+00 0.  1.
         -2   -1    0    0    0  501 -0.00000000000E+00 -0.00000000000E+00 -0.60092082731E+03  0.60092082731E+03  0.00000000000E+00 0. -1.
         24    2    1    2    0    0  0.12122585845E+02  0.24043024039E+03 -0.31961406193E+03  0.40825123813E+03  0.81007822250E+02 0.  0.
        -15    1    1    2    0    0  0.10629948853E+03 -0.55095629348E+02  0.21506134307E+03  0.24614323253E+03  0.00000000000E+00 0.  1.
        -15    1    3    3    0    0 -0.57347508016E+01  0.11433766916E+02 -0.61151804304E+02  0.62475287613E+02  0.00000000000E+00 0.  1.
         15    1    1    2    0    0 -0.34307272912E+03 -0.18219075386E+03  0.27329296081E+03  0.47495411430E+03  0.00000000000E+00 0. -1.
         15    1    1    2    0    0  0.12738278422E+03 -0.36185312067E+02 -0.77370309002E+02  0.15336856014E+03  0.00000000000E+00 0. -1.
        -16    1    1    2    0    0  0.38383370811E+02  0.38993350056E+02  0.39784907647E+03  0.40159388958E+03  0.00000000000E+00 0.  1.
         16    1    3    3    0    0  0.17857336646E+02  0.22899647347E+03 -0.25846225763E+03  0.34577595051E+03  0.00000000000E+00 0. -1.
    9900018    1    1    2    0    0  0.58884499716E+02 -0.59518951696E+01  0.87207975620E+03  0.87882938557E+03  0.91187600000E+02 0.  0.
<mgrwt>
<rscale>  0 0.21717630E+04</rscale>
<asrwt>0</asrwt>
<pdfrwt beam="1">  1        2 0.30187993E+00 0.21717630E+04</pdfrwt>
<pdfrwt beam="2">  1       -2 0.92449359E-01 0.21717630E+04</pdfrwt>
<totfact> 0.63795403E+00</totfact>
</mgrwt>
</event>
<event>
11    1  0.1563220E-012  0.3760070E+04  0.7818608E-02  0.8054778E-01
          2   -1    0    0  501    0  0.00000000000E+00  0.00000000000E+00  0.43487089524E+04  0.43487089524E+04  0.00000000000E+00 0. -1.
         -2   -1    0    0    0  501 -0.00000000000E+00 -0.00000000000E+00 -0.81277740330E+03  0.81277740330E+03  0.00000000000E+00 0.  1.
    9900016    2    1    2    0    0 -0.34024259174E+03 -0.18414835666E+03  0.25652238611E+04  0.31233721115E+04  0.17393689232E+04 0.  0.
         24    2    3    3    0    0  0.54144661306E+03 -0.17609602781E+03  0.21507421984E+03  0.61326374133E+03  0.75241282414E+02 0.  0.
        -15    1    4    4    0    0  0.28519789282E+03 -0.13117463528E+03  0.12639702124E+03  0.33840926404E+03  0.00000000000E+00 0.  1.
        -15    1    1    2    0    0  0.59142464860E+02 -0.21730515244E+03  0.23316260278E+03  0.32416687024E+03  0.00000000000E+00 0.  1.
         15    1    1    2    0    0  0.95892657749E+01  0.11593267092E+03 -0.71855510280E+02  0.13673168090E+03  0.00000000000E+00 0. -1.
         15    1    3    3    0    0 -0.88168920480E+03 -0.80523288497E+01  0.23501496413E+04  0.25101083702E+04  0.00000000000E+00 0. -1.
        -16    1    1    2    0    0  0.64612374174E+03  0.58018943317E+03  0.51327310571E+03  0.10087343303E+04  0.00000000000E+00 0.  1.
         16    1    4    4    0    0  0.25624872024E+03 -0.44921392527E+02  0.88677198603E+02  0.27485447729E+03  0.00000000000E+00 0. -1.
    9900018    1    1    2    0    0 -0.37461288063E+03 -0.29466859499E+03  0.29612748978E+03  0.56848136276E+03  0.91187600000E+02 0.  0.
<mgrwt>
<rscale>  0 0.37600704E+04</rscale>
<asrwt>0</asrwt>
<pdfrwt beam="1">  1        2 0.66903213E+00 0.37600704E+04</pdfrwt>
<pdfrwt beam="2">  1       -2 0.12504268E+00 0.37600704E+04</pdfrwt>
<totfact> 0.65666657E-02</totfact>
</mgrwt>
</event>
<event>
11    1  0.1563220E-012  0.7139358E+04  0.7818608E-02  0.7563232E-01
          2   -1    0    0  501    0  0.00000000000E+00  0.00000000000E+00  0.39060082182E+04  0.39060082182E+04  0.00000000000E+00 0.  1.
         -2   -1    0    0    0  501 -0.00000000000E+00 -0.00000000000E+00 -0.32623095150E+04  0.32623095150E+04  0.00000000000E+00 0. -1.
    9900016    2    1    2    0    0  0.18365960533E+03 -0.34393582056E+03 -0.36707325001E+03  0.18314391850E+04  0.17514005875E+04 0.  0.
         24    2    3    3    0    0  0.87514113840E+03 -0.45071780263E+03 -0.51856557429E+03  0.11155488117E+04  0.80748663278E+02 0.  0.
        -15    1    1    2    0    0 -0.51972983804E+03 -0.12539616689E+04  0.46737780902E+03  0.14356117121E+04  0.00000000000E+00 0.  1.
        -15    1    4    4    0    0  0.65750863777E+03 -0.30074737642E+03 -0.36620038173E+03  0.81047474529E+03  0.00000000000E+00 0.  1.
         15    1    3    3    0    0 -0.69148153307E+03  0.10678198207E+03  0.15149232429E+03  0.71589037330E+03  0.00000000000E+00 0. -1.
         15    1    1    2    0    0  0.20863218444E+03  0.19450766555E+04 -0.54884703819E+03  0.20317686029E+04  0.00000000000E+00 0. -1.
        -16    1    1    2    0    0  0.62089164634E+03 -0.55933458532E+02  0.11273472424E+04  0.12882339823E+04  0.00000000000E+00 0.  1.
         16    1    4    4    0    0  0.21763250063E+03 -0.14997042621E+03 -0.15236519256E+03  0.30507406637E+03  0.00000000000E+00 0. -1.
    9900018    1    1    2    0    0 -0.49345359807E+03 -0.29124570754E+03 -0.35106059959E+02  0.58126425097E+03  0.91187600000E+02 0.  0.
<mgrwt>
<rscale>  0 0.71393579E+04</rscale>
<asrwt>0</asrwt>
<pdfrwt beam="1">  1        2 0.60092434E+00 0.71393579E+04</pdfrwt>
<pdfrwt beam="2">  1       -2 0.50189377E+00 0.71393579E+04</pdfrwt>
<totfact> 0.40727609E-04</totfact>
</mgrwt>
</event>
<event>
10    1  0.1563220E-012  0.2780628E+04  0.7818608E-02  0.8711668E-01
          2   -1    0    0  501    0  0.00000000000E+00  0.00000000000E+00  0.35369919510E+04  0.35369919510E+04  0.00000000000E+00 0. -1.
         -2   -1    0    0    0  501 -0.00000000000E+00 -0.00000000000E+00 -0.75885873423E+03  0.75885873423E+03  0.00000000000E+00 0.  1.
         24    2    1    2    0    0  0.21288473932E+03 -0.41988484368E+03  0.25584006073E+03  0.54167251229E+03  0.79572480862E+02 0.  0.
        -15    1    1    2    0    0 -0.44876102810E+03 -0.94892083424E+02  0.37255058384E+03  0.59091869606E+03  0.00000000000E+00 0.  1.
        -15    1    3    3    0    0  0.21343085603E+03 -0.38870114827E+03  0.22290810788E+03  0.49631576393E+03  0.00000000000E+00 0.  1.
         15    1    1    2    0    0 -0.10418977837E+03  0.93773727456E+03  0.75240172525E+03  0.12067787959E+04  0.00000000000E+00 0. -1.
         15    1    1    2    0    0  0.72267720172E+03 -0.45215475819E+03  0.12035620027E+04  0.14748788959E+04  0.00000000000E+00 0. -1.
        -16    1    1    2    0    0 -0.19217452549E+03  0.29747858079E+01  0.18785428280E+03  0.26875477515E+03  0.00000000000E+00 0.  1.
         16    1    3    3    0    0 -0.54611670536E+00 -0.31183695406E+02  0.32931952858E+02  0.45356748359E+02  0.00000000000E+00 0. -1.
    9900018    1    1    2    0    0 -0.19043660908E+03  0.26219624915E+02  0.59245614164E+01  0.21284700992E+03  0.91187600000E+02 0.  0.
<mgrwt>
<rscale>  0 0.17899394E+04</rscale>
<asrwt>0</asrwt>
<pdfrwt beam="1">  1        2 0.54415260E+00 0.27806278E+04</pdfrwt>
<pdfrwt beam="2">  1       -2 0.11674750E+00 0.27806278E+04</pdfrwt>
<totfact> 0.37405525E-01</totfact>
</mgrwt>
</event>
