<event>
12    1  0.5249275E-011  0.2962308E+04  0.7818608E-02  0.8254577E-01
          1   -1    0    0  501    0  0.00000000000E+00  0.00000000000E+00  0.76564296898E+03  0.76564296898E+03  0.00000000000E+00 0. -1.
         -1   -1    0    0    0  501 -0.00000000000E+00 -0.00000000000E+00 -0.28653258419E+04  0.28653258419E+04  0.00000000000E+00 0.  1.
    9900016    2    1    2    0    0  0.32908081286E+03 -0.51562530081E+03 -0.15971768811E+04  0.28393401706E+04  0.22664322145E+04 0.  0.
         24    2    3    3    0    0  0.18352252240E+03 -0.27900531466E+02 -0.86881105081E+03  0.89180986835E+03  0.77673955683E+02 0.  0.
         23    2    3    3    0    0  0.25368581249E+03  0.31142666517E+03 -0.73801004878E+03  0.84506663071E+03  0.90198220702E+02 0.  0.
        -15    1    4    4    0    0  0.12756971742E+03  0.16664510947E+02 -0.60052934951E+03  0.61415571181E+03  0.00000000000E+00 0.  1.
        -15    1    5    5    0    0  0.17557182016E+03  0.23231449598E+03 -0.60704533313E+03  0.67327522274E+03  0.00000000000E+00 0.  1.
         15    1    3    3    0    0 -0.21158963747E+03 -0.89443358397E+03  0.75834479317E+02  0.92224317784E+03  0.00000000000E+00 0. -1.
         15    1    5    5    0    0  0.78113992324E+02  0.79112169182E+02 -0.13096471564E+03  0.17179140797E+03  0.00000000000E+00 0. -1.
        -16    1    1    2    0    0 -0.32908081286E+03  0.51562530081E+03 -0.50250599183E+03  0.79162864024E+03  0.00000000000E+00 0.  1.
         16    1    4    4    0    0  0.55952804980E+02 -0.44565042412E+02 -0.26828170130E+03  0.27765415654E+03  0.00000000000E+00 0. -1.
    9900018    1    3    3    0    0  0.10346211544E+03  0.95282149463E+02 -0.66190260811E+02  0.18022049372E+03  0.91187600000E+02 0.  0.
<mgrwt>
<rscale>  0 0.29623076E+04</rscale>
<asrwt>0</asrwt>
<pdfrwt beam="1">  1        1 0.11779123E+00 0.29623076E+04</pdfrwt>
<pdfrwt beam="2">  1       -1 0.44081936E+00 0.29623076E+04</pdfrwt>
<totfact> 0.75720455E-02</totfact>
</mgrwt>
</event>
<event>
12    1  0.5249275E-011  0.2590392E+04  0.7818608E-02  0.8371472E-01
          1   -1    0    0  501    0  0.00000000000E+00  0.00000000000E+00  0.15767587349E+04  0.15767587349E+04  0.00000000000E+00 0. -1.
         -1   -1    0    0    0  501 -0.00000000000E+00 -0.00000000000E+00 -0.10639121174E+04  0.10639121174E+04  0.00000000000E+00 0.  1.
    9900016    2    1    2    0    0  0.58681331404E+02  0.28210338539E+03  0.45922596288E+03  0.23475821399E+04  0.22841251279E+04 0.  0.
        -24    2    3    3    0    0 -0.27616421149E+03  0.56807109611E+03  0.10410577513E+04  0.12204173891E+04  0.81522512296E+02 0.  0.
         23    2    3    3    0    0 -0.18877987427E+03  0.32618452655E+02 -0.35063586651E+03  0.40967536334E+03  0.90479766038E+02 0.  0.
        -15    1    3    3    0    0  0.35885608094E+03 -0.32377296839E+03 -0.21313221997E+03  0.52823476322E+03  0.00000000000E+00 0.  1.
        -15    1    5    5    0    0 -0.29703988022E+02 -0.28479013080E+02 -0.77332706378E+02  0.87599820583E+02  0.00000000000E+00 0. -1.
         15    1    5    5    0    0 -0.15907588625E+03  0.61097465734E+02 -0.27330316013E+03  0.32207554276E+03  0.00000000000E+00 0.  1.
         15    1    4    4    0    0 -0.22391236184E+03  0.37413728050E+03  0.70971825339E+03  0.83295585095E+03  0.00000000000E+00 0. -1.
        -16    1    4    4    0    0 -0.52251849657E+02  0.19393381561E+03  0.33133949791E+03  0.38746153810E+03  0.00000000000E+00 0.  1.
         16    1    1    2    0    0 -0.58681331404E+02 -0.28210338539E+03  0.53620654641E+02  0.29308871235E+03  0.00000000000E+00 0. -1.
    9900018    1    3    3    0    0  0.16476933623E+03  0.51868050074E+01 -0.18063701944E+02  0.18925462433E+03  0.91187600000E+02 0.  0.
<mgrwt>
<rscale>  0 0.25903920E+04</rscale>
<asrwt>0</asrwt>
<pdfrwt beam="1">  1        1 0.24257827E+00 0.25903920E+04</pdfrwt>
<pdfrwt beam="2">  1       -1 0.16367879E+00 0.25903920E+04</pdfrwt>
<totfact> 0.13991331E+00</totfact>
</mgrwt>
</event>
<event>
11    1  0.5249275E-011  0.3378677E+04  0.7818608E-02  0.8143159E-01
         -2   -1    0    0    0  501 -0.00000000000E+00  0.00000000000E+00  0.77355615927E+03  0.77355615927E+03  0.00000000000E+00 0.  1.
          2   -1    0    0  501    0  0.00000000000E+00 -0.00000000000E+00 -0.36892799983E+04  0.36892799983E+04  0.00000000000E+00 0. -1.
         24    2    1    2    0    0 -0.26158048117E+03  0.10924099978E+04 -0.21918892220E+04  0.24642417890E+04  0.79531641115E+02 0.  0.
         23    2    1    2    0    0 -0.23558139630E+03 -0.28918270556E+03 -0.45912456365E+02  0.38680796060E+03  0.91581729901E+02 0.  0.
        -15    1    4    4    0    0 -0.29207819801E+02 -0.82446704603E+02 -0.35828991112E+02  0.94521280363E+02  0.00000000000E+00 0. -1.
        -15    1    3    3    0    0 -0.15262869967E+03  0.69762216530E+03 -0.13137726128E+04  0.14953162487E+04  0.00000000000E+00 0.  1.
         15    1    1    2    0    0  0.26336386124E+03  0.65807149424E+02 -0.86286678734E+02  0.28484468619E+03  0.00000000000E+00 0. -1.
         15    1    4    4    0    0 -0.20637357650E+03 -0.20673600096E+03 -0.10083465253E+02  0.29228668023E+03  0.00000000000E+00 0.  1.
        -16    1    1    2    0    0 -0.51997230001E+02 -0.65876923975E+03 -0.36501206724E+02  0.66182547644E+03  0.00000000000E+00 0.  1.
         16    1    3    3    0    0 -0.10895178150E+03  0.39478783246E+03 -0.87811660916E+03  0.96892554029E+03  0.00000000000E+00 0. -1.
    9900018    1    1    2    0    0  0.28579524623E+03 -0.21026520187E+03 -0.55513427525E+03  0.66511624536E+03  0.91187600000E+02 0.  0.
<mgrwt>
<rscale>  0 0.33786774E+04</rscale>
<asrwt>0</asrwt>
<pdfrwt beam="1">  1        2 0.56758154E+00 0.33786774E+04</pdfrwt>
<pdfrwt beam="2">  1       -2 0.11900864E+00 0.33786774E+04</pdfrwt>
<totfact> 0.26692163E-01</totfact>
</mgrwt>
</event>
<event>
12    1  0.5249275E-011  0.2566793E+04  0.7818608E-02  0.8379569E-01
         -2   -1    0    0    0  501 -0.00000000000E+00  0.00000000000E+00  0.56337669026E+03  0.56337669026E+03  0.00000000000E+00 0.  1.
          2   -1    0    0  501    0  0.00000000000E+00 -0.00000000000E+00 -0.29236327499E+04  0.29236327499E+04  0.00000000000E+00 0. -1.
    9900016    2    1    2    0    0  0.23935471888E+03  0.41937304127E+02 -0.23022052217E+04  0.32371708548E+04  0.22627586795E+04 0.  0.
        -24    2    3    3    0    0 -0.44402233315E+03 -0.83226709999E+02 -0.21988258950E+04  0.22459658258E+04  0.73787916361E+02 0.  0.
         23    2    3    3    0    0  0.73534546382E+02  0.27210595118E+03 -0.50828261978E+02  0.30049743933E+03  0.90918758500E+02 0.  0.
        -15    1    3    3    0    0  0.52315463364E+03 -0.46127342445E+02 -0.16193689791E+02  0.52543385693E+03  0.00000000000E+00 0.  1.
        -15    1    5    5    0    0 -0.78981262053E+00  0.16439403817E+03 -0.39946210390E+02  0.16917955938E+03  0.00000000000E+00 0.  1.
         15    1    4    4    0    0 -0.16836844750E+03 -0.70276327516E+01 -0.69044902416E+03  0.71071596063E+03  0.00000000000E+00 0. -1.
         15    1    5    5    0    0  0.74324359002E+02  0.10771191302E+03 -0.10882051588E+02  0.13131787995E+03  0.00000000000E+00 0. -1.
        -16    1    4    4    0    0 -0.27565388565E+03 -0.76199077248E+02 -0.15083768708E+04  0.15352498652E+04  0.00000000000E+00 0.  1.
         16    1    1    2    0    0 -0.23935471888E+03 -0.41937304127E+02 -0.58050837948E+02  0.24983858531E+03  0.00000000000E+00 0. -1.
    9900018    1    3    3    0    0  0.86687872002E+02 -0.10081459461E+03 -0.36357374917E+02  0.16527373277E+03  0.91187600000E+02 0.  0.
<mgrwt>
<rscale>  0 0.25667930E+04</rscale>
<asrwt>0</asrwt>
<pdfrwt beam="1">  1        2 0.44978965E+00 0.25667930E+04</pdfrwt>
<pdfrwt beam="2">  1       -2 0.86673338E-01 0.25667930E+04</pdfrwt>
<totfact> 0.19856485E+00</totfact>
</mgrwt>
</event>
