<event>
13    1  0.1831851E-009  0.5853382E+04  0.7818608E-02  0.7708851E-01
          2   -1    0    0  501    0  0.00000000000E+00  0.00000000000E+00  0.19025948695E+04  0.19025948695E+04  0.00000000000E+00 0. -1.
         -2   -1    0    0    0  501 -0.00000000000E+00 -0.00000000000E+00 -0.45020206363E+04  0.45020206363E+04  0.00000000000E+00 0.  1.
    9900016    2    1    2    0    0  0.14217229652E+02  0.70626519843E+03  0.46337999667E+03  0.23922282877E+04  0.22380845603E+04 0.  0.
         23    2    3    3    0    0  0.21691751385E+03  0.26205536454E+02 -0.85914324669E+03  0.89134978553E+03  0.92937526740E+02 0.  0.
    9900016    2    1    2    0    0  0.96360429103E+01 -0.69288536356E+03 -0.21919732143E+04  0.31363663818E+04  0.21335099082E+04 0.  0.
        -24    2    5    5    0    0  0.78067951194E+02  0.77009003260E+03 -0.72684835471E+03  0.10647557065E+04  0.79138615359E+02 0.  0.
        -15    1    5    5    0    0 -0.68431908283E+02 -0.14629753962E+04 -0.14651248595E+04  0.20716106753E+04  0.00000000000E+00 0.  1.
        -15    1    4    4    0    0  0.15405327881E+03  0.44188770595E+02 -0.71983135594E+03  0.73745660289E+03  0.00000000000E+00 0. -1.
         15    1    6    6    0    0  0.71702251888E+02  0.61499590240E+03 -0.53754465148E+03  0.81994842840E+03  0.00000000000E+00 0. -1.
         15    1    4    4    0    0  0.62864235040E+02 -0.17983234142E+02 -0.13931189075E+03  0.15389318264E+03  0.00000000000E+00 0.  1.
        -16    1    6    6    0    0  0.63656993057E+01  0.15509413020E+03 -0.18930370323E+03  0.24480727809E+03  0.00000000000E+00 0.  1.
         16    1    3    3    0    0 -0.20270028420E+03  0.68005966197E+03  0.13225232434E+04  0.15008785022E+04  0.00000000000E+00 0. -1.
    9900018    1    1    2    0    0 -0.23853272562E+02 -0.13379834868E+02 -0.87083254920E+03  0.87602083636E+03  0.91187600000E+02 0.  0.
<mgrwt>
<rscale>  0 0.58533824E+04</rscale>
<asrwt>0</asrwt>
<pdfrwt beam="1">  1        2 0.29270690E+00 0.58533824E+04</pdfrwt>
<pdfrwt beam="2">  1       -2 0.69261856E+00 0.58533824E+04</pdfrwt>
<totfact> 0.12660927E-03</totfact>
</mgrwt>
</event>
<event>
13    1  0.1831851E-009  0.4870857E+04  0.7818608E-02  0.7848743E-01
          2   -1    0    0  501    0  0.00000000000E+00  0.00000000000E+00  0.34475501783E+04  0.34475501783E+04  0.00000000000E+00 0. -1.
         -2   -1    0    0    0  501 -0.00000000000E+00 -0.00000000000E+00 -0.17204425882E+04  0.17204425882E+04  0.00000000000E+00 0.  1.
    9900016    2    1    2    0    0 -0.26820214447E+03 -0.59829124239E+03  0.11272888326E+03  0.23051722716E+04  0.22070855443E+04 0.  0.
         23    2    3    3    0    0  0.91431097896E+03  0.99123629533E+02 -0.31382167573E+02  0.92477639160E+03  0.91850279428E+02 0.  0.
    9900016    2    1    2    0    0  0.26820214447E+03  0.59829124239E+03  0.16143787068E+04  0.28628204949E+04  0.22714836067E+04 0.  0.
         24    2    5    5    0    0 -0.66044237738E+02  0.85525528818E+02 -0.52516750946E+03  0.54194861054E+03  0.78936215136E+02 0.  0.
        -15    1    6    6    0    0 -0.48521175772E+02  0.23032421995E+01 -0.17703259171E+03  0.18357600047E+03  0.00000000000E+00 0.  1.
        -15    1    4    4    0    0  0.47501484161E+02  0.16923642696E+02  0.15678120521E+02  0.52807235704E+02  0.00000000000E+00 0.  1.
         15    1    5    5    0    0  0.30878793330E+03  0.30476743243E+03  0.20138481263E+04  0.20600527788E+04  0.00000000000E+00 0. -1.
         15    1    4    4    0    0  0.86680949480E+03  0.82199986836E+02 -0.47060288094E+02  0.87196915589E+03  0.00000000000E+00 0. -1.
        -16    1    3    3    0    0 -0.11825131234E+04 -0.69741487192E+03  0.14411105083E+03  0.13803958800E+04  0.00000000000E+00 0.  1.
         16    1    6    6    0    0 -0.17523061967E+02  0.83222286618E+02 -0.34813491775E+03  0.35837261007E+03  0.00000000000E+00 0. -1.
    9900018    1    5    5    0    0  0.25458448908E+02  0.20799828114E+03  0.12569808997E+03  0.26081910550E+03  0.91187600000E+02 0.  0.
<mgrwt>
<rscale>  0 0.48708571E+04</rscale>
<asrwt>0</asrwt>
<pdfrwt beam="1">  1        2 0.53039234E+00 0.48708571E+04</pdfrwt>
<pdfrwt beam="2">  1       -2 0.26468348E+00 0.48708571E+04</pdfrwt>
<totfact> 0.33911878E-02</totfact>
</mgrwt>
</event>
<event>
13    1  0.1831851E-009  0.5179596E+04  0.7818608E-02  0.7801385E-01
         -2   -1    0    0    0  501 -0.00000000000E+00  0.00000000000E+00  0.31555986351E+04  0.31555986351E+04  0.00000000000E+00 0.  1.
          2   -1    0    0  501    0  0.00000000000E+00 -0.00000000000E+00 -0.21254459315E+04  0.21254459315E+04  0.00000000000E+00 0. -1.
    9900016    2    1    2    0    0 -0.13338025539E+04  0.14424596570E+01 -0.16222459705E+03  0.25842389150E+04  0.22074742617E+04 0.  0.
         23    2    3    3    0    0 -0.26564328942E+03  0.60747603180E+03  0.78618877616E+03  0.10325531119E+04  0.92085019227E+02 0.  0.
    9900016    2    1    2    0    0  0.13338025539E+04 -0.14424596570E+01  0.11923773006E+04  0.26968056516E+04  0.20179112373E+04 0.  0.
        -24    2    5    5    0    0  0.68784399855E+03  0.25862794885E+03  0.32196003949E+03  0.80644026342E+03  0.81669144492E+02 0.  0.
        -15    1    4    4    0    0 -0.26548316653E+03  0.54451282565E+03  0.72471105377E+03  0.94455367262E+03  0.00000000000E+00 0. -1.
        -15    1    5    5    0    0 -0.39555949129E+03  0.20864658658E+03 -0.69416628043E+01  0.44726825947E+03  0.00000000000E+00 0.  1.
         15    1    6    6    0    0  0.22426469747E+03  0.10434906096E+03  0.71910177318E+02  0.25759358427E+03  0.00000000000E+00 0. -1.
         15    1    4    4    0    0 -0.16012289517E+00  0.62963206146E+02  0.61477722386E+02  0.87999439301E+02  0.00000000000E+00 0.  1.
        -16    1    6    6    0    0  0.46357930108E+03  0.15427888789E+03  0.25004986217E+03  0.54884667915E+03  0.00000000000E+00 0.  1.
         16    1    3    3    0    0 -0.10681592645E+04 -0.60603357214E+03 -0.94841337320E+03  0.15516858031E+04  0.00000000000E+00 0. -1.
    9900018    1    5    5    0    0  0.10415180467E+04 -0.46871699509E+03  0.87735892393E+03  0.14430971287E+04  0.91187600000E+02 0.  0.
<mgrwt>
<rscale>  0 0.51795962E+04</rscale>
<asrwt>0</asrwt>
<pdfrwt beam="1">  1        2 0.32699168E+00 0.51795962E+04</pdfrwt>
<pdfrwt beam="2">  1       -2 0.48547671E+00 0.51795962E+04</pdfrwt>
<totfact> 0.83643226E-03</totfact>
</mgrwt>
</event>
