<event>
11    1  0.3029866E-013  0.1495015E+04  0.7818608E-02  0.9312173E-01
          1   -1    0    0  501    0  0.00000000000E+00  0.00000000000E+00  0.16369643965E+04  0.16369643965E+04  0.00000000000E+00 0. -1.
         -1   -1    0    0    0  501 -0.00000000000E+00 -0.00000000000E+00 -0.49296135520E+03  0.49296135520E+03  0.00000000000E+00 0.  1.
         23    2    1    2    0    0 -0.16599256041E+03  0.22706980127E+03  0.12523193610E+03  0.32079250579E+03  0.90058698562E+02 0.  0.
    9900016    2    1    2    0    0  0.20056333857E+03  0.35240919380E+03  0.58887407529E+03  0.10105530454E+04  0.71416166821E+03 0.  0.
        -15    1    4    4    0    0 -0.15876559017E+03 -0.57200614193E+02  0.12062088935E+03  0.20743148708E+03  0.00000000000E+00 0.  1.
        -15    1    3    3    0    0 -0.14691290920E+03  0.16423813377E+03  0.60331934477E+02  0.22846774344E+03  0.00000000000E+00 0. -1.
         15    1    4    4    0    0  0.12229229953E+02 -0.53272567933E+02 -0.60463960732E+01  0.54991630863E+02  0.00000000000E+00 0. -1.
         15    1    3    3    0    0 -0.19079651207E+02  0.62831667499E+02  0.64900001622E+02  0.92324762342E+02  0.00000000000E+00 0.  1.
        -16    1    1    2    0    0 -0.11939422191E+03 -0.31659693016E+03  0.37037342764E+03  0.50166230904E+03  0.00000000000E+00 0.  1.
         16    1    4    4    0    0  0.34709969878E+03  0.46288237592E+03  0.47429958202E+03  0.74812992744E+03  0.00000000000E+00 0. -1.
    9900018    1    1    2    0    0  0.84823443756E+02 -0.26288206491E+03  0.59523602252E+02  0.29691789148E+03  0.91187600000E+02 0.  0.
<mgrwt>
<rscale>  0 0.99669909E+03</rscale>
<asrwt>0</asrwt>
<pdfrwt beam="1">  1        1 0.25184067E+00 0.14950146E+04</pdfrwt>
<pdfrwt beam="2">  1       -1 0.75840209E-01 0.14950146E+04</pdfrwt>
<totfact> 0.88530834E+00</totfact>
</mgrwt>
</event>
<event>
12    1  0.3029866E-013  0.1521493E+04  0.7818608E-02  0.9160395E-01
         -3   -1    0    0    0  501 -0.00000000000E+00  0.00000000000E+00  0.66132262541E+03  0.66132262541E+03  0.00000000000E+00 0.  1.
          3   -1    0    0  501    0  0.00000000000E+00 -0.00000000000E+00 -0.18456159462E+04  0.18456159462E+04  0.00000000000E+00 0. -1.
         23    2    1    2    0    0  0.22317326032E+03  0.42844094776E+03  0.11634942339E+03  0.50528585096E+03  0.91698707817E+02 0.  0.
    9900016    2    1    2    0    0  0.17405490266E+02 -0.25832410922E+03 -0.65482925717E+03  0.10002538447E+04  0.71040277405E+03 0.  0.
         23    2    4    4    0    0 -0.24508593862E+02  0.23346824308E+03 -0.28124799812E+03  0.38123892946E+03  0.10552058185E+03 0.  0.
        -15    1    3    3    0    0  0.12744929697E+03  0.32773622071E+03  0.67904172449E+02  0.35814149480E+03  0.00000000000E+00 0.  1.
        -15    1    5    5    0    0 -0.32551087360E+02  0.30702430463E+02 -0.98361570560E+02  0.10806114513E+03  0.00000000000E+00 0.  1.
         15    1    3    3    0    0  0.95723963351E+02  0.10070472705E+03  0.48445250940E+02  0.14714435616E+03  0.00000000000E+00 0. -1.
         15    1    5    5    0    0  0.80424934981E+01  0.20276581261E+03 -0.18288642756E+03  0.27317778433E+03  0.00000000000E+00 0. -1.
        -16    1    1    2    0    0  0.22504320964E+03 -0.18392258569E+03 -0.24192874556E+03  0.37815536709E+03  0.00000000000E+00 0.  1.
         16    1    4    4    0    0  0.41914084128E+02 -0.49179235230E+03 -0.37358125905E+03  0.61901491528E+03  0.00000000000E+00 0. -1.
    9900018    1    1    2    0    0 -0.46562196023E+03  0.13805747146E+02 -0.40388474142E+03  0.62324350879E+03  0.91187600000E+02 0.  0.
<mgrwt>
<rscale>  0 0.11471741E+04</rscale>
<asrwt>0</asrwt>
<pdfrwt beam="1">  1        3 0.28394091E+00 0.15214934E+04</pdfrwt>
<pdfrwt beam="2">  1       -3 0.10174194E+00 0.15214934E+04</pdfrwt>
<totfact> 0.98270432E-02</totfact>
</mgrwt>
</event>
<event>
12    1  0.3029866E-013  0.1627152E+04  0.7818608E-02  0.8804039E-01
          2   -1    0    0  501    0  0.00000000000E+00  0.00000000000E+00  0.17168307345E+04  0.17168307345E+04  0.00000000000E+00 0.  1.
         -2   -1    0    0    0  501 -0.00000000000E+00 -0.00000000000E+00 -0.38553938479E+03  0.38553938479E+03  0.00000000000E+00 0. -1.
         23    2    1    2    0    0  0.20397894962E+03  0.26976163826E+03  0.22205732022E+03  0.41582339196E+03  0.96025447041E+02 0.  0.
    9900016    2    1    2    0    0 -0.17780935159E+03 -0.32402422378E+03  0.77863332461E+03  0.11153169276E+04  0.70785177244E+03 0.  0.
         23    2    4    4    0    0 -0.87090598958E+02 -0.38389895293E+03  0.88758115901E+02  0.41693116112E+03  0.10483516338E+03 0.  0.
        -15    1    3    3    0    0  0.83298021715E+02  0.14818485387E+03  0.16051741673E+03  0.23380152354E+03  0.00000000000E+00 0. -1.
        -15    1    5    5    0    0 -0.11072041031E+03 -0.30321910161E+03  0.78749374021E+02  0.33226841070E+03  0.00000000000E+00 0.  1.
         15    1    5    5    0    0  0.23629811349E+02 -0.80679851326E+02  0.10008741881E+02  0.84662750418E+02  0.00000000000E+00 0. -1.
         15    1    3    3    0    0  0.12068092790E+03  0.12157678439E+03  0.61539903489E+02  0.18202186842E+03  0.00000000000E+00 0.  1.
        -16    1    1    2    0    0 -0.54272595156E+02  0.22941446222E+03  0.27888787025E+03  0.36517797611E+03  0.00000000000E+00 0.  1.
         16    1    4    4    0    0 -0.90718752629E+02  0.59874729158E+02  0.68987520871E+03  0.69838576651E+03  0.00000000000E+00 0. -1.
    9900018    1    1    2    0    0  0.28102997125E+02 -0.17515187670E+03  0.51712834653E+02  0.20605182363E+03  0.91187600000E+02 0.  0.
<mgrwt>
<rscale>  0 0.16271519E+04</rscale>
<asrwt>0</asrwt>
<pdfrwt beam="1">  1        2 0.26412780E+00 0.16271519E+04</pdfrwt>
<pdfrwt beam="2">  1       -2 0.59313752E-01 0.16271519E+04</pdfrwt>
<totfact> 0.24370063E+01</totfact>
</mgrwt>
</event>
<event>
12    1  0.3029866E-013  0.1980808E+04  0.7818608E-02  0.9177118E-01
          2   -1    0    0  501    0  0.00000000000E+00  0.00000000000E+00  0.20497766759E+04  0.20497766759E+04  0.00000000000E+00 0. -1.
         -2   -1    0    0    0  501 -0.00000000000E+00 -0.00000000000E+00 -0.59419721904E+03  0.59419721904E+03  0.00000000000E+00 0.  1.
         23    2    1    2    0    0 -0.18761770467E+03 -0.28991864730E+02  0.24637941174E+03  0.32324896196E+03  0.88012189766E+02 0.  0.
    9900016    2    1    2    0    0  0.84385923005E+02  0.89808198663E+02 -0.28930719714E+03  0.77335585091E+03  0.70653670907E+03 0.  0.
         23    2    4    4    0    0 -0.22305829798E+03 -0.17383287712E+03 -0.29630216807E+02  0.29225222384E+03  0.67531763840E+02 0.  0.
        -15    1    5    5    0    0 -0.20402633293E+03 -0.14005443403E+03 -0.43123188470E+02  0.25120031530E+03  0.00000000000E+00 0. -1.
        -15    1    3    3    0    0 -0.13076304824E+03 -0.60207218127E+02  0.17930675019E+03  0.22994519905E+03  0.00000000000E+00 0. -1.
         15    1    3    3    0    0 -0.56854656430E+02  0.31215353396E+02  0.67072661551E+02  0.93303762909E+02  0.00000000000E+00 0.  1.
         15    1    5    5    0    0 -0.19031965052E+02 -0.33778443086E+02  0.13492971664E+02  0.41051908547E+02  0.00000000000E+00 0.  1.
        -16    1    4    4    0    0  0.30744422099E+03  0.26364107578E+03 -0.25967698034E+03  0.48110362706E+03  0.00000000000E+00 0.  1.
         16    1    1    2    0    0  0.18739002780E+03  0.74192971336E+02  0.73271035756E+03  0.75992373801E+03  0.00000000000E+00 0. -1.
    9900018    1    1    2    0    0 -0.84158246129E+02 -0.13500930527E+03  0.76579688471E+03  0.78744534409E+03  0.91187600000E+02 0.  0.
<mgrwt>
<rscale>  0 0.11292757E+04</rscale>
<asrwt>0</asrwt>
<pdfrwt beam="1">  1        2 0.31535025E+00 0.19808078E+04</pdfrwt>
<pdfrwt beam="2">  1       -2 0.91414958E-01 0.19808078E+04</pdfrwt>
<totfact> 0.59090502E+00</totfact>
</mgrwt>
</event>
<event>
12    1  0.3029866E-013  0.1437161E+04  0.7818608E-02  0.9341922E-01
         -1   -1    0    0    0  501 -0.00000000000E+00  0.00000000000E+00  0.22918564283E+03  0.22918564283E+03  0.00000000000E+00 0.  1.
          1   -1    0    0  501    0  0.00000000000E+00 -0.00000000000E+00 -0.33453056070E+04  0.33453056070E+04  0.00000000000E+00 0. -1.
         23    2    1    2    0    0  0.28163272429E+03 -0.35550967555E+02 -0.73511831202E+03  0.79337630480E+03  0.92011769145E+02 0.  0.
    9900016    2    1    2    0    0 -0.43512167863E+03 -0.44750082711E+02 -0.12015203172E+04  0.14619699382E+04  0.70878175939E+03 0.  0.
         23    2    4    4    0    0  0.71658770155E+02  0.21587423921E+03 -0.19710238294E+03  0.30715097096E+03  0.61283791520E+02 0.  0.
        -15    1    5    5    0    0  0.14797540302E+02  0.28788510748E+01 -0.14005165451E+02  0.20576677132E+02  0.00000000000E+00 0. -1.
        -15    1    3    3    0    0  0.31208048949E+02 -0.33059665257E+02 -0.79911846691E+02  0.91939039737E+02  0.00000000000E+00 0. -1.
         15    1    5    5    0    0  0.56861229852E+02  0.21299538814E+03 -0.18309721749E+03  0.28657429383E+03  0.00000000000E+00 0.  1.
         15    1    3    3    0    0  0.25042467534E+03 -0.24913022978E+01 -0.65520646533E+03  0.70143726506E+03  0.00000000000E+00 0.  1.
        -16    1    1    2    0    0  0.58744298118E+01 -0.17466788684E+03 -0.11098184672E+03  0.20702741345E+03  0.00000000000E+00 0.  1.
         16    1    4    4    0    0 -0.50678044878E+03 -0.26062432192E+03 -0.10044179343E+04  0.11548189672E+04  0.00000000000E+00 0. -1.
    9900018    1    1    2    0    0  0.14761452453E+03  0.25496893711E+03 -0.10684994882E+04  0.11121175933E+04  0.91187600000E+02 0.  0.
<mgrwt>
<rscale>  0 0.97013344E+03</rscale>
<asrwt>0</asrwt>
<pdfrwt beam="1">  1        1 0.51466240E+00 0.14371609E+04</pdfrwt>
<pdfrwt beam="2">  1       -1 0.35259330E-01 0.14371609E+04</pdfrwt>
<totfact> 0.24760948E+00</totfact>
</mgrwt>
</event>
<event>
12    1  0.3029866E-013  0.1310423E+04  0.7818608E-02  0.9325126E-01
          2   -1    0    0  501    0  0.00000000000E+00  0.00000000000E+00  0.17466969429E+04  0.17466969429E+04  0.00000000000E+00 0. -1.
         -2   -1    0    0    0  501 -0.00000000000E+00 -0.00000000000E+00 -0.45073101133E+03  0.45073101133E+03  0.00000000000E+00 0.  1.
         23    2    1    2    0    0  0.27940452145E+02  0.40723214805E+03  0.11625395105E+03  0.43421229238E+03  0.91687744270E+02 0.  0.
    9900016    2    1    2    0    0  0.13911412389E+03 -0.40203229142E+03  0.10128592874E+04  0.13115251341E+04  0.71640179962E+03 0.  0.
         23    2    4    4    0    0  0.62268312084E+02 -0.51703282498E+03  0.10407191442E+04  0.11704344784E+04  0.12498098397E+03 0.  0.
        -15    1    3    3    0    0  0.40213933323E+01  0.14281701471E+03  0.86591219834E+02  0.16706558786E+03  0.00000000000E+00 0. -1.
        -15    1    5    5    0    0  0.13943415194E+02 -0.33476044601E+03  0.54133327549E+03  0.63663230376E+03  0.00000000000E+00 0. -1.
         15    1    5    5    0    0  0.48324896890E+02 -0.18227237897E+03  0.49938586871E+03  0.53380217465E+03  0.00000000000E+00 0.  1.
         15    1    3    3    0    0  0.23919058812E+02  0.26441513334E+03  0.29662731220E+02  0.26714670452E+03  0.00000000000E+00 0.  1.
        -16    1    4    4    0    0  0.76845811802E+02  0.11500053356E+03 -0.27859856764E+02  0.14109065572E+03  0.00000000000E+00 0.  1.
         16    1    1    2    0    0 -0.22304537632E+03  0.52887718248E+02 -0.18445217433E+02  0.22997081703E+03  0.00000000000E+00 0. -1.
    9900018    1    1    2    0    0  0.55990800290E+02 -0.58087574877E+02  0.18529791047E+03  0.22171971065E+03  0.91187600000E+02 0.  0.
<mgrwt>
<rscale>  0 0.98502286E+03</rscale>
<asrwt>0</asrwt>
<pdfrwt beam="1">  1        2 0.26872260E+00 0.13104233E+04</pdfrwt>
<pdfrwt beam="2">  1       -2 0.69343233E-01 0.13104233E+04</pdfrwt>
<totfact> 0.17073043E+01</totfact>
</mgrwt>
</event>
<event>
12    1  0.3029866E-013  0.1188131E+04  0.7818608E-02  0.9389732E-01
         -2   -1    0    0    0  501 -0.00000000000E+00  0.00000000000E+00  0.89590876857E+03  0.89590876857E+03  0.00000000000E+00 0. -1.
          2   -1    0    0  501    0  0.00000000000E+00 -0.00000000000E+00 -0.10821829951E+04  0.10821829951E+04  0.00000000000E+00 0.  1.
         23    2    1    2    0    0 -0.24282058219E+03 -0.36075657765E+03  0.44809039389E+03  0.63121657548E+03  0.92424134311E+02 0.  0.
    9900016    2    1    2    0    0  0.15922474034E+03  0.25051330128E+03 -0.70596138878E+03  0.10461016497E+04  0.71262735497E+03 0.  0.
         23    2    4    4    0    0 -0.21516891778E+02 -0.20364748612E+03 -0.64669750653E+02  0.23976144639E+03  0.10662128911E+03 0.  0.
        -15    1    3    3    0    0 -0.21229988526E+03 -0.24238988499E+03  0.33140109279E+03  0.46222373579E+03  0.00000000000E+00 0. -1.
        -15    1    5    5    0    0  0.11244742985E+02 -0.19709691963E+03 -0.57015198495E+02  0.20548569983E+03  0.00000000000E+00 0.  1.
         15    1    5    5    0    0 -0.32761634762E+02 -0.65505664807E+01 -0.76545521586E+01  0.34275746560E+02  0.00000000000E+00 0. -1.
         15    1    3    3    0    0 -0.30520696925E+02 -0.11836669266E+03  0.11668930111E+03  0.16899283968E+03  0.00000000000E+00 0.  1.
        -16    1    1    2    0    0  0.14664148258E+03  0.98651658458E+02  0.67642922447E+02  0.18923910559E+03  0.00000000000E+00 0.  1.
         16    1    4    4    0    0  0.18074163212E+03  0.45416078739E+03 -0.64129163813E+03  0.80634020334E+03  0.00000000000E+00 0. -1.
    9900018    1    1    2    0    0 -0.63045640729E+02  0.11591617913E+02  0.39538459297E+01  0.11153443285E+03  0.91187600000E+02 0.  0.
<mgrwt>
<rscale>  0 0.92925533E+03</rscale>
<asrwt>0</asrwt>
<pdfrwt beam="1">  1        2 0.16648969E+00 0.11881306E+04</pdfrwt>
<pdfrwt beam="2">  1       -2 0.13783212E+00 0.11881306E+04</pdfrwt>
<totfact> 0.81558479E+00</totfact>
</mgrwt>
</event>
<event>
12    1  0.3029866E-013  0.1410705E+04  0.7818608E-02  0.9582149E-01
          1   -1    0    0  501    0  0.00000000000E+00  0.00000000000E+00  0.12179770560E+04  0.12179770560E+04  0.00000000000E+00 0. -1.
         -1   -1    0    0    0  501 -0.00000000000E+00 -0.00000000000E+00 -0.49343546832E+03  0.49343546832E+03  0.00000000000E+00 0.  1.
         23    2    1    2    0    0 -0.63375054761E+02  0.67931846621E+02  0.27737972197E+02  0.13800079531E+03  0.98202296584E+02 0.  0.
    9900016    2    1    2    0    0 -0.23186658962E+03  0.59044325185E+02  0.47113625198E+03  0.89201518373E+03  0.71866081872E+03 0.  0.
         23    2    4    4    0    0  0.27730015393E+02  0.31629311440E+03  0.40630204755E+03  0.52084027759E+03  0.73368610103E+02 0.  0.
        -15    1    3    3    0    0 -0.15963635894E+02  0.82924737893E+02  0.92619500408E+01  0.84953714128E+02  0.00000000000E+00 0. -1.
        -15    1    5    5    0    0  0.42590044989E+01  0.28858751562E+03  0.37251593188E+03  0.47124198964E+03  0.00000000000E+00 0.  1.
         15    1    5    5    0    0  0.23471010894E+02  0.27705598778E+02  0.33786115668E+02  0.49598287954E+02  0.00000000000E+00 0. -1.
         15    1    3    3    0    0 -0.47411418867E+02 -0.14992891271E+02  0.18476022156E+02  0.53047081186E+02  0.00000000000E+00 0.  1.
        -16    1    1    2    0    0  0.39657685321E+03 -0.15686071161E+03  0.12559089953E+02  0.42665702161E+03  0.00000000000E+00 0.  1.
         16    1    4    4    0    0 -0.25959660501E+03 -0.25724878921E+03  0.64834204431E+02  0.37117490614E+03  0.00000000000E+00 0. -1.
    9900018    1    1    2    0    0 -0.10133520883E+03  0.29884539803E+02  0.21310827359E+03  0.25473952370E+03  0.91187600000E+02 0.  0.
<mgrwt>
<rscale>  0 0.78489011E+03</rscale>
<asrwt>0</asrwt>
<pdfrwt beam="1">  1        1 0.18738108E+00 0.14107052E+04</pdfrwt>
<pdfrwt beam="2">  1       -1 0.75913149E-01 0.14107052E+04</pdfrwt>
<totfact> 0.17564722E+01</totfact>
</mgrwt>
</event>
<event>
12    1  0.3029866E-013  0.1331948E+04  0.7818608E-02  0.9419057E-01
         -2   -1    0    0    0  501 -0.00000000000E+00  0.00000000000E+00  0.53444607496E+03  0.53444607496E+03  0.00000000000E+00 0.  1.
          2   -1    0    0  501    0  0.00000000000E+00 -0.00000000000E+00 -0.20839851324E+04  0.20839851324E+04  0.00000000000E+00 0. -1.
         23    2    1    2    0    0  0.22421957171E+03 -0.14998914218E+03 -0.12113258790E+04  0.12442133601E+04  0.89360736454E+02 0.  0.
    9900016    2    1    2    0    0 -0.39138306179E+03  0.32901185772E+03 -0.30272973209E+03  0.91828137278E+03  0.70011847949E+03 0.  0.
         23    2    4    4    0    0 -0.32795615641E+03 -0.15371952602E+03 -0.15774976892E+03  0.41027374400E+03  0.11070059721E+03 0.  0.
        -15    1    5    5    0    0 -0.31788707369E+03 -0.14206188212E+03 -0.17282639854E+03  0.38871935121E+03  0.00000000000E+00 0. -1.
        -15    1    3    3    0    0  0.45990968106E+02 -0.65372217628E+02 -0.23708589108E+03  0.25019675404E+03  0.00000000000E+00 0. -1.
         15    1    5    5    0    0 -0.10069082720E+02 -0.11657643893E+02  0.15076629627E+02  0.21554392798E+02  0.00000000000E+00 0.  1.
         15    1    3    3    0    0  0.17822860360E+03 -0.84616924554E+02 -0.97423998792E+03  0.99401660606E+03  0.00000000000E+00 0.  1.
        -16    1    1    2    0    0  0.26346200638E+03 -0.12316221918E+03 -0.86233609673E+02  0.30334369365E+03  0.00000000000E+00 0.  1.
         16    1    4    4    0    0 -0.63426905387E+02  0.48273138374E+03 -0.14497996317E+03  0.50800762877E+03  0.00000000000E+00 0. -1.
    9900018    1    1    2    0    0 -0.96298516295E+02 -0.55860496355E+02  0.50750163313E+02  0.15259278084E+03  0.91187600000E+02 0.  0.
<mgrwt>
<rscale>  0 0.90523792E+03</rscale>
<asrwt>0</asrwt>
<pdfrwt beam="1">  1        2 0.32061311E+00 0.13319484E+04</pdfrwt>
<pdfrwt beam="2">  1       -2 0.82222471E-01 0.13319484E+04</pdfrwt>
<totfact> 0.75621725E+00</totfact>
</mgrwt>
</event>
<event>
12    1  0.3029866E-013  0.1197224E+04  0.7818608E-02  0.9696915E-01
          2   -1    0    0  501    0  0.00000000000E+00  0.00000000000E+00  0.22553010310E+04  0.22553010310E+04  0.00000000000E+00 0. -1.
         -2   -1    0    0    0  501 -0.00000000000E+00 -0.00000000000E+00 -0.21316495852E+03  0.21316495852E+03  0.00000000000E+00 0.  1.
         23    2    1    2    0    0  0.56815988873E+01 -0.11814785517E+03  0.79674974330E+02  0.16964020617E+03  0.91861318111E+02 0.  0.
    9900016    2    1    2    0    0  0.17101124952E+02 -0.17619328937E+03  0.12053618080E+04  0.14052615342E+04  0.70037587588E+03 0.  0.
         23    2    4    4    0    0 -0.29885645374E+03  0.56592636023E+02  0.64922895095E+03  0.72459845062E+03  0.10500846396E+03 0.  0.
        -15    1    5    5    0    0 -0.28094131617E+03  0.23875171210E+02  0.54003675142E+03  0.60921075156E+03  0.00000000000E+00 0. -1.
        -15    1    3    3    0    0 -0.38534315604E+02 -0.55113227834E+02  0.14571024727E+02  0.68808982865E+02  0.00000000000E+00 0.  1.
         15    1    5    5    0    0 -0.17915137573E+02  0.32717464813E+02  0.10919219952E+03  0.11538769906E+03  0.00000000000E+00 0.  1.
         15    1    3    3    0    0  0.44215914491E+02 -0.63034627341E+02  0.65103949604E+02  0.10083122330E+03  0.00000000000E+00 0. -1.
        -16    1    4    4    0    0  0.31595757869E+03 -0.23278592539E+03  0.55613285707E+03  0.68066308355E+03  0.00000000000E+00 0.  1.
         16    1    1    2    0    0  0.29236535091E+02  0.34820868268E+03  0.62796027112E+03  0.71863632233E+03  0.00000000000E+00 0. -1.
    9900018    1    1    2    0    0 -0.52019258930E+02 -0.53867538132E+02  0.12913901904E+03  0.17492792686E+03  0.91187600000E+02 0.  0.
<mgrwt>
<rscale>  0 0.71200758E+03</rscale>
<asrwt>0</asrwt>
<pdfrwt beam="1">  1        2 0.34696937E+00 0.11972245E+04</pdfrwt>
<pdfrwt beam="2">  1       -2 0.32794611E-01 0.11972245E+04</pdfrwt>
<totfact> 0.41257753E+01</totfact>
</mgrwt>
</event>
<event>
12    1  0.3029866E-013  0.1327309E+04  0.7818608E-02  0.9574186E-01
          1   -1    0    0  501    0  0.00000000000E+00  0.00000000000E+00  0.18326544962E+04  0.18326544962E+04  0.00000000000E+00 0. -1.
         -1   -1    0    0    0  501 -0.00000000000E+00 -0.00000000000E+00 -0.30553102255E+03  0.30553102255E+03  0.00000000000E+00 0.  1.
         23    2    1    2    0    0  0.13565742464E+03 -0.26404967940E+02  0.21109283345E+03  0.26904539803E+03  0.93408151009E+02 0.  0.
    9900016    2    1    2    0    0 -0.11940735536E+02 -0.11535248798E+03  0.72511220556E+03  0.10246383686E+04  0.71459589853E+03 0.  0.
         23    2    4    4    0    0 -0.30434048774E+03 -0.21339513817E+03  0.25808803539E+03  0.46497637077E+03  0.10692508543E+03 0.  0.
        -15    1    3    3    0    0  0.87710581253E+02 -0.17678527042E+01  0.19330407097E+03  0.21227985119E+03  0.00000000000E+00 0. -1.
        -15    1    5    5    0    0 -0.38515655342E+02 -0.78328375857E+02  0.42855448024E+02  0.97238776196E+02  0.00000000000E+00 0.  1.
         15    1    5    5    0    0 -0.26582483239E+03 -0.13506676231E+03  0.21523258736E+03  0.36773759457E+03  0.00000000000E+00 0. -1.
         15    1    3    3    0    0  0.47946843382E+02 -0.24637115236E+02  0.17788762483E+02  0.56765546841E+02  0.00000000000E+00 0.  1.
        -16    1    4    4    0    0  0.29239975220E+03  0.98042650186E+02  0.46702417017E+03  0.55966199788E+03  0.00000000000E+00 0.  1.
         16    1    1    2    0    0 -0.16420439652E+03 -0.95849513446E+02  0.55206038713E+03  0.58388430712E+03  0.00000000000E+00 0. -1.
    9900018    1    1    2    0    0  0.40487707420E+02  0.23760696937E+03  0.38858047460E+02  0.26061744491E+03  0.91187600000E+02 0.  0.
<mgrwt>
<rscale>  0 0.79028511E+03</rscale>
<asrwt>0</asrwt>
<pdfrwt beam="1">  1        1 0.28194684E+00 0.13273086E+04</pdfrwt>
<pdfrwt beam="2">  1       -1 0.47004774E-01 0.13273086E+04</pdfrwt>
<totfact> 0.17115170E+01</totfact>
</mgrwt>
</event>
<event>
12    1  0.3029867E-013  0.1232718E+04  0.7818608E-02  0.9418687E-01
         -1   -1    0    0    0  501 -0.00000000000E+00  0.00000000000E+00  0.41670811701E+03  0.41670811701E+03  0.00000000000E+00 0.  1.
          1   -1    0    0  501    0  0.00000000000E+00 -0.00000000000E+00 -0.16606241260E+04  0.16606241260E+04  0.00000000000E+00 0. -1.
         23    2    1    2    0    0  0.33445552270E+03  0.93193155611E+02 -0.52148347602E+02  0.36271766378E+03  0.91099904176E+02 0.  0.
    9900016    2    1    2    0    0 -0.86585974392E+02  0.85429168325E+01 -0.11266833386E+04  0.13300418002E+04  0.70144545938E+03 0.  0.
         23    2    4    4    0    0 -0.16674943320E+03  0.56858847537E+02  0.67183924848E+01  0.19278189444E+03  0.77983459845E+02 0.  0.
        -15    1    3    3    0    0  0.15034807283E+03  0.78443239678E+02  0.41446887631E+01  0.16963214112E+03  0.00000000000E+00 0.  1.
        -15    1    5    5    0    0 -0.26494982695E+02  0.42532341439E+02  0.12619043697E+02  0.51674214461E+02  0.00000000000E+00 0.  1.
         15    1    3    3    0    0  0.18410744988E+03  0.14749915933E+02 -0.56293036365E+02  0.19308552267E+03  0.00000000000E+00 0. -1.
         15    1    5    5    0    0 -0.14025445051E+03  0.14326506097E+02 -0.59006512119E+01  0.14110767998E+03  0.00000000000E+00 0. -1.
        -16    1    1    2    0    0 -0.23236428427E+03 -0.32526885086E+02 -0.11187121645E+03  0.25993523794E+03  0.00000000000E+00 0.  1.
         16    1    4    4    0    0  0.80163458812E+02 -0.48315930704E+02 -0.11334017311E+04  0.11372599058E+04  0.00000000000E+00 0. -1.
    9900018    1    1    2    0    0 -0.15505264046E+02 -0.69209187358E+02  0.46786893658E+02  0.12463754105E+03  0.91187600000E+02 0.  0.
<mgrwt>
<rscale>  0 0.90553665E+03</rscale>
<asrwt>0</asrwt>
<pdfrwt beam="1">  1        1 0.25548063E+00 0.12327177E+04</pdfrwt>
<pdfrwt beam="2">  1       -1 0.64108943E-01 0.12327177E+04</pdfrwt>
<totfact> 0.12325033E+01</totfact>
</mgrwt>
</event>
<event>
12    1  0.3029866E-013  0.1334887E+04  0.7818608E-02  0.9282956E-01
          2   -1    0    0  501    0  0.00000000000E+00  0.00000000000E+00  0.21038493283E+04  0.21038493283E+04  0.00000000000E+00 0.  1.
         -2   -1    0    0    0  501 -0.00000000000E+00 -0.00000000000E+00 -0.39701914039E+03  0.39701914039E+03  0.00000000000E+00 0. -1.
         23    2    1    2    0    0  0.10868499447E+03 -0.43852387900E+03  0.65519870715E+03  0.80149999201E+03  0.94875027641E+02 0.  0.
    9900016    2    1    2    0    0 -0.38748168436E+03  0.17542303689E+03  0.53710624977E+03  0.98880138620E+03  0.71297248209E+03 0.  0.
         23    2    4    4    0    0 -0.31815509837E+03  0.14551458156E+03 -0.74324158877E+02  0.37272684863E+03  0.10490025278E+03 0.  0.
        -15    1    5    5    0    0 -0.26164868088E+03  0.13497543741E+03 -0.22394556837E+02  0.29526245458E+03  0.00000000000E+00 0. -1.
        -15    1    3    3    0    0  0.12059931342E+03 -0.31790653110E+03  0.46752647886E+03  0.57809148528E+03  0.00000000000E+00 0. -1.
         15    1    5    5    0    0 -0.56506417486E+02  0.10539144142E+02 -0.51929602039E+02  0.77464394042E+02  0.00000000000E+00 0.  1.
         15    1    3    3    0    0 -0.11914318957E+02 -0.12061734791E+03  0.18767222828E+03  0.22340850674E+03  0.00000000000E+00 0.  1.
        -16    1    1    2    0    0  0.17875855649E+03  0.17602119126E+03  0.48624479954E+03  0.54714905315E+03  0.00000000000E+00 0.  1.
         16    1    4    4    0    0 -0.69326585996E+02  0.29908455331E+02  0.61143040864E+03  0.61607453757E+03  0.00000000000E+00 0. -1.
    9900018    1    1    2    0    0  0.10003813340E+03  0.87079650861E+02  0.28280431458E+02  0.16341803733E+03  0.91187600000E+02 0.  0.
<mgrwt>
<rscale>  0 0.10236717E+04</rscale>
<asrwt>0</asrwt>
<pdfrwt beam="1">  1        2 0.32366912E+00 0.13348874E+04</pdfrwt>
<pdfrwt beam="2">  1       -2 0.61079869E-01 0.13348874E+04</pdfrwt>
<totfact> 0.14203758E+01</totfact>
</mgrwt>
</event>
<event>
12    1  0.3029866E-013  0.1547915E+04  0.7818608E-02  0.9358462E-01
          1   -1    0    0  501    0  0.00000000000E+00  0.00000000000E+00  0.11673743109E+04  0.11673743109E+04  0.00000000000E+00 0. -1.
         -1   -1    0    0    0  501 -0.00000000000E+00 -0.00000000000E+00 -0.85193782787E+03  0.85193782787E+03  0.00000000000E+00 0.  1.
         23    2    1    2    0    0  0.14882401711E+03  0.14138670229E+03  0.41090107032E+03  0.46845620101E+03  0.92047460703E+02 0.  0.
    9900016    2    1    2    0    0 -0.45072079527E+02 -0.10899115683E+03  0.74330844100E+02  0.72434309006E+03  0.71080044535E+03 0.  0.
         23    2    4    4    0    0 -0.10563615366E+03  0.89451336700E+02 -0.27640997979E+03  0.31683044503E+03  0.69415526898E+02 0.  0.
        -15    1    3    3    0    0  0.11767371995E+03  0.73725724972E+02  0.19000247501E+03  0.23533705063E+03  0.00000000000E+00 0.  1.
        -15    1    5    5    0    0 -0.23734098530E+02 -0.99153750793E+01 -0.38392611728E+02  0.46212711793E+02  0.00000000000E+00 0.  1.
         15    1    5    5    0    0 -0.81902055129E+02  0.99366711780E+02 -0.23801736806E+03  0.27061773324E+03  0.00000000000E+00 0. -1.
         15    1    3    3    0    0  0.31150297163E+02  0.67660977322E+02  0.22089859531E+03  0.23311915038E+03  0.00000000000E+00 0. -1.
        -16    1    1    2    0    0 -0.56655501160E+02 -0.25047617260E+03 -0.41157386506E+03  0.48511978444E+03  0.00000000000E+00 0.  1.
         16    1    4    4    0    0  0.60564074132E+02 -0.19844249353E+03  0.35074082389E+03  0.40751264503E+03  0.00000000000E+00 0. -1.
    9900018    1    1    2    0    0 -0.47096436421E+02  0.21808062714E+03  0.24177843368E+03  0.34139306326E+03  0.91187600000E+02 0.  0.
<mgrwt>
<rscale>  0 0.95574381E+03</rscale>
<asrwt>0</asrwt>
<pdfrwt beam="1">  1        1 0.17959605E+00 0.15479149E+04</pdfrwt>
<pdfrwt beam="2">  1       -1 0.13106736E+00 0.15479149E+04</pdfrwt>
<totfact> 0.53551975E+00</totfact>
</mgrwt>
</event>
<event>
12    1  0.3029866E-013  0.2369185E+04  0.7818608E-02  0.8451131E-01
          1   -1    0    0  501    0  0.00000000000E+00  0.00000000000E+00  0.12806448031E+04  0.12806448031E+04  0.00000000000E+00 0. -1.
         -1   -1    0    0    0  501 -0.00000000000E+00 -0.00000000000E+00 -0.10957440724E+04  0.10957440724E+04  0.00000000000E+00 0.  1.
         23    2    1    2    0    0 -0.46055769472E+03  0.71716383656E+02  0.21493081151E+03  0.52128846601E+03  0.91048235650E+02 0.  0.
    9900016    2    1    2    0    0  0.68437043142E+03 -0.43305214530E+03 -0.42149337179E+03  0.11572528690E+04  0.71111215181E+03 0.  0.
         23    2    4    4    0    0  0.35377728662E+03  0.15021422252E+03 -0.87781276934E+02  0.40835017476E+03  0.10640315537E+03 0.  0.
        -15    1    5    5    0    0  0.12059170391E+03  0.43569874831E+02 -0.81358734545E+02  0.15185498587E+03  0.00000000000E+00 0. -1.
        -15    1    3    3    0    0 -0.39612418024E+03  0.35327718552E+02  0.20239461914E+03  0.44623535912E+03  0.00000000000E+00 0. -1.
         15    1    5    5    0    0  0.23318558270E+03  0.10664434769E+03 -0.64225423893E+01  0.25649518889E+03  0.00000000000E+00 0.  1.
         15    1    3    3    0    0 -0.64433514474E+02  0.36388665104E+02  0.12536192372E+02  0.75053106896E+02  0.00000000000E+00 0.  1.
        -16    1    4    4    0    0  0.33059314480E+03 -0.58326636782E+03 -0.33371209486E+03  0.74890269426E+03  0.00000000000E+00 0.  1.
         16    1    1    2    0    0  0.60585610063E+02  0.16944182130E+03  0.15257086869E+02  0.18059326026E+03  0.00000000000E+00 0. -1.
    9900018    1    1    2    0    0 -0.28439834677E+03  0.19189394035E+03  0.37620620414E+03  0.51725428023E+03  0.91187600000E+02 0.  0.
<mgrwt>
<rscale>  0 0.23691846E+04</rscale>
<asrwt>0</asrwt>
<pdfrwt beam="1">  1        1 0.19702228E+00 0.23691846E+04</pdfrwt>
<pdfrwt beam="2">  1       -1 0.16857601E+00 0.23691846E+04</pdfrwt>
<totfact> 0.21155273E+00</totfact>
</mgrwt>
</event>
<event>
12    1  0.3029866E-013  0.1566106E+04  0.7818608E-02  0.9124705E-01
         -2   -1    0    0    0  501 -0.00000000000E+00  0.00000000000E+00  0.44753811209E+03  0.44753811209E+03  0.00000000000E+00 0.  1.
          2   -1    0    0  501    0  0.00000000000E+00 -0.00000000000E+00 -0.24708018385E+04  0.24708018385E+04  0.00000000000E+00 0. -1.
         23    2    1    2    0    0  0.50147063162E+03  0.80502293979E+02 -0.68963736952E+03  0.86134075015E+03  0.91404445864E+02 0.  0.
    9900016    2    1    2    0    0 -0.14209123954E+03 -0.84403326650E+02 -0.52026063419E+03  0.89141834726E+03  0.70472810391E+03 0.  0.
         23    2    4    4    0    0 -0.22142786717E+03 -0.14755615970E+03  0.67096903128E+02  0.29537182437E+03  0.10926755967E+03 0.  0.
        -15    1    3    3    0    0  0.12538687081E+03  0.58196630576E+02 -0.16118027017E+03  0.21233886755E+03  0.00000000000E+00 0.  1.
        -15    1    5    5    0    0 -0.26482278670E+02 -0.70985829455E+02  0.35090537666E+02  0.83496376572E+02  0.00000000000E+00 0.  1.
         15    1    3    3    0    0  0.37608376081E+03  0.22305663404E+02 -0.52845709936E+03  0.64900188260E+03  0.00000000000E+00 0. -1.
         15    1    5    5    0    0 -0.19494558850E+03 -0.76570330246E+02  0.32006365462E+02  0.21187544779E+03  0.00000000000E+00 0. -1.
        -16    1    1    2    0    0 -0.15653616275E+03  0.11882475668E+03 -0.88391084095E+03  0.90549504019E+03  0.00000000000E+00 0.  1.
         16    1    4    4    0    0  0.79336627629E+02  0.63152833050E+02 -0.58735753732E+03  0.59604652289E+03  0.00000000000E+00 0. -1.
    9900018    1    1    2    0    0 -0.20284322933E+03 -0.11492372401E+03  0.70545118241E+02  0.26008581301E+03  0.91187600000E+02 0.  0.
<mgrwt>
<rscale>  0 0.11865576E+04</rscale>
<asrwt>0</asrwt>
<pdfrwt beam="1">  1        2 0.38012337E+00 0.15661055E+04</pdfrwt>
<pdfrwt beam="2">  1       -2 0.68852015E-01 0.15661055E+04</pdfrwt>
<totfact> 0.66644376E+00</totfact>
</mgrwt>
</event>
