<event>
11    1  0.3046864E-013  0.1544964E+04  0.7818608E-02  0.8855091E-01
          1   -1    0    0  501    0  0.00000000000E+00  0.00000000000E+00  0.49554020385E+03  0.49554020385E+03  0.00000000000E+00 0. -1.
         -1   -1    0    0    0  501 -0.00000000000E+00 -0.00000000000E+00 -0.12041977023E+04  0.12041977023E+04  0.00000000000E+00 0.  1.
    9900016    2    1    2    0    0 -0.19946498171E+03  0.36210317587E+03 -0.42765474009E+03  0.99780589231E+03  0.80113858545E+03 0.  0.
         23    2    3    3    0    0 -0.32453676826E+03  0.35209189135E+03 -0.14045111537E+03  0.50655410864E+03  0.87050188175E+02 0.  0.
        -15    1    4    4    0    0 -0.43286949914E+02  0.85808948391E+02 -0.49848561811E+01  0.96238165236E+02  0.00000000000E+00 0.  1.
        -15    1    3    3    0    0  0.45214564996E+02 -0.37816566575E+02  0.14376138343E+02  0.60672258479E+02  0.00000000000E+00 0.  1.
         15    1    3    3    0    0 -0.83579806877E+02  0.89291410562E+02 -0.19788708200E+03  0.23263240819E+03  0.00000000000E+00 0. -1.
         15    1    4    4    0    0 -0.28124981834E+03  0.26628294296E+03 -0.13546625919E+03  0.41031594340E+03  0.00000000000E+00 0. -1.
        -16    1    1    2    0    0  0.19253681156E+03 -0.45941392232E+03 -0.27328818659E+03  0.56817075669E+03  0.00000000000E+00 0.  1.
         16    1    3    3    0    0  0.16343702842E+03 -0.41463559463E+02 -0.10369268106E+03  0.19794711700E+03  0.00000000000E+00 0. -1.
    9900018    1    1    2    0    0  0.69281701552E+01  0.97310746443E+02 -0.77145718121E+01  0.13376125720E+03  0.91187600000E+02 0.  0.
<mgrwt>
<rscale>  0 0.15449639E+04</rscale>
<asrwt>0</asrwt>
<pdfrwt beam="1">  1        1 0.76236955E-01 0.15449639E+04</pdfrwt>
<pdfrwt beam="2">  1       -1 0.18526118E+00 0.15449639E+04</pdfrwt>
<totfact> 0.82534938E+00</totfact>
</mgrwt>
</event>
<event>
11    1  0.3046864E-013  0.1069142E+04  0.7818608E-02  0.9235801E-01
          2   -1    0    0  501    0  0.00000000000E+00  0.00000000000E+00  0.10612393856E+04  0.10612393856E+04  0.00000000000E+00 0.  1.
         -2   -1    0    0    0  501 -0.00000000000E+00 -0.00000000000E+00 -0.26927594979E+03  0.26927594979E+03  0.00000000000E+00 0. -1.
    9900016    2    1    2    0    0 -0.29696070290E+02  0.20834412757E+03  0.42230473626E+03  0.90514880376E+03  0.77244024661E+03 0.  0.
         23    2    3    3    0    0  0.76985266272E+02  0.58433044083E+02 -0.25568854131E+02  0.13725743317E+03  0.94046184372E+02 0.  0.
        -15    1    3    3    0    0  0.44749596750E+02 -0.39431486274E+02  0.78872212657E+02  0.98884753367E+02  0.00000000000E+00 0.  1.
        -15    1    4    4    0    0  0.32749212420E+01  0.57592538353E+02  0.40201949942E+01  0.57825492223E+02  0.00000000000E+00 0. -1.
         15    1    4    4    0    0  0.73710345030E+02  0.84050573022E+00 -0.29589049125E+02  0.79431940946E+02  0.00000000000E+00 0.  1.
         15    1    3    3    0    0  0.12396010519E+03 -0.14585086259E+02  0.16031353377E+03  0.20317298425E+03  0.00000000000E+00 0. -1.
        -16    1    1    2    0    0  0.29696070290E+02 -0.20834412757E+03  0.36965869955E+03  0.42536653164E+03  0.00000000000E+00 0.  1.
         16    1    3    3    0    0 -0.18580828273E+03  0.21365113955E+03  0.17651436703E+03  0.33365978051E+03  0.00000000000E+00 0. -1.
    9900018    1    3    3    0    0 -0.89582755766E+02 -0.97234835302E+01  0.32173476938E+02  0.13217385246E+03  0.91187600000E+02 0.  0.
<mgrwt>
<rscale>  0 0.10691422E+04</rscale>
<asrwt>0</asrwt>
<pdfrwt beam="1">  1        2 0.16326760E+00 0.10691422E+04</pdfrwt>
<pdfrwt beam="2">  1       -2 0.41427070E-01 0.10691422E+04</pdfrwt>
<totfact> 0.12636203E+02</totfact>
</mgrwt>
</event>
<event>
11    1  0.3046864E-013  0.2875188E+04  0.7818608E-02  0.8280298E-01
         -2   -1    0    0    0  501 -0.00000000000E+00  0.00000000000E+00  0.12586283147E+04  0.12586283147E+04  0.00000000000E+00 0.  1.
          2   -1    0    0  501    0  0.00000000000E+00 -0.00000000000E+00 -0.16420068082E+04  0.16420068082E+04  0.00000000000E+00 0. -1.
    9900016    2    1    2    0    0  0.39118273479E+03 -0.11830988216E+03 -0.72440500949E+02  0.98478748239E+03  0.89304960617E+03 0.  0.
         23    2    3    3    0    0  0.29039267481E+03  0.16667123889E+03  0.97168374375E+02  0.36077091939E+03  0.92772602852E+02 0.  0.
        -15    1    3    3    0    0  0.18231924999E+03 -0.31550477830E+03 -0.78427670108E+02  0.37273914938E+03  0.00000000000E+00 0. -1.
        -15    1    4    4    0    0  0.16271353485E+03  0.12357183945E+03  0.19531134746E+02  0.20524901742E+03  0.00000000000E+00 0. -1.
         15    1    4    4    0    0  0.12767913996E+03  0.43099399438E+02  0.77637239629E+02  0.15552190196E+03  0.00000000000E+00 0.  1.
         15    1    3    3    0    0  0.65021269841E+02 -0.31743100309E+02 -0.46080361729E+02  0.85783388171E+02  0.00000000000E+00 0.  1.
        -16    1    3    3    0    0 -0.14655045984E+03  0.62266757562E+02 -0.45100843487E+02  0.16549402545E+03  0.00000000000E+00 0.  1.
         16    1    1    2    0    0 -0.47147188172E+03 -0.53974377880E+03 -0.80965535700E+03  0.10812728051E+04  0.00000000000E+00 0. -1.
    9900018    1    1    2    0    0  0.80289146931E+02  0.65805366096E+03  0.49871736451E+03  0.83457483540E+03  0.91187600000E+02 0.  0.
<mgrwt>
<rscale>  0 0.28751878E+04</rscale>
<asrwt>0</asrwt>
<pdfrwt beam="1">  1        2 0.25261643E+00 0.28751878E+04</pdfrwt>
<pdfrwt beam="2">  1       -2 0.19363513E+00 0.28751878E+04</pdfrwt>
<totfact> 0.13391922E+00</totfact>
</mgrwt>
</event>
<event>
11    1  0.3046864E-013  0.1183206E+04  0.7818608E-02  0.9127685E-01
         -1   -1    0    0    0  501 -0.00000000000E+00  0.00000000000E+00  0.57424361695E+03  0.57424361695E+03  0.00000000000E+00 0.  1.
          1   -1    0    0  501    0  0.00000000000E+00 -0.00000000000E+00 -0.60948671347E+03  0.60948671347E+03  0.00000000000E+00 0. -1.
    9900016    2    1    2    0    0  0.30805005645E+02  0.12487424935E+03  0.77831834822E+02  0.66073442806E+03  0.64340474305E+03 0.  0.
         23    2    3    3    0    0  0.38490689507E+02  0.15303514758E+03  0.18394769375E+03  0.25895770820E+03  0.91219795163E+02 0.  0.
        -15    1    3    3    0    0 -0.26084346080E+02 -0.59486144929E+01  0.29961773886E+02  0.40168233957E+02  0.00000000000E+00 0. -1.
        -15    1    4    4    0    0  0.12621242140E+02  0.14058641729E+03  0.10789221336E+03  0.17766419499E+03  0.00000000000E+00 0.  1.
         15    1    3    3    0    0  0.84860772931E+02  0.39458622748E+02  0.82635101606E+02  0.12484748179E+03  0.00000000000E+00 0.  1.
         15    1    4    4    0    0  0.25869447367E+02  0.12448730294E+02  0.76055480393E+02  0.81293513215E+02  0.00000000000E+00 0. -1.
        -16    1    1    2    0    0 -0.95480752903E+02 -0.10176407104E+03  0.16872343333E+03  0.21895227170E+03  0.00000000000E+00 0.  1.
         16    1    3    3    0    0 -0.66462110713E+02 -0.61670906488E+02 -0.21871273442E+03  0.23676100410E+03  0.00000000000E+00 0. -1.
    9900018    1    1    2    0    0  0.64675747259E+02 -0.23110178305E+02 -0.28179836466E+03  0.30404363066E+03  0.91187600000E+02 0.  0.
<mgrwt>
<rscale>  0 0.11832056E+04</rscale>
<asrwt>0</asrwt>
<pdfrwt beam="1">  1        1 0.93767186E-01 0.11832056E+04</pdfrwt>
<pdfrwt beam="2">  1       -1 0.88345172E-01 0.11832056E+04</pdfrwt>
<totfact> 0.41766893E+01</totfact>
</mgrwt>
</event>
