<event>
11    1  0.2499789E-014  0.1168639E+04  0.7818608E-02  0.9140758E-01
         -1   -1    0    0    0  501 -0.00000000000E+00  0.00000000000E+00  0.33713836157E+03  0.33713836157E+03  0.00000000000E+00 0.  1.
          1   -1    0    0  501    0  0.00000000000E+00 -0.00000000000E+00 -0.10127278642E+04  0.10127278642E+04  0.00000000000E+00 0. -1.
    9900016    2    1    2    0    0 -0.41581768497E+02 -0.26446198571E+03 -0.45878892834E+03  0.84550113974E+03  0.65781130362E+03 0.  0.
         23    2    3    3    0    0 -0.98137215580E+02  0.55870451956E+02  0.44142072520E+02  0.15238944853E+03  0.92312517960E+02 0.  0.
        -15    1    3    3    0    0 -0.77433763848E+02 -0.98877678319E+02 -0.46960446266E+02  0.13408231266E+03  0.00000000000E+00 0.  1.
        -15    1    4    4    0    0 -0.99594891265E+02  0.41894834922E+02  0.21073210760E+01  0.10806831340E+03  0.00000000000E+00 0.  1.
         15    1    4    4    0    0  0.14576756844E+01  0.13975617034E+02  0.42034751444E+02  0.44321135125E+02  0.00000000000E+00 0. -1.
         15    1    3    3    0    0  0.79371050705E+02 -0.17264319265E+03 -0.44639705243E+03  0.48515540199E+03  0.00000000000E+00 0. -1.
        -16    1    1    2    0    0 -0.84363535985E+01  0.32418034350E+03 -0.10624096935E+03  0.34124948461E+03  0.00000000000E+00 0.  1.
         16    1    3    3    0    0  0.54618160227E+02 -0.48811566691E+02 -0.95735021618E+01  0.73873976562E+02  0.00000000000E+00 0. -1.
    9900018    1    1    2    0    0  0.50018122096E+02 -0.59718357795E+02 -0.11055960498E+03  0.16311560147E+03  0.91187600000E+02 0.  0.
<mgrwt>
<rscale>  0 0.11686392E+04</rscale>
<asrwt>0</asrwt>
<pdfrwt beam="1">  1        1 0.15580429E+00 0.11686392E+04</pdfrwt>
<pdfrwt beam="2">  1       -1 0.51867440E-01 0.11686392E+04</pdfrwt>
<totfact> 0.54875559E+01</totfact>
</mgrwt>
</event>
<event>
11    1  0.2499789E-014  0.8887423E+03  0.7818608E-02  0.9439765E-01
         -2   -1    0    0    0  501 -0.00000000000E+00  0.00000000000E+00  0.35667345252E+03  0.35667345252E+03  0.00000000000E+00 0. -1.
          2   -1    0    0  501    0  0.00000000000E+00 -0.00000000000E+00 -0.55363163113E+03  0.55363163113E+03  0.00000000000E+00 0.  1.
    9900016    2    1    2    0    0 -0.75013385816E+02 -0.72302153738E+02 -0.12785300922E+03  0.78528454965E+03  0.76777003228E+03 0.  0.
         23    2    3    3    0    0 -0.99312403211E+01  0.48060042437E+02 -0.75190065070E+02  0.12794199661E+03  0.91143904887E+02 0.  0.
        -15    1    4    4    0    0  0.33899974681E+02  0.49010598409E+02 -0.45832519914E+02  0.75178899442E+02  0.00000000000E+00 0.  1.
        -15    1    3    3    0    0 -0.13588250505E+03 -0.18093215753E+01  0.37295455241E+02  0.14091940890E+03  0.00000000000E+00 0.  1.
         15    1    4    4    0    0 -0.43831215002E+02 -0.95055597128E+00 -0.29357545157E+02  0.52763097169E+02  0.00000000000E+00 0. -1.
         15    1    3    3    0    0  0.21699570389E+03  0.88875221971E+01 -0.12067354073E+03  0.24845165926E+03  0.00000000000E+00 0. -1.
        -16    1    1    2    0    0  0.75013385816E+02  0.72302153738E+02 -0.69105169389E+02  0.12502053401E+03  0.00000000000E+00 0.  1.
         16    1    3    3    0    0 -0.12908024705E+03 -0.48802326504E+02  0.45839879383E+02  0.14541207581E+03  0.00000000000E+00 0. -1.
    9900018    1    3    3    0    0 -0.17115097285E+02 -0.78638070293E+02 -0.15124738048E+02  0.12255940906E+03  0.91187600000E+02 0.  0.
<mgrwt>
<rscale>  0 0.88874227E+03</rscale>
<asrwt>0</asrwt>
<pdfrwt beam="1">  1        2 0.85174098E-01 0.88874227E+03</pdfrwt>
<pdfrwt beam="2">  1       -2 0.54872838E-01 0.88874227E+03</pdfrwt>
<totfact> 0.17134746E+02</totfact>
</mgrwt>
</event>
<event>
11    1  0.2499789E-014  0.1167269E+04  0.7818608E-02  0.9141998E-01
          1   -1    0    0  501    0  0.00000000000E+00  0.00000000000E+00  0.17907520595E+04  0.17907520595E+04  0.00000000000E+00 0.  1.
         -1   -1    0    0    0  501 -0.00000000000E+00 -0.00000000000E+00 -0.19021580043E+03  0.19021580043E+03  0.00000000000E+00 0. -1.
    9900016    2    1    2    0    0 -0.13670179433E+03 -0.81536890541E+02  0.16419740703E+04  0.18164906965E+04  0.76041038774E+03 0.  0.
         23    2    3    3    0    0 -0.58279067272E+02 -0.80759439756E+02  0.34747918589E+03  0.37308145777E+03  0.92355036238E+02 0.  0.
        -15    1    3    3    0    0 -0.11362584027E+02 -0.12482673266E+03  0.45740725115E+03  0.47427019188E+03  0.00000000000E+00 0.  1.
        -15    1    4    4    0    0 -0.53177176308E+02 -0.29485619613E+02  0.28817154157E+03  0.29451663996E+03  0.00000000000E+00 0.  1.
         15    1    3    3    0    0  0.10131246741E+03  0.34311891772E+02  0.35632966841E+02  0.11274409207E+03  0.00000000000E+00 0. -1.
         15    1    4    4    0    0 -0.51018909640E+01 -0.51273820144E+02  0.59307644321E+02  0.78564817815E+02  0.00000000000E+00 0. -1.
        -16    1    3    3    0    0 -0.13533180161E+03  0.13814428790E+03  0.51756393406E+03  0.55251331807E+03  0.00000000000E+00 0.  1.
         16    1    1    2    0    0  0.13670179433E+03  0.81536890541E+02 -0.41437811244E+02  0.16447716344E+03  0.00000000000E+00 0. -1.
    9900018    1    3    3    0    0 -0.33040808831E+02 -0.48406897800E+02  0.28389073233E+03  0.30388163666E+03  0.91187600000E+02 0.  0.
<mgrwt>
<rscale>  0 0.11672692E+04</rscale>
<asrwt>0</asrwt>
<pdfrwt beam="1">  1        1 0.27550031E+00 0.11672692E+04</pdfrwt>
<pdfrwt beam="2">  1       -1 0.29263970E-01 0.11672692E+04</pdfrwt>
<totfact> 0.43741463E+01</totfact>
</mgrwt>
</event>
<event>
11    1  0.2499789E-014  0.8620656E+03  0.7818608E-02  0.9474284E-01
         -1   -1    0    0    0  501 -0.00000000000E+00  0.00000000000E+00  0.52082335902E+02  0.52082335902E+02  0.00000000000E+00 0.  1.
          1   -1    0    0  501    0  0.00000000000E+00 -0.00000000000E+00 -0.35672224767E+04  0.35672224767E+04  0.00000000000E+00 0. -1.
    9900016    2    1    2    0    0  0.63879318325E+01 -0.72701455359E+02 -0.28287733405E+04  0.29290688444E+04  0.75641217327E+03 0.  0.
         23    2    3    3    0    0 -0.73585442739E+02 -0.35877091424E+02 -0.27215336814E+03  0.30007251814E+03  0.96302010793E+02 0.  0.
        -15    1    4    4    0    0 -0.48435155741E+01 -0.39226386312E+02 -0.33877464473E+02  0.52056235221E+02  0.00000000000E+00 0.  1.
        -15    1    3    3    0    0  0.20072801767E+03  0.47753425781E+02 -0.55024598561E+03  0.58765872021E+03  0.00000000000E+00 0.  1.
         15    1    3    3    0    0 -0.11754262999E+01 -0.10445087618E+03 -0.55156878334E+03  0.56137286176E+03  0.00000000000E+00 0. -1.
         15    1    4    4    0    0 -0.68741927165E+02  0.33492948882E+01 -0.23827590366E+03  0.24801628292E+03  0.00000000000E+00 0. -1.
        -16    1    3    3    0    0 -0.11819444492E+03  0.46626903528E+02 -0.12208162331E+04  0.12274103918E+04  0.00000000000E+00 0.  1.
         16    1    1    2    0    0 -0.63879318325E+01  0.72701455359E+02 -0.68636680028E+03  0.69023596821E+03  0.00000000000E+00 0. -1.
    9900018    1    3    3    0    0 -0.13847718788E+01 -0.26753817069E+02 -0.23398897029E+03  0.25255435244E+03  0.91187600000E+02 0.  0.
<mgrwt>
<rscale>  0 0.86206561E+03</rscale>
<asrwt>0</asrwt>
<pdfrwt beam="1">  1        1 0.54880350E+00 0.86206561E+03</pdfrwt>
<pdfrwt beam="2">  1       -1 0.80126665E-02 0.86206561E+03</pdfrwt>
<totfact> 0.20968640E+01</totfact>
</mgrwt>
</event>
<event>
11    1  0.2499789E-014  0.9234543E+03  0.7818608E-02  0.9396728E-01
         -1   -1    0    0    0  501 -0.00000000000E+00  0.00000000000E+00  0.29201396173E+03  0.29201396173E+03  0.00000000000E+00 0.  1.
          1   -1    0    0  501    0  0.00000000000E+00 -0.00000000000E+00 -0.73007459606E+03  0.73007459606E+03  0.00000000000E+00 0. -1.
    9900016    2    1    2    0    0 -0.68461226384E+02  0.25660891854E+02 -0.23269428785E+03  0.70605878803E+03  0.66259109537E+03 0.  0.
         23    2    3    3    0    0 -0.23102156619E+02 -0.20793347530E+02 -0.11167864449E+02  0.97631604239E+02  0.91875655143E+02 0.  0.
        -15    1    3    3    0    0 -0.19832283427E+03 -0.47971273840E+02 -0.29455409114E+02  0.20615724783E+03  0.00000000000E+00 0.  1.
        -15    1    4    4    0    0  0.18649727546E+02  0.27451647690E+02 -0.39736208709E+01  0.33424466507E+02  0.00000000000E+00 0.  1.
         15    1    4    4    0    0 -0.41751884165E+02 -0.48244995220E+02 -0.71942435779E+01  0.64207137732E+02  0.00000000000E+00 0. -1.
         15    1    3    3    0    0  0.10594613684E+03  0.31771958967E+02 -0.26999875746E+03  0.29177623330E+03  0.00000000000E+00 0. -1.
        -16    1    3    3    0    0  0.47017627668E+02  0.62653554257E+02  0.77927743170E+02  0.11049370266E+03  0.00000000000E+00 0.  1.
         16    1    1    2    0    0  0.83021053011E+02 -0.23334579517E+02 -0.20635755380E+03  0.22365249351E+03  0.00000000000E+00 0. -1.
    9900018    1    1    2    0    0 -0.14559826627E+02 -0.23263123375E+01  0.99120732408E+00  0.92377276244E+02  0.91187600000E+02 0.  0.
<mgrwt>
<rscale>  0 0.92345433E+03</rscale>
<asrwt>0</asrwt>
<pdfrwt beam="1">  1        1 0.11231917E+00 0.92345433E+03</pdfrwt>
<pdfrwt beam="2">  1       -1 0.44925225E-01 0.92345433E+03</pdfrwt>
<totfact> 0.12622780E+02</totfact>
</mgrwt>
</event>
<event>
11    1  0.2499789E-014  0.8420082E+03  0.7818608E-02  0.9501126E-01
          3   -1    0    0  501    0  0.00000000000E+00  0.00000000000E+00  0.94425265952E+03  0.94425265952E+03  0.00000000000E+00 0. -1.
         -3   -1    0    0    0  501 -0.00000000000E+00 -0.00000000000E+00 -0.18770872269E+03  0.18770872269E+03  0.00000000000E+00 0.  1.
    9900016    2    1    2    0    0  0.36159722264E+02  0.44824157235E+02  0.61953755591E+03  0.91084098699E+03  0.66519755699E+03 0.  0.
         23    2    3    3    0    0  0.17567740823E+03  0.63136899888E+02 -0.22861949367E+02  0.20685412757E+03  0.86122827832E+02 0.  0.
        -15    1    3    3    0    0  0.38553798762E+02 -0.74021077797E+02  0.20533013582E+03  0.22164381344E+03  0.00000000000E+00 0.  1.
        -15    1    4    4    0    0  0.17221633980E+02  0.23544239534E+02  0.23070519838E+02  0.37190923326E+02  0.00000000000E+00 0.  1.
         15    1    4    4    0    0  0.15845577425E+03  0.39592660354E+02 -0.45932469205E+02  0.16966320425E+03  0.00000000000E+00 0. -1.
         15    1    3    3    0    0 -0.65726966339E+02  0.41571713809E+01  0.24689588269E+03  0.25552865411E+03  0.00000000000E+00 0. -1.
        -16    1    1    2    0    0 -0.43356658945E+02 -0.46852490662E+02  0.10036142442E+02  0.64619501013E+02  0.00000000000E+00 0.  1.
         16    1    3    3    0    0 -0.11234451839E+03  0.51551163763E+02  0.19017348676E+03  0.22681439188E+03  0.00000000000E+00 0. -1.
    9900018    1    1    2    0    0  0.71969366801E+01  0.20283334272E+01  0.12697023847E+03  0.15650089420E+03  0.91187600000E+02 0.  0.
<mgrwt>
<rscale>  0 0.84200822E+03</rscale>
<asrwt>0</asrwt>
<pdfrwt beam="1">  1        3 0.14526964E+00 0.84200822E+03</pdfrwt>
<pdfrwt beam="2">  1       -3 0.28878266E-01 0.84200822E+03</pdfrwt>
<totfact> 0.10797955E+01</totfact>
</mgrwt>
</event>
<event>
11    1  0.2499789E-014  0.2202489E+04  0.7818608E-02  0.8517393E-01
          2   -1    0    0  501    0  0.00000000000E+00  0.00000000000E+00  0.15854540350E+04  0.15854540350E+04  0.00000000000E+00 0. -1.
         -2   -1    0    0    0  501 -0.00000000000E+00 -0.00000000000E+00 -0.76491648964E+03  0.76491648964E+03  0.00000000000E+00 0.  1.
    9900016    2    1    2    0    0  0.24714061176E+03  0.72147403552E+03  0.37097836340E+03  0.10757889409E+04  0.66188642025E+03 0.  0.
         23    2    3    3    0    0 -0.78288651514E+02  0.32946033809E+03  0.17293207705E+03  0.39103812137E+03  0.91280237540E+02 0.  0.
        -15    1    4    4    0    0 -0.38994493970E+01  0.14951300019E+03  0.38552562776E+02  0.15445272101E+03  0.00000000000E+00 0.  1.
        -15    1    3    3    0    0  0.20999800351E+02  0.27058170014E+03 -0.36562808350E+02  0.27384719648E+03  0.00000000000E+00 0.  1.
         15    1    3    3    0    0  0.19935891914E+03  0.11232555296E+03  0.18548242917E+03  0.29455855109E+03  0.00000000000E+00 0. -1.
         15    1    4    4    0    0 -0.74389202117E+02  0.17994733790E+03  0.13437951427E+03  0.23658540036E+03  0.00000000000E+00 0. -1.
        -16    1    3    3    0    0  0.10507054378E+03  0.91064443285E+01  0.49126665530E+02  0.11634507194E+03  0.00000000000E+00 0.  1.
         16    1    1    2    0    0 -0.28967154422E+03 -0.92254548484E+03  0.34547301270E+03  0.10268161362E+04  0.00000000000E+00 0. -1.
    9900018    1    1    2    0    0  0.42530932458E+02  0.20107144933E+03  0.10408616924E+03  0.24776544749E+03  0.91187600000E+02 0.  0.
<mgrwt>
<rscale>  0 0.22024894E+04</rscale>
<asrwt>0</asrwt>
<pdfrwt beam="1">  1        2 0.24391600E+00 0.22024894E+04</pdfrwt>
<pdfrwt beam="2">  1       -2 0.11767946E+00 0.22024894E+04</pdfrwt>
<totfact> 0.57880153E+00</totfact>
</mgrwt>
</event>
<event>
11    1  0.2499789E-014  0.8162805E+03  0.7818608E-02  0.9536746E-01
          1   -1    0    0  501    0  0.00000000000E+00  0.00000000000E+00  0.25376202457E+04  0.25376202457E+04  0.00000000000E+00 0. -1.
         -1   -1    0    0    0  501 -0.00000000000E+00 -0.00000000000E+00 -0.65643574409E+02  0.65643574409E+02  0.00000000000E+00 0.  1.
    9900016    2    1    2    0    0 -0.21398048025E+02 -0.21540108623E+02  0.19148386681E+04  0.20262028642E+04  0.66179231583E+03 0.  0.
         23    2    3    3    0    0  0.90399844571E+02 -0.20031242414E+03  0.88610916407E+03  0.91741994910E+03  0.90403059685E+02 0.  0.
        -15    1    4    4    0    0  0.26153269105E+02 -0.13083623834E+03  0.63967872374E+03  0.65344547160E+03  0.00000000000E+00 0.  1.
        -15    1    3    3    0    0 -0.11325752117E+03 -0.15351802602E+02  0.14815213564E+03  0.18711493591E+03  0.00000000000E+00 0.  1.
         15    1    3    3    0    0 -0.15767826312E+02  0.17884895000E+03  0.37705519672E+03  0.41761967463E+03  0.00000000000E+00 0. -1.
         15    1    4    4    0    0  0.64246575466E+02 -0.69476185797E+02  0.24643044033E+03  0.26397447750E+03  0.00000000000E+00 0. -1.
        -16    1    1    2    0    0 -0.19312244442E+02  0.41976472077E+02  0.13129080421E+03  0.13918427448E+03  0.00000000000E+00 0.  1.
         16    1    3    3    0    0  0.17227454890E+02  0.15275168114E+02  0.50352217170E+03  0.50404830458E+03  0.00000000000E+00 0. -1.
    9900018    1    1    2    0    0  0.40710292466E+02 -0.20436363453E+02  0.42584719892E+03  0.43787668137E+03  0.91187600000E+02 0.  0.
<mgrwt>
<rscale>  0 0.81628050E+03</rscale>
<asrwt>0</asrwt>
<pdfrwt beam="1">  1        1 0.39040304E+00 0.81628050E+03</pdfrwt>
<pdfrwt beam="2">  1       -1 0.10099013E-01 0.81628050E+03</pdfrwt>
<totfact> 0.82113692E+01</totfact>
</mgrwt>
</event>
<event>
11    1  0.2587056E-014  0.1832288E+04  0.7818608E-02  0.8689315E-01
          1   -1    0    0  501    0  0.00000000000E+00  0.00000000000E+00  0.18765270721E+04  0.18765270721E+04  0.00000000000E+00 0. -1.
         -1   -1    0    0    0  501 -0.00000000000E+00 -0.00000000000E+00 -0.44727281800E+03  0.44727281800E+03  0.00000000000E+00 0.  1.
    9900016    2    1    2    0    0 -0.42647069094E+03  0.12252080687E+03  0.57266876819E+02  0.88184359334E+03  0.75992106800E+03 0.  0.
         23    2    3    3    0    0 -0.13503694036E+03  0.94984069745E+02  0.25265919655E+02  0.19286496558E+03  0.96444696518E+02 0.  0.
        -15    1    3    3    0    0 -0.26403111503E+03 -0.76899346308E+02 -0.14976307633E+03  0.31313721944E+03  0.00000000000E+00 0.  1.
        -15    1    4    4    0    0 -0.26782793384E+02  0.38628734589E+02 -0.33191268536E+02  0.57542657780E+02  0.00000000000E+00 0.  1.
         15    1    4    4    0    0 -0.10825414697E+03  0.56355335155E+02  0.58457188191E+02  0.13532230780E+03  0.00000000000E+00 0. -1.
         15    1    3    3    0    0  0.37364301235E+02  0.46542221034E+02  0.18523291698E+03  0.19461115816E+03  0.00000000000E+00 0. -1.
        -16    1    3    3    0    0  0.10752435718E+02  0.23885448327E+02  0.42352025178E+02  0.49797826783E+02  0.00000000000E+00 0.  1.
         16    1    1    2    0    0  0.42647069094E+03 -0.12252080687E+03  0.13719873773E+04  0.14419562968E+04  0.00000000000E+00 0. -1.
    9900018    1    3    3    0    0 -0.75519372503E+02  0.34008414072E+02 -0.45820908665E+02  0.13143242338E+03  0.91187600000E+02 0.  0.
<mgrwt>
<rscale>  0 0.18322877E+04</rscale>
<asrwt>0</asrwt>
<pdfrwt beam="1">  1        1 0.28869647E+00 0.18322877E+04</pdfrwt>
<pdfrwt beam="2">  1       -1 0.68811204E-01 0.18322877E+04</pdfrwt>
<totfact> 0.72682581E+00</totfact>
</mgrwt>
</event>
<event>
11    1  0.2499789E-014  0.1229302E+04  0.7818608E-02  0.9087588E-01
         -1   -1    0    0    0  501 -0.00000000000E+00  0.00000000000E+00  0.95579284880E+03  0.95579284880E+03  0.00000000000E+00 0.  1.
          1   -1    0    0  501    0  0.00000000000E+00 -0.00000000000E+00 -0.39526943420E+03  0.39526943420E+03  0.00000000000E+00 0. -1.
    9900016    2    1    2    0    0  0.45420556576E+02  0.15073102782E+03  0.76818500559E+03  0.10904740905E+04  0.75778801090E+03 0.  0.
         23    2    3    3    0    0  0.68498719904E+02 -0.94366730449E+02  0.38045934714E+02  0.15359011848E+03  0.92440666936E+02 0.  0.
        -15    1    3    3    0    0  0.10856373786E+03  0.52958981389E+02  0.12365148280E+02  0.12142337411E+03  0.00000000000E+00 0.  1.
        -15    1    4    4    0    0  0.88589560026E+02 -0.91317057279E+02  0.25652906117E+02  0.12978823786E+03  0.00000000000E+00 0.  1.
         15    1    4    4    0    0 -0.20090840121E+02 -0.30496731701E+01  0.12393028597E+02  0.23801880620E+02  0.00000000000E+00 0. -1.
         15    1    3    3    0    0 -0.98539206274E+02  0.15347216142E+03  0.46199142625E+03  0.49668879334E+03  0.00000000000E+00 0. -1.
        -16    1    3    3    0    0 -0.61336171855E+02  0.11364247123E+02  0.18922231734E+03  0.19923944757E+03  0.00000000000E+00 0.  1.
         16    1    1    2    0    0 -0.45420556576E+02 -0.15073102782E+03 -0.20766159100E+03  0.26058819252E+03  0.00000000000E+00 0. -1.
    9900018    1    3    3    0    0  0.28233476938E+02  0.27302368335E+02  0.66560179012E+02  0.11953235696E+03  0.91187600000E+02 0.  0.
<mgrwt>
<rscale>  0 0.12293018E+04</rscale>
<asrwt>0</asrwt>
<pdfrwt beam="1">  1        1 0.60810683E-01 0.12293018E+04</pdfrwt>
<pdfrwt beam="2">  1       -1 0.14704505E+00 0.12293018E+04</pdfrwt>
<totfact> 0.22161088E+01</totfact>
</mgrwt>
</event>
<event>
11    1  0.2499789E-014  0.1216477E+04  0.7818608E-02  0.9098555E-01
         -2   -1    0    0    0  501 -0.00000000000E+00  0.00000000000E+00  0.23775691007E+03  0.23775691007E+03  0.00000000000E+00 0.  1.
          2   -1    0    0  501    0  0.00000000000E+00 -0.00000000000E+00 -0.15560183283E+04  0.15560183283E+04  0.00000000000E+00 0. -1.
    9900016    2    1    2    0    0  0.86014642233E+02 -0.16827641850E+03 -0.40621499506E+03  0.81144906514E+03  0.67655265235E+03 0.  0.
         23    2    3    3    0    0  0.35313706307E+02  0.15865896886E+03 -0.18350354856E+03  0.25807645312E+03  0.80685668316E+02 0.  0.
        -15    1    3    3    0    0 -0.10937630008E+03 -0.82481001529E+02 -0.10249175527E+03  0.17108725999E+03  0.00000000000E+00 0.  1.
        -15    1    4    4    0    0  0.36074590973E+02  0.10996952055E+03 -0.71742951790E+02  0.13616799439E+03  0.00000000000E+00 0.  1.
         15    1    4    4    0    0 -0.76088466632E+00  0.48689448311E+02 -0.11176059677E+03  0.12190845874E+03  0.00000000000E+00 0. -1.
         15    1    3    3    0    0  0.12837264543E+03 -0.61645413357E+02  0.27606372947E+02  0.14505793639E+03  0.00000000000E+00 0. -1.
        -16    1    3    3    0    0  0.31704590577E+02 -0.18280897248E+03 -0.14782606418E+03  0.23722741564E+03  0.00000000000E+00 0.  1.
         16    1    1    2    0    0 -0.74984822288E+02  0.18392653590E+03 -0.84371601533E+03  0.86678048473E+03  0.00000000000E+00 0. -1.
    9900018    1    1    2    0    0 -0.11029819945E+02 -0.15650117393E+02 -0.68330407848E+02  0.11554568851E+03  0.91187600000E+02 0.  0.
<mgrwt>
<rscale>  0 0.12164771E+04</rscale>
<asrwt>0</asrwt>
<pdfrwt beam="1">  1        2 0.23938744E+00 0.12164771E+04</pdfrwt>
<pdfrwt beam="2">  1       -2 0.36577985E-01 0.12164771E+04</pdfrwt>
<totfact> 0.81847074E+01</totfact>
</mgrwt>
</event>
<event>
11    1  0.2499789E-014  0.1526169E+04  0.7818608E-02  0.8867235E-01
          2   -1    0    0  501    0  0.00000000000E+00  0.00000000000E+00  0.35259223583E+04  0.35259223583E+04  0.00000000000E+00 0.  1.
         -2   -1    0    0    0  501 -0.00000000000E+00 -0.00000000000E+00 -0.16514763211E+03  0.16514763211E+03  0.00000000000E+00 0. -1.
    9900016    2    1    2    0    0 -0.37235722702E+02  0.29761903823E+03  0.91105704916E+03  0.12230585869E+04  0.75887006074E+03 0.  0.
         23    2    3    3    0    0  0.34310792687E+02  0.17350926089E+03 -0.91984484010E+01  0.19667848911E+03  0.85528489494E+02 0.  0.
        -15    1    4    4    0    0  0.41322925092E+02  0.48071185641E+02  0.22225310272E+02  0.67174306425E+02  0.00000000000E+00 0.  1.
        -15    1    3    3    0    0 -0.29013615438E+02  0.22533340689E+02  0.19252817542E+03  0.19600163176E+03  0.00000000000E+00 0.  1.
         15    1    3    3    0    0 -0.20766256884E+02 -0.94828296569E+02  0.19849811721E+03  0.22096412784E+03  0.00000000000E+00 0. -1.
         15    1    4    4    0    0 -0.70121324044E+01  0.12543807525E+03 -0.31423758673E+02  0.12950418268E+03  0.00000000000E+00 0. -1.
        -16    1    1    2    0    0  0.37235722702E+02 -0.29761903823E+03  0.24497176770E+04  0.24680114035E+04  0.00000000000E+00 0.  1.
         16    1    3    3    0    0 -0.52549476427E+02  0.15433116177E+03  0.44766196742E+03  0.47642501199E+03  0.00000000000E+00 0. -1.
    9900018    1    3    3    0    0  0.30782833360E+02  0.42073571451E+02  0.81567237508E+02  0.13298932616E+03  0.91187600000E+02 0.  0.
<mgrwt>
<rscale>  0 0.15261687E+04</rscale>
<asrwt>0</asrwt>
<pdfrwt beam="1">  1        2 0.54244953E+00 0.15261687E+04</pdfrwt>
<pdfrwt beam="2">  1       -2 0.25407331E-01 0.15261687E+04</pdfrwt>
<totfact> 0.10619088E+01</totfact>
</mgrwt>
</event>
<event>
11    1  0.2499789E-014  0.9355535E+03  0.7818608E-02  0.9382198E-01
         -1   -1    0    0    0  501 -0.00000000000E+00  0.00000000000E+00  0.12338698614E+03  0.12338698614E+03  0.00000000000E+00 0.  1.
          1   -1    0    0  501    0  0.00000000000E+00 -0.00000000000E+00 -0.17734048073E+04  0.17734048073E+04  0.00000000000E+00 0. -1.
    9900016    2    1    2    0    0  0.36359929053E+02 -0.12341833213E+03 -0.12432280765E+04  0.14123290575E+04  0.65764974498E+03 0.  0.
         23    2    3    3    0    0 -0.66544395215E+02 -0.10960689820E+03 -0.16116003147E+03  0.22541934545E+03  0.91648769175E+02 0.  0.
        -15    1    4    4    0    0 -0.73703368686E+02 -0.12244134322E+03 -0.14576462771E+03  0.20413572881E+03  0.00000000000E+00 0.  1.
        -15    1    3    3    0    0  0.22522734724E+02  0.38964533584E+02 -0.89325471563E+02  0.10002273905E+03  0.00000000000E+00 0.  1.
         15    1    4    4    0    0  0.71589734708E+01  0.12834445023E+02 -0.15395403758E+02  0.21283616636E+02  0.00000000000E+00 0. -1.
         15    1    3    3    0    0 -0.22376402061E+02 -0.19128569298E+03 -0.82177611952E+03  0.84404200744E+03  0.00000000000E+00 0. -1.
        -16    1    1    2    0    0 -0.79413677059E+02  0.10000847627E+03 -0.10473154768E+03  0.16515727204E+03  0.00000000000E+00 0.  1.
         16    1    3    3    0    0  0.10275799161E+03  0.13850972546E+03 -0.17096645399E+03  0.24284496552E+03  0.00000000000E+00 0. -1.
    9900018    1    1    2    0    0  0.43053748007E+02  0.23409855866E+02 -0.30205819692E+03  0.31930546392E+03  0.91187600000E+02 0.  0.
<mgrwt>
<rscale>  0 0.93555347E+03</rscale>
<asrwt>0</asrwt>
<pdfrwt beam="1">  1        1 0.27283150E+00 0.93555347E+03</pdfrwt>
<pdfrwt beam="2">  1       -1 0.18982614E-01 0.93555347E+03</pdfrwt>
<totfact> 0.95707377E+01</totfact>
</mgrwt>
</event>
<event>
11    1  0.2499789E-014  0.9666077E+03  0.7818608E-02  0.9345947E-01
          1   -1    0    0  501    0  0.00000000000E+00  0.00000000000E+00  0.99721888568E+03  0.99721888568E+03  0.00000000000E+00 0. -1.
         -1   -1    0    0    0  501 -0.00000000000E+00 -0.00000000000E+00 -0.23423405018E+03  0.23423405018E+03  0.00000000000E+00 0.  1.
    9900016    2    1    2    0    0  0.30801048383E+02  0.21634374622E+02  0.73637920707E+03  0.10010562047E+04  0.67708377441E+03 0.  0.
         23    2    3    3    0    0  0.33626302279E+02 -0.89297058353E+02  0.46737471776E+02  0.13384365692E+03  0.81394351122E+02 0.  0.
        -15    1    4    4    0    0 -0.15033462512E+02  0.45136673618E+01  0.18882319478E+02  0.24554432941E+02  0.00000000000E+00 0. -1.
        -15    1    3    3    0    0  0.89074085696E+01  0.65697942230E+02  0.95641919996E+01  0.66985336524E+02  0.00000000000E+00 0.  1.
         15    1    4    4    0    0  0.48659764791E+02 -0.93810725715E+02  0.27855152297E+02  0.10928922398E+03  0.00000000000E+00 0.  1.
         15    1    3    3    0    0 -0.11699304277E+03 -0.11999234501E+03  0.52278511112E+03  0.54898980621E+03  0.00000000000E+00 0. -1.
        -16    1    1    2    0    0 -0.33773980337E+02 -0.24593886072E+02 -0.79876141042E+02  0.90142880405E+02  0.00000000000E+00 0.  1.
         16    1    3    3    0    0  0.10526038031E+03  0.16522583575E+03  0.15729243217E+03  0.25123740502E+03  0.00000000000E+00 0. -1.
    9900018    1    1    2    0    0  0.29729319537E+01  0.29595114493E+01  0.10648176948E+03  0.14025385078E+03  0.91187600000E+02 0.  0.
<mgrwt>
<rscale>  0 0.96660771E+03</rscale>
<asrwt>0</asrwt>
<pdfrwt beam="1">  1        1 0.15341829E+00 0.96660771E+03</pdfrwt>
<pdfrwt beam="2">  1       -1 0.36036008E-01 0.96660771E+03</pdfrwt>
<totfact> 0.11233601E+02</totfact>
</mgrwt>
</event>
<event>
11    1  0.2499789E-014  0.1047263E+04  0.7818608E-02  0.9258174E-01
          1   -1    0    0  501    0  0.00000000000E+00  0.00000000000E+00  0.10259384999E+04  0.10259384999E+04  0.00000000000E+00 0. -1.
         -1   -1    0    0    0  501 -0.00000000000E+00 -0.00000000000E+00 -0.26725765121E+03  0.26725765121E+03  0.00000000000E+00 0.  1.
    9900016    2    1    2    0    0  0.90715861784E+02  0.23471800606E+03  0.51916958013E+03  0.94579500301E+03  0.74944594524E+03 0.  0.
         23    2    3    3    0    0  0.57796586875E+02  0.15639155902E+02  0.19641078412E+03  0.22462177156E+03  0.91064348063E+02 0.  0.
        -15    1    3    3    0    0  0.13203310823E+03 -0.57409993693E+02  0.13485184343E+03  0.19726547777E+03  0.00000000000E+00 0.  1.
        -15    1    4    4    0    0  0.74398253600E+02  0.21920462295E+02  0.99804641804E+02  0.12639847045E+03  0.00000000000E+00 0. -1.
         15    1    3    3    0    0 -0.18693031456E+03  0.18336924074E+03  0.80193532149E+02  0.27385803539E+03  0.00000000000E+00 0. -1.
         15    1    4    4    0    0 -0.16601666725E+02 -0.62813063933E+01  0.96606142315E+02  0.98223301110E+02  0.00000000000E+00 0.  1.
        -16    1    3    3    0    0  0.91891683846E+02  0.97514816795E+02  0.57826838670E+02  0.14593548001E+03  0.00000000000E+00 0.  1.
         16    1    1    2    0    0 -0.90715861784E+02 -0.23471800606E+03  0.23951126859E+03  0.34740114814E+03  0.00000000000E+00 0. -1.
    9900018    1    3    3    0    0 -0.40752026078E+01 -0.43952136860E+01  0.49886581762E+02  0.10411423828E+03  0.91187600000E+02 0.  0.
<mgrwt>
<rscale>  0 0.10472629E+04</rscale>
<asrwt>0</asrwt>
<pdfrwt beam="1">  1        1 0.15783669E+00 0.10472629E+04</pdfrwt>
<pdfrwt beam="2">  1       -1 0.41116562E-01 0.10472629E+04</pdfrwt>
<totfact> 0.83548564E+01</totfact>
</mgrwt>
</event>
<event>
11    1  0.2499789E-014  0.1025424E+04  0.7818608E-02  0.9281091E-01
          2   -1    0    0  501    0  0.00000000000E+00  0.00000000000E+00  0.20580765344E+03  0.20580765344E+03  0.00000000000E+00 0. -1.
         -2   -1    0    0    0  501 -0.00000000000E+00 -0.00000000000E+00 -0.12772788940E+04  0.12772788940E+04  0.00000000000E+00 0.  1.
    9900016    2    1    2    0    0  0.12215188703E+03  0.20124078529E+03 -0.72710826347E+03  0.10659477250E+04  0.74306068967E+03 0.  0.
         23    2    3    3    0    0  0.13627890135E+03 -0.15532685723E+02 -0.15686170755E+03  0.22744163474E+03  0.91164130224E+02 0.  0.
        -15    1    4    4    0    0  0.61447566683E+02 -0.11726833833E+02 -0.11078150883E+02  0.63529894617E+02  0.00000000000E+00 0. -1.
        -15    1    3    3    0    0  0.14845786808E+03  0.22706607205E+03 -0.14348932870E+03  0.30690051665E+03  0.00000000000E+00 0.  1.
         15    1    3    3    0    0 -0.16319871639E+02 -0.45982562678E+02 -0.11175325545E+03  0.12194065927E+03  0.00000000000E+00 0. -1.
         15    1    4    4    0    0  0.74831334670E+02 -0.38058518903E+01 -0.14578355666E+03  0.16391174012E+03  0.00000000000E+00 0.  1.
        -16    1    3    3    0    0 -0.16452526834E+03  0.12336417631E+02 -0.21647623216E+03  0.27218139211E+03  0.00000000000E+00 0.  1.
         16    1    1    2    0    0 -0.12215188703E+03 -0.20124078529E+03 -0.34436297704E+03  0.41713882236E+03  0.00000000000E+00 0. -1.
    9900018    1    3    3    0    0  0.18260257572E+02  0.23353544010E+02 -0.98527739622E+02  0.13748352226E+03  0.91187600000E+02 0.  0.
<mgrwt>
<rscale>  0 0.10254243E+04</rscale>
<asrwt>0</asrwt>
<pdfrwt beam="1">  1        2 0.31662715E-01 0.10254243E+04</pdfrwt>
<pdfrwt beam="2">  1       -2 0.19650445E+00 0.10254243E+04</pdfrwt>
<totfact> 0.23436998E+01</totfact>
</mgrwt>
</event>
<event>
11    1  0.2499789E-014  0.1642067E+04  0.7818608E-02  0.8795113E-01
          2   -1    0    0  501    0  0.00000000000E+00  0.00000000000E+00  0.26030247857E+04  0.26030247857E+04  0.00000000000E+00 0. -1.
         -2   -1    0    0    0  501 -0.00000000000E+00 -0.00000000000E+00 -0.25896650083E+03  0.25896650083E+03  0.00000000000E+00 0.  1.
    9900016    2    1    2    0    0 -0.39257059394E+03 -0.31871348320E+03  0.14755174976E+04  0.16951687417E+04  0.66389398366E+03 0.  0.
         23    2    3    3    0    0 -0.37354378200E+02 -0.51487130416E+01  0.77168648778E+02  0.12531263968E+03  0.91249101330E+02 0.  0.
        -15    1    4    4    0    0 -0.55948320343E+02 -0.11698332238E+02  0.86359477904E+02  0.10356169635E+03  0.00000000000E+00 0. -1.
        -15    1    3    3    0    0 -0.32217350939E+03 -0.19311577350E+03  0.36315204242E+03  0.52246423613E+03  0.00000000000E+00 0.  1.
         15    1    3    3    0    0 -0.27989470105E+02 -0.11828076375E+03  0.60138258784E+03  0.61354279922E+03  0.00000000000E+00 0. -1.
         15    1    4    4    0    0  0.18593942143E+02  0.65496191965E+01 -0.91908291254E+01  0.21750943337E+02  0.00000000000E+00 0.  1.
        -16    1    3    3    0    0 -0.50532362421E+01 -0.21682329104E+01  0.43381421854E+03  0.43384906665E+03  0.00000000000E+00 0.  1.
         16    1    1    2    0    0  0.45266747408E+03  0.40548160071E+03  0.55232501116E+03  0.82121013666E+03  0.00000000000E+00 0. -1.
    9900018    1    1    2    0    0 -0.60096880139E+02 -0.86768117507E+02  0.31621577618E+03  0.34561240822E+03  0.91187600000E+02 0.  0.
<mgrwt>
<rscale>  0 0.16420673E+04</rscale>
<asrwt>0</asrwt>
<pdfrwt beam="1">  1        2 0.40046533E+00 0.16420673E+04</pdfrwt>
<pdfrwt beam="2">  1       -2 0.39841002E-01 0.16420673E+04</pdfrwt>
<totfact> 0.17311015E+01</totfact>
</mgrwt>
</event>
<event>
11    1  0.2499789E-014  0.9740173E+03  0.7818608E-02  0.9337510E-01
          5   -1    0    0  501    0  0.00000000000E+00  0.00000000000E+00  0.15088957120E+04  0.15088957120E+04  0.00000000000E+00 0. -1.
         -5   -1    0    0    0  501 -0.00000000000E+00 -0.00000000000E+00 -0.15718610130E+03  0.15718610130E+03  0.00000000000E+00 0.  1.
    9900016    2    1    2    0    0  0.39217094227E+02  0.11895922032E+03  0.89853334790E+03  0.11211506059E+04  0.65873152890E+03 0.  0.
         23    2    3    3    0    0 -0.75318617815E+02  0.14717868369E+02  0.21783305970E+03  0.24885107996E+03  0.92661255434E+02 0.  0.
        -15    1    4    4    0    0 -0.97349449137E+02  0.12432134938E+02  0.17968004455E+03  0.20473493018E+03  0.00000000000E+00 0.  1.
        -15    1    3    3    0    0  0.16696657858E+03  0.28252225156E+03  0.48363993736E+03  0.58446920364E+03  0.00000000000E+00 0.  1.
         15    1    3    3    0    0 -0.75309140410E+02 -0.85070249566E+02  0.10052243802E+03  0.15170093782E+03  0.00000000000E+00 0. -1.
         15    1    4    4    0    0  0.22030831322E+02  0.22857334319E+01  0.38153015147E+02  0.44116149774E+02  0.00000000000E+00 0. -1.
        -16    1    3    3    0    0  0.22878273873E+02 -0.93210650050E+02  0.96537912822E+02  0.13612938445E+03  0.00000000000E+00 0.  1.
         16    1    1    2    0    0 -0.21544858775E+02 -0.16604119992E+03  0.38668699089E+03  0.42137950820E+03  0.00000000000E+00 0. -1.
    9900018    1    1    2    0    0 -0.17672235452E+02  0.47081979600E+02  0.66489271895E+02  0.12355169922E+03  0.91187600000E+02 0.  0.
<mgrwt>
<rscale>  0 0.97401732E+03</rscale>
<asrwt>0</asrwt>
<pdfrwt beam="1">  1        5 0.23213779E+00 0.97401732E+03</pdfrwt>
<pdfrwt beam="2">  1       -5 0.24182478E-01 0.97401732E+03</pdfrwt>
<totfact> 0.10958143E+00</totfact>
</mgrwt>
</event>
<event>
11    1  0.2499789E-014  0.1534168E+04  0.7818608E-02  0.8862044E-01
         -2   -1    0    0    0  501 -0.00000000000E+00  0.00000000000E+00  0.53973934061E+03  0.53973934061E+03  0.00000000000E+00 0.  1.
          2   -1    0    0  501    0  0.00000000000E+00 -0.00000000000E+00 -0.10901889495E+04  0.10901889495E+04  0.00000000000E+00 0. -1.
    9900016    2    1    2    0    0  0.47516941444E+03  0.33211370997E+03 -0.35785998974E+03  0.10190467548E+04  0.75783047407E+03 0.  0.
         23    2    3    3    0    0 -0.17986337382E+02  0.24160672924E+02 -0.27923836721E+02  0.99217254012E+02  0.90316534411E+02 0.  0.
        -15    1    3    3    0    0  0.46576468876E+03  0.28782902071E+03 -0.13002833514E+03  0.56275186219E+03  0.00000000000E+00 0.  1.
        -15    1    4    4    0    0 -0.32727091883E+01  0.15331181987E+02  0.32672173718E+02  0.36238469918E+02  0.00000000000E+00 0.  1.
         15    1    3    3    0    0 -0.29419321273E+02 -0.68732927597E+02  0.62506357146E+01  0.75025210743E+02  0.00000000000E+00 0. -1.
         15    1    4    4    0    0 -0.14713628194E+02  0.88294909372E+01 -0.60596010439E+02  0.62978784094E+02  0.00000000000E+00 0. -1.
        -16    1    3    3    0    0 -0.10048730172E+02  0.17451774007E+01 -0.10879263820E+03  0.10926966985E+03  0.00000000000E+00 0.  1.
         16    1    1    2    0    0 -0.47516941444E+03 -0.33211370997E+03 -0.19258961913E+03  0.61088153529E+03  0.00000000000E+00 0. -1.
    9900018    1    3    3    0    0  0.66859114503E+02  0.87111766533E+02 -0.97365815393E+02  0.17278275800E+03  0.91187600000E+02 0.  0.
<mgrwt>
<rscale>  0 0.15341680E+04</rscale>
<asrwt>0</asrwt>
<pdfrwt beam="1">  1        2 0.16772137E+00 0.15341680E+04</pdfrwt>
<pdfrwt beam="2">  1       -2 0.83036823E-01 0.15341680E+04</pdfrwt>
<totfact> 0.27059438E+01</totfact>
</mgrwt>
</event>
<event>
11    1  0.2499789E-014  0.1075847E+04  0.7818608E-02  0.9229058E-01
         -2   -1    0    0    0  501 -0.00000000000E+00  0.00000000000E+00  0.65567743396E+02  0.65567743396E+02  0.00000000000E+00 0.  1.
          2   -1    0    0  501    0  0.00000000000E+00 -0.00000000000E+00 -0.44131739113E+04  0.44131739113E+04  0.00000000000E+00 0. -1.
    9900016    2    1    2    0    0 -0.56069969576E+02 -0.13808104116E+03 -0.23804757856E+04  0.25059740160E+04  0.76878513740E+03 0.  0.
         23    2    3    3    0    0 -0.20789996081E+02 -0.59490198185E+02 -0.99280325407E+02  0.14873480837E+03  0.91072238310E+02 0.  0.
        -15    1    3    3    0    0  0.14335502605E+03  0.12352990949E+03 -0.46645756103E+03  0.50338152357E+03  0.00000000000E+00 0.  1.
        -15    1    4    4    0    0  0.36132352540E+02 -0.25871776403E+02 -0.44338385372E+02  0.62775696983E+02  0.00000000000E+00 0. -1.
         15    1    3    3    0    0 -0.11831295741E+03 -0.22742539657E+03 -0.13636666191E+04  0.13875542926E+04  0.00000000000E+00 0. -1.
         15    1    4    4    0    0 -0.56922348621E+02 -0.33618421782E+02 -0.54941940035E+02  0.85959111387E+02  0.00000000000E+00 0.  1.
        -16    1    3    3    0    0 -0.20298556065E+01 -0.71741791778E+00 -0.50724864721E+02  0.50770531839E+02  0.00000000000E+00 0.  1.
         16    1    1    2    0    0  0.56069969576E+02  0.13808104116E+03 -0.19671303822E+04  0.19727676387E+04  0.00000000000E+00 0. -1.
    9900018    1    3    3    0    0 -0.58292186527E+02  0.26022062020E+02 -0.40034641537E+03  0.41553285961E+03  0.91187600000E+02 0.  0.
<mgrwt>
<rscale>  0 0.10758473E+04</rscale>
<asrwt>0</asrwt>
<pdfrwt beam="1">  1        2 0.67895015E+00 0.10758473E+04</pdfrwt>
<pdfrwt beam="2">  1       -2 0.10087340E-01 0.10758473E+04</pdfrwt>
<totfact> 0.10748886E+01</totfact>
</mgrwt>
</event>
<event>
11    1  0.2499789E-014  0.1229348E+04  0.7818608E-02  0.9087549E-01
          2   -1    0    0  501    0  0.00000000000E+00  0.00000000000E+00  0.15264351826E+04  0.15264351826E+04  0.00000000000E+00 0. -1.
         -2   -1    0    0    0  501 -0.00000000000E+00 -0.00000000000E+00 -0.24752077233E+03  0.24752077233E+03  0.00000000000E+00 0.  1.
    9900016    2    1    2    0    0  0.16432590871E+03 -0.58493896775E+02  0.34626320358E+03  0.76913579829E+03  0.66426435237E+03 0.  0.
         23    2    3    3    0    0  0.10611173248E+03 -0.78767221460E+02  0.94196037984E+02  0.18176329456E+03  0.81859799226E+02 0.  0.
        -15    1    4    4    0    0  0.11288498653E+03 -0.50349488221E+02  0.88444950018E+02  0.15198881647E+03  0.00000000000E+00 0. -1.
        -15    1    3    3    0    0  0.19369388042E+03 -0.77807357593E+01 -0.77128572012E+02  0.20863047664E+03  0.00000000000E+00 0.  1.
         15    1    4    4    0    0 -0.67732540430E+01 -0.28417733239E+02  0.57510879663E+01  0.29774478091E+02  0.00000000000E+00 0.  1.
         15    1    3    3    0    0 -0.14369817006E+03 -0.92441173426E+01  0.21884657755E+03  0.26197030803E+03  0.00000000000E+00 0. -1.
        -16    1    3    3    0    0  0.82184658660E+01  0.37298177787E+02  0.11034916005E+03  0.11677171906E+03  0.00000000000E+00 0.  1.
         16    1    1    2    0    0 -0.18129194052E+03  0.50599919385E+02  0.87568528527E+03  0.89568512234E+03  0.00000000000E+00 0. -1.
    9900018    1    1    2    0    0  0.16966031809E+02  0.78939773895E+01  0.56965921411E+02  0.10913503429E+03  0.91187600000E+02 0.  0.
<mgrwt>
<rscale>  0 0.12293485E+04</rscale>
<asrwt>0</asrwt>
<pdfrwt beam="1">  1        2 0.23483617E+00 0.12293485E+04</pdfrwt>
<pdfrwt beam="2">  1       -2 0.38080120E-01 0.12293485E+04</pdfrwt>
<totfact> 0.78600949E+01</totfact>
</mgrwt>
</event>
<event>
11    1  0.2499789E-014  0.8715874E+03  0.7818608E-02  0.9461812E-01
          3   -1    0    0  501    0  0.00000000000E+00  0.00000000000E+00  0.44562123108E+03  0.44562123108E+03  0.00000000000E+00 0. -1.
         -3   -1    0    0    0  501 -0.00000000000E+00 -0.00000000000E+00 -0.42618293295E+03  0.42618293295E+03  0.00000000000E+00 0.  1.
    9900016    2    1    2    0    0  0.22055513903E+02 -0.26425566527E+02  0.92065955520E+02  0.67943147481E+03  0.67228433905E+03 0.  0.
         23    2    3    3    0    0  0.24217265569E+03 -0.20630140681E+02  0.73332142172E+02  0.27017246305E+03  0.92424882209E+02 0.  0.
        -15    1    4    4    0    0  0.15597377078E+03 -0.14396253005E+02  0.92137518314E+02  0.18172614439E+03  0.00000000000E+00 0.  1.
        -15    1    3    3    0    0 -0.10225728264E+03 -0.33756263506E+02 -0.73935693060E+02  0.13062359621E+03  0.00000000000E+00 0.  1.
         15    1    3    3    0    0 -0.15817944687E+03  0.94475057803E+02  0.74658432782E+02  0.19879676946E+03  0.00000000000E+00 0. -1.
         15    1    4    4    0    0  0.86198884903E+02 -0.62338876764E+01 -0.18805376142E+02  0.88446318668E+02  0.00000000000E+00 0. -1.
        -16    1    1    2    0    0 -0.42552500539E+02  0.28848077091E+02 -0.83697646809E+02  0.98225368085E+02  0.00000000000E+00 0.  1.
         16    1    3    3    0    0  0.40319587732E+02 -0.66514220143E+02  0.18011073625E+02  0.79838646088E+02  0.00000000000E+00 0. -1.
    9900018    1    1    2    0    0  0.20496986636E+02 -0.24225105640E+01  0.11069989415E+02  0.94147321141E+02  0.91187600000E+02 0.  0.
<mgrwt>
<rscale>  0 0.87158743E+03</rscale>
<asrwt>0</asrwt>
<pdfrwt beam="1">  1        3 0.68557113E-01 0.87158743E+03</pdfrwt>
<pdfrwt beam="2">  1       -3 0.65566605E-01 0.87158743E+03</pdfrwt>
<totfact> 0.12073054E+01</totfact>
</mgrwt>
</event>
<event>
11    1  0.2499789E-014  0.8955218E+03  0.7818608E-02  0.9431197E-01
          1   -1    0    0  501    0  0.00000000000E+00  0.00000000000E+00  0.97511638771E+03  0.97511638771E+03  0.00000000000E+00 0. -1.
         -1   -1    0    0    0  501 -0.00000000000E+00 -0.00000000000E+00 -0.20560606203E+03  0.20560606203E+03  0.00000000000E+00 0.  1.
    9900016    2    1    2    0    0  0.40848840509E+02 -0.71268972983E+02  0.52105562023E+03  0.85841374601E+03  0.67722027855E+03 0.  0.
         23    2    3    3    0    0 -0.56165719625E+02  0.62982913884E+02 -0.37488285545E+02  0.13197009012E+03  0.94283071820E+02 0.  0.
        -15    1    3    3    0    0  0.21306462118E+03 -0.10996525004E+03  0.15198578149E+03  0.28388125473E+03  0.00000000000E+00 0.  1.
        -15    1    4    4    0    0 -0.17795521575E+02 -0.12508141517E+02 -0.41860502152E+02  0.47174525252E+02  0.00000000000E+00 0. -1.
         15    1    3    3    0    0 -0.53918176597E+02  0.52556855142E+02  0.15598042031E+03  0.17320301473E+03  0.00000000000E+00 0. -1.
         15    1    4    4    0    0 -0.38370198050E+02  0.75491055401E+02  0.43722166070E+01  0.84795564872E+02  0.00000000000E+00 0.  1.
        -16    1    3    3    0    0 -0.62131884448E+02 -0.76843491972E+02  0.25057770398E+03  0.26935938642E+03  0.00000000000E+00 0.  1.
         16    1    1    2    0    0 -0.49819243004E+02  0.88812218339E+02  0.17923177324E+03  0.20613974784E+03  0.00000000000E+00 0. -1.
    9900018    1    1    2    0    0  0.89704024945E+01 -0.17543245356E+02  0.69222932196E+02  0.11616895590E+03  0.91187600000E+02 0.  0.
<mgrwt>
<rscale>  0 0.89552184E+03</rscale>
<asrwt>0</asrwt>
<pdfrwt beam="1">  1        1 0.15001790E+00 0.89552184E+03</pdfrwt>
<pdfrwt beam="2">  1       -1 0.31631702E-01 0.89552184E+03</pdfrwt>
<totfact> 0.14805470E+02</totfact>
</mgrwt>
</event>
<event>
11    1  0.2499789E-014  0.8565873E+03  0.7818608E-02  0.9481538E-01
          1   -1    0    0  501    0  0.00000000000E+00  0.00000000000E+00  0.50448453341E+03  0.50448453341E+03  0.00000000000E+00 0. -1.
         -1   -1    0    0    0  501 -0.00000000000E+00 -0.00000000000E+00 -0.36360964728E+03  0.36360964728E+03  0.00000000000E+00 0.  1.
    9900016    2    1    2    0    0  0.23494588779E+01  0.51979574891E+02  0.19866687676E+03  0.79032972645E+03  0.76318094343E+03 0.  0.
         23    2    3    3    0    0 -0.35719471045E+01  0.85775791531E+02  0.22890298602E+03  0.26076399518E+03  0.90725073468E+02 0.  0.
        -15    1    4    4    0    0 -0.24654703973E+02  0.50654674323E+02  0.44290990219E+02  0.71662000205E+02  0.00000000000E+00 0.  1.
        -15    1    3    3    0    0 -0.15478683350E+03 -0.91334282629E+02 -0.19917433168E+02  0.18082483002E+03  0.00000000000E+00 0.  1.
         15    1    4    4    0    0  0.21082756869E+02  0.35121117209E+02  0.18461199580E+03  0.18910199498E+03  0.00000000000E+00 0. -1.
         15    1    3    3    0    0  0.15025038855E+03  0.10405678797E+03 -0.12345345408E+02  0.18318133621E+03  0.00000000000E+00 0. -1.
        -16    1    1    2    0    0 -0.23494588779E+01 -0.51979574891E+02 -0.57791990636E+02  0.77764454248E+02  0.00000000000E+00 0.  1.
         16    1    3    3    0    0 -0.42974955884E+02 -0.19711709975E+02 -0.24632299162E+02  0.53311804559E+02  0.00000000000E+00 0. -1.
    9900018    1    3    3    0    0  0.53432806815E+02 -0.26807012004E+02  0.26658968484E+02  0.11224776047E+03  0.91187600000E+02 0.  0.
<mgrwt>
<rscale>  0 0.85658728E+03</rscale>
<asrwt>0</asrwt>
<pdfrwt beam="1">  1        1 0.77613005E-01 0.85658728E+03</pdfrwt>
<pdfrwt beam="2">  1       -1 0.55939946E-01 0.85658728E+03</pdfrwt>
<totfact> 0.14290655E+02</totfact>
</mgrwt>
</event>
<event>
11    1  0.2499789E-014  0.1107856E+04  0.7818608E-02  0.9197568E-01
         -4   -1    0    0    0  501 -0.00000000000E+00  0.00000000000E+00  0.61120623069E+03  0.61120623069E+03  0.00000000000E+00 0.  1.
          4   -1    0    0  501    0  0.00000000000E+00 -0.00000000000E+00 -0.50201771953E+03  0.50201771953E+03  0.00000000000E+00 0. -1.
    9900016    2    1    2    0    0 -0.13738967724E+03  0.14076763283E+03 -0.77462550034E+02  0.69421845439E+03  0.66124682676E+03 0.  0.
         23    2    3    3    0    0  0.12533660558E+03 -0.57551783873E+01 -0.16532150582E+03  0.22311961669E+03  0.81907119889E+02 0.  0.
        -15    1    4    4    0    0  0.63346412695E+02 -0.43836651184E+02 -0.82169340803E+02  0.11263312371E+03  0.00000000000E+00 0.  1.
        -15    1    3    3    0    0 -0.63962724492E+02  0.33076109520E+02  0.56540122489E+02  0.91553506740E+02  0.00000000000E+00 0.  1.
         15    1    3    3    0    0 -0.22376975533E+03  0.10419378844E+03 -0.84342589797E+02  0.26085038126E+03  0.00000000000E+00 0. -1.
         15    1    4    4    0    0  0.61990192886E+02  0.38081472797E+02 -0.83152165016E+02  0.11048649298E+03  0.00000000000E+00 0. -1.
        -16    1    1    2    0    0  0.19226023516E+03 -0.14518681759E+03  0.19805742260E+03  0.31188131184E+03  0.00000000000E+00 0.  1.
         16    1    3    3    0    0  0.25006197005E+02  0.92529132614E+01  0.11566142310E+03  0.11869494970E+03  0.00000000000E+00 0. -1.
    9900018    1    1    2    0    0 -0.54870557926E+02  0.44191847567E+01 -0.11406361400E+02  0.10712418399E+03  0.91187600000E+02 0.  0.
<mgrwt>
<rscale>  0 0.11078562E+04</rscale>
<asrwt>0</asrwt>
<pdfrwt beam="1">  1        4 0.77233495E-01 0.11078562E+04</pdfrwt>
<pdfrwt beam="2">  1       -4 0.94031728E-01 0.11078562E+04</pdfrwt>
<totfact> 0.28366578E+00</totfact>
</mgrwt>
</event>
<event>
11    1  0.2662447E-014  0.1694215E+04  0.7818608E-02  0.8764671E-01
          2   -1    0    0  501    0  0.00000000000E+00  0.00000000000E+00  0.99232388700E+03  0.99232388700E+03  0.00000000000E+00 0. -1.
         -2   -1    0    0    0  501 -0.00000000000E+00 -0.00000000000E+00 -0.72314213241E+03  0.72314213241E+03  0.00000000000E+00 0.  1.
    9900016    2    1    2    0    0  0.15965642801E+03  0.37842594254E+03  0.45643550094E+03  0.90013421913E+03  0.65818832938E+03 0.  0.
         23    2    3    3    0    0  0.40154715012E+02  0.25315335776E+03  0.31604093547E+03  0.41716183875E+03  0.91886359845E+02 0.  0.
        -15    1    4    4    0    0  0.57219624001E+02  0.13467527616E+03  0.12885138787E+03  0.19497229428E+03  0.00000000000E+00 0.  1.
        -15    1    3    3    0    0 -0.77373965122E+02  0.73228099895E+02 -0.44910989502E+02  0.11561177306E+03  0.00000000000E+00 0.  1.
         15    1    3    3    0    0  0.25017405379E+03  0.61197584143E+02  0.17733496744E+03  0.31269776490E+03  0.00000000000E+00 0. -1.
         15    1    4    4    0    0 -0.17064908990E+02  0.11847808160E+03  0.18718954760E+03  0.22218954447E+03  0.00000000000E+00 0. -1.
        -16    1    1    2    0    0 -0.25250111752E+03 -0.49385976310E+03 -0.27656194015E+03  0.61979092176E+03  0.00000000000E+00 0.  1.
         16    1    3    3    0    0 -0.53298375672E+02 -0.91530992599E+01  0.79705875272E+01  0.54662842415E+02  0.00000000000E+00 0. -1.
    9900018    1    1    2    0    0  0.92844689512E+02  0.11543382056E+03  0.89308193800E+02  0.19554087852E+03  0.91187600000E+02 0.  0.
<mgrwt>
<rscale>  0 0.16942151E+04</rscale>
<asrwt>0</asrwt>
<pdfrwt beam="1">  1        2 0.15266521E+00 0.16942151E+04</pdfrwt>
<pdfrwt beam="2">  1       -2 0.11125264E+00 0.16942151E+04</pdfrwt>
<totfact> 0.15505217E+01</totfact>
</mgrwt>
</event>
<event>
11    1  0.2499789E-014  0.8277580E+03  0.7818608E-02  0.9520685E-01
         -2   -1    0    0    0  501 -0.00000000000E+00  0.00000000000E+00  0.27527660583E+03  0.27527660583E+03  0.00000000000E+00 0. -1.
          2   -1    0    0  501    0  0.00000000000E+00 -0.00000000000E+00 -0.62226806220E+03  0.62226806220E+03  0.00000000000E+00 0.  1.
    9900016    2    1    2    0    0 -0.11151722950E+02  0.49490448015E+02 -0.37148172784E+03  0.76111262039E+03  0.66235948052E+03 0.  0.
         23    2    3    3    0    0  0.69418143919E+02 -0.16512485951E+03 -0.27723432557E+02  0.20325396596E+03  0.91970038767E+02 0.  0.
        -15    1    4    4    0    0  0.92151950499E+02 -0.13070790615E+03 -0.18551475545E+02  0.16099905576E+03  0.00000000000E+00 0. -1.
        -15    1    3    3    0    0 -0.72701394218E+01  0.15833138292E+03 -0.14400402980E+02  0.15915103942E+03  0.00000000000E+00 0.  1.
         15    1    3    3    0    0 -0.54511854890E+02 -0.73542698644E+02 -0.16188269421E+03  0.18597332479E+03  0.00000000000E+00 0. -1.
         15    1    4    4    0    0 -0.22733806580E+02 -0.34416953362E+02 -0.91719570115E+01  0.42254910197E+02  0.00000000000E+00 0.  1.
        -16    1    3    3    0    0 -0.18787872558E+02  0.12982662326E+03 -0.16747519809E+03  0.21273429022E+03  0.00000000000E+00 0.  1.
         16    1    1    2    0    0 -0.92116526682E+01 -0.23504764582E+02  0.30105691391E+02  0.39289708030E+02  0.00000000000E+00 0. -1.
    9900018    1    1    2    0    0  0.20363375618E+02 -0.25985683433E+02 -0.56154199171E+01  0.97142339609E+02  0.91187600000E+02 0.  0.
<mgrwt>
<rscale>  0 0.82775803E+03</rscale>
<asrwt>0</asrwt>
<pdfrwt beam="1">  1        2 0.95733546E-01 0.82775803E+03</pdfrwt>
<pdfrwt beam="2">  1       -2 0.42350248E-01 0.82775803E+03</pdfrwt>
<totfact> 0.25207764E+02</totfact>
</mgrwt>
</event>
<event>
11    1  0.2499789E-014  0.9108548E+03  0.7818608E-02  0.9412113E-01
         -2   -1    0    0    0  501 -0.00000000000E+00  0.00000000000E+00  0.32447921689E+03  0.32447921689E+03  0.00000000000E+00 0.  1.
          2   -1    0    0  501    0  0.00000000000E+00 -0.00000000000E+00 -0.63922153661E+03  0.63922153661E+03  0.00000000000E+00 0. -1.
    9900016    2    1    2    0    0  0.84126490738E+02 -0.14191898520E+02 -0.15338441700E+03  0.67383262541E+03  0.65057278706E+03 0.  0.
         23    2    3    3    0    0  0.79367178806E+02  0.45333231837E+02 -0.18479090069E+03  0.22533463323E+03  0.90960260406E+02 0.  0.
        -15    1    4    4    0    0  0.36912087928E+02 -0.12383022353E+02 -0.12834981035E+03  0.13412499877E+03  0.00000000000E+00 0. -1.
        -15    1    3    3    0    0  0.21070989621E+03  0.28708448217E+01  0.38539127342E+02  0.21422457012E+03  0.00000000000E+00 0.  1.
         15    1    3    3    0    0 -0.10632032252E+03 -0.23146404735E+02  0.41770078347E+02  0.11655259104E+03  0.00000000000E+00 0. -1.
         15    1    4    4    0    0  0.42455090878E+02  0.57716254190E+02 -0.56441090340E+02  0.91209634458E+02  0.00000000000E+00 0.  1.
        -16    1    3    3    0    0 -0.99630261758E+02 -0.39249570443E+02 -0.48902721996E+02  0.11772083102E+03  0.00000000000E+00 0.  1.
         16    1    1    2    0    0 -0.73984915986E+02 -0.63443292611E+02 -0.13553195951E+03  0.16693630887E+03  0.00000000000E+00 0. -1.
    9900018    1    1    2    0    0 -0.10141574752E+02  0.77635191131E+02 -0.25825943211E+02  0.12293181922E+03  0.91187600000E+02 0.  0.
<mgrwt>
<rscale>  0 0.91085477E+03</rscale>
<asrwt>0</asrwt>
<pdfrwt beam="1">  1        2 0.98341775E-01 0.91085477E+03</pdfrwt>
<pdfrwt beam="2">  1       -2 0.49919880E-01 0.91085477E+03</pdfrwt>
<totfact> 0.17476636E+02</totfact>
</mgrwt>
</event>
<event>
11    1  0.2499789E-014  0.1082481E+04  0.7818608E-02  0.9222437E-01
          2   -1    0    0  501    0  0.00000000000E+00  0.00000000000E+00  0.39797322415E+03  0.39797322415E+03  0.00000000000E+00 0. -1.
         -2   -1    0    0    0  501 -0.00000000000E+00 -0.00000000000E+00 -0.73608336528E+03  0.73608336528E+03  0.00000000000E+00 0.  1.
    9900016    2    1    2    0    0  0.14186967030E+03  0.12378709444E+03 -0.46024160742E+03  0.90963211849E+03  0.76168103934E+03 0.  0.
         23    2    3    3    0    0  0.19046566683E+03 -0.87129023505E+02 -0.23729832368E+03  0.32913260280E+03  0.90272580684E+02 0.  0.
        -15    1    4    4    0    0  0.42468410491E+02 -0.66087116322E+02 -0.79124595603E+02  0.11149786753E+03  0.00000000000E+00 0. -1.
        -15    1    3    3    0    0  0.41239988548E+02 -0.67404338111E+02 -0.26500888386E+02  0.83344937080E+02  0.00000000000E+00 0.  1.
         15    1    4    4    0    0  0.14799725634E+03 -0.21041907183E+02 -0.15817372808E+03  0.21763473527E+03  0.00000000000E+00 0.  1.
         15    1    3    3    0    0 -0.26623249532E+02  0.19664101837E+03 -0.30871746967E+02  0.20082219071E+03  0.00000000000E+00 0. -1.
        -16    1    3    3    0    0 -0.85480342314E+02  0.11680049458E+03 -0.85971416058E+02  0.16834586076E+03  0.00000000000E+00 0.  1.
         16    1    1    2    0    0 -0.14186967030E+03 -0.12378709444E+03  0.12213146629E+03  0.22442447094E+03  0.00000000000E+00 0. -1.
    9900018    1    3    3    0    0  0.22267606759E+02 -0.35121056892E+02 -0.79599232328E+02  0.12798652714E+03  0.91187600000E+02 0.  0.
<mgrwt>
<rscale>  0 0.10824814E+04</rscale>
<asrwt>0</asrwt>
<pdfrwt beam="1">  1        2 0.61226650E-01 0.10824814E+04</pdfrwt>
<pdfrwt beam="2">  1       -2 0.11324359E+00 0.10824814E+04</pdfrwt>
<totfact> 0.48655436E+01</totfact>
</mgrwt>
</event>
<event>
11    1  0.2499789E-014  0.8965919E+03  0.7818608E-02  0.9429852E-01
          2   -1    0    0  501    0  0.00000000000E+00  0.00000000000E+00  0.17153115453E+04  0.17153115453E+04  0.00000000000E+00 0. -1.
         -2   -1    0    0    0  501 -0.00000000000E+00 -0.00000000000E+00 -0.11716196313E+03  0.11716196313E+03  0.00000000000E+00 0.  1.
    9900016    2    1    2    0    0  0.72852429651E+02 -0.63503891026E+02  0.12401492080E+04  0.14127637637E+04  0.66976949259E+03 0.  0.
         23    2    3    3    0    0 -0.10385090490E+03 -0.24286659004E+03  0.47062995027E+03  0.54716206220E+03  0.90136458857E+02 0.  0.
        -15    1    3    3    0    0  0.16252376657E+03  0.26155775845E+03  0.63152857631E+03  0.70260570621E+03  0.00000000000E+00 0.  1.
        -15    1    4    4    0    0 -0.87808246213E+02 -0.92811026923E+02  0.20091830046E+03  0.23810152936E+03  0.00000000000E+00 0.  1.
         15    1    3    3    0    0 -0.47293280508E+01 -0.11653675366E+02  0.12082929537E+02  0.17440524062E+02  0.00000000000E+00 0. -1.
         15    1    4    4    0    0 -0.16042658688E+02 -0.15005556312E+03  0.26971164981E+03  0.30906053285E+03  0.00000000000E+00 0. -1.
        -16    1    3    3    0    0  0.18908896028E+02 -0.70541384066E+02  0.12590775191E+03  0.14555547123E+03  0.00000000000E+00 0.  1.
         16    1    1    2    0    0 -0.10619246068E+03  0.56819446759E+02  0.17497365396E+03  0.21241720226E+03  0.00000000000E+00 0. -1.
    9900018    1    1    2    0    0  0.33340031027E+02  0.66844442667E+01  0.18302672016E+03  0.20729254244E+03  0.91187600000E+02 0.  0.
<mgrwt>
<rscale>  0 0.89659192E+03</rscale>
<asrwt>0</asrwt>
<pdfrwt beam="1">  1        2 0.26389407E+00 0.89659192E+03</pdfrwt>
<pdfrwt beam="2">  1       -2 0.18024919E-01 0.89659192E+03</pdfrwt>
<totfact> 0.24775376E+02</totfact>
</mgrwt>
</event>
<event>
11    1  0.2499789E-014  0.9068814E+03  0.7818608E-02  0.9417020E-01
          1   -1    0    0  501    0  0.00000000000E+00  0.00000000000E+00  0.31844921916E+03  0.31844921916E+03  0.00000000000E+00 0. -1.
         -1   -1    0    0    0  501 -0.00000000000E+00 -0.00000000000E+00 -0.64565544317E+03  0.64565544317E+03  0.00000000000E+00 0.  1.
    9900016    2    1    2    0    0 -0.74790148602E+01  0.66335193422E+02 -0.12856929747E+03  0.69004205304E+03  0.67466412174E+03 0.  0.
         23    2    3    3    0    0  0.19885128802E+03  0.16477854581E+03  0.59548882378E+02  0.27886416127E+03  0.86748758709E+02 0.  0.
        -15    1    3    3    0    0 -0.65252478498E+02 -0.50917580709E+02 -0.13117917784E+02  0.83800750249E+02  0.00000000000E+00 0.  1.
        -15    1    4    4    0    0  0.56826333537E+02  0.70323926166E+02 -0.16848258027E+02  0.91970378782E+02  0.00000000000E+00 0.  1.
         15    1    3    3    0    0 -0.11714614525E+03 -0.13853691160E+03 -0.12912455032E+03  0.22268552876E+03  0.00000000000E+00 0. -1.
         15    1    4    4    0    0  0.14202495449E+03  0.94454619649E+02  0.76397140405E+02  0.18689378249E+03  0.00000000000E+00 0. -1.
        -16    1    1    2    0    0  0.17896862899E+02 -0.47865484772E+02 -0.16793234953E+03  0.17553539914E+03  0.00000000000E+00 0.  1.
         16    1    3    3    0    0 -0.23931679134E+02  0.91011139918E+02 -0.45875711745E+02  0.10469161277E+03  0.00000000000E+00 0. -1.
    9900018    1    1    2    0    0 -0.10417848039E+02 -0.18469708650E+02 -0.30704577013E+02  0.98527210144E+02  0.91187600000E+02 0.  0.
<mgrwt>
<rscale>  0 0.90688141E+03</rscale>
<asrwt>0</asrwt>
<pdfrwt beam="1">  1        1 0.48992189E-01 0.90688141E+03</pdfrwt>
<pdfrwt beam="2">  1       -1 0.99331605E-01 0.90688141E+03</pdfrwt>
<totfact> 0.79121486E+01</totfact>
</mgrwt>
</event>
<event>
11    1  0.2499789E-014  0.9761820E+03  0.7818608E-02  0.9335061E-01
         -1   -1    0    0    0  501 -0.00000000000E+00  0.00000000000E+00  0.19718500727E+03  0.19718500727E+03  0.00000000000E+00 0.  1.
          1   -1    0    0  501    0  0.00000000000E+00 -0.00000000000E+00 -0.12081690209E+04  0.12081690209E+04  0.00000000000E+00 0. -1.
    9900016    2    1    2    0    0 -0.24929852677E+02  0.21522664563E+03 -0.68072602282E+03  0.96833702274E+03  0.65371604303E+03 0.  0.
         23    2    3    3    0    0  0.73081655376E+02  0.26066553215E+02 -0.90985514441E+02  0.15031017558E+03  0.91073549924E+02 0.  0.
        -15    1    3    3    0    0 -0.20042637985E+03  0.30909739267E+03 -0.25945494223E+03  0.45058717130E+03  0.00000000000E+00 0.  1.
        -15    1    4    4    0    0  0.52759356818E+02  0.16433348054E+02 -0.10852883244E+03  0.12178715914E+03  0.00000000000E+00 0. -1.
         15    1    4    4    0    0  0.20322298558E+02  0.96332051620E+01  0.17543318001E+02  0.28523016441E+02  0.00000000000E+00 0.  1.
         15    1    3    3    0    0  0.64397943776E+01 -0.20138790125E+02 -0.29278190145E+02  0.36114460227E+02  0.00000000000E+00 0. -1.
        -16    1    3    3    0    0  0.95975077415E+02 -0.99798510121E+02 -0.30100737600E+03  0.33132521563E+03  0.00000000000E+00 0.  1.
         16    1    1    2    0    0  0.39452703636E+02 -0.17892195571E+03 -0.24673960153E+03  0.30732720840E+03  0.00000000000E+00 0. -1.
    9900018    1    1    2    0    0 -0.14522850959E+02 -0.36304689924E+02 -0.83518389267E+02  0.12968979702E+03  0.91187600000E+02 0.  0.
<mgrwt>
<rscale>  0 0.97618199E+03</rscale>
<asrwt>0</asrwt>
<pdfrwt beam="1">  1        1 0.18587216E+00 0.97618199E+03</pdfrwt>
<pdfrwt beam="2">  1       -1 0.30336155E-01 0.97618199E+03</pdfrwt>
<totfact> 0.10575575E+02</totfact>
</mgrwt>
</event>
<event>
11    1  0.2499789E-014  0.9862168E+03  0.7818608E-02  0.9323792E-01
          1   -1    0    0  501    0  0.00000000000E+00  0.00000000000E+00  0.67230877956E+03  0.67230877956E+03  0.00000000000E+00 0. -1.
         -1   -1    0    0    0  501 -0.00000000000E+00 -0.00000000000E+00 -0.36167295653E+03  0.36167295653E+03  0.00000000000E+00 0.  1.
    9900016    2    1    2    0    0  0.10530431606E+03  0.17027394475E+03  0.22941273223E+03  0.81792756298E+03  0.75913969816E+03 0.  0.
         23    2    3    3    0    0  0.43146624401E+02  0.10839995863E+02  0.51358245298E+02  0.11306216365E+03  0.90367288229E+02 0.  0.
        -15    1    4    4    0    0 -0.49807839651E+01  0.41309693185E+02  0.33340184183E+02  0.53318541253E+02  0.00000000000E+00 0.  1.
        -15    1    3    3    0    0  0.63093045318E+02  0.29976631912E+02  0.23020868246E+03  0.24057299996E+03  0.00000000000E+00 0.  1.
         15    1    3    3    0    0 -0.76845196954E+02  0.19367353485E+03 -0.36619394694E+02  0.21155519957E+03  0.00000000000E+00 0. -1.
         15    1    4    4    0    0  0.48127408366E+02 -0.30469697322E+02  0.18018061115E+02  0.59743622398E+02  0.00000000000E+00 0. -1.
        -16    1    1    2    0    0 -0.10530431606E+03 -0.17027394475E+03  0.81223090796E+02  0.21605417312E+03  0.00000000000E+00 0.  1.
         16    1    3    3    0    0  0.94552714482E+02 -0.11285169394E+03 -0.75963902745E+01  0.14742260948E+03  0.00000000000E+00 0. -1.
    9900018    1    3    3    0    0 -0.18642871184E+02  0.48635476069E+02 -0.79384105565E+01  0.10531459032E+03  0.91187600000E+02 0.  0.
<mgrwt>
<rscale>  0 0.98621682E+03</rscale>
<asrwt>0</asrwt>
<pdfrwt beam="1">  1        1 0.10343212E+00 0.98621682E+03</pdfrwt>
<pdfrwt beam="2">  1       -1 0.55641993E-01 0.98621682E+03</pdfrwt>
<totfact> 0.94913749E+01</totfact>
</mgrwt>
</event>
<event>
11    1  0.2499789E-014  0.9918380E+03  0.7818608E-02  0.9317542E-01
          2   -1    0    0  501    0  0.00000000000E+00  0.00000000000E+00  0.54390830029E+03  0.54390830029E+03  0.00000000000E+00 0.  1.
         -2   -1    0    0    0  501 -0.00000000000E+00 -0.00000000000E+00 -0.45216385605E+03  0.45216385605E+03  0.00000000000E+00 0. -1.
    9900016    2    1    2    0    0 -0.61200946928E+02  0.69109430136E+02 -0.79524480532E+02  0.67233086041E+03  0.66119813492E+03 0.  0.
         23    2    3    3    0    0 -0.31563178693E+02  0.14443111280E+03 -0.73139149667E+02  0.18893602209E+03  0.92146104831E+02 0.  0.
        -15    1    4    4    0    0 -0.62510983662E+02  0.97701473260E+02 -0.62948812208E+02  0.13196876113E+03  0.00000000000E+00 0. -1.
        -15    1    3    3    0    0 -0.18597348891E+03 -0.73170819446E+02  0.93440059311E+02  0.22061539403E+03  0.00000000000E+00 0.  1.
         15    1    3    3    0    0  0.19786712698E+03  0.13928080298E+02 -0.85474531343E+02  0.21598908970E+03  0.00000000000E+00 0. -1.
         15    1    4    4    0    0  0.30947804969E+02  0.46729639540E+02 -0.10190337459E+02  0.56967260962E+02  0.00000000000E+00 0.  1.
        -16    1    1    2    0    0  0.54171826411E+02 -0.12095064259E+03  0.17382219424E+03  0.21858133481E+03  0.00000000000E+00 0.  1.
         16    1    3    3    0    0 -0.41531406301E+02 -0.16078943516E+02 -0.14350858833E+02  0.46790354595E+02  0.00000000000E+00 0. -1.
    9900018    1    1    2    0    0  0.70291205176E+01  0.51841212449E+02 -0.25532694689E+01  0.10515996112E+03  0.91187600000E+02 0.  0.
<mgrwt>
<rscale>  0 0.99183804E+03</rscale>
<asrwt>0</asrwt>
<pdfrwt beam="1">  1        2 0.83678200E-01 0.99183804E+03</pdfrwt>
<pdfrwt beam="2">  1       -2 0.69563670E-01 0.99183804E+03</pdfrwt>
<totfact> 0.10508123E+02</totfact>
</mgrwt>
</event>
<event>
11    1  0.2499789E-014  0.1200046E+04  0.7818608E-02  0.9112816E-01
          1   -1    0    0  501    0  0.00000000000E+00  0.00000000000E+00  0.11127623225E+04  0.11127623225E+04  0.00000000000E+00 0. -1.
         -1   -1    0    0    0  501 -0.00000000000E+00 -0.00000000000E+00 -0.32354402392E+03  0.32354402392E+03  0.00000000000E+00 0.  1.
    9900016    2    1    2    0    0 -0.95090571581E+02 -0.17264019380E+03  0.72519065197E+03  0.10041834151E+04  0.66606005439E+03 0.  0.
         23    2    3    3    0    0 -0.60149901272E+02 -0.15183670656E+02  0.29557085153E+03  0.31507706808E+03  0.89793519140E+02 0.  0.
        -15    1    3    3    0    0 -0.65428453078E+02  0.10385558968E+03 -0.35274604307E+02  0.12771516625E+03  0.00000000000E+00 0.  1.
        -15    1    4    4    0    0 -0.13690501963E+02 -0.40948106740E+02  0.62075709858E+02  0.75614621892E+02  0.00000000000E+00 0. -1.
         15    1    3    3    0    0 -0.21361516417E+02 -0.18790587455E+03  0.42067752686E+03  0.46123151852E+03  0.00000000000E+00 0. -1.
         15    1    4    4    0    0 -0.46459399309E+02  0.25764436083E+02  0.23349514167E+03  0.23946244619E+03  0.00000000000E+00 0.  1.
        -16    1    1    2    0    0  0.11456418619E+03  0.21383679680E+03 -0.80201172638E+02  0.25550607921E+03  0.00000000000E+00 0.  1.
         16    1    3    3    0    0  0.51849299186E+02 -0.73406238273E+02  0.44216877893E+02  0.10015966221E+03  0.00000000000E+00 0. -1.
    9900018    1    1    2    0    0 -0.19473614611E+02 -0.41196602998E+02  0.14422881922E+03  0.17661685212E+03  0.91187600000E+02 0.  0.
<mgrwt>
<rscale>  0 0.12000460E+04</rscale>
<asrwt>0</asrwt>
<pdfrwt beam="1">  1        1 0.17119420E+00 0.12000460E+04</pdfrwt>
<pdfrwt beam="2">  1       -1 0.49776004E-01 0.12000460E+04</pdfrwt>
<totfact> 0.49674597E+01</totfact>
</mgrwt>
</event>
<event>
11    1  0.2499789E-014  0.9465688E+03  0.7818608E-02  0.9369170E-01
          2   -1    0    0  501    0  0.00000000000E+00  0.00000000000E+00  0.96646188586E+03  0.96646188586E+03  0.00000000000E+00 0. -1.
         -2   -1    0    0    0  501 -0.00000000000E+00 -0.00000000000E+00 -0.23177128409E+03  0.23177128409E+03  0.00000000000E+00 0.  1.
    9900016    2    1    2    0    0 -0.16551515122E+02 -0.37986253500E+02  0.38462209006E+03  0.84572094179E+03  0.75205907422E+03 0.  0.
         23    2    3    3    0    0  0.15030035272E+03 -0.17404416957E+02  0.15179026887E+03  0.23273236849E+03  0.90724637588E+02 0.  0.
        -15    1    4    4    0    0  0.57070243208E+02 -0.24288734854E+02  0.11803896761E+03  0.13334224077E+03  0.00000000000E+00 0. -1.
        -15    1    3    3    0    0 -0.21810361253E+03 -0.10581473806E+03  0.20572213467E+03  0.31794266981E+03  0.00000000000E+00 0.  1.
         15    1    3    3    0    0  0.62151691891E+02  0.34920486051E+02 -0.13038404052E+02  0.72472568128E+02  0.00000000000E+00 0. -1.
         15    1    4    4    0    0  0.93230109508E+02  0.68843178965E+01  0.33751301264E+02  0.99390127723E+02  0.00000000000E+00 0.  1.
        -16    1    3    3    0    0 -0.82196577258E+01  0.86632779004E+02 -0.40047449089E+02  0.95794568477E+02  0.00000000000E+00 0.  1.
         16    1    1    2    0    0  0.16551515122E+02  0.37986253500E+02  0.35006851171E+03  0.35251222815E+03  0.00000000000E+00 0. -1.
    9900018    1    3    3    0    0 -0.26802894740E+01 -0.36320363541E+02  0.80195539653E+02  0.12677876689E+03  0.91187600000E+02 0.  0.
<mgrwt>
<rscale>  0 0.94656878E+03</rscale>
<asrwt>0</asrwt>
<pdfrwt beam="1">  1        2 0.14868644E+00 0.94656878E+03</pdfrwt>
<pdfrwt beam="2">  1       -2 0.35657121E-01 0.94656878E+03</pdfrwt>
<totfact> 0.19570396E+02</totfact>
</mgrwt>
</event>
<event>
11    1  0.2499789E-014  0.9261548E+03  0.7818608E-02  0.9393465E-01
         -2   -1    0    0    0  501 -0.00000000000E+00  0.00000000000E+00  0.40916740830E+03  0.40916740830E+03  0.00000000000E+00 0.  1.
          2   -1    0    0  501    0  0.00000000000E+00 -0.00000000000E+00 -0.52409030570E+03  0.52409030570E+03  0.00000000000E+00 0. -1.
    9900016    2    1    2    0    0  0.13050656660E+03 -0.52683646550E+02 -0.28912314897E+02  0.76831726766E+03  0.75476352011E+03 0.  0.
         23    2    3    3    0    0  0.83712399996E+02  0.12473915116E+03 -0.39869504399E+01  0.17631865859E+03  0.92221211484E+02 0.  0.
        -15    1    4    4    0    0  0.13640015716E+02 -0.49073714629E+01  0.22323340505E+02  0.26616984328E+02  0.00000000000E+00 0.  1.
        -15    1    3    3    0    0  0.39514313188E+01  0.60140323189E+02  0.16500067586E+03  0.17566358563E+03  0.00000000000E+00 0.  1.
         15    1    3    3    0    0  0.95296021115E+01 -0.79984906634E+02 -0.12124955840E+03  0.14556735217E+03  0.00000000000E+00 0. -1.
         15    1    4    4    0    0  0.70072384280E+02  0.12964652262E+03 -0.26310290945E+02  0.14970167426E+03  0.00000000000E+00 0. -1.
        -16    1    3    3    0    0  0.41110800703E+02 -0.13258294908E+03 -0.99752645612E+02  0.17093544579E+03  0.00000000000E+00 0.  1.
         16    1    1    2    0    0 -0.13050656660E+03  0.52683646550E+02 -0.86010582497E+02  0.16494044634E+03  0.00000000000E+00 0. -1.
    9900018    1    3    3    0    0 -0.77976675336E+01 -0.24995265184E+02  0.31076163688E+02  0.99832225478E+02  0.91187600000E+02 0.  0.
<mgrwt>
<rscale>  0 0.92615479E+03</rscale>
<asrwt>0</asrwt>
<pdfrwt beam="1">  1        2 0.80629278E-01 0.92615479E+03</pdfrwt>
<pdfrwt beam="2">  1       -2 0.62948832E-01 0.92615479E+03</pdfrwt>
<totfact> 0.13667357E+02</totfact>
</mgrwt>
</event>
<event>
11    1  0.2499789E-014  0.1060781E+04  0.7818608E-02  0.9244284E-01
         -1   -1    0    0    0  501 -0.00000000000E+00  0.00000000000E+00  0.34649981361E+03  0.34649981361E+03  0.00000000000E+00 0.  1.
          1   -1    0    0  501    0  0.00000000000E+00 -0.00000000000E+00 -0.81187353126E+03  0.81187353126E+03  0.00000000000E+00 0. -1.
    9900016    2    1    2    0    0  0.10929980212E+03  0.22798510850E+03 -0.42670333087E+03  0.90260185457E+03  0.75411585241E+03 0.  0.
         23    2    3    3    0    0 -0.64387435516E+02  0.96076906245E+02 -0.18705269096E+03  0.23880837635E+03  0.93081779393E+02 0.  0.
        -15    1    4    4    0    0 -0.64033854705E+02  0.16858887557E+02 -0.61607538409E+02  0.90443603571E+02  0.00000000000E+00 0.  1.
        -15    1    3    3    0    0  0.87231725720E+02 -0.36828077857E+01 -0.76380667018E+02  0.11600406605E+03  0.00000000000E+00 0. -1.
         15    1    3    3    0    0  0.20023403449E+03  0.60987706147E+02 -0.98145769125E+02  0.23118339228E+03  0.00000000000E+00 0.  1.
         15    1    4    4    0    0 -0.35358081116E+00  0.79218018688E+02 -0.12544515255E+03  0.14836477278E+03  0.00000000000E+00 0. -1.
        -16    1    1    2    0    0 -0.10929980212E+03 -0.22798510850E+03 -0.38670386783E+02  0.25577149030E+03  0.00000000000E+00 0.  1.
         16    1    3    3    0    0 -0.16634425070E+03  0.41499495811E+02  0.26129860650E+02  0.17342256921E+03  0.00000000000E+00 0. -1.
    9900018    1    3    3    0    0  0.52565728121E+02  0.33103808078E+02 -0.91254064424E+02  0.14318345068E+03  0.91187600000E+02 0.  0.
<mgrwt>
<rscale>  0 0.10607809E+04</rscale>
<asrwt>0</asrwt>
<pdfrwt beam="1">  1        1 0.12490362E+00 0.10607809E+04</pdfrwt>
<pdfrwt beam="2">  1       -1 0.53307664E-01 0.10607809E+04</pdfrwt>
<totfact> 0.76542952E+01</totfact>
</mgrwt>
</event>
<event>
11    1  0.2499789E-014  0.1273069E+04  0.7818608E-02  0.9051199E-01
          2   -1    0    0  501    0  0.00000000000E+00  0.00000000000E+00  0.77833762725E+03  0.77833762725E+03  0.00000000000E+00 0. -1.
         -2   -1    0    0    0  501 -0.00000000000E+00 -0.00000000000E+00 -0.52056585784E+03  0.52056585784E+03  0.00000000000E+00 0.  1.
    9900016    2    1    2    0    0 -0.66043349921E+02 -0.26971255047E+03  0.48842312150E+03  0.93792338845E+03  0.75102367009E+03 0.  0.
         23    2    3    3    0    0  0.14805198087E+03 -0.43259668080E+02  0.11100612695E+03  0.21608357181E+03  0.10285408043E+03 0.  0.
        -15    1    4    4    0    0  0.94393181365E+02 -0.60632975407E+02  0.27832662822E+02  0.11559017049E+03  0.00000000000E+00 0.  1.
        -15    1    3    3    0    0 -0.72843454112E+02  0.85013988407E+02  0.46608237220E+02  0.12126778141E+03  0.00000000000E+00 0.  1.
         15    1    3    3    0    0 -0.49073941051E+02 -0.20664243291E+03  0.29216312370E+03  0.36120442636E+03  0.00000000000E+00 0. -1.
         15    1    4    4    0    0  0.53658799504E+02  0.17373307327E+02  0.83173464131E+02  0.10049340131E+03  0.00000000000E+00 0. -1.
        -16    1    1    2    0    0  0.66043349921E+02  0.26971255047E+03 -0.23065135209E+03  0.36098009664E+03  0.00000000000E+00 0.  1.
         16    1    3    3    0    0 -0.10591815115E+03 -0.85394538368E+02 -0.35725612989E+01  0.13610159852E+03  0.00000000000E+00 0. -1.
    9900018    1    3    3    0    0  0.13740215521E+02 -0.19429899520E+02  0.42218194925E+02  0.10326601035E+03  0.91187600000E+02 0.  0.
<mgrwt>
<rscale>  0 0.12730687E+04</rscale>
<asrwt>0</asrwt>
<pdfrwt beam="1">  1        2 0.11974425E+00 0.12730687E+04</pdfrwt>
<pdfrwt beam="2">  1       -2 0.80087055E-01 0.12730687E+04</pdfrwt>
<totfact> 0.48392431E+01</totfact>
</mgrwt>
</event>
<event>
11    1  0.2499789E-014  0.1230424E+04  0.7818608E-02  0.9086635E-01
         -2   -1    0    0    0  501 -0.00000000000E+00  0.00000000000E+00  0.42864494811E+03  0.42864494811E+03  0.00000000000E+00 0.  1.
          2   -1    0    0  501    0  0.00000000000E+00 -0.00000000000E+00 -0.88298224025E+03  0.88298224025E+03  0.00000000000E+00 0. -1.
    9900016    2    1    2    0    0  0.52572657451E+02  0.33487665416E+03 -0.25687515791E+03  0.78325131868E+03  0.65771690235E+03 0.  0.
         23    2    3    3    0    0  0.50757981307E+02  0.14925988349E+02 -0.12273678886E+03  0.16104304125E+03  0.89840881562E+02 0.  0.
        -15    1    3    3    0    0 -0.80913795690E+00  0.13841895338E+03  0.42572792833E+02  0.14482024737E+03  0.00000000000E+00 0.  1.
        -15    1    4    4    0    0 -0.13953541155E+02  0.24488186243E+02 -0.74831399853E+02  0.79963185156E+02  0.00000000000E+00 0.  1.
         15    1    4    4    0    0  0.64711522462E+02 -0.95621978948E+01 -0.47905389011E+02  0.81079856094E+02  0.00000000000E+00 0. -1.
         15    1    3    3    0    0  0.13716303001E+03 -0.25964130531E+02 -0.18281106955E+03  0.23001678205E+03  0.00000000000E+00 0. -1.
        -16    1    1    2    0    0 -0.10924847671E+03 -0.35844746240E+03 -0.11844502578E+03  0.39300004720E+03  0.00000000000E+00 0.  1.
         16    1    3    3    0    0 -0.13453921591E+03  0.20749584296E+03  0.60999076703E+01  0.24737124800E+03  0.00000000000E+00 0. -1.
    9900018    1    1    2    0    0  0.56675819262E+02  0.23570808239E+02 -0.79017108455E+02  0.13537582248E+03  0.91187600000E+02 0.  0.
<mgrwt>
<rscale>  0 0.12304241E+04</rscale>
<asrwt>0</asrwt>
<pdfrwt beam="1">  1        2 0.13584342E+00 0.12304241E+04</pdfrwt>
<pdfrwt beam="2">  1       -2 0.65945377E-01 0.12304241E+04</pdfrwt>
<totfact> 0.62780293E+01</totfact>
</mgrwt>
</event>
<event>
11    1  0.2499789E-014  0.8297788E+03  0.7818608E-02  0.9517886E-01
          2   -1    0    0  501    0  0.00000000000E+00  0.00000000000E+00  0.79113675858E+03  0.79113675858E+03  0.00000000000E+00 0. -1.
         -2   -1    0    0    0  501 -0.00000000000E+00 -0.00000000000E+00 -0.21757703945E+03  0.21757703945E+03  0.00000000000E+00 0.  1.
    9900016    2    1    2    0    0  0.54443829256E+02 -0.23872920955E+02  0.47923591176E+03  0.81797660071E+03  0.66021558092E+03 0.  0.
         23    2    3    3    0    0 -0.62423765722E+01 -0.10837377906E+03  0.13737348321E+03  0.19982842713E+03  0.96312424674E+02 0.  0.
        -15    1    3    3    0    0 -0.58903171596E+02  0.15968870776E+03 -0.45208501842E+02  0.17610756841E+03  0.00000000000E+00 0.  1.
        -15    1    4    4    0    0 -0.10278735653E+02 -0.12045116365E+03  0.14180940929E+03  0.18634388585E+03  0.00000000000E+00 0. -1.
         15    1    4    4    0    0  0.40363590806E+01  0.12077384592E+02 -0.44359260804E+01  0.13484541275E+02  0.00000000000E+00 0. -1.
         15    1    3    3    0    0 -0.23051796138E+01 -0.20493241593E+02 -0.10127122569E+02  0.22974886628E+02  0.00000000000E+00 0.  1.
        -16    1    3    3    0    0  0.12189455704E+03 -0.54694608065E+02  0.39719805296E+03  0.41906571855E+03  0.00000000000E+00 0.  1.
         16    1    1    2    0    0 -0.28569955506E+02  0.32586856334E+02  0.84600732303E+02  0.95054876096E+02  0.00000000000E+00 0. -1.
    9900018    1    1    2    0    0 -0.25873873749E+02 -0.87139353789E+01  0.97230750659E+01  0.95682321225E+02  0.91187600000E+02 0.  0.
<mgrwt>
<rscale>  0 0.82977875E+03</rscale>
<asrwt>0</asrwt>
<pdfrwt beam="1">  1        2 0.12171335E+00 0.82977875E+03</pdfrwt>
<pdfrwt beam="2">  1       -2 0.33473391E-01 0.82977875E+03</pdfrwt>
<totfact> 0.29278191E+02</totfact>
</mgrwt>
</event>
<event>
11    1  0.2499789E-014  0.8871714E+03  0.7818608E-02  0.9441761E-01
         -1   -1    0    0    0  501 -0.00000000000E+00  0.00000000000E+00  0.20530661864E+03  0.20530661864E+03  0.00000000000E+00 0.  1.
          1   -1    0    0  501    0  0.00000000000E+00 -0.00000000000E+00 -0.95841166671E+03  0.95841166671E+03  0.00000000000E+00 0. -1.
    9900016    2    1    2    0    0 -0.50637569507E+02  0.80630428417E+02 -0.70099961603E+03  0.96918312200E+03  0.66245757061E+03 0.  0.
         23    2    3    3    0    0 -0.18372185262E+03  0.11439755414E+03 -0.60625562811E+02  0.24320435262E+03  0.92910595448E+02 0.  0.
        -15    1    4    4    0    0 -0.27774185141E+02  0.26539955834E+02 -0.51137719742E+02  0.63959682585E+02  0.00000000000E+00 0.  1.
        -15    1    3    3    0    0  0.11645187559E+03  0.78025976940E+02 -0.17254819304E+03  0.22231052905E+03  0.00000000000E+00 0.  1.
         15    1    4    4    0    0 -0.15594766747E+03  0.87857598308E+02 -0.94878430691E+01  0.17924467004E+03  0.00000000000E+00 0. -1.
         15    1    3    3    0    0 -0.29717747727E+02 -0.92620638235E+02 -0.42994798001E+03  0.44081401142E+03  0.00000000000E+00 0. -1.
        -16    1    1    2    0    0  0.33237550521E+02 -0.37292210752E+02  0.34230713770E+02  0.60557291160E+02  0.00000000000E+00 0.  1.
         16    1    3    3    0    0  0.46350155248E+02 -0.19172464430E+02 -0.37877880175E+02  0.62854228898E+02  0.00000000000E+00 0. -1.
    9900018    1    1    2    0    0  0.17400018986E+02 -0.43338217666E+02 -0.86336145801E+02  0.13397787219E+03  0.91187600000E+02 0.  0.
<mgrwt>
<rscale>  0 0.88717137E+03</rscale>
<asrwt>0</asrwt>
<pdfrwt beam="1">  1        1 0.14744795E+00 0.88717137E+03</pdfrwt>
<pdfrwt beam="2">  1       -1 0.31585634E-01 0.88717137E+03</pdfrwt>
<totfact> 0.15309485E+02</totfact>
</mgrwt>
</event>
<event>
11    1  0.2499789E-014  0.8296460E+03  0.7818608E-02  0.9518070E-01
          2   -1    0    0  501    0  0.00000000000E+00  0.00000000000E+00  0.65824607808E+03  0.65824607808E+03  0.00000000000E+00 0.  1.
         -2   -1    0    0    0  501 -0.00000000000E+00 -0.00000000000E+00 -0.26141913272E+03  0.26141913272E+03  0.00000000000E+00 0. -1.
    9900016    2    1    2    0    0  0.25558061643E+02 -0.51310882543E+02  0.32186024884E+03  0.82529346308E+03  0.75777916258E+03 0.  0.
         23    2    3    3    0    0 -0.14952755515E+03 -0.60443783908E+02  0.28673488996E+03  0.34043626330E+03  0.87567182740E+02 0.  0.
        -15    1    4    4    0    0 -0.51903464457E+01  0.16319799939E+02  0.12617956182E+02  0.21271774361E+02  0.00000000000E+00 0.  1.
        -15    1    3    3    0    0  0.12422432075E+03 -0.16622986118E+02  0.37324962085E+02  0.13077139721E+03  0.00000000000E+00 0.  1.
         15    1    4    4    0    0 -0.14433720870E+03 -0.76763583847E+02  0.27411693377E+03  0.31916448894E+03  0.00000000000E+00 0. -1.
         15    1    3    3    0    0  0.15040650092E+03  0.35583857995E+02 -0.74031922210E+01  0.15473568988E+03  0.00000000000E+00 0. -1.
        -16    1    1    2    0    0 -0.25558061643E+02  0.51310882543E+02  0.74966696508E+02  0.94371747719E+02  0.00000000000E+00 0.  1.
         16    1    3    3    0    0 -0.10327388707E+03 -0.25674788113E+02  0.76119902851E+01  0.10668942258E+03  0.00000000000E+00 0. -1.
    9900018    1    3    3    0    0  0.37286821877E+01  0.15846817601E+02 -0.24084012601E+01  0.92660690097E+02  0.91187600000E+02 0.  0.
<mgrwt>
<rscale>  0 0.82964599E+03</rscale>
<asrwt>0</asrwt>
<pdfrwt beam="1">  1        2 0.10126863E+00 0.82964599E+03</pdfrwt>
<pdfrwt beam="2">  1       -2 0.40218328E-01 0.82964599E+03</pdfrwt>
<totfact> 0.26030813E+02</totfact>
</mgrwt>
</event>
<event>
11    1  0.2499789E-014  0.9078933E+03  0.7818608E-02  0.9415768E-01
          1   -1    0    0  501    0  0.00000000000E+00  0.00000000000E+00  0.33001338007E+03  0.33001338007E+03  0.00000000000E+00 0. -1.
         -1   -1    0    0    0  501 -0.00000000000E+00 -0.00000000000E+00 -0.62442182803E+03  0.62442182803E+03  0.00000000000E+00 0.  1.
    9900016    2    1    2    0    0 -0.32299337851E+02  0.10490962793E+03 -0.15987520343E+03  0.78080205706E+03  0.75633490887E+03 0.  0.
         23    2    3    3    0    0 -0.12950347703E+03  0.78935960109E+01 -0.25813667883E+02  0.15916250613E+03  0.88503663699E+02 0.  0.
        -15    1    3    3    0    0  0.15808179735E+02 -0.12450233993E+03 -0.91076294454E+01  0.12583195186E+03  0.00000000000E+00 0.  1.
        -15    1    4    4    0    0 -0.99800005467E+01  0.22744950848E+02 -0.29624851451E+02  0.38659604544E+02  0.00000000000E+00 0.  1.
         15    1    3    3    0    0  0.36056882427E+01  0.16887736381E+03  0.40481538871E+02  0.17369893489E+03  0.00000000000E+00 0. -1.
         15    1    4    4    0    0 -0.11952347648E+03 -0.14851354838E+02  0.38111835681E+01  0.12050290159E+03  0.00000000000E+00 0. -1.
        -16    1    1    2    0    0  0.32299337851E+02 -0.10490962793E+03 -0.13453324453E+03  0.17363315104E+03  0.00000000000E+00 0.  1.
         16    1    3    3    0    0  0.11224671444E+03  0.33313927157E+02 -0.18679855933E+03  0.22046052801E+03  0.00000000000E+00 0. -1.
    9900018    1    3    3    0    0 -0.34456443239E+02  0.19327080881E+02  0.21363114360E+02  0.10164813616E+03  0.91187600000E+02 0.  0.
<mgrwt>
<rscale>  0 0.90789329E+03</rscale>
<asrwt>0</asrwt>
<pdfrwt beam="1">  1        1 0.50771290E-01 0.90789329E+03</pdfrwt>
<pdfrwt beam="2">  1       -1 0.96064895E-01 0.90789329E+03</pdfrwt>
<totfact> 0.81457326E+01</totfact>
</mgrwt>
</event>
<event>
11    1  0.2499789E-014  0.9750391E+03  0.7818608E-02  0.9336353E-01
         -3   -1    0    0    0  501 -0.00000000000E+00  0.00000000000E+00  0.44173826995E+03  0.44173826995E+03  0.00000000000E+00 0.  1.
          3   -1    0    0  501    0  0.00000000000E+00 -0.00000000000E+00 -0.53804558628E+03  0.53804558628E+03  0.00000000000E+00 0. -1.
    9900016    2    1    2    0    0  0.17838547072E+03  0.13618248741E+02 -0.18696644147E+02  0.78477039696E+03  0.76387707033E+03 0.  0.
         23    2    3    3    0    0  0.10806482472E+03  0.21684674305E+02 -0.83879919754E+02  0.16663637740E+03  0.92647773276E+02 0.  0.
        -15    1    4    4    0    0  0.13584946084E+02  0.43632372119E+02 -0.37536557530E+02  0.59138209375E+02  0.00000000000E+00 0. -1.
        -15    1    3    3    0    0 -0.38837397199E+02 -0.10035035982E+03  0.97778332853E+02  0.14539305524E+03  0.00000000000E+00 0.  1.
         15    1    4    4    0    0  0.94479878633E+02 -0.21947697814E+02 -0.46343362224E+02  0.10749816802E+03  0.00000000000E+00 0.  1.
         15    1    3    3    0    0  0.19369906792E+03  0.82839338784E+02  0.43280143326E+02  0.21506942081E+03  0.00000000000E+00 0. -1.
        -16    1    1    2    0    0 -0.17838547072E+03 -0.13618248741E+02 -0.77610672176E+02  0.19501345927E+03  0.00000000000E+00 0.  1.
         16    1    3    3    0    0 -0.11628070926E+03 -0.48251252401E+02 -0.72210275206E+02  0.14513342327E+03  0.00000000000E+00 0. -1.
    9900018    1    3    3    0    0  0.31739684539E+02  0.57695847869E+02 -0.36649253660E+01  0.11253812024E+03  0.91187600000E+02 0.  0.
<mgrwt>
<rscale>  0 0.97503913E+03</rscale>
<asrwt>0</asrwt>
<pdfrwt beam="1">  1        3 0.82776243E-01 0.97503913E+03</pdfrwt>
<pdfrwt beam="2">  1       -3 0.67959734E-01 0.97503913E+03</pdfrwt>
<totfact> 0.73483807E+00</totfact>
</mgrwt>
</event>
<event>
11    1  0.2499789E-014  0.1187247E+04  0.7818608E-02  0.9124093E-01
          1   -1    0    0  501    0  0.00000000000E+00  0.00000000000E+00  0.17384475359E+04  0.17384475359E+04  0.00000000000E+00 0. -1.
         -1   -1    0    0    0  501 -0.00000000000E+00 -0.00000000000E+00 -0.20270325389E+03  0.20270325389E+03  0.00000000000E+00 0.  1.
    9900016    2    1    2    0    0 -0.23658444669E+03 -0.16481296795E+03  0.88736915656E+03  0.11491456362E+04  0.67080262259E+03 0.  0.
         23    2    3    3    0    0 -0.37502353337E+02  0.14166095576E+02  0.10584804268E+03  0.14417185929E+03  0.89300683651E+02 0.  0.
        -15    1    3    3    0    0 -0.27564121625E+03  0.98816527091E+02  0.29570445093E+03  0.41615370769E+03  0.00000000000E+00 0.  1.
        -15    1    4    4    0    0  0.12578587935E+02  0.38428310913E+02  0.31244757970E+02  0.51099812668E+02  0.00000000000E+00 0. -1.
         15    1    3    3    0    0 -0.20792199477E+02 -0.13909761501E+03  0.32957468397E+03  0.35832936577E+03  0.00000000000E+00 0. -1.
         15    1    4    4    0    0 -0.50080941272E+02 -0.24262215338E+02  0.74603284711E+02  0.93072046617E+02  0.00000000000E+00 0.  1.
        -16    1    3    3    0    0  0.97351322377E+02 -0.13869797560E+03  0.15624197898E+03  0.23049070350E+03  0.00000000000E+00 0.  1.
         16    1    1    2    0    0  0.27752741802E+03  0.19718457393E+03  0.55678620831E+03  0.65262095102E+03  0.00000000000E+00 0. -1.
    9900018    1    1    2    0    0 -0.40942971328E+02 -0.32371605987E+02  0.91588917127E+02  0.13938420251E+03  0.91187600000E+02 0.  0.
<mgrwt>
<rscale>  0 0.11872472E+04</rscale>
<asrwt>0</asrwt>
<pdfrwt beam="1">  1        1 0.26745346E+00 0.11872472E+04</pdfrwt>
<pdfrwt beam="2">  1       -1 0.31185117E-01 0.11872472E+04</pdfrwt>
<totfact> 0.42380836E+01</totfact>
</mgrwt>
</event>
<event>
11    1  0.2499789E-014  0.8806795E+03  0.7818608E-02  0.9450061E-01
         -1   -1    0    0    0  501 -0.00000000000E+00  0.00000000000E+00  0.70902005948E+02  0.70902005948E+02  0.00000000000E+00 0.  1.
          1   -1    0    0  501    0  0.00000000000E+00 -0.00000000000E+00 -0.27347474703E+04  0.27347474703E+04  0.00000000000E+00 0. -1.
    9900016    2    1    2    0    0 -0.11318199560E+03 -0.52136549938E+02 -0.22784000622E+04  0.24005611624E+04  0.74569341360E+03 0.  0.
         23    2    3    3    0    0  0.34454425150E+02  0.97460477471E+02 -0.22225641474E+03  0.26100588818E+03  0.89668878069E+02 0.  0.
        -15    1    3    3    0    0 -0.12811736337E+03 -0.22664794340E+03 -0.12868103513E+04  0.13128839359E+04  0.00000000000E+00 0.  1.
        -15    1    4    4    0    0  0.62764705334E+02  0.84461107429E+02 -0.16206538728E+03  0.19323114826E+03  0.00000000000E+00 0.  1.
         15    1    3    3    0    0 -0.20036808229E+02  0.13575244168E+03 -0.43282598258E+03  0.45405784907E+03  0.00000000000E+00 0. -1.
         15    1    4    4    0    0 -0.28310280183E+02  0.12999370041E+02 -0.60191027452E+02  0.67774739921E+02  0.00000000000E+00 0. -1.
        -16    1    1    2    0    0  0.11318199560E+03  0.52136549938E+02 -0.38544540220E+03  0.40508831388E+03  0.00000000000E+00 0.  1.
         16    1    3    3    0    0 -0.10406369020E+02 -0.43826536626E+02 -0.34900815649E+02  0.56983548168E+02  0.00000000000E+00 0. -1.
    9900018    1    3    3    0    0  0.10924119873E+02 -0.14874989061E+02 -0.30160649792E+03  0.31562994103E+03  0.91187600000E+02 0.  0.
<mgrwt>
<rscale>  0 0.88067947E+03</rscale>
<asrwt>0</asrwt>
<pdfrwt beam="1">  1        1 0.42073027E+00 0.88067947E+03</pdfrwt>
<pdfrwt beam="2">  1       -1 0.10908004E-01 0.88067947E+03</pdfrwt>
<totfact> 0.52693932E+01</totfact>
</mgrwt>
</event>
<event>
11    1  0.2499789E-014  0.2565391E+04  0.7818608E-02  0.8380053E-01
          2   -1    0    0  501    0  0.00000000000E+00  0.00000000000E+00  0.14138186834E+04  0.14138186834E+04  0.00000000000E+00 0. -1.
         -2   -1    0    0    0  501 -0.00000000000E+00 -0.00000000000E+00 -0.11637335525E+04  0.11637335525E+04  0.00000000000E+00 0.  1.
    9900016    2    1    2    0    0 -0.14287736223E+03 -0.36708641326E+03 -0.84621775579E+03  0.11439376701E+04  0.66131877905E+03 0.  0.
         23    2    3    3    0    0 -0.43923207158E+02 -0.12187582236E+03 -0.24786635701E+03  0.29408272606E+03  0.90906295888E+02 0.  0.
        -15    1    4    4    0    0 -0.71521848639E+02 -0.96224001868E+02 -0.17631531310E+03  0.21321707953E+03  0.00000000000E+00 0.  1.
        -15    1    3    3    0    0 -0.15509769221E+03 -0.27626119741E+02 -0.44382409867E+03  0.47095469759E+03  0.00000000000E+00 0.  1.
         15    1    3    3    0    0  0.25605496962E+02 -0.18603799763E+03 -0.22672653417E+03  0.29439887794E+03  0.00000000000E+00 0. -1.
         15    1    4    4    0    0  0.27598641481E+02 -0.25651820487E+02 -0.71551043907E+02  0.80865646538E+02  0.00000000000E+00 0. -1.
        -16    1    3    3    0    0  0.30538040175E+02 -0.31546473529E+02  0.72199234051E+02  0.84501368553E+02  0.00000000000E+00 0.  1.
         16    1    1    2    0    0  0.20831273101E+03  0.39357588314E+03  0.11991080652E+04  0.12791232629E+04  0.00000000000E+00 0. -1.
    9900018    1    1    2    0    0 -0.65435368779E+02 -0.26489469880E+02 -0.10280517852E+03  0.15449130275E+03  0.91187600000E+02 0.  0.
<mgrwt>
<rscale>  0 0.25653914E+04</rscale>
<asrwt>0</asrwt>
<pdfrwt beam="1">  1        2 0.21751057E+00 0.25653914E+04</pdfrwt>
<pdfrwt beam="2">  1       -2 0.17903593E+00 0.25653914E+04</pdfrwt>
<totfact> 0.23213315E+00</totfact>
</mgrwt>
</event>
<event>
11    1  0.2499789E-014  0.1011836E+04  0.7818608E-02  0.9295657E-01
          2   -1    0    0  501    0  0.00000000000E+00  0.00000000000E+00  0.76402709625E+03  0.76402709625E+03  0.00000000000E+00 0. -1.
         -2   -1    0    0    0  501 -0.00000000000E+00 -0.00000000000E+00 -0.33500533781E+03  0.33500533781E+03  0.00000000000E+00 0.  1.
    9900016    2    1    2    0    0 -0.19110624705E+03  0.10902692271E+03  0.30771146202E+03  0.76501117943E+03  0.66494157131E+03 0.  0.
         23    2    3    3    0    0 -0.55774751756E+02 -0.76840666272E+02  0.18110393579E+03  0.22507200632E+03  0.94039680693E+02 0.  0.
        -15    1    3    3    0    0 -0.18974242975E+02  0.22469482379E+03 -0.86679621949E+02  0.24158050955E+03  0.00000000000E+00 0.  1.
        -15    1    4    4    0    0 -0.63862256663E+02 -0.89689877719E+02  0.17841457614E+03  0.20965310150E+03  0.00000000000E+00 0. -1.
         15    1    4    4    0    0  0.80875049066E+01  0.12849211448E+02  0.26893596496E+01  0.15418904818E+02  0.00000000000E+00 0.  1.
         15    1    3    3    0    0  0.32697148593E+02 -0.40278417806E+02  0.23290605229E+02  0.56867449028E+02  0.00000000000E+00 0. -1.
        -16    1    3    3    0    0 -0.14905440091E+03  0.14511830048E+01  0.18999654295E+03  0.24149121453E+03  0.00000000000E+00 0.  1.
         16    1    1    2    0    0  0.17839020687E+03 -0.11938630834E+03  0.59858637110E+02  0.22284347189E+03  0.00000000000E+00 0. -1.
    9900018    1    1    2    0    0  0.12716040182E+02  0.10359385622E+02  0.61451659312E+02  0.11117778274E+03  0.91187600000E+02 0.  0.
<mgrwt>
<rscale>  0 0.10118363E+04</rscale>
<asrwt>0</asrwt>
<pdfrwt beam="1">  1        2 0.11754263E+00 0.10118363E+04</pdfrwt>
<pdfrwt beam="2">  1       -2 0.51539283E-01 0.10118363E+04</pdfrwt>
<totfact> 0.12990040E+02</totfact>
</mgrwt>
</event>
<event>
11    1  0.2499789E-014  0.2298922E+04  0.7818608E-02  0.8478346E-01
          2   -1    0    0  501    0  0.00000000000E+00  0.00000000000E+00  0.36440117393E+04  0.36440117393E+04  0.00000000000E+00 0. -1.
         -2   -1    0    0    0  501 -0.00000000000E+00 -0.00000000000E+00 -0.36258404102E+03  0.36258404102E+03  0.00000000000E+00 0.  1.
    9900016    2    1    2    0    0  0.93908880751E+03 -0.90881132294E+02  0.10997739238E+04  0.16296733246E+04  0.74577831355E+03 0.  0.
         23    2    3    3    0    0  0.25257905519E+03 -0.31113446364E+03  0.40074384981E+03  0.57478387939E+03  0.95812531849E+02 0.  0.
        -15    1    4    4    0    0  0.17801808089E+03 -0.16018261664E+03  0.19425568086E+03  0.30835722360E+03  0.00000000000E+00 0.  1.
        -15    1    3    3    0    0  0.10346498570E+03  0.11481531539E+03  0.72199782187E+02  0.17058830107E+03  0.00000000000E+00 0.  1.
         15    1    4    4    0    0  0.74560974302E+02 -0.15095184699E+03  0.20648816894E+03  0.26642665579E+03  0.00000000000E+00 0. -1.
         15    1    3    3    0    0  0.15063816330E+03  0.53155585865E+02  0.15124043479E+03  0.21997963921E+03  0.00000000000E+00 0. -1.
        -16    1    3    3    0    0  0.28882631240E+03  0.39527787847E+02  0.32734667451E+03  0.43833654885E+03  0.00000000000E+00 0.  1.
         16    1    1    2    0    0 -0.93908880751E+03  0.90881132294E+02  0.21816537745E+04  0.23769224557E+04  0.00000000000E+00 0. -1.
    9900018    1    3    3    0    0  0.14358029092E+03  0.12754642239E+02  0.14824318250E+03  0.22598495611E+03  0.91187600000E+02 0.  0.
<mgrwt>
<rscale>  0 0.22989219E+04</rscale>
<asrwt>0</asrwt>
<pdfrwt beam="1">  1        2 0.56061717E+00 0.22989219E+04</pdfrwt>
<pdfrwt beam="2">  1       -2 0.55782163E-01 0.22989219E+04</pdfrwt>
<totfact> 0.17622022E+00</totfact>
</mgrwt>
</event>
<event>
11    1  0.2499789E-014  0.1660386E+04  0.7818608E-02  0.8784286E-01
         -2   -1    0    0    0  501 -0.00000000000E+00  0.00000000000E+00  0.95605247031E+03  0.95605247031E+03  0.00000000000E+00 0.  1.
          2   -1    0    0  501    0  0.00000000000E+00 -0.00000000000E+00 -0.72090263817E+03  0.72090263817E+03  0.00000000000E+00 0. -1.
    9900016    2    1    2    0    0  0.44130334873E+03 -0.13292044534E+03 -0.33563698310E+03  0.94332435745E+03  0.75152655878E+03 0.  0.
         23    2    3    3    0    0 -0.45408534043E+02 -0.79731895084E+02 -0.33234712133E+03  0.35723605366E+03  0.93508710375E+02 0.  0.
        -15    1    4    4    0    0 -0.11486847970E+02  0.13629777030E+02 -0.11138272859E+02  0.21018554195E+02  0.00000000000E+00 0. -1.
        -15    1    3    3    0    0  0.80026210449E+02  0.34694930838E+02  0.55752704756E+02  0.10351954730E+03  0.00000000000E+00 0.  1.
         15    1    4    4    0    0 -0.33921686073E+02 -0.93361672114E+02 -0.32120884847E+03  0.33621749946E+03  0.00000000000E+00 0.  1.
         15    1    3    3    0    0  0.23227950164E+03 -0.40571939785E+02  0.23477157152E+02  0.23696207732E+03  0.00000000000E+00 0. -1.
        -16    1    1    2    0    0 -0.44130334873E+03  0.13292044534E+03  0.57078681524E+03  0.73363075102E+03  0.00000000000E+00 0.  1.
         16    1    3    3    0    0  0.91701440327E+02 -0.88325260314E+00 -0.27581122862E+01  0.91747160592E+02  0.00000000000E+00 0. -1.
    9900018    1    3    3    0    0  0.82704730363E+02 -0.46428288709E+02 -0.79761611385E+02  0.15385951859E+03  0.91187600000E+02 0.  0.
<mgrwt>
<rscale>  0 0.16603864E+04</rscale>
<asrwt>0</asrwt>
<pdfrwt beam="1">  1        2 0.11090810E+00 0.16603864E+04</pdfrwt>
<pdfrwt beam="2">  1       -2 0.14708500E+00 0.16603864E+04</pdfrwt>
<totfact> 0.11881816E+01</totfact>
</mgrwt>
</event>
<event>
11    1  0.2499789E-014  0.9670357E+03  0.7818608E-02  0.9345457E-01
         -2   -1    0    0    0  501 -0.00000000000E+00  0.00000000000E+00  0.21149304717E+03  0.21149304717E+03  0.00000000000E+00 0.  1.
          2   -1    0    0  501    0  0.00000000000E+00 -0.00000000000E+00 -0.11054241062E+04  0.11054241062E+04  0.00000000000E+00 0. -1.
    9900016    2    1    2    0    0  0.96813790012E+01 -0.94001790483E+02 -0.81375932040E+03  0.10539080291E+04  0.66301420545E+03 0.  0.
         23    2    3    3    0    0 -0.64356214594E+02  0.18642191223E+03 -0.18833024308E+03  0.28784182041E+03  0.92140009788E+02 0.  0.
        -15    1    4    4    0    0  0.69876722923E+01  0.11995309668E+03 -0.10560861344E+03  0.15997109801E+03  0.00000000000E+00 0.  1.
        -15    1    3    3    0    0  0.10263044932E+03  0.22874564732E+02 -0.11621064902E+03  0.15672003632E+03  0.00000000000E+00 0.  1.
         15    1    3    3    0    0 -0.15460743158E+02 -0.27279397017E+03 -0.50715104898E+03  0.57607097759E+03  0.00000000000E+00 0. -1.
         15    1    4    4    0    0 -0.71343886886E+02  0.66468815553E+02 -0.82721629638E+02  0.12787072240E+03  0.00000000000E+00 0. -1.
        -16    1    1    2    0    0  0.37780947193E+02  0.10528700361E+03  0.25949033260E+02  0.11483076865E+03  0.00000000000E+00 0.  1.
         16    1    3    3    0    0 -0.13132112563E+02 -0.30504297274E+02 -0.20673793175E+01  0.33275194813E+02  0.00000000000E+00 0. -1.
    9900018    1    1    2    0    0 -0.47462326194E+02 -0.11285213132E+02 -0.10612077190E+03  0.14817835559E+03  0.91187600000E+02 0.  0.
<mgrwt>
<rscale>  0 0.96703570E+03</rscale>
<asrwt>0</asrwt>
<pdfrwt beam="1">  1        2 0.17006525E+00 0.96703570E+03</pdfrwt>
<pdfrwt beam="2">  1       -2 0.32537392E-01 0.96703570E+03</pdfrwt>
<totfact> 0.19001666E+02</totfact>
</mgrwt>
</event>
<event>
11    1  0.2499789E-014  0.9788169E+03  0.7818608E-02  0.9332088E-01
         -2   -1    0    0    0  501 -0.00000000000E+00  0.00000000000E+00  0.19358268219E+03  0.19358268219E+03  0.00000000000E+00 0. -1.
          2   -1    0    0  501    0  0.00000000000E+00 -0.00000000000E+00 -0.12373039860E+04  0.12373039860E+04  0.00000000000E+00 0.  1.
    9900016    2    1    2    0    0 -0.95075158892E+02 -0.77908697087E+02 -0.60210406869E+03  0.97248200713E+03  0.75371273954E+03 0.  0.
         23    2    3    3    0    0  0.45819366481E+01 -0.49994015347E+02 -0.21830464146E+02  0.10544844187E+03  0.90124408542E+02 0.  0.
        -15    1    4    4    0    0  0.20531055155E+02 -0.62171395965E+02 -0.41363265837E+02  0.77444989913E+02  0.00000000000E+00 0. -1.
        -15    1    3    3    0    0  0.77286444050E+02 -0.81897814941E+02 -0.29375263759E+03  0.31459666021E+03  0.00000000000E+00 0.  1.
         15    1    4    4    0    0 -0.15949118507E+02  0.12177380618E+02  0.19532801691E+02  0.28003451961E+02  0.00000000000E+00 0.  1.
         15    1    3    3    0    0 -0.20573450156E+03 -0.35486203356E+02 -0.21322375025E+02  0.20985852243E+03  0.00000000000E+00 0. -1.
        -16    1    1    2    0    0  0.95075158892E+02  0.77908697087E+02 -0.44161723513E+03  0.45840466107E+03  0.00000000000E+00 0.  1.
         16    1    3    3    0    0  0.68647460583E+02  0.80841418595E+02 -0.18981900833E+03  0.21743749614E+03  0.00000000000E+00 0. -1.
    9900018    1    3    3    0    0 -0.39856498613E+02  0.86279179621E+01 -0.75379583606E+02  0.12514088648E+03  0.91187600000E+02 0.  0.
<mgrwt>
<rscale>  0 0.97881689E+03</rscale>
<asrwt>0</asrwt>
<pdfrwt beam="1">  1        2 0.19035446E+00 0.97881689E+03</pdfrwt>
<pdfrwt beam="2">  1       -2 0.29781951E-01 0.97881689E+03</pdfrwt>
<totfact> 0.18668400E+02</totfact>
</mgrwt>
</event>
<event>
11    1  0.3104040E-014  0.1369918E+04  0.7818608E-02  0.8975886E-01
          1   -1    0    0  501    0  0.00000000000E+00  0.00000000000E+00  0.70698303106E+03  0.70698303106E+03  0.00000000000E+00 0. -1.
         -1   -1    0    0    0  501 -0.00000000000E+00 -0.00000000000E+00 -0.66362106020E+03  0.66362106020E+03  0.00000000000E+00 0.  1.
    9900016    2    1    2    0    0 -0.83960500787E+02 -0.11421267495E+03  0.48225478502E+03  0.90938743596E+03  0.75784030652E+03 0.  0.
         23    2    3    3    0    0  0.70341127409E+01 -0.27127901175E+02  0.59912233763E+02  0.11240678684E+03  0.90886787869E+02 0.  0.
        -15    1    3    3    0    0 -0.66058774694E+02 -0.37599009912E+02  0.24447546745E+03  0.25601894743E+03  0.00000000000E+00 0. -1.
        -15    1    4    4    0    0 -0.29123099847E+02  0.33775002426E+01 -0.73019351806E+01  0.30213915833E+02  0.00000000000E+00 0.  1.
         15    1    3    3    0    0  0.15951887024E+02 -0.12767367067E+03  0.17752522395E+03  0.21924925090E+03  0.00000000000E+00 0.  1.
         15    1    4    4    0    0  0.36157212588E+02 -0.30505401418E+02  0.67214168943E+02  0.82192871008E+02  0.00000000000E+00 0. -1.
        -16    1    1    2    0    0  0.83960500787E+02  0.11421267495E+03 -0.43889281416E+03  0.46121665531E+03  0.00000000000E+00 0.  1.
         16    1    3    3    0    0 -0.34474747773E+01  0.12655730130E+03 -0.10877308311E+03  0.16691380771E+03  0.00000000000E+00 0. -1.
    9900018    1    3    3    0    0 -0.37440251080E+02 -0.48369394500E+02  0.10911494297E+03  0.15479864308E+03  0.91187600000E+02 0.  0.
<mgrwt>
<rscale>  0 0.13699180E+04</rscale>
<asrwt>0</asrwt>
<pdfrwt beam="1">  1        1 0.10876662E+00 0.13699180E+04</pdfrwt>
<pdfrwt beam="2">  1       -1 0.10209555E+00 0.13699180E+04</pdfrwt>
<totfact> 0.23841824E+01</totfact>
</mgrwt>
</event>
<event>
11    1  0.2499789E-014  0.9277057E+03  0.7818608E-02  0.9391596E-01
          1   -1    0    0  501    0  0.00000000000E+00  0.00000000000E+00  0.45865190793E+03  0.45865190793E+03  0.00000000000E+00 0. -1.
         -1   -1    0    0    0  501 -0.00000000000E+00 -0.00000000000E+00 -0.46911276995E+03  0.46911276995E+03  0.00000000000E+00 0.  1.
    9900016    2    1    2    0    0  0.17313003723E+02 -0.11136537061E+03 -0.11119988141E+03  0.77660140226E+03  0.76029095648E+03 0.  0.
         23    2    3    3    0    0 -0.91443125036E+02  0.11407134889E+03 -0.45003051795E+01  0.16856506631E+03  0.83784312852E+02 0.  0.
        -15    1    3    3    0    0 -0.74160134868E+02  0.39304660566E+02 -0.11305602122E+03  0.14080570258E+03  0.00000000000E+00 0. -1.
        -15    1    4    4    0    0 -0.10331436453E+03  0.75093722893E+02 -0.18866095400E+01  0.12773599505E+03  0.00000000000E+00 0.  1.
         15    1    3    3    0    0  0.61535665519E+02 -0.73242799335E+02  0.11844430709E+03  0.15225045047E+03  0.00000000000E+00 0. -1.
         15    1    4    4    0    0  0.11871239489E+02  0.38977626000E+02 -0.26136956395E+01  0.40829071267E+02  0.00000000000E+00 0.  1.
        -16    1    3    3    0    0  0.12987497951E+03 -0.13181616427E+03 -0.70342918386E+02  0.19796751661E+03  0.00000000000E+00 0.  1.
         16    1    1    2    0    0 -0.17313003723E+02  0.11136537061E+03  0.10073901939E+03  0.15116327562E+03  0.00000000000E+00 0. -1.
    9900018    1    3    3    0    0 -0.84943814024E+01 -0.59682416464E+02 -0.41744943724E+02  0.11701266628E+03  0.91187600000E+02 0.  0.
<mgrwt>
<rscale>  0 0.92770570E+03</rscale>
<asrwt>0</asrwt>
<pdfrwt beam="1">  1        1 0.70561832E-01 0.92770570E+03</pdfrwt>
<pdfrwt beam="2">  1       -1 0.72171196E-01 0.92770570E+03</pdfrwt>
<totfact> 0.97334572E+01</totfact>
</mgrwt>
</event>
<event>
11    1  0.2499789E-014  0.9892440E+03  0.7818608E-02  0.9320421E-01
         -2   -1    0    0    0  501 -0.00000000000E+00  0.00000000000E+00  0.17755202514E+03  0.17755202514E+03  0.00000000000E+00 0.  1.
          2   -1    0    0  501    0  0.00000000000E+00 -0.00000000000E+00 -0.13779112391E+04  0.13779112391E+04  0.00000000000E+00 0. -1.
    9900016    2    1    2    0    0 -0.14016938356E+03  0.45731737070E+02 -0.71208284923E+03  0.10454116431E+04  0.75105570467E+03 0.  0.
         23    2    3    3    0    0 -0.35132410208E+02  0.17564878302E+02 -0.14230501517E+03  0.17370591351E+03  0.91543518866E+02 0.  0.
        -15    1    4    4    0    0  0.45096180483E+01  0.18342520657E+02  0.62927061319E+01  0.19909366376E+02  0.00000000000E+00 0.  1.
        -15    1    3    3    0    0 -0.30095932739E+03 -0.38854774162E+02 -0.34880784545E+03  0.46233442795E+03  0.00000000000E+00 0.  1.
         15    1    3    3    0    0  0.16463984280E+03  0.31077672712E+02 -0.13894480944E+03  0.21766432792E+03  0.00000000000E+00 0. -1.
         15    1    4    4    0    0 -0.39642028257E+02 -0.77764235508E+00 -0.14859772131E+03  0.15379654713E+03  0.00000000000E+00 0. -1.
        -16    1    3    3    0    0  0.64814184614E+02  0.41428187183E+01 -0.78856501081E+01  0.65423428156E+02  0.00000000000E+00 0.  1.
         16    1    1    2    0    0  0.14016938356E+03 -0.45731737070E+02 -0.48827636471E+03  0.51005162111E+03  0.00000000000E+00 0. -1.
    9900018    1    3    3    0    0 -0.33531673379E+02  0.31801141499E+02 -0.74139529070E+02  0.12628354558E+03  0.91187600000E+02 0.  0.
<mgrwt>
<rscale>  0 0.98924402E+03</rscale>
<asrwt>0</asrwt>
<pdfrwt beam="1">  1        2 0.21198634E+00 0.98924402E+03</pdfrwt>
<pdfrwt beam="2">  1       -2 0.27315697E-01 0.98924402E+03</pdfrwt>
<totfact> 0.18136620E+02</totfact>
</mgrwt>
</event>
<event>
11    1  0.2499789E-014  0.9406824E+03  0.7818608E-02  0.9376108E-01
          2   -1    0    0  501    0  0.00000000000E+00  0.00000000000E+00  0.33475306628E+03  0.33475306628E+03  0.00000000000E+00 0. -1.
         -2   -1    0    0    0  501 -0.00000000000E+00 -0.00000000000E+00 -0.66084781281E+03  0.66084781281E+03  0.00000000000E+00 0.  1.
    9900016    2    1    2    0    0 -0.58850888148E+01  0.12585235492E+03 -0.37653465576E+03  0.85988929539E+03  0.76273049226E+03 0.  0.
         23    2    3    3    0    0  0.39871403772E+02  0.23384177160E+02  0.11143158640E+02  0.10086430228E+03  0.88954420410E+02 0.  0.
        -15    1    4    4    0    0  0.43595726615E+02  0.49040000519E+02  0.26462642233E+02  0.70751540364E+02  0.00000000000E+00 0.  1.
        -15    1    3    3    0    0 -0.14835536363E+03  0.23104360785E+03 -0.19268867556E+03  0.33543909781E+03  0.00000000000E+00 0.  1.
         15    1    3    3    0    0  0.92893967867E+02 -0.10481493789E+03 -0.19807582313E+03  0.24258914275E+03  0.00000000000E+00 0. -1.
         15    1    4    4    0    0 -0.37243228429E+01 -0.25655823358E+02 -0.15319483594E+02  0.30112761919E+02  0.00000000000E+00 0. -1.
        -16    1    3    3    0    0  0.56851124836E+02 -0.42213336960E+02  0.23717275525E+02  0.74676136555E+02  0.00000000000E+00 0.  1.
         16    1    1    2    0    0  0.58850888148E+01 -0.12585235492E+03  0.50439909232E+02  0.13571158371E+03  0.00000000000E+00 0. -1.
    9900018    1    3    3    0    0 -0.47146221663E+02  0.18452844763E+02 -0.20630591233E+02  0.10632061599E+03  0.91187600000E+02 0.  0.
<mgrwt>
<rscale>  0 0.94068237E+03</rscale>
<asrwt>0</asrwt>
<pdfrwt beam="1">  1        2 0.51500473E-01 0.94068237E+03</pdfrwt>
<pdfrwt beam="2">  1       -2 0.10166889E+00 0.94068237E+03</pdfrwt>
<totfact> 0.77250933E+01</totfact>
</mgrwt>
</event>
<event>
11    1  0.2499789E-014  0.1044448E+04  0.7818608E-02  0.9261095E-01
          2   -1    0    0  501    0  0.00000000000E+00  0.00000000000E+00  0.12044107154E+04  0.12044107154E+04  0.00000000000E+00 0. -1.
         -2   -1    0    0    0  501 -0.00000000000E+00 -0.00000000000E+00 -0.22643267744E+03  0.22643267744E+03  0.00000000000E+00 0.  1.
    9900016    2    1    2    0    0 -0.17557510646E+03 -0.11535950117E+03  0.54645527369E+03  0.89096258826E+03  0.67161487105E+03 0.  0.
         23    2    3    3    0    0 -0.67613990013E+02 -0.60241676828E+02  0.20959708696E+03  0.24639574191E+03  0.92624033028E+02 0.  0.
        -15    1    4    4    0    0 -0.81398779664E+02 -0.73251616791E+02  0.16611261940E+03  0.19895970199E+03  0.00000000000E+00 0.  1.
        -15    1    3    3    0    0  0.11324111080E+03 -0.21683195806E+03  0.19283395686E+03  0.31148769177E+03  0.00000000000E+00 0.  1.
         15    1    3    3    0    0 -0.12395097316E+03  0.96168991093E+02  0.13281679927E+02  0.15744434451E+03  0.00000000000E+00 0. -1.
         15    1    4    4    0    0  0.13784789651E+02  0.13009939963E+02  0.43484467565E+02  0.47436039916E+02  0.00000000000E+00 0. -1.
        -16    1    3    3    0    0 -0.97251254085E+02  0.65545142618E+02  0.13074254994E+03  0.17563481006E+03  0.00000000000E+00 0.  1.
         16    1    1    2    0    0  0.19447805126E+03  0.11181605430E+03  0.35180873758E+03  0.41724564738E+03  0.00000000000E+00 0. -1.
    9900018    1    1    2    0    0 -0.18902944793E+02  0.35434468755E+01  0.79714026699E+02  0.12263515721E+03  0.91187600000E+02 0.  0.
<mgrwt>
<rscale>  0 0.10444481E+04</rscale>
<asrwt>0</asrwt>
<pdfrwt beam="1">  1        2 0.18529395E+00 0.10444481E+04</pdfrwt>
<pdfrwt beam="2">  1       -2 0.34835797E-01 0.10444481E+04</pdfrwt>
<totfact> 0.14477994E+02</totfact>
</mgrwt>
</event>
<event>
11    1  0.2499789E-014  0.1576803E+04  0.7818608E-02  0.8834927E-01
          1   -1    0    0  501    0  0.00000000000E+00  0.00000000000E+00  0.87940047418E+03  0.87940047418E+03  0.00000000000E+00 0. -1.
         -1   -1    0    0    0  501 -0.00000000000E+00 -0.00000000000E+00 -0.70681912550E+03  0.70681912550E+03  0.00000000000E+00 0.  1.
    9900016    2    1    2    0    0 -0.58317560582E+03 -0.17451482401E+03  0.81536831987E+02  0.97072117155E+03  0.75173274965E+03 0.  0.
         23    2    3    3    0    0 -0.32090991728E+03 -0.18056143922E+03  0.14573423599E+03  0.40652136507E+03  0.91845219678E+02 0.  0.
        -15    1    4    4    0    0 -0.18269452168E+03 -0.10392499965E+03  0.13129606256E+03  0.24782322298E+03  0.00000000000E+00 0.  1.
        -15    1    3    3    0    0 -0.22372848521E+03  0.21032779982E+02 -0.18102263781E+03  0.28855850070E+03  0.00000000000E+00 0.  1.
         15    1    4    4    0    0 -0.13821539561E+03 -0.76636439574E+02  0.14438173428E+02  0.15869814210E+03  0.00000000000E+00 0. -1.
         15    1    3    3    0    0 -0.25952016668E+02  0.53717611436E+02  0.69775433029E+02  0.91802505423E+02  0.00000000000E+00 0. -1.
        -16    1    3    3    0    0  0.51171597068E+02 -0.32228852097E+02  0.19605227522E+02  0.63573549533E+02  0.00000000000E+00 0.  1.
         16    1    1    2    0    0  0.58317560582E+03  0.17451482401E+03  0.91044516696E+02  0.61549842814E+03  0.00000000000E+00 0. -1.
    9900018    1    3    3    0    0 -0.63756783730E+02 -0.36474924107E+02  0.27444573254E+02  0.12026525082E+03  0.91187600000E+02 0.  0.
<mgrwt>
<rscale>  0 0.15768032E+04</rscale>
<asrwt>0</asrwt>
<pdfrwt beam="1">  1        1 0.13529238E+00 0.15768032E+04</pdfrwt>
<pdfrwt beam="2">  1       -1 0.10874140E+00 0.15768032E+04</pdfrwt>
<totfact> 0.14270998E+01</totfact>
</mgrwt>
</event>
<event>
11    1  0.2499789E-014  0.1010031E+04  0.7818608E-02  0.9297611E-01
         -1   -1    0    0    0  501 -0.00000000000E+00  0.00000000000E+00  0.81220127833E+03  0.81220127833E+03  0.00000000000E+00 0.  1.
          1   -1    0    0  501    0  0.00000000000E+00 -0.00000000000E+00 -0.31401150691E+03  0.31401150691E+03  0.00000000000E+00 0. -1.
    9900016    2    1    2    0    0  0.16863810033E+03 -0.30266828901E+02  0.37010561564E+03  0.77883461108E+03  0.66351359811E+03 0.  0.
         23    2    3    3    0    0 -0.43455174886E+02  0.13084751924E+02  0.15418269478E+03  0.18432606759E+03  0.90245403575E+02 0.  0.
        -15    1    3    3    0    0  0.27376860375E+03  0.84567220262E+02  0.28644797964E+03  0.40515837420E+03  0.00000000000E+00 0.  1.
        -15    1    4    4    0    0  0.11688637034E+01 -0.32732093827E+02  0.28977828378E+02  0.43731804744E+02  0.00000000000E+00 0.  1.
         15    1    4    4    0    0 -0.44624038589E+02  0.45816845751E+02  0.12520486640E+03  0.14059426285E+03  0.00000000000E+00 0. -1.
         15    1    3    3    0    0 -0.15984596711E+02 -0.58100052084E+02 -0.85475479555E+02  0.10458097814E+03  0.00000000000E+00 0. -1.
        -16    1    3    3    0    0 -0.45690731825E+02 -0.69818749002E+02  0.14950420776E+02  0.84769191151E+02  0.00000000000E+00 0.  1.
         16    1    1    2    0    0 -0.19046490074E+03  0.14684318893E+02  0.39985870592E+01  0.19107196637E+03  0.00000000000E+00 0. -1.
    9900018    1    1    2    0    0  0.21826800410E+02  0.15582510008E+02  0.12408556872E+03  0.15630620778E+03  0.91187600000E+02 0.  0.
<mgrwt>
<rscale>  0 0.10100308E+04</rscale>
<asrwt>0</asrwt>
<pdfrwt beam="1">  1        1 0.48309463E-01 0.10100308E+04</pdfrwt>
<pdfrwt beam="2">  1       -1 0.12495404E+00 0.10100308E+04</pdfrwt>
<totfact> 0.46373808E+01</totfact>
</mgrwt>
</event>
<event>
11    1  0.2499789E-014  0.1016187E+04  0.7818608E-02  0.9290967E-01
          2   -1    0    0  501    0  0.00000000000E+00  0.00000000000E+00  0.12458170616E+04  0.12458170616E+04  0.00000000000E+00 0.  1.
         -2   -1    0    0    0  501 -0.00000000000E+00 -0.00000000000E+00 -0.20722060522E+03  0.20722060522E+03  0.00000000000E+00 0. -1.
    9900016    2    1    2    0    0  0.91983373702E+02  0.46440510143E+02  0.50002949269E+03  0.84321496778E+03  0.67109189111E+03 0.  0.
         23    2    3    3    0    0 -0.49272804658E+02 -0.26703849998E+02 -0.40030165398E+02  0.11326601509E+03  0.89921472130E+02 0.  0.
        -15    1    3    3    0    0  0.74947885806E+02  0.10286907493E+03  0.27344891944E+03  0.30161820852E+03  0.00000000000E+00 0.  1.
        -15    1    4    4    0    0 -0.38944753129E+01 -0.50362324325E+02 -0.35807111820E+02  0.61916717502E+02  0.00000000000E+00 0.  1.
         15    1    3    3    0    0 -0.25385293655E+02 -0.14791548027E+03  0.37470535521E+02  0.15468498140E+03  0.00000000000E+00 0. -1.
         15    1    4    4    0    0 -0.45378329345E+02  0.23658474328E+02 -0.42230535786E+01  0.51349297592E+02  0.00000000000E+00 0. -1.
        -16    1    1    2    0    0 -0.79456473634E+02 -0.49868818318E+02  0.50205176720E+03  0.51074084152E+03  0.00000000000E+00 0.  1.
         16    1    3    3    0    0  0.91693586209E+02  0.11819076548E+03  0.22914020313E+03  0.27364576277E+03  0.00000000000E+00 0. -1.
    9900018    1    1    2    0    0 -0.12526900068E+02  0.34283081754E+01  0.36515196476E+02  0.99081857520E+02  0.91187600000E+02 0.  0.
<mgrwt>
<rscale>  0 0.10161869E+04</rscale>
<asrwt>0</asrwt>
<pdfrwt beam="1">  1        2 0.19166416E+00 0.10161869E+04</pdfrwt>
<pdfrwt beam="2">  1       -2 0.31880094E-01 0.10161869E+04</pdfrwt>
<totfact> 0.16212408E+02</totfact>
</mgrwt>
</event>
<event>
11    1  0.2499789E-014  0.1176089E+04  0.7818608E-02  0.9134047E-01
          1   -1    0    0  501    0  0.00000000000E+00  0.00000000000E+00  0.49978516335E+03  0.49978516335E+03  0.00000000000E+00 0. -1.
         -1   -1    0    0    0  501 -0.00000000000E+00 -0.00000000000E+00 -0.69188967464E+03  0.69188967464E+03  0.00000000000E+00 0.  1.
    9900016    2    1    2    0    0  0.31286599164E+03 -0.94171005310E+02 -0.12711029113E+01  0.81329579957E+03  0.74477858114E+03 0.  0.
         23    2    3    3    0    0 -0.45330489976E+02  0.54479106260E+02 -0.86767077161E+02  0.14054607432E+03  0.84863696526E+02 0.  0.
        -15    1    3    3    0    0  0.96326337687E+02 -0.71855960175E+02 -0.39351279491E+02  0.12645380794E+03  0.00000000000E+00 0.  1.
        -15    1    4    4    0    0 -0.45264296126E+02 -0.81637595469E+00 -0.10724771924E+02  0.46524656972E+02  0.00000000000E+00 0. -1.
         15    1    4    4    0    0 -0.66193849570E-01  0.55295482215E+02 -0.76042305236E+02  0.94021417351E+02  0.00000000000E+00 0.  1.
         15    1    3    3    0    0  0.12884484588E+03 -0.26830080966E+01  0.24291073809E+03  0.27497967111E+03  0.00000000000E+00 0. -1.
        -16    1    1    2    0    0 -0.31286599164E+03  0.94171005310E+02 -0.19083340837E+03  0.37837903842E+03  0.00000000000E+00 0.  1.
         16    1    3    3    0    0  0.76392946124E+02 -0.46387574086E+02 -0.13217667751E+03  0.15955677148E+03  0.00000000000E+00 0. -1.
    9900018    1    3    3    0    0  0.56632351926E+02 -0.27723569212E+02  0.14113193161E+02  0.11175947472E+03  0.91187600000E+02 0.  0.
<mgrwt>
<rscale>  0 0.11760888E+04</rscale>
<asrwt>0</asrwt>
<pdfrwt beam="1">  1        1 0.76890025E-01 0.11760888E+04</pdfrwt>
<pdfrwt beam="2">  1       -1 0.10644456E+00 0.11760888E+04</pdfrwt>
<totfact> 0.36273799E+01</totfact>
</mgrwt>
</event>
<event>
11    1  0.2499789E-014  0.1417967E+04  0.7818608E-02  0.8940915E-01
         -1   -1    0    0    0  501 -0.00000000000E+00  0.00000000000E+00  0.21674259566E+03  0.21674259566E+03  0.00000000000E+00 0.  1.
          1   -1    0    0  501    0  0.00000000000E+00 -0.00000000000E+00 -0.23191447458E+04  0.23191447458E+04  0.00000000000E+00 0. -1.
    9900016    2    1    2    0    0 -0.27344414708E+03  0.41793077747E+03 -0.12414818091E+04  0.15405875525E+04  0.76334467196E+03 0.  0.
         23    2    3    3    0    0 -0.10960507038E+03 -0.68695318042E+01 -0.33714358767E+03  0.36560973712E+03  0.89130349787E+02 0.  0.
        -15    1    4    4    0    0 -0.43533761301E+02 -0.19140301466E+02 -0.43751684488E+02  0.64620038755E+02  0.00000000000E+00 0.  1.
        -15    1    3    3    0    0  0.48310951761E+02  0.16897835541E+03 -0.50344393936E+02  0.18281736968E+03  0.00000000000E+00 0.  1.
         15    1    3    3    0    0 -0.12599467272E+03  0.17905167456E+03 -0.58700467932E+03  0.62650511032E+03  0.00000000000E+00 0. -1.
         15    1    4    4    0    0 -0.66071309075E+02  0.12270769661E+02 -0.29339190318E+03  0.30098969837E+03  0.00000000000E+00 0. -1.
        -16    1    1    2    0    0  0.27344414708E+03 -0.41793077747E+03 -0.86092034100E+03  0.99529978895E+03  0.00000000000E+00 0.  1.
         16    1    3    3    0    0 -0.63802798925E+02 -0.13777096916E+01  0.84204568083E+01  0.64370795610E+02  0.00000000000E+00 0. -1.
    9900018    1    3    3    0    0 -0.22352556827E+02  0.78147988993E+02 -0.27540960498E+03  0.30128453975E+03  0.91187600000E+02 0.  0.
<mgrwt>
<rscale>  0 0.14179668E+04</rscale>
<asrwt>0</asrwt>
<pdfrwt beam="1">  1        1 0.35679148E+00 0.14179668E+04</pdfrwt>
<pdfrwt beam="2">  1       -1 0.33345016E-01 0.14179668E+04</pdfrwt>
<totfact> 0.14912298E+01</totfact>
</mgrwt>
</event>
<event>
11    1  0.2499789E-014  0.2861862E+04  0.7818608E-02  0.8284316E-01
         -1   -1    0    0    0  501 -0.00000000000E+00  0.00000000000E+00  0.17028889862E+04  0.17028889862E+04  0.00000000000E+00 0.  1.
          1   -1    0    0  501    0  0.00000000000E+00 -0.00000000000E+00 -0.12024059438E+04  0.12024059438E+04  0.00000000000E+00 0. -1.
    9900016    2    1    2    0    0  0.42045203217E+03  0.98414182221E+03  0.58761772229E+03  0.13902340662E+04  0.66493693972E+03 0.  0.
         23    2    3    3    0    0  0.37749064359E+02  0.23111785526E+03  0.10822702507E+03  0.27398999884E+03  0.92287461946E+02 0.  0.
        -15    1    4    4    0    0 -0.30499780661E+02  0.64853657519E+02  0.24725480431E+02  0.75812814857E+02  0.00000000000E+00 0. -1.
        -15    1    3    3    0    0  0.31036412207E+03  0.36174879722E+03  0.44595969640E+03  0.65273894580E+03  0.00000000000E+00 0.  1.
         15    1    4    4    0    0  0.68248845020E+02  0.16626419774E+03  0.83501544644E+02  0.19817718399E+03  0.00000000000E+00 0.  1.
         15    1    3    3    0    0  0.15392612518E+03  0.18793420865E+03  0.25555047302E+02  0.24426538690E+03  0.00000000000E+00 0. -1.
        -16    1    3    3    0    0 -0.81587279447E+02  0.20334096109E+03  0.78759535158E+01  0.21923973469E+03  0.00000000000E+00 0.  1.
         16    1    1    2    0    0 -0.47178775898E+03 -0.11706163236E+04 -0.19245438590E+03  0.12767008096E+04  0.00000000000E+00 0. -1.
    9900018    1    1    2    0    0  0.51335726813E+02  0.18647450138E+03  0.10531970605E+03  0.23836005410E+03  0.91187600000E+02 0.  0.
<mgrwt>
<rscale>  0 0.28618622E+04</rscale>
<asrwt>0</asrwt>
<pdfrwt beam="1">  1        1 0.18498553E+00 0.28618622E+04</pdfrwt>
<pdfrwt beam="2">  1       -1 0.26198292E+00 0.28618622E+04</pdfrwt>
<totfact> 0.53379929E-01</totfact>
</mgrwt>
</event>
<event>
11    1  0.2499789E-014  0.1748513E+04  0.7818608E-02  0.8734169E-01
         -2   -1    0    0    0  501 -0.00000000000E+00  0.00000000000E+00  0.32605679942E+03  0.32605679942E+03  0.00000000000E+00 0.  1.
          2   -1    0    0  501    0  0.00000000000E+00 -0.00000000000E+00 -0.23441462613E+04  0.23441462613E+04  0.00000000000E+00 0. -1.
    9900016    2    1    2    0    0  0.70355712593E+02  0.48221037607E+03 -0.17050236364E+04  0.18958295971E+04  0.67051285409E+03 0.  0.
         23    2    3    3    0    0  0.13516046690E+03  0.30269795534E+03 -0.70750258925E+03  0.78653554650E+03  0.90464623576E+02 0.  0.
        -15    1    3    3    0    0 -0.32439525696E+02  0.10036925105E+03 -0.15454524734E+03  0.18711104420E+03  0.00000000000E+00 0.  1.
        -15    1    4    4    0    0  0.65032730929E+02  0.16547015633E+03 -0.47891610263E+03  0.51085248564E+03  0.00000000000E+00 0. -1.
         15    1    4    4    0    0  0.70127735971E+02  0.13722779902E+03 -0.22858648663E+03  0.27568306086E+03  0.00000000000E+00 0.  1.
         15    1    3    3    0    0  0.15995301610E+03  0.29037273011E+02 -0.50027115013E+03  0.52602219937E+03  0.00000000000E+00 0. -1.
        -16    1    3    3    0    0 -0.19231824471E+03  0.50105896663E+02 -0.34270464967E+03  0.39616080704E+03  0.00000000000E+00 0.  1.
         16    1    1    2    0    0 -0.96250933892E+02 -0.53867616498E+03 -0.13291447593E+03  0.56311855847E+03  0.00000000000E+00 0. -1.
    9900018    1    1    2    0    0  0.25895221299E+02  0.56465788910E+02 -0.18015134956E+03  0.21125490514E+03  0.91187600000E+02 0.  0.
<mgrwt>
<rscale>  0 0.17485135E+04</rscale>
<asrwt>0</asrwt>
<pdfrwt beam="1">  1        2 0.36063790E+00 0.17485135E+04</pdfrwt>
<pdfrwt beam="2">  1       -2 0.50162583E-01 0.17485135E+04</pdfrwt>
<totfact> 0.15260072E+01</totfact>
</mgrwt>
</event>
