<event>
11    1  0.9681768E-015  0.1514792E+04  0.7818608E-02  0.8874676E-01
         -2   -1    0    0    0  501 -0.00000000000E+00  0.00000000000E+00  0.22428199680E+03  0.22428199680E+03  0.00000000000E+00 0. -1.
          2   -1    0    0  501    0  0.00000000000E+00 -0.00000000000E+00 -0.25577105957E+04  0.25577105957E+04  0.00000000000E+00 0.  1.
    9900016    2    1    2    0    0 -0.45428557338E+02  0.18752012970E+03 -0.48534756994E+03  0.87263519769E+03  0.69907250821E+03 0.  0.
         24    2    3    3    0    0  0.87558071751E+02 -0.32642885103E+02  0.14649955629E+03  0.19044168590E+03  0.77935498065E+02 0.  0.
        -15    1    4    4    0    0  0.10672258812E+02 -0.96772536249E+01  0.35890389375E+02  0.38673846400E+02  0.00000000000E+00 0. -1.
        -15    1    4    4    0    0  0.17504162179E+02  0.73365469937E+01  0.54728968227E+02  0.57926510154E+02  0.00000000000E+00 0.  1.
         15    1    3    3    0    0 -0.13298662909E+03  0.22016301480E+03 -0.63184712623E+03  0.68219351179E+03  0.00000000000E+00 0. -1.
         15    1    4    4    0    0  0.27954520062E+02 -0.61013948390E+01  0.45514539054E+01  0.28972365170E+02  0.00000000000E+00 0.  1.
        -16    1    1    2    0    0  0.20953827728E+03 -0.11854285178E+03 -0.13720948805E+04  0.13930552963E+04  0.00000000000E+00 0.  1.
         16    1    4    4    0    0  0.31427130698E+02 -0.24200783633E+02  0.51328744783E+02  0.64868964177E+02  0.00000000000E+00 0. -1.
    9900018    1    1    2    0    0 -0.16410971994E+03 -0.68977277922E+02 -0.47598614844E+03  0.51630209853E+03  0.91187600000E+02 0.  0.
<mgrwt>
<rscale>  0 0.15147917E+04</rscale>
<asrwt>0</asrwt>
<pdfrwt beam="1">  1        2 0.39349396E+00 0.15147917E+04</pdfrwt>
<pdfrwt beam="2">  1       -2 0.34504921E-01 0.15147917E+04</pdfrwt>
<totfact> 0.24555650E+01</totfact>
</mgrwt>
</event>
<event>
11    1  0.9681768E-015  0.2112544E+04  0.7818608E-02  0.8555738E-01
         -2   -1    0    0    0  501 -0.00000000000E+00  0.00000000000E+00  0.14676194827E+04  0.14676194827E+04  0.00000000000E+00 0.  1.
          2   -1    0    0  501    0  0.00000000000E+00 -0.00000000000E+00 -0.76021753232E+03  0.76021753232E+03  0.00000000000E+00 0. -1.
    9900016    2    1    2    0    0  0.21646039947E+02 -0.27454658899E+02  0.54008970805E+03  0.89441910748E+03  0.71208590616E+03 0.  0.
         24    2    3    3    0    0 -0.30218177282E+03 -0.10747963265E+02  0.46723701846E+03  0.56207729491E+03  0.78683616451E+02 0.  0.
        -15    1    4    4    0    0 -0.26906956847E+02  0.37580577601E+01  0.61054833486E+02  0.66826641520E+02  0.00000000000E+00 0.  1.
        -15    1    4    4    0    0 -0.18527678209E+02 -0.55169155187E+01  0.12322281473E+02  0.22924873770E+02  0.00000000000E+00 0. -1.
         15    1    4    4    0    0 -0.25169799182E+03 -0.11460558440E+02  0.36884938482E+03  0.44669127165E+03  0.00000000000E+00 0.  1.
         15    1    3    3    0    0  0.32382781277E+03 -0.16706695634E+02  0.72852689588E+02  0.33234181257E+03  0.00000000000E+00 0. -1.
        -16    1    1    2    0    0  0.32159201377E+03  0.14791352274E+03  0.63919544674E+03  0.73066452813E+03  0.00000000000E+00 0.  1.
         16    1    4    4    0    0 -0.50491459470E+01  0.24714529339E+01  0.25010518680E+02  0.25634507974E+02  0.00000000000E+00 0. -1.
    9900018    1    1    2    0    0 -0.34323805371E+03 -0.12045886384E+03 -0.47188320441E+03  0.60275337941E+03  0.91187600000E+02 0.  0.
<mgrwt>
<rscale>  0 0.21125435E+04</rscale>
<asrwt>0</asrwt>
<pdfrwt beam="1">  1        2 0.11695654E+00 0.21125435E+04</pdfrwt>
<pdfrwt beam="2">  1       -2 0.22578761E+00 0.21125435E+04</pdfrwt>
<totfact> 0.30806906E+00</totfact>
</mgrwt>
</event>
<event>
11    1  0.9681768E-015  0.1510523E+04  0.7818608E-02  0.8877485E-01
          2   -1    0    0  501    0  0.00000000000E+00  0.00000000000E+00  0.92375866682E+03  0.92375866682E+03  0.00000000000E+00 0. -1.
         -2   -1    0    0    0  501 -0.00000000000E+00 -0.00000000000E+00 -0.61749908923E+03  0.61749908923E+03  0.00000000000E+00 0.  1.
    9900016    2    1    2    0    0  0.32495793257E+03 -0.17556990907E+03 -0.84972625817E+02  0.80416324719E+03  0.70925011814E+03 0.  0.
         24    2    3    3    0    0 -0.19181870047E+03 -0.16673250428E+03 -0.98857203839E+02  0.28712459323E+03  0.89853455424E+02 0.  0.
        -15    1    4    4    0    0 -0.27561268178E+02 -0.15298116084E+02 -0.89994684785E+01  0.32781798184E+02  0.00000000000E+00 0.  1.
        -15    1    4    4    0    0 -0.36690094910E+02 -0.15376800698E+02 -0.42094039281E+02  0.57918194095E+02  0.00000000000E+00 0.  1.
         15    1    3    3    0    0  0.51677663304E+03 -0.88374047852E+01  0.13884578022E+02  0.51703865396E+03  0.00000000000E+00 0. -1.
         15    1    4    4    0    0 -0.50914942038E+01 -0.11260327810E+02  0.56554709514E+01  0.13590535210E+02  0.00000000000E+00 0. -1.
        -16    1    1    2    0    0 -0.22318556296E+03 -0.12008314859E+03  0.37411200782E+02  0.25618617455E+03  0.00000000000E+00 0.  1.
         16    1    4    4    0    0 -0.12247584318E+03 -0.12479725969E+03 -0.53419167030E+02  0.18283406574E+03  0.00000000000E+00 0. -1.
    9900018    1    1    2    0    0 -0.10177236962E+03  0.29565305766E+03  0.35382100262E+03  0.48090833431E+03  0.91187600000E+02 0.  0.
<mgrwt>
<rscale>  0 0.15105233E+04</rscale>
<asrwt>0</asrwt>
<pdfrwt beam="1">  1        2 0.14211672E+00 0.15105233E+04</pdfrwt>
<pdfrwt beam="2">  1       -2 0.94999860E-01 0.15105233E+04</pdfrwt>
<totfact> 0.25435542E+01</totfact>
</mgrwt>
</event>
<event>
11    1  0.9681768E-015  0.1615726E+04  0.7818608E-02  0.8810944E-01
         -2   -1    0    0    0  501 -0.00000000000E+00  0.00000000000E+00  0.27561205404E+03  0.27561205404E+03  0.00000000000E+00 0. -1.
          2   -1    0    0  501    0  0.00000000000E+00 -0.00000000000E+00 -0.23679769014E+04  0.23679769014E+04  0.00000000000E+00 0.  1.
    9900016    2    1    2    0    0  0.38376407439E+03 -0.20141341362E+03 -0.55469896626E+03  0.10020332744E+04  0.71311816123E+03 0.  0.
         24    2    3    3    0    0  0.12250460737E+03  0.26418827538E+02  0.15329513267E+03  0.21373150267E+03  0.80476234116E+02 0.  0.
        -15    1    4    4    0    0  0.66483057394E+02  0.20737617799E+02  0.53747977394E+02  0.87970965588E+02  0.00000000000E+00 0.  1.
        -15    1    4    4    0    0  0.40222874408E+02  0.10264687549E+02  0.57693783030E+02  0.71076128457E+02  0.00000000000E+00 0. -1.
         15    1    3    3    0    0  0.26125946701E+03 -0.22783224116E+03 -0.70799409893E+03  0.78830177174E+03  0.00000000000E+00 0. -1.
         15    1    4    4    0    0  0.21835469016E+02 -0.45207673769E+01  0.14328632920E+02  0.26505372402E+02  0.00000000000E+00 0.  1.
        -16    1    1    2    0    0 -0.31179434298E+03  0.75969213983E+02 -0.13502877964E+04  0.13878991919E+04  0.00000000000E+00 0.  1.
         16    1    4    4    0    0 -0.60367934435E+01 -0.62710433146E-01  0.27524739321E+02  0.28179036222E+02  0.00000000000E+00 0. -1.
    9900018    1    1    2    0    0 -0.71969731410E+02  0.12544419964E+03 -0.18737808474E+03  0.25365648917E+03  0.91187600000E+02 0.  0.
<mgrwt>
<rscale>  0 0.16157264E+04</rscale>
<asrwt>0</asrwt>
<pdfrwt beam="1">  1        2 0.36430415E+00 0.16157264E+04</pdfrwt>
<pdfrwt beam="2">  1       -2 0.42401854E-01 0.16157264E+04</pdfrwt>
<totfact> 0.20969346E+01</totfact>
</mgrwt>
</event>
<event>
11    1  0.9681768E-015  0.1824074E+04  0.7818608E-02  0.8693601E-01
         -3   -1    0    0    0  501 -0.00000000000E+00  0.00000000000E+00  0.97472274327E+03  0.97472274327E+03  0.00000000000E+00 0.  1.
          3   -1    0    0  501    0  0.00000000000E+00 -0.00000000000E+00 -0.85338234959E+03  0.85338234959E+03  0.00000000000E+00 0. -1.
    9900016    2    1    2    0    0  0.30514144097E+03 -0.23535181438E+02  0.15091981679E+03  0.76635840610E+03  0.68619473310E+03 0.  0.
        -24    2    3    3    0    0  0.85965291856E+02  0.66924579414E+02  0.40001165786E+03  0.42245740587E+03  0.81191148643E+02 0.  0.
        -15    1    3    3    0    0  0.21917614911E+03 -0.90459760852E+02 -0.24909184106E+03  0.34390100023E+03  0.00000000000E+00 0.  1.
        -15    1    4    4    0    0 -0.39290824852E+00  0.12874929868E+02  0.47910720466E+02  0.49612048251E+02  0.00000000000E+00 0.  1.
         15    1    4    4    0    0  0.13811729951E+02  0.97155680167E+01  0.53333830863E+02  0.55943307559E+02  0.00000000000E+00 0. -1.
         15    1    4    4    0    0  0.14182038967E+02 -0.13889711161E+02  0.31720519607E+02  0.37419856621E+02  0.00000000000E+00 0. -1.
        -16    1    4    4    0    0  0.58364431187E+02  0.58223792690E+02  0.26704658692E+03  0.27948219344E+03  0.00000000000E+00 0.  1.
         16    1    1    2    0    0 -0.36833439098E+02  0.26293562014E+03 -0.43662824437E+03  0.51101474181E+03  0.00000000000E+00 0. -1.
    9900018    1    1    2    0    0 -0.26830800187E+03 -0.23940043870E+03  0.40704882125E+03  0.55073194495E+03  0.91187600000E+02 0.  0.
<mgrwt>
<rscale>  0 0.18240737E+04</rscale>
<asrwt>0</asrwt>
<pdfrwt beam="1">  1        3 0.13128959E+00 0.18240737E+04</pdfrwt>
<pdfrwt beam="2">  1       -3 0.14995734E+00 0.18240737E+04</pdfrwt>
<totfact> 0.36100748E-01</totfact>
</mgrwt>
</event>
<event>
11    1  0.9681768E-015  0.1835383E+04  0.7818608E-02  0.8687706E-01
         -1   -1    0    0    0  501 -0.00000000000E+00  0.00000000000E+00  0.23905736686E+03  0.23905736686E+03  0.00000000000E+00 0.  1.
          1   -1    0    0  501    0  0.00000000000E+00 -0.00000000000E+00 -0.35228276148E+04  0.35228276148E+04  0.00000000000E+00 0. -1.
    9900016    2    1    2    0    0  0.39754034507E+03  0.26835420620E+03 -0.17593881486E+04  0.19477439616E+04  0.68425695209E+03 0.  0.
         24    2    3    3    0    0 -0.16218596519E+03  0.16747442273E+03 -0.35111564592E+03  0.42896098994E+03  0.79833354622E+02 0.  0.
        -15    1    4    4    0    0 -0.33950087834E+02  0.26228551258E+02 -0.10892539624E+03  0.11706958320E+03  0.00000000000E+00 0.  1.
        -15    1    4    4    0    0 -0.11520561290E+02  0.18735939580E+02 -0.18013599158E+02  0.28429711905E+02  0.00000000000E+00 0. -1.
         15    1    3    3    0    0  0.55972631027E+03  0.10087978347E+03 -0.14082725027E+04  0.15187829716E+04  0.00000000000E+00 0. -1.
         15    1    4    4    0    0 -0.51110075480E+02  0.30171180664E+02 -0.90798026024E+02  0.10847498093E+03  0.00000000000E+00 0.  1.
        -16    1    1    2    0    0 -0.33316694915E+03 -0.29852105713E+03 -0.20912258741E+03  0.49380896521E+03  0.00000000000E+00 0.  1.
         16    1    4    4    0    0 -0.65605240589E+02  0.92338751225E+02 -0.13337862450E+03  0.17498671391E+03  0.00000000000E+00 0. -1.
    9900018    1    1    2    0    0 -0.64373395922E+02  0.30166850933E+02 -0.13152595120E+04  0.13203320549E+04  0.91187600000E+02 0.  0.
<mgrwt>
<rscale>  0 0.18353832E+04</rscale>
<asrwt>0</asrwt>
<pdfrwt beam="1">  1        1 0.54197342E+00 0.18353832E+04</pdfrwt>
<pdfrwt beam="2">  1       -1 0.36778060E-01 0.18353832E+04</pdfrwt>
<totfact> 0.16106222E+00</totfact>
</mgrwt>
</event>
<event>
11    1  0.9681768E-015  0.1242037E+04  0.7818608E-02  0.9076837E-01
         -1   -1    0    0    0  501 -0.00000000000E+00  0.00000000000E+00  0.25945251058E+03  0.25945251058E+03  0.00000000000E+00 0.  1.
          1   -1    0    0  501    0  0.00000000000E+00 -0.00000000000E+00 -0.14864519524E+04  0.14864519524E+04  0.00000000000E+00 0. -1.
    9900016    2    1    2    0    0 -0.12922471491E+03 -0.94170781859E+01 -0.71881487012E+03  0.10198666923E+04  0.71179037946E+03 0.  0.
         24    2    3    3    0    0 -0.16632397771E+03 -0.19155309506E+03  0.10601126742E+02  0.26713992886E+03  0.83036762429E+02 0.  0.
        -15    1    4    4    0    0 -0.37768679305E+02 -0.45550044129E+02  0.22073444403E+02  0.63154703740E+02  0.00000000000E+00 0.  1.
        -15    1    4    4    0    0 -0.34122292021E+02 -0.11655488295E+02 -0.76635999293E+01  0.36863423390E+02  0.00000000000E+00 0.  1.
         15    1    3    3    0    0  0.37099262808E+02  0.18213601688E+03 -0.72941599686E+03  0.75272676346E+03  0.00000000000E+00 0. -1.
         15    1    4    4    0    0 -0.96568117173E+00 -0.13133349834E+02 -0.49044760932E+01  0.14052448319E+02  0.00000000000E+00 0. -1.
        -16    1    1    2    0    0  0.19630750425E+03  0.64164679792E+02 -0.41663711111E+01  0.20656984534E+03  0.00000000000E+00 0.  1.
         16    1    4    4    0    0 -0.93467325216E+02 -0.12121421280E+03  0.10957583606E+01  0.15306935342E+03  0.00000000000E+00 0. -1.
    9900018    1    1    2    0    0 -0.67082789342E+02 -0.54747601606E+02 -0.50401820060E+03  0.51946792532E+03  0.91187600000E+02 0.  0.
<mgrwt>
<rscale>  0 0.12420365E+04</rscale>
<asrwt>0</asrwt>
<pdfrwt beam="1">  1        1 0.22868492E+00 0.12420365E+04</pdfrwt>
<pdfrwt beam="2">  1       -1 0.39915770E-01 0.12420365E+04</pdfrwt>
<totfact> 0.40324019E+01</totfact>
</mgrwt>
</event>
<event>
11    1  0.9681768E-015  0.1859273E+04  0.7818608E-02  0.8675398E-01
          1   -1    0    0  501    0  0.00000000000E+00  0.00000000000E+00  0.12842089462E+04  0.12842089462E+04  0.00000000000E+00 0. -1.
         -1   -1    0    0    0  501 -0.00000000000E+00 -0.00000000000E+00 -0.67296250256E+03  0.67296250256E+03  0.00000000000E+00 0.  1.
    9900016    2    1    2    0    0  0.35460655845E+03 -0.23394061654E+03  0.58802354534E+03  0.10197525363E+04  0.71669346443E+03 0.  0.
        -24    2    3    3    0    0  0.11792676993E+02 -0.18882923477E+03 -0.11579504557E+03  0.23558609793E+03  0.79352188526E+02 0.  0.
        -15    1    4    4    0    0 -0.14432340872E+02 -0.69000997987E+02 -0.75287077152E+02  0.10313861630E+03  0.00000000000E+00 0. -1.
        -15    1    3    3    0    0  0.34281388145E+03 -0.45111381778E+02  0.70381859091E+03  0.78416643832E+03  0.00000000000E+00 0.  1.
         15    1    4    4    0    0 -0.29239052014E+01 -0.25956659110E+02 -0.10806138825E+02  0.28267826412E+02  0.00000000000E+00 0.  1.
         15    1    4    4    0    0  0.17845272811E+02 -0.56462964914E+02 -0.26784615442E+02  0.64991813276E+02  0.00000000000E+00 0. -1.
        -16    1    4    4    0    0  0.11303650255E+02 -0.37408612755E+02 -0.29172141563E+01  0.39187841938E+02  0.00000000000E+00 0.  1.
         16    1    1    2    0    0 -0.56930437465E+03 -0.47532420501E+02  0.25366910993E+02  0.57184812859E+03  0.00000000000E+00 0. -1.
    9900018    1    1    2    0    0  0.21469781621E+03  0.28147303704E+03 -0.21440127094E+01  0.36557078391E+03  0.91187600000E+02 0.  0.
<mgrwt>
<rscale>  0 0.18592735E+04</rscale>
<asrwt>0</asrwt>
<pdfrwt beam="1">  1        1 0.19757061E+00 0.18592735E+04</pdfrwt>
<pdfrwt beam="2">  1       -1 0.10353269E+00 0.18592735E+04</pdfrwt>
<totfact> 0.76687465E+00</totfact>
</mgrwt>
</event>
<event>
11    1  0.9681768E-015  0.1924500E+04  0.7818608E-02  0.8642756E-01
          2   -1    0    0  501    0  0.00000000000E+00  0.00000000000E+00  0.19181333708E+04  0.19181333708E+04  0.00000000000E+00 0.  1.
         -2   -1    0    0    0  501 -0.00000000000E+00 -0.00000000000E+00 -0.48272217003E+03  0.48272217003E+03  0.00000000000E+00 0. -1.
    9900016    2    1    2    0    0  0.37090867845E+03  0.20708498910E+03  0.44019141209E+03  0.93727268400E+03  0.71010855820E+03 0.  0.
         24    2    3    3    0    0  0.27666232509E+03  0.81429420661E+02  0.62610897768E+03  0.69388608167E+03  0.79326223455E+02 0.  0.
        -15    1    4    4    0    0  0.82114208150E+02  0.48282363886E+02  0.24260244056E+03  0.26063360108E+03  0.00000000000E+00 0. -1.
        -15    1    4    4    0    0  0.17071068522E+03  0.15547286553E+02  0.33650186019E+03  0.37764713434E+03  0.00000000000E+00 0.  1.
         15    1    3    3    0    0  0.94246353355E+02  0.12565556844E+03 -0.18591756559E+03  0.24338660233E+03  0.00000000000E+00 0. -1.
         15    1    4    4    0    0  0.10942956003E+02  0.93671099147E+01  0.22333524396E+02  0.26575879030E+02  0.00000000000E+00 0.  1.
        -16    1    1    2    0    0 -0.35377398615E+03 -0.11590027866E+03  0.11801530163E+04  0.12374772926E+04  0.00000000000E+00 0.  1.
         16    1    4    4    0    0  0.12894475716E+02  0.82326603076E+01  0.24671152530E+02  0.29029467217E+02  0.00000000000E+00 0. -1.
    9900018    1    1    2    0    0 -0.17134692301E+02 -0.91184710432E+02 -0.18493322762E+03  0.22610556421E+03  0.91187600000E+02 0.  0.
<mgrwt>
<rscale>  0 0.19245005E+04</rscale>
<asrwt>0</asrwt>
<pdfrwt beam="1">  1        2 0.29509744E+00 0.19245005E+04</pdfrwt>
<pdfrwt beam="2">  1       -2 0.74264950E-01 0.19245005E+04</pdfrwt>
<totfact> 0.11317511E+01</totfact>
</mgrwt>
</event>
<event>
11    1  0.9681768E-015  0.1177919E+04  0.7818608E-02  0.9132406E-01
          1   -1    0    0  501    0  0.00000000000E+00  0.00000000000E+00  0.73904090367E+03  0.73904090367E+03  0.00000000000E+00 0. -1.
         -1   -1    0    0    0  501 -0.00000000000E+00 -0.00000000000E+00 -0.46935640662E+03  0.46935640662E+03  0.00000000000E+00 0.  1.
    9900016    2    1    2    0    0  0.15421038845E+03 -0.12894130087E+03  0.47585687056E+02  0.68535297168E+03  0.65348113607E+03 0.  0.
         24    2    3    3    0    0 -0.17649914373E+03 -0.10606368375E+03 -0.17853463757E+03  0.28407678095E+03  0.80147039322E+02 0.  0.
        -15    1    4    4    0    0 -0.17674494237E+02 -0.41444926054E+01 -0.35428049078E+02  0.39808431606E+02  0.00000000000E+00 0. -1.
        -15    1    4    4    0    0 -0.87107918952E+01 -0.17574141381E+02 -0.27981466469E+02  0.34171491137E+02  0.00000000000E+00 0.  1.
         15    1    3    3    0    0  0.33070953218E+03 -0.22877617117E+02  0.22612032463E+03  0.40127619074E+03  0.00000000000E+00 0. -1.
         15    1    4    4    0    0 -0.52430656996E+02 -0.24377899859E+02 -0.58495027848E+02  0.82249158521E+02  0.00000000000E+00 0.  1.
        -16    1    1    2    0    0 -0.16338067357E+03 -0.53697525074E+02 -0.53360002772E+02  0.18006653934E+03  0.00000000000E+00 0.  1.
         16    1    4    4    0    0 -0.97683200602E+02 -0.59967149905E+02 -0.56630094176E+02  0.12784769968E+03  0.00000000000E+00 0. -1.
    9900018    1    1    2    0    0  0.91702851122E+01  0.18263882594E+03  0.27545881276E+03  0.34297779927E+03  0.91187600000E+02 0.  0.
<mgrwt>
<rscale>  0 0.11779195E+04</rscale>
<asrwt>0</asrwt>
<pdfrwt beam="1">  1        1 0.11369860E+00 0.11779195E+04</pdfrwt>
<pdfrwt beam="2">  1       -1 0.72208678E-01 0.11779195E+04</pdfrwt>
<totfact> 0.48087638E+01</totfact>
</mgrwt>
</event>
<event>
11    1  0.9681768E-015  0.1166919E+04  0.7818608E-02  0.9142315E-01
         -1   -1    0    0    0  501 -0.00000000000E+00  0.00000000000E+00  0.10451055982E+03  0.10451055982E+03  0.00000000000E+00 0.  1.
          1   -1    0    0  501    0  0.00000000000E+00 -0.00000000000E+00 -0.32573270734E+04  0.32573270734E+04  0.00000000000E+00 0. -1.
    9900016    2    1    2    0    0  0.15769492151E+03 -0.24485426639E+02 -0.27729292995E+04  0.28661870221E+04  0.70740647519E+03 0.  0.
         24    2    3    3    0    0  0.21562740733E+03 -0.33380419882E+03 -0.17204442917E+04  0.17676612065E+04  0.82323498310E+02 0.  0.
        -15    1    4    4    0    0  0.39580830887E+02 -0.68899915040E+02 -0.26419226220E+03  0.27588293146E+03  0.00000000000E+00 0.  1.
        -15    1    4    4    0    0  0.12418573622E+02 -0.39622944606E+01 -0.54866174456E+02  0.56393420251E+02  0.00000000000E+00 0.  1.
         15    1    3    3    0    0 -0.57932485826E+02  0.30931877218E+03 -0.10524850079E+04  0.10985258156E+04  0.00000000000E+00 0. -1.
         15    1    4    4    0    0  0.14323219189E+02 -0.39030772333E+02 -0.24221821777E+03  0.24576049483E+03  0.00000000000E+00 0. -1.
        -16    1    1    2    0    0 -0.29123944004E+02 -0.16946587781E+02  0.35795116474E+02  0.49159753001E+02  0.00000000000E+00 0.  1.
         16    1    4    4    0    0  0.14930478364E+03 -0.22191121698E+03 -0.11591676372E+04  0.11896243600E+04  0.00000000000E+00 0. -1.
    9900018    1    1    2    0    0 -0.12857097750E+03  0.41432014420E+02 -0.41568233051E+03  0.44649085810E+03  0.91187600000E+02 0.  0.
<mgrwt>
<rscale>  0 0.11669192E+04</rscale>
<asrwt>0</asrwt>
<pdfrwt beam="1">  1        1 0.50112717E+00 0.11669192E+04</pdfrwt>
<pdfrwt beam="2">  1       -1 0.16078550E-01 0.11669192E+04</pdfrwt>
<totfact> 0.11429248E+01</totfact>
</mgrwt>
</event>
<event>
11    1  0.9681768E-015  0.1152229E+04  0.7818608E-02  0.9155730E-01
          2   -1    0    0  501    0  0.00000000000E+00  0.00000000000E+00  0.18228909811E+04  0.18228909811E+04  0.00000000000E+00 0. -1.
         -2   -1    0    0    0  501 -0.00000000000E+00 -0.00000000000E+00 -0.18207764232E+03  0.18207764232E+03  0.00000000000E+00 0.  1.
    9900016    2    1    2    0    0 -0.21206808536E+02 -0.14918740522E+02  0.59432426539E+03  0.92708266280E+03  0.71104756078E+03 0.  0.
         24    2    3    3    0    0 -0.19048254449E+03 -0.23777543049E+03  0.57978065013E+02  0.32211437792E+03  0.87037126233E+02 0.  0.
        -15    1    4    4    0    0 -0.51964343648E+02 -0.74018539977E+02  0.12552084084E+02  0.91304940096E+02  0.00000000000E+00 0.  1.
        -15    1    4    4    0    0 -0.60712562174E+01 -0.10279549365E+02 -0.95389783537E+01  0.15281406847E+02  0.00000000000E+00 0. -1.
         15    1    3    3    0    0  0.16927573596E+03  0.22285668997E+03  0.53634620038E+03  0.60496828488E+03  0.00000000000E+00 0. -1.
         15    1    4    4    0    0 -0.30327394019E+02 -0.20982812762E+02 -0.62364830367E+01  0.37402178814E+02  0.00000000000E+00 0.  1.
        -16    1    1    2    0    0  0.10674058833E+03 -0.99623571522E+01  0.26163181694E+03  0.28274371680E+03  0.00000000000E+00 0.  1.
         16    1    4    4    0    0 -0.10211955061E+03 -0.13249452839E+03  0.61201442320E+02  0.17812585217E+03  0.00000000000E+00 0. -1.
    9900018    1    1    2    0    0 -0.85533779790E+02  0.24881097674E+02  0.78485725645E+03  0.79514224382E+03  0.91187600000E+02 0.  0.
<mgrwt>
<rscale>  0 0.11522286E+04</rscale>
<asrwt>0</asrwt>
<pdfrwt beam="1">  1        2 0.28044475E+00 0.11522286E+04</pdfrwt>
<pdfrwt beam="2">  1       -2 0.28011946E-01 0.11522286E+04</pdfrwt>
<totfact> 0.96653162E+01</totfact>
</mgrwt>
</event>
<event>
11    1  0.9681768E-015  0.1683045E+04  0.7818608E-02  0.8771094E-01
          3   -1    0    0  501    0  0.00000000000E+00  0.00000000000E+00  0.77898436641E+03  0.77898436641E+03  0.00000000000E+00 0. -1.
         -3   -1    0    0    0  501 -0.00000000000E+00 -0.00000000000E+00 -0.90908147266E+03  0.90908147266E+03  0.00000000000E+00 0.  1.
    9900016    2    1    2    0    0  0.32800237750E+02  0.10752755250E+03  0.40938096998E+02  0.72865368563E+03  0.71876438118E+03 0.  0.
         24    2    3    3    0    0 -0.14103108518E+03 -0.10613640864E+03 -0.25770744814E+03  0.32237942021E+03  0.79753730456E+02 0.  0.
        -15    1    4    4    0    0 -0.32252389444E+02 -0.39246349558E+02 -0.59496869156E+02  0.78232793750E+02  0.00000000000E+00 0.  1.
        -15    1    4    4    0    0 -0.31276130476E+02 -0.24221692901E+02 -0.11332335033E+03  0.12002944836E+03  0.00000000000E+00 0.  1.
         15    1    4    4    0    0 -0.10449705908E+02  0.27641681691E+00 -0.61133084173E+01  0.12109719222E+02  0.00000000000E+00 0. -1.
         15    1    3    3    0    0  0.17383132293E+03  0.21366396114E+03  0.29864554513E+03  0.40627426543E+03  0.00000000000E+00 0. -1.
        -16    1    1    2    0    0  0.47176127843E+02 -0.24640047017E+03 -0.51291428664E+03  0.57098147446E+03  0.00000000000E+00 0.  1.
         16    1    4    4    0    0 -0.67052859350E+02 -0.42944783001E+02 -0.78773920233E+02  0.11200745887E+03  0.00000000000E+00 0. -1.
    9900018    1    1    2    0    0 -0.79976365594E+02  0.13887291767E+03  0.34187908340E+03  0.38843067898E+03  0.91187600000E+02 0.  0.
<mgrwt>
<rscale>  0 0.16830452E+04</rscale>
<asrwt>0</asrwt>
<pdfrwt beam="1">  1        3 0.11984375E+00 0.16830452E+04</pdfrwt>
<pdfrwt beam="2">  1       -3 0.13985869E+00 0.16830452E+04</pdfrwt>
<totfact> 0.54724716E-01</totfact>
</mgrwt>
</event>
<event>
11    1  0.9681768E-015  0.2821812E+04  0.7818608E-02  0.8296528E-01
         -2   -1    0    0    0  501 -0.00000000000E+00  0.00000000000E+00  0.66762529776E+03  0.66762529776E+03  0.00000000000E+00 0.  1.
          2   -1    0    0  501    0  0.00000000000E+00 -0.00000000000E+00 -0.29816963145E+04  0.29816963145E+04  0.00000000000E+00 0. -1.
    9900016    2    1    2    0    0  0.24887373393E+03 -0.25726094059E+03 -0.99136941605E+03  0.12799994013E+04  0.72626704545E+03 0.  0.
        -24    2    3    3    0    0  0.42169502605E+03  0.29152947480E+02 -0.76002650334E+03  0.87328124640E+03  0.79393073901E+02 0.  0.
        -15    1    4    4    0    0  0.15900747479E+02 -0.62592009058E+01 -0.19053633196E+02  0.25593989613E+02  0.00000000000E+00 0. -1.
        -15    1    3    3    0    0 -0.17282129212E+03 -0.28641388807E+03 -0.23134291271E+03  0.40671815493E+03  0.00000000000E+00 0.  1.
         15    1    4    4    0    0  0.37849540032E+03  0.33836187022E+02 -0.66944407063E+03  0.76977855213E+03  0.00000000000E+00 0.  1.
         15    1    4    4    0    0  0.19281199068E+02  0.26132249915E+01 -0.63886374368E+02  0.66783698702E+02  0.00000000000E+00 0. -1.
        -16    1    4    4    0    0  0.80176791817E+01 -0.10372636274E+01 -0.76424251478E+01  0.11125005952E+02  0.00000000000E+00 0.  1.
         16    1    1    2    0    0 -0.97970198678E+03  0.57575539630E+03 -0.96489848211E+03  0.14907512670E+04  0.00000000000E+00 0. -1.
    9900018    1    1    2    0    0  0.73082825285E+03 -0.31849445571E+03 -0.35780311860E+03  0.87857094395E+03  0.91187600000E+02 0.  0.
<mgrwt>
<rscale>  0 0.28218121E+04</rscale>
<asrwt>0</asrwt>
<pdfrwt beam="1">  1        2 0.45872250E+00 0.28218121E+04</pdfrwt>
<pdfrwt beam="2">  1       -2 0.10271159E+00 0.28218121E+04</pdfrwt>
<totfact> 0.12028492E+00</totfact>
</mgrwt>
</event>
<event>
11    1  0.9681768E-015  0.1671660E+04  0.7818608E-02  0.8777695E-01
         -1   -1    0    0    0  501 -0.00000000000E+00  0.00000000000E+00  0.18422235034E+03  0.18422235034E+03  0.00000000000E+00 0.  1.
          1   -1    0    0  501    0  0.00000000000E+00 -0.00000000000E+00 -0.37922202415E+04  0.37922202415E+04  0.00000000000E+00 0. -1.
    9900016    2    1    2    0    0 -0.10735369608E+03  0.28619180912E+03 -0.14267539444E+04  0.16192345632E+04  0.70204215341E+03 0.  0.
        -24    2    3    3    0    0  0.24395037334E+03 -0.62138740558E+02 -0.39685451288E+03  0.47667534808E+03  0.79704926721E+02 0.  0.
        -15    1    4    4    0    0  0.33132762191E+02  0.41511361963E+01 -0.35665814588E+02  0.48857570471E+02  0.00000000000E+00 0.  1.
        -15    1    3    3    0    0 -0.35130406942E+03  0.34833054968E+03 -0.10298994315E+04  0.11425592151E+04  0.00000000000E+00 0.  1.
         15    1    4    4    0    0  0.48162288808E+02 -0.28099044521E+02 -0.91626603732E+02  0.10725948386E+03  0.00000000000E+00 0. -1.
         15    1    4    4    0    0  0.63761033755E+02 -0.13096976154E+02 -0.14913548310E+03  0.16272182561E+03  0.00000000000E+00 0. -1.
        -16    1    4    4    0    0  0.98894288588E+02 -0.25093856080E+02 -0.12042661147E+03  0.15783646815E+03  0.00000000000E+00 0.  1.
         16    1    1    2    0    0  0.91419673746E+02  0.25146332940E+03 -0.12465656995E+04  0.12749578056E+04  0.00000000000E+00 0. -1.
    9900018    1    1    2    0    0  0.15934022336E+02 -0.53765513852E+03 -0.93467824721E+03  0.10822502230E+04  0.91187600000E+02 0.  0.
<mgrwt>
<rscale>  0 0.16716599E+04</rscale>
<asrwt>0</asrwt>
<pdfrwt beam="1">  1        1 0.58341848E+00 0.16716599E+04</pdfrwt>
<pdfrwt beam="2">  1       -1 0.28341901E-01 0.16716599E+04</pdfrwt>
<totfact> 0.15740484E+00</totfact>
</mgrwt>
</event>
<event>
11    1  0.9681768E-015  0.1887122E+04  0.7818608E-02  0.8661293E-01
          1   -1    0    0  501    0  0.00000000000E+00  0.00000000000E+00  0.12940225741E+04  0.12940225741E+04  0.00000000000E+00 0. -1.
         -1   -1    0    0    0  501 -0.00000000000E+00 -0.00000000000E+00 -0.68801511220E+03  0.68801511220E+03  0.00000000000E+00 0.  1.
    9900016    2    1    2    0    0  0.34457330291E+03  0.13931687272E+03  0.17728430720E+03  0.82948864005E+03  0.72005675213E+03 0.  0.
         24    2    3    3    0    0 -0.23257426221E+02 -0.25442186930E+03  0.34166560277E+02  0.27198318560E+03  0.86810736411E+02 0.  0.
        -15    1    4    4    0    0 -0.10690085244E+01 -0.18685147534E+02  0.11286856484E+02  0.21855677681E+02  0.00000000000E+00 0.  1.
        -15    1    4    4    0    0  0.11157613740E+02 -0.72224138841E+01  0.18810019289E+01  0.13423627488E+02  0.00000000000E+00 0.  1.
         15    1    3    3    0    0  0.36783072913E+03  0.39373874202E+03  0.14311774692E+03  0.55750545445E+03  0.00000000000E+00 0. -1.
         15    1    4    4    0    0 -0.24349852060E+02 -0.17053604197E+03 -0.54366498668E+01  0.17235142607E+03  0.00000000000E+00 0. -1.
        -16    1    1    2    0    0 -0.45332758536E+03 -0.41110589547E+03 -0.16221247857E+02  0.61219039998E+03  0.00000000000E+00 0.  1.
         16    1    4    4    0    0 -0.89961793768E+01 -0.57978265910E+02  0.26435351731E+02  0.64352454362E+02  0.00000000000E+00 0. -1.
    9900018    1    1    2    0    0  0.10875428245E+03  0.27178902275E+03  0.44494440255E+03  0.54035864626E+03  0.91187600000E+02 0.  0.
<mgrwt>
<rscale>  0 0.18871217E+04</rscale>
<asrwt>0</asrwt>
<pdfrwt beam="1">  1        1 0.19908039E+00 0.18871217E+04</pdfrwt>
<pdfrwt beam="2">  1       -1 0.10584848E+00 0.18871217E+04</pdfrwt>
<totfact> 0.71493592E+00</totfact>
</mgrwt>
</event>
<event>
11    1  0.9681768E-015  0.1410642E+04  0.7818608E-02  0.8946151E-01
          1   -1    0    0  501    0  0.00000000000E+00  0.00000000000E+00  0.94357478509E+03  0.94357478509E+03  0.00000000000E+00 0. -1.
         -1   -1    0    0    0  501 -0.00000000000E+00 -0.00000000000E+00 -0.52722625132E+03  0.52722625132E+03  0.00000000000E+00 0.  1.
    9900016    2    1    2    0    0  0.15476286443E+03 -0.30051655864E+03  0.32241684105E+03  0.81339711277E+03  0.66588324611E+03 0.  0.
        -24    2    3    3    0    0  0.12922949573E+03  0.28053996687E+02  0.43817076730E+03  0.46409848096E+03  0.76853688337E+02 0.  0.
        -15    1    4    4    0    0  0.18870164694E+02  0.18084558798E+02  0.42991228955E+02  0.50312822913E+02  0.00000000000E+00 0. -1.
        -15    1    3    3    0    0  0.25533368699E+02 -0.32857055533E+03 -0.11575392625E+03  0.34929863182E+03  0.00000000000E+00 0.  1.
         15    1    4    4    0    0  0.19862779068E+02 -0.41882106334E+01  0.56816505723E+02  0.60333957464E+02  0.00000000000E+00 0.  1.
         15    1    4    4    0    0  0.46493669871E+02  0.79050791772E+01  0.94982984044E+02  0.10604677681E+03  0.00000000000E+00 0. -1.
        -16    1    4    4    0    0  0.44002882102E+02  0.62525693449E+01  0.24338004858E+03  0.24740492377E+03  0.00000000000E+00 0.  1.
         16    1    1    2    0    0 -0.71982090735E+02  0.37085081411E+03  0.24494501682E+03  0.45023306073E+03  0.00000000000E+00 0. -1.
    9900018    1    1    2    0    0 -0.82780773698E+02 -0.70334255469E+02 -0.15101332411E+03  0.20717086291E+03  0.91187600000E+02 0.  0.
<mgrwt>
<rscale>  0 0.14106416E+04</rscale>
<asrwt>0</asrwt>
<pdfrwt beam="1">  1        1 0.14516535E+00 0.14106416E+04</pdfrwt>
<pdfrwt beam="2">  1       -1 0.81111731E-01 0.14106416E+04</pdfrwt>
<totfact> 0.24755993E+01</totfact>
</mgrwt>
</event>
<event>
11    1  0.9681768E-015  0.1648102E+04  0.7818608E-02  0.8791530E-01
         -2   -1    0    0    0  501 -0.00000000000E+00  0.00000000000E+00  0.96082202950E+03  0.96082202950E+03  0.00000000000E+00 0.  1.
          2   -1    0    0  501    0  0.00000000000E+00 -0.00000000000E+00 -0.70674917385E+03  0.70674917385E+03  0.00000000000E+00 0. -1.
    9900016    2    1    2    0    0  0.42274229972E+02 -0.13478237507E+03 -0.90561003802E+02  0.77462842457E+03  0.75623706706E+03 0.  0.
         24    2    3    3    0    0 -0.18165319922E+03 -0.14613813584E+03 -0.35245912107E+03  0.42986318462E+03  0.78744434302E+02 0.  0.
        -15    1    4    4    0    0 -0.12983228672E+03 -0.10067732808E+03 -0.20889024008E+03  0.26575831024E+03  0.00000000000E+00 0.  1.
        -15    1    4    4    0    0 -0.10491947956E+02  0.18693985494E+01 -0.10301166454E+02  0.14821931493E+02  0.00000000000E+00 0.  1.
         15    1    4    4    0    0 -0.26365260652E+02 -0.43267172375E+02 -0.89455502022E+02  0.10280788888E+03  0.00000000000E+00 0. -1.
         15    1    3    3    0    0  0.22392742920E+03  0.11355760763E+02  0.26189811727E+03  0.34476523995E+03  0.00000000000E+00 0. -1.
        -16    1    1    2    0    0 -0.18887805188E+03  0.27170789832E+03  0.51655390846E+03  0.61345581816E+03  0.00000000000E+00 0.  1.
         16    1    4    4    0    0 -0.14963703894E+02 -0.40630339367E+01 -0.43812212518E+02  0.46475054005E+02  0.00000000000E+00 0. -1.
    9900018    1    1    2    0    0  0.14660382190E+03 -0.13692552324E+03 -0.17192004901E+03  0.27948696062E+03  0.91187600000E+02 0.  0.
<mgrwt>
<rscale>  0 0.16481022E+04</rscale>
<asrwt>0</asrwt>
<pdfrwt beam="1">  1        2 0.10873064E+00 0.16481022E+04</pdfrwt>
<pdfrwt beam="2">  1       -2 0.14781877E+00 0.16481022E+04</pdfrwt>
<totfact> 0.12038502E+01</totfact>
</mgrwt>
</event>
<event>
11    1  0.9681768E-015  0.1623349E+04  0.7818608E-02  0.8806331E-01
          2   -1    0    0  501    0  0.00000000000E+00  0.00000000000E+00  0.28058887407E+04  0.28058887407E+04  0.00000000000E+00 0. -1.
         -2   -1    0    0    0  501 -0.00000000000E+00 -0.00000000000E+00 -0.23479744794E+03  0.23479744794E+03  0.00000000000E+00 0.  1.
    9900016    2    1    2    0    0 -0.20459382402E+03 -0.78645444517E+02  0.13924239199E+04  0.15774946365E+04  0.70823810744E+03 0.  0.
         24    2    3    3    0    0  0.15564873981E+03  0.34115409196E+02  0.59293027099E+02  0.19195225456E+03  0.89104509523E+02 0.  0.
        -15    1    4    4    0    0  0.27592095523E+02  0.26347753090E+02  0.32366024739E+02  0.50030864330E+02  0.00000000000E+00 0. -1.
        -15    1    4    4    0    0  0.34940162138E+02 -0.13819470116E+02 -0.66607270366E+01  0.38159637959E+02  0.00000000000E+00 0.  1.
         15    1    4    4    0    0  0.37579262714E+02 -0.59315192310E+00  0.19416259056E+02  0.42303001443E+02  0.00000000000E+00 0.  1.
         15    1    3    3    0    0 -0.36024256384E+03 -0.11276085371E+03  0.13331308928E+04  0.13855423820E+04  0.00000000000E+00 0. -1.
        -16    1    1    2    0    0 -0.44368424137E+01  0.24733470734E+03 -0.35692491978E+01  0.24740024771E+03  0.00000000000E+00 0.  1.
         16    1    4    4    0    0  0.55537219438E+02  0.22180278145E+02  0.14171470341E+02  0.61458750826E+02  0.00000000000E+00 0. -1.
    9900018    1    1    2    0    0  0.20903066644E+03 -0.16868926282E+03  0.11822366221E+04  0.12157913044E+04  0.91187600000E+02 0.  0.
<mgrwt>
<rscale>  0 0.16233490E+04</rscale>
<asrwt>0</asrwt>
<pdfrwt beam="1">  1        2 0.43167517E+00 0.16233490E+04</pdfrwt>
<pdfrwt beam="2">  1       -2 0.36122686E-01 0.16233490E+04</pdfrwt>
<totfact> 0.15892830E+01</totfact>
</mgrwt>
</event>
