<event>
13    1  0.2542120E-013  0.5861669E+04  0.7818608E-02  0.7707794E-01
         -2   -1    0    0    0  501 -0.00000000000E+00  0.00000000000E+00  0.33736596448E+04  0.33736596448E+04  0.00000000000E+00 0.  1.
          2   -1    0    0  501    0  0.00000000000E+00 -0.00000000000E+00 -0.25461344571E+04  0.25461344571E+04  0.00000000000E+00 0. -1.
    9900016    2    1    2    0    0  0.75956816062E+03 -0.10165991231E+04  0.16422877216E+04  0.29469559347E+04  0.20921335409E+04 0.  0.
         23    2    3    3    0    0  0.13841122426E+03  0.60947921947E+03  0.77575886091E+03  0.10025179743E+04  0.11232939292E+03 0.  0.
    9900016    2    1    2    0    0 -0.37803016753E+03  0.10406963317E+04 -0.64202710708E+03  0.25435310258E+04  0.21980435870E+04 0.  0.
         23    2    5    5    0    0 -0.30917461423E+03  0.23127719183E+03 -0.13869459156E+04  0.14413493427E+04  0.69216133950E+02 0.  0.
        -15    1    4    4    0    0  0.13655311930E+03  0.57497996431E+03  0.68107220440E+03  0.90172504754E+03  0.00000000000E+00 0.  1.
        -15    1    6    6    0    0 -0.27573676372E+03  0.22591222608E+03 -0.12203516383E+04  0.12713477958E+04  0.00000000000E+00 0.  1.
         15    1    4    4    0    0  0.18581049589E+01  0.34499255154E+02  0.94686656516E+02  0.10079292675E+03  0.00000000000E+00 0. -1.
         15    1    6    6    0    0 -0.33437850506E+02  0.53649657553E+01 -0.16659427729E+03  0.17000154685E+03  0.00000000000E+00 0. -1.
        -16    1    5    5    0    0 -0.68855553304E+02  0.80941913990E+03  0.74491880853E+03  0.11021816831E+04  0.00000000000E+00 0.  1.
         16    1    3    3    0    0  0.62115693636E+03 -0.16260783425E+04  0.86652886064E+03  0.19444379604E+04  0.00000000000E+00 0. -1.
    9900018    1    1    2    0    0 -0.38153799309E+03 -0.24097208680E+02 -0.17273542680E+03  0.42930714145E+03  0.91187600000E+02 0.  0.
<mgrwt>
<rscale>  0 0.58616691E+04</rscale>
<asrwt>0</asrwt>
<pdfrwt beam="1">  1        2 0.39171300E+00 0.58616691E+04</pdfrwt>
<pdfrwt beam="2">  1       -2 0.51902456E+00 0.58616691E+04</pdfrwt>
<totfact> 0.28567383E-03</totfact>
</mgrwt>
</event>
<event>
12    1  0.2542120E-013  0.6672029E+04  0.7818608E-02  0.7612238E-01
          2   -1    0    0  501    0  0.00000000000E+00  0.00000000000E+00  0.30344535613E+04  0.30344535613E+04  0.00000000000E+00 0. -1.
         -2   -1    0    0    0  501 -0.00000000000E+00 -0.00000000000E+00 -0.36675445622E+04  0.36675445622E+04  0.00000000000E+00 0.  1.
    9900016    2    1    2    0    0  0.26313482764E+03 -0.10722897990E+04  0.15021660296E+04  0.27813612360E+04  0.20640790184E+04 0.  0.
         23    2    3    3    0    0 -0.93455104472E+02  0.31557152701E+02 -0.47412649796E+03  0.48977518547E+03  0.73171618837E+02 0.  0.
    9900016    2    1    2    0    0 -0.18368228728E+03  0.24518217477E+03 -0.83592269865E+03  0.23756434855E+04  0.22025125948E+04 0.  0.
        -15    1    4    4    0    0 -0.79425199032E+02  0.35135072701E+01 -0.41790519917E+03  0.42540035551E+03  0.00000000000E+00 0. -1.
        -15    1    5    5    0    0  0.33985701447E+03 -0.46074302107E+02 -0.47878172328E+03  0.58894615216E+03  0.00000000000E+00 0. -1.
         15    1    5    5    0    0  0.41363742179E+03  0.15288508696E+03 -0.65855293235E+03  0.79256654688E+03  0.00000000000E+00 0.  1.
         15    1    4    4    0    0 -0.14029905440E+02  0.28043645431E+02 -0.56221298789E+02  0.64374829967E+02  0.00000000000E+00 0.  1.
        -16    1    5    5    0    0 -0.93717672354E+03  0.13837138991E+03  0.30141195698E+03  0.99413078642E+03  0.00000000000E+00 0.  1.
         16    1    3    3    0    0  0.35658993211E+03 -0.11038469517E+04  0.19762925276E+04  0.22915860505E+04  0.00000000000E+00 0. -1.
    9900018    1    1    2    0    0 -0.79452540361E+02  0.82710762419E+03 -0.12993343318E+04  0.15449934021E+04  0.91187600000E+02 0.  0.
<mgrwt>
<rscale>  0 0.66720293E+04</rscale>
<asrwt>0</asrwt>
<pdfrwt beam="1">  1        2 0.46683901E+00 0.66720293E+04</pdfrwt>
<pdfrwt beam="2">  1       -2 0.56423762E+00 0.66720293E+04</pdfrwt>
<totfact> 0.78670492E-04</totfact>
</mgrwt>
</event>
<event>
13    1  0.2542120E-013  0.4798693E+04  0.7818608E-02  0.7860334E-01
          2   -1    0    0  501    0  0.00000000000E+00  0.00000000000E+00  0.26140070706E+04  0.26140070706E+04  0.00000000000E+00 0. -1.
         -2   -1    0    0    0  501 -0.00000000000E+00 -0.00000000000E+00 -0.22023132989E+04  0.22023132989E+04  0.00000000000E+00 0.  1.
    9900016    2    1    2    0    0  0.36916595844E+03 -0.12161289297E+03 -0.36582920437E+03  0.21366829624E+04  0.20689393114E+04 0.  0.
         23    2    3    3    0    0 -0.10487058693E+03  0.19148986085E+03 -0.11473547876E+04  0.11704913571E+04  0.77206228681E+02 0.  0.
    9900016    2    1    2    0    0 -0.14203165705E+03 -0.88527195558E+02  0.52439651427E+03  0.22695922490E+04  0.22018281533E+04 0.  0.
         23    2    5    5    0    0 -0.47330382977E+03  0.46100862549E+03  0.11773419192E+04  0.13541313963E+04  0.10484453071E+03 0.  0.
        -15    1    6    6    0    0 -0.34894959517E+02  0.79285766774E+02  0.12849450812E+03  0.15496686623E+03  0.00000000000E+00 0. -1.
        -15    1    4    4    0    0 -0.42768935896E+01  0.84657195668E+02 -0.43415871163E+03  0.44235610031E+03  0.00000000000E+00 0.  1.
         15    1    4    4    0    0 -0.10059369334E+03  0.10683266519E+03 -0.71319607595E+03  0.72813525683E+03  0.00000000000E+00 0. -1.
         15    1    6    6    0    0 -0.43840887026E+03  0.38172285871E+03  0.10488474111E+04  0.11991645300E+04  0.00000000000E+00 0.  1.
        -16    1    5    5    0    0  0.33127217272E+03 -0.54953582105E+03 -0.65294540493E+03  0.91546085271E+03  0.00000000000E+00 0.  1.
         16    1    3    3    0    0  0.47403654537E+03 -0.31310275383E+03  0.78152558322E+03  0.96619160523E+03  0.00000000000E+00 0. -1.
    9900018    1    1    2    0    0 -0.22713430139E+03  0.21014008853E+03  0.25312646175E+03  0.41004515813E+03  0.91187600000E+02 0.  0.
<mgrwt>
<rscale>  0 0.47986925E+04</rscale>
<asrwt>0</asrwt>
<pdfrwt beam="1">  1        2 0.40215493E+00 0.47986925E+04</pdfrwt>
<pdfrwt beam="2">  1       -2 0.33881743E+00 0.47986925E+04</pdfrwt>
<totfact> 0.40400331E-02</totfact>
</mgrwt>
</event>
<event>
11    1  0.2542120E-013  0.5455352E+04  0.7818608E-02  0.7761863E-01
         -2   -1    0    0    0  501 -0.00000000000E+00  0.00000000000E+00  0.21885734018E+04  0.21885734018E+04  0.00000000000E+00 0.  1.
          2   -1    0    0  501    0  0.00000000000E+00 -0.00000000000E+00 -0.33995730062E+04  0.33995730062E+04  0.00000000000E+00 0. -1.
    9900016    2    1    2    0    0  0.55512825426E+03  0.15540394004E+03 -0.25805834166E+03  0.23046804979E+04  0.22164476819E+04 0.  0.
         23    2    3    3    0    0 -0.29780564606E+03 -0.10393261486E+02  0.84351040660E+03  0.90166992862E+03  0.11270595121E+03 0.  0.
        -15    1    1    2    0    0  0.53057879711E+03 -0.10060271951E+04 -0.11193621614E+03  0.11428623249E+04  0.00000000000E+00 0.  1.
        -15    1    4    4    0    0 -0.24499991097E+03 -0.27969049700E+02  0.54744723777E+03  0.60042127066E+03  0.00000000000E+00 0.  1.
         15    1    4    4    0    0 -0.52805735085E+02  0.17575788213E+02  0.29606316883E+03  0.30124865796E+03  0.00000000000E+00 0. -1.
         15    1    1    2    0    0 -0.16490561550E+03 -0.25717668153E+03 -0.18914736332E+03  0.35931940192E+03  0.00000000000E+00 0. -1.
        -16    1    1    2    0    0 -0.55868737157E+03  0.28590991754E+03 -0.61362638795E+03  0.87773196597E+03  0.00000000000E+00 0.  1.
         16    1    3    3    0    0  0.85293390031E+03  0.16579720153E+03 -0.11015687483E+04  0.14030105693E+04  0.00000000000E+00 0. -1.
    9900018    1    1    2    0    0 -0.36211406430E+03  0.82189001904E+03 -0.38231295373E+02  0.90355221725E+03  0.91187600000E+02 0.  0.
<mgrwt>
<rscale>  0 0.54553515E+04</rscale>
<asrwt>0</asrwt>
<pdfrwt beam="1">  1        2 0.52301123E+00 0.54553515E+04</pdfrwt>
<pdfrwt beam="2">  1       -2 0.33670360E+00 0.54553515E+04</pdfrwt>
<totfact> 0.12612765E-02</totfact>
</mgrwt>
</event>
<event>
12    1  0.2542120E-013  0.5365146E+04  0.7818608E-02  0.7774523E-01
          2   -1    0    0  501    0  0.00000000000E+00  0.00000000000E+00  0.23293536310E+04  0.23293536310E+04  0.00000000000E+00 0. -1.
         -2   -1    0    0    0  501 -0.00000000000E+00 -0.00000000000E+00 -0.30893538792E+04  0.30893538792E+04  0.00000000000E+00 0.  1.
    9900016    2    1    2    0    0 -0.55217359541E+03 -0.70991394626E+03 -0.58116391763E+03  0.25406106095E+04  0.23039264917E+04 0.  0.
         23    2    3    3    0    0 -0.56973249016E+03  0.51085673240E+02 -0.13425189276E+04  0.14640001011E+04  0.11719372279E+03 0.  0.
    9900016    2    1    2    0    0  0.34998710057E+02  0.32686633920E+03 -0.19061695268E+03  0.22279820702E+04  0.21953365959E+04 0.  0.
        -15    1    5    5    0    0  0.53632731607E+03  0.66542541463E+03 -0.45308483813E+03  0.96732819815E+03  0.00000000000E+00 0. -1.
        -15    1    4    4    0    0 -0.14134326117E+03  0.36851186329E+02 -0.46485226907E+03  0.48726128460E+03  0.00000000000E+00 0.  1.
         15    1    4    4    0    0 -0.42838922899E+03  0.14234486911E+02 -0.87766665851E+03  0.97673881647E+03  0.00000000000E+00 0. -1.
         15    1    5    5    0    0  0.18741619099E+03  0.25771919367E+03  0.27513268756E+02  0.31984526164E+03  0.00000000000E+00 0.  1.
        -16    1    5    5    0    0 -0.68874479701E+03 -0.59627826910E+03  0.23495461669E+03  0.94080861046E+03  0.00000000000E+00 0.  1.
         16    1    3    3    0    0  0.17558894742E+02 -0.76099961950E+03  0.76135500994E+03  0.10766105084E+04  0.00000000000E+00 0. -1.
    9900018    1    1    2    0    0  0.51717488536E+03  0.38304760707E+03  0.11780622100E+02  0.65011483045E+03  0.91187600000E+02 0.  0.
<mgrwt>
<rscale>  0 0.53651459E+04</rscale>
<asrwt>0</asrwt>
<pdfrwt beam="1">  1        2 0.35836209E+00 0.53651459E+04</pdfrwt>
<pdfrwt beam="2">  1       -2 0.47528522E+00 0.53651459E+04</pdfrwt>
<totfact> 0.73531280E-03</totfact>
</mgrwt>
</event>
