<event>
11    1  0.1318428E-011  0.2325338E+04  0.7818608E-02  0.8467997E-01
          2   -1    0    0  501    0  0.00000000000E+00  0.00000000000E+00  0.19442492196E+04  0.19442492196E+04  0.00000000000E+00 0. -1.
         -2   -1    0    0    0  501 -0.00000000000E+00 -0.00000000000E+00 -0.69528093081E+03  0.69528093081E+03  0.00000000000E+00 0.  1.
    9900016    2    1    2    0    0  0.66277635663E+03 -0.12366447115E+03 -0.23428050157E+03  0.10102381648E+04  0.71493244145E+03 0.  0.
         23    2    3    3    0    0  0.17857176850E+03 -0.10592024645E+03 -0.11283660793E+03  0.25442232322E+03  0.94295510745E+02 0.  0.
        -15    1    4    4    0    0  0.13486706911E+02 -0.31173210711E+02 -0.54181511690E+02  0.63947607762E+02  0.00000000000E+00 0.  1.
        -15    1    3    3    0    0  0.10377998605E+03 -0.16619322029E+03 -0.76566867007E+02  0.21036386833E+03  0.00000000000E+00 0.  1.
         15    1    3    3    0    0  0.10807951182E+03  0.15451795768E+03 -0.54947004224E+01  0.18864562506E+03  0.00000000000E+00 0. -1.
         15    1    4    4    0    0  0.16508506159E+03 -0.74747035743E+02 -0.58655096241E+02  0.19047471546E+03  0.00000000000E+00 0. -1.
        -16    1    3    3    0    0  0.12041017375E+01  0.52524418376E+02  0.24385319776E+02  0.57921569447E+02  0.00000000000E+00 0.  1.
         16    1    1    2    0    0 -0.66277635663E+03  0.12366447115E+03  0.14832487903E+04  0.16292919856E+04  0.00000000000E+00 0. -1.
    9900018    1    3    3    0    0  0.27114098852E+03 -0.58593380463E+02 -0.63767645984E+02  0.29888477873E+03  0.91187600000E+02 0.  0.
<mgrwt>
<rscale>  0 0.23253382E+04</rscale>
<asrwt>0</asrwt>
<pdfrwt beam="1">  1        2 0.29911526E+00 0.23253382E+04</pdfrwt>
<pdfrwt beam="2">  1       -2 0.10696630E+00 0.23253382E+04</pdfrwt>
<totfact> 0.45636821E+00</totfact>
</mgrwt>
</event>
<event>
12    1  0.1318428E-011  0.1682404E+04  0.7818608E-02  0.8771464E-01
         -1   -1    0    0    0  501 -0.00000000000E+00  0.00000000000E+00  0.32427740700E+03  0.32427740700E+03  0.00000000000E+00 0.  1.
          1   -1    0    0  501    0  0.00000000000E+00 -0.00000000000E+00 -0.21821473911E+04  0.21821473911E+04  0.00000000000E+00 0. -1.
    9900016    2    1    2    0    0  0.16563863798E+03  0.43832129777E+03 -0.34212353747E+03  0.91990375854E+03  0.71387162124E+03 0.  0.
    9900016    2    3    3    0    0  0.16494445089E+03  0.48985109001E+03 -0.30939053727E+03  0.84090035003E+03  0.58671128493E+03 0.  0.
         23    2    4    4    0    0  0.25571411020E+02  0.48480299451E+02  0.87735645294E+01  0.10901981573E+03  0.93830209903E+02 0.  0.
        -15    1    5    5    0    0 -0.22660231195E+02  0.45593881348E+02 -0.17726295715E+02  0.53912054812E+02  0.00000000000E+00 0.  1.
        -15    1    3    3    0    0 -0.13519163179E+02 -0.92202639126E+01  0.83232334591E+01  0.18359119120E+02  0.00000000000E+00 0. -1.
         15    1    5    5    0    0  0.48231642215E+02  0.28864181025E+01  0.26499860244E+02  0.55107760916E+02  0.00000000000E+00 0. -1.
         15    1    3    3    0    0  0.14213350268E+02 -0.42309528328E+02 -0.41056233667E+02  0.60644289394E+02  0.00000000000E+00 0.  1.
        -16    1    4    4    0    0  0.21905211392E+03  0.19530642036E+03 -0.34889995359E+03  0.45591622483E+03  0.00000000000E+00 0.  1.
         16    1    1    2    0    0 -0.16563863798E+03 -0.43832129777E+03 -0.15157464466E+04  0.15865210396E+04  0.00000000000E+00 0. -1.
    9900018    1    4    4    0    0 -0.79679074047E+02  0.24606437020E+03  0.30735851798E+02  0.27596430947E+03  0.91187600000E+02 0.  0.
<mgrwt>
<rscale>  0 0.16824043E+04</rscale>
<asrwt>0</asrwt>
<pdfrwt beam="1">  1        1 0.33571498E+00 0.16824043E+04</pdfrwt>
<pdfrwt beam="2">  1       -1 0.49888832E-01 0.16824043E+04</pdfrwt>
<totfact> 0.86125331E+00</totfact>
</mgrwt>
</event>
<event>
12    1  0.1318428E-011  0.9004432E+03  0.7818608E-02  0.9425028E-01
          1   -1    0    0  501    0  0.00000000000E+00  0.00000000000E+00  0.65432309014E+03  0.65432309014E+03  0.00000000000E+00 0. -1.
         -1   -1    0    0    0  501 -0.00000000000E+00 -0.00000000000E+00 -0.30978500964E+03  0.30978500964E+03  0.00000000000E+00 0.  1.
    9900016    2    1    2    0    0 -0.13434137275E+03 -0.88648036441E+02  0.23661299849E+03  0.77031980776E+03  0.71519285257E+03 0.  0.
    9900016    2    3    3    0    0 -0.19725322381E+03 -0.11924796459E+02  0.24579017012E+03  0.64713800026E+03  0.56508738137E+03 0.  0.
         23    2    4    4    0    0 -0.90401287155E+02  0.13034881595E+02  0.52852671078E+02  0.13712327480E+03  0.87561902647E+02 0.  0.
        -15    1    5    5    0    0 -0.39494894103E+02 -0.29161370387E+02 -0.48916634441E+01  0.49337212673E+02  0.00000000000E+00 0.  1.
        -15    1    3    3    0    0 -0.24197153618E+01 -0.41372681067E+02 -0.23336399555E+02  0.47561973311E+02  0.00000000000E+00 0.  1.
         15    1    5    5    0    0 -0.50906393052E+02  0.42196251982E+02  0.57744334522E+02  0.87786062130E+02  0.00000000000E+00 0. -1.
         15    1    3    3    0    0  0.65331566419E+02 -0.35350558916E+02  0.14159227931E+02  0.75619834184E+02  0.00000000000E+00 0. -1.
        -16    1    1    2    0    0  0.13434137275E+03  0.88648036441E+02  0.10792508201E+03  0.19378829202E+03  0.00000000000E+00 0.  1.
         16    1    4    4    0    0  0.15916657115E+03  0.69892037354E+02  0.91021000638E+02  0.19622363979E+03  0.00000000000E+00 0. -1.
    9900018    1    4    4    0    0 -0.26601850780E+03 -0.94851715407E+02  0.10191649840E+03  0.31379108567E+03  0.91187600000E+02 0.  0.
<mgrwt>
<rscale>  0 0.90044319E+03</rscale>
<asrwt>0</asrwt>
<pdfrwt beam="1">  1        1 0.10066509E+00 0.90044319E+03</pdfrwt>
<pdfrwt beam="2">  1       -1 0.47659232E-01 0.90044319E+03</pdfrwt>
<totfact> 0.13355822E+02</totfact>
</mgrwt>
</event>
<event>
12    1  0.1318428E-011  0.9322661E+03  0.7818608E-02  0.9386122E-01
          1   -1    0    0  501    0  0.00000000000E+00  0.00000000000E+00  0.18979153879E+03  0.18979153879E+03  0.00000000000E+00 0. -1.
         -1   -1    0    0    0  501 -0.00000000000E+00 -0.00000000000E+00 -0.11448352095E+04  0.11448352095E+04  0.00000000000E+00 0.  1.
    9900016    2    1    2    0    0 -0.74931944767E+02 -0.14818995520E+03 -0.89727843389E+03  0.11588089967E+04  0.71425110698E+03 0.  0.
    9900016    2    3    3    0    0  0.69600016397E+00 -0.11686204037E+03 -0.67525938953E+03  0.88841746948E+03  0.56537875449E+03 0.  0.
         23    2    4    4    0    0  0.12550908233E+03 -0.76384062051E+02 -0.27759260284E+03  0.32655682854E+03  0.89412831460E+02 0.  0.
        -15    1    3    3    0    0 -0.46584823051E+02 -0.58969012299E+01 -0.22669375942E+03  0.23150589569E+03  0.00000000000E+00 0.  1.
        -15    1    5    5    0    0  0.45637356605E+02 -0.22118757497E+02 -0.18839520653E+03  0.19510192616E+03  0.00000000000E+00 0.  1.
         15    1    3    3    0    0 -0.29043121880E+02 -0.25431013593E+02  0.46747150554E+01  0.38885631559E+02  0.00000000000E+00 0. -1.
         15    1    5    5    0    0  0.79871725725E+02 -0.54265304554E+02 -0.89197396317E+02  0.13145490238E+03  0.00000000000E+00 0. -1.
        -16    1    4    4    0    0 -0.13166003724E+03 -0.17707093595E+03 -0.15861749012E+03  0.27174986649E+03  0.00000000000E+00 0.  1.
         16    1    1    2    0    0  0.74931944767E+02  0.14818995520E+03 -0.57765236783E+02  0.17581775152E+03  0.00000000000E+00 0. -1.
    9900018    1    4    4    0    0  0.68469550779E+01  0.13659295763E+03 -0.23904929656E+03  0.29011077444E+03  0.91187600000E+02 0.  0.
<mgrwt>
<rscale>  0 0.93226613E+03</rscale>
<asrwt>0</asrwt>
<pdfrwt beam="1">  1        1 0.29198699E-01 0.93226613E+03</pdfrwt>
<pdfrwt beam="2">  1       -1 0.17612849E+00 0.93226613E+03</pdfrwt>
<totfact> 0.35643516E+01</totfact>
</mgrwt>
</event>
<event>
11    1  0.1318428E-011  0.8973281E+03  0.7818608E-02  0.9428928E-01
         -2   -1    0    0    0  501 -0.00000000000E+00  0.00000000000E+00  0.37919266247E+03  0.37919266247E+03  0.00000000000E+00 0.  1.
          2   -1    0    0  501    0  0.00000000000E+00 -0.00000000000E+00 -0.53086321847E+03  0.53086321847E+03  0.00000000000E+00 0. -1.
    9900016    2    1    2    0    0  0.32562371308E+02 -0.74336375874E+02  0.20535431880E+02  0.71968490872E+03  0.71479959365E+03 0.  0.
         23    2    3    3    0    0  0.61340066455E+02  0.47347934044E+02  0.58023764823E+02  0.13566686721E+03  0.95048992444E+02 0.  0.
        -15    1    3    3    0    0 -0.43014292988E+02  0.11059057932E+02  0.61269328511E+02  0.75673395456E+02  0.00000000000E+00 0. -1.
        -15    1    4    4    0    0  0.63497273823E+02  0.60757152803E+02  0.13246580877E+02  0.88875234484E+02  0.00000000000E+00 0. -1.
         15    1    4    4    0    0 -0.21572073687E+01 -0.13409218759E+02  0.44777183947E+02  0.46791632730E+02  0.00000000000E+00 0.  1.
         15    1    3    3    0    0  0.13037326872E+03  0.40509496275E+02 -0.46909273512E+02  0.14435611669E+03  0.00000000000E+00 0.  1.
        -16    1    3    3    0    0 -0.12247695520E+03 -0.18020776940E+03  0.53478062038E+02  0.22435540517E+03  0.00000000000E+00 0.  1.
         16    1    1    2    0    0 -0.32562371308E+02  0.74336375874E+02 -0.17220598788E+03  0.19037097222E+03  0.00000000000E+00 0. -1.
    9900018    1    3    3    0    0  0.63402843145E+01  0.69549052798E+01 -0.10532644998E+03  0.13963312419E+03  0.91187600000E+02 0.  0.
<mgrwt>
<rscale>  0 0.89732812E+03</rscale>
<asrwt>0</asrwt>
<pdfrwt beam="1">  1        2 0.81671264E-01 0.89732812E+03</pdfrwt>
<pdfrwt beam="2">  1       -2 0.58337333E-01 0.89732812E+03</pdfrwt>
<totfact> 0.15838775E+02</totfact>
</mgrwt>
</event>
<event>
12    1  0.1318428E-011  0.1074607E+04  0.7818608E-02  0.9230302E-01
          1   -1    0    0  501    0  0.00000000000E+00  0.00000000000E+00  0.26325905419E+04  0.26325905419E+04  0.00000000000E+00 0. -1.
         -1   -1    0    0    0  501 -0.00000000000E+00 -0.00000000000E+00 -0.10966187193E+03  0.10966187193E+03  0.00000000000E+00 0.  1.
    9900016    2    1    2    0    0  0.25688069907E+03 -0.15694245443E+03  0.18056367878E+04  0.19643537882E+04  0.71256085226E+03 0.  0.
    9900016    2    3    3    0    0  0.81766998587E+02 -0.50077345065E+02  0.14198960325E+04  0.15251551912E+04  0.54845239669E+03 0.  0.
         23    2    4    4    0    0 -0.17808959191E+03  0.61621561485E+02  0.36543865883E+03  0.42108573234E+03  0.90855165109E+02 0.  0.
        -15    1    3    3    0    0  0.50838973463E+02 -0.35313898476E+02  0.77124500711E+02  0.98893181051E+02  0.00000000000E+00 0.  1.
        -15    1    5    5    0    0 -0.13320838169E+03  0.59813032010E+02  0.33864156143E+03  0.36878202082E+03  0.00000000000E+00 0.  1.
         15    1    3    3    0    0  0.12427472702E+03 -0.71551210893E+02  0.30861625453E+03  0.34030541594E+03  0.00000000000E+00 0. -1.
         15    1    5    5    0    0 -0.44881210224E+02  0.18085294747E+01  0.26797097397E+02  0.52303711522E+02  0.00000000000E+00 0. -1.
        -16    1    1    2    0    0 -0.25688069907E+03  0.15694245443E+03  0.71729188221E+03  0.77789862569E+03  0.00000000000E+00 0.  1.
         16    1    4    4    0    0  0.17894133151E+03 -0.91720154038E+02  0.71898650271E+03  0.74657496466E+03  0.00000000000E+00 0. -1.
    9900018    1    4    4    0    0  0.80915258988E+02 -0.19978752512E+02  0.33547087100E+03  0.35749449419E+03  0.91187600000E+02 0.  0.
<mgrwt>
<rscale>  0 0.10746065E+04</rscale>
<asrwt>0</asrwt>
<pdfrwt beam="1">  1        1 0.40501388E+00 0.10746065E+04</pdfrwt>
<pdfrwt beam="2">  1       -1 0.16871059E-01 0.10746065E+04</pdfrwt>
<totfact> 0.30004512E+01</totfact>
</mgrwt>
</event>
<event>
11    1  0.1318428E-011  0.9230392E+03  0.7818608E-02  0.9397231E-01
         -1   -1    0    0    0  501 -0.00000000000E+00  0.00000000000E+00  0.45319675145E+03  0.45319675145E+03  0.00000000000E+00 0.  1.
          1   -1    0    0  501    0  0.00000000000E+00 -0.00000000000E+00 -0.46999532227E+03  0.46999532227E+03  0.00000000000E+00 0. -1.
    9900016    2    1    2    0    0 -0.17577677775E+03  0.30989924155E+01 -0.40955201985E+02  0.74573610121E+03  0.72355920610E+03 0.  0.
         23    2    3    3    0    0 -0.93246156529E+02 -0.23197761556E+02 -0.88115168436E+02  0.16110614419E+03  0.94646314979E+02 0.  0.
        -15    1    3    3    0    0  0.33767544293E+02 -0.50495801298E+01  0.63108587583E+02  0.71752624578E+02  0.00000000000E+00 0.  1.
        -15    1    4    4    0    0  0.11952076466E+01  0.23378442993E+02  0.59727839374E+00  0.23416593680E+02  0.00000000000E+00 0.  1.
         15    1    4    4    0    0 -0.94441364175E+02 -0.46576204549E+02 -0.88712446830E+02  0.13768955051E+03  0.00000000000E+00 0. -1.
         15    1    3    3    0    0  0.90229625166E+02 -0.32180954836E+01 -0.11871256208E+03  0.14914561271E+03  0.00000000000E+00 0. -1.
        -16    1    1    2    0    0  0.17577677775E+03 -0.30989924155E+01  0.24156631169E+02  0.17745597251E+03  0.00000000000E+00 0.  1.
         16    1    3    3    0    0 -0.22645718942E+03 -0.29467669958E+02  0.32923718092E+02  0.23072748736E+03  0.00000000000E+00 0. -1.
    9900018    1    3    3    0    0  0.19929398739E+02  0.64032099543E+02  0.69840222853E+02  0.13300423237E+03  0.91187600000E+02 0.  0.
<mgrwt>
<rscale>  0 0.92303923E+03</rscale>
<asrwt>0</asrwt>
<pdfrwt beam="1">  1        1 0.72306973E-01 0.92303923E+03</pdfrwt>
<pdfrwt beam="2">  1       -1 0.69722577E-01 0.92303923E+03</pdfrwt>
<totfact> 0.10111584E+02</totfact>
</mgrwt>
</event>
<event>
12    1  0.1318428E-011  0.1775266E+04  0.7818608E-02  0.8719565E-01
         -1   -1    0    0    0  501 -0.00000000000E+00  0.00000000000E+00  0.29260126294E+03  0.29260126294E+03  0.00000000000E+00 0.  1.
          1   -1    0    0  501    0  0.00000000000E+00 -0.00000000000E+00 -0.26927154254E+04  0.26927154254E+04  0.00000000000E+00 0. -1.
    9900016    2    1    2    0    0  0.60236754036E+03 -0.41390268467E+03 -0.14942258018E+04  0.18213597269E+04  0.74194233068E+03 0.  0.
    9900016    2    3    3    0    0  0.59166479693E+03 -0.35120555004E+03 -0.12674110366E+04  0.15490089573E+04  0.56540732556E+03 0.  0.
         23    2    4    4    0    0  0.29705838156E+02  0.73998911794E+02 -0.90599917375E+02  0.14856620502E+03  0.86633114206E+02 0.  0.
        -15    1    5    5    0    0 -0.26901231865E+02  0.41832146737E+02 -0.55776608210E+02  0.74730414156E+02  0.00000000000E+00 0. -1.
        -15    1    3    3    0    0 -0.37681036820E+02 -0.87861809974E+02 -0.15610542406E+03  0.18305316607E+03  0.00000000000E+00 0.  1.
         15    1    5    5    0    0  0.56607070021E+02  0.32166765057E+02 -0.34823309166E+02  0.73835790859E+02  0.00000000000E+00 0.  1.
         15    1    3    3    0    0  0.48383780249E+02  0.25164675345E+02 -0.70709341150E+02  0.89297603564E+02  0.00000000000E+00 0. -1.
        -16    1    1    2    0    0 -0.60236754036E+03  0.41390268467E+03 -0.90588836071E+03  0.11639569615E+04  0.00000000000E+00 0.  1.
         16    1    4    4    0    0  0.23660837614E+03 -0.27312343580E+03 -0.39551865311E+03  0.53573775282E+03  0.00000000000E+00 0. -1.
    9900018    1    4    4    0    0  0.32535058263E+03 -0.15208102604E+03 -0.78129246607E+03  0.86470499942E+03  0.91187600000E+02 0.  0.
<mgrwt>
<rscale>  0 0.17752655E+04</rscale>
<asrwt>0</asrwt>
<pdfrwt beam="1">  1        1 0.41426391E+00 0.17752655E+04</pdfrwt>
<pdfrwt beam="2">  1       -1 0.45015579E-01 0.17752655E+04</pdfrwt>
<totfact> 0.46046128E+00</totfact>
</mgrwt>
</event>
<event>
11    1  0.1318428E-011  0.1183918E+04  0.7818608E-02  0.9127050E-01
          1   -1    0    0  501    0  0.00000000000E+00  0.00000000000E+00  0.35020098612E+03  0.35020098612E+03  0.00000000000E+00 0. -1.
         -1   -1    0    0    0  501 -0.00000000000E+00 -0.00000000000E+00 -0.10006129331E+04  0.10006129331E+04  0.00000000000E+00 0.  1.
    9900016    2    1    2    0    0  0.13496962855E+03  0.35066938945E+03 -0.43617810552E+03  0.91828419750E+03  0.71540806979E+03 0.  0.
         23    2    3    3    0    0  0.15262052341E+03  0.28793032164E+02 -0.65475685366E+02  0.19168452770E+03  0.91289812794E+02 0.  0.
        -15    1    3    3    0    0 -0.72945911377E+02 -0.23110173347E+02 -0.10569861664E+03  0.13048901739E+03  0.00000000000E+00 0.  1.
        -15    1    4    4    0    0  0.56449273743E+02  0.56707997123E+02 -0.29139380248E+02  0.85155275380E+02  0.00000000000E+00 0.  1.
         15    1    3    3    0    0  0.10985180268E+03  0.12597491974E+03  0.40502452285E+02  0.17198124199E+03  0.00000000000E+00 0. -1.
         15    1    4    4    0    0  0.96171249662E+02 -0.27914964959E+02 -0.36336305118E+02  0.10652925232E+03  0.00000000000E+00 0. -1.
        -16    1    1    2    0    0 -0.13496962855E+03 -0.35066938945E+03 -0.21423384141E+03  0.43252972168E+03  0.00000000000E+00 0.  1.
         16    1    3    3    0    0 -0.86020851933E+02  0.97736616551E+02 -0.19226150335E+03  0.23219930846E+03  0.00000000000E+00 0. -1.
    9900018    1    3    3    0    0  0.31464065771E+02  0.12127499434E+03 -0.11324475245E+03  0.19193010196E+03  0.91187600000E+02 0.  0.
<mgrwt>
<rscale>  0 0.11839183E+04</rscale>
<asrwt>0</asrwt>
<pdfrwt beam="1">  1        1 0.53877076E-01 0.11839183E+04</pdfrwt>
<pdfrwt beam="2">  1       -1 0.15394045E+00 0.11839183E+04</pdfrwt>
<totfact> 0.23059041E+01</totfact>
</mgrwt>
</event>
<event>
12    1  0.1318428E-011  0.9359234E+03  0.7818608E-02  0.9381757E-01
          1   -1    0    0  501    0  0.00000000000E+00  0.00000000000E+00  0.20404588815E+04  0.20404588815E+04  0.00000000000E+00 0. -1.
         -1   -1    0    0    0  501 -0.00000000000E+00 -0.00000000000E+00 -0.10732299599E+03  0.10732299599E+03  0.00000000000E+00 0.  1.
    9900016    2    1    2    0    0 -0.19553848882E+03  0.77481869841E+01  0.15837978823E+04  0.17473666236E+04  0.71174366909E+03 0.  0.
    9900016    2    3    3    0    0 -0.64941862523E+02  0.35188841468E+02  0.11373971408E+04  0.12710531676E+04  0.56253728661E+03 0.  0.
         23    2    4    4    0    0 -0.51201153519E+02 -0.13656357265E+03  0.36127848923E+03  0.40020327282E+03  0.91484125945E+02 0.  0.
        -15    1    5    5    0    0  0.26772718241E+02 -0.35233222156E+02  0.88533362100E+02  0.98976333486E+02  0.00000000000E+00 0.  1.
        -15    1    3    3    0    0  0.11844671120E+01 -0.28476999513E+02  0.40266015280E+02  0.49332488789E+02  0.00000000000E+00 0.  1.
         15    1    5    5    0    0 -0.77973871760E+02 -0.10133035050E+03  0.27274512713E+03  0.30122693933E+03  0.00000000000E+00 0. -1.
         15    1    3    3    0    0 -0.13178109341E+03  0.10363450288E+01  0.40613472619E+03  0.42698096727E+03  0.00000000000E+00 0. -1.
        -16    1    4    4    0    0  0.15649066478E+03  0.88656142200E+02  0.29042592671E+03  0.34160863370E+03  0.00000000000E+00 0.  1.
         16    1    1    2    0    0  0.19553848882E+03 -0.77481869841E+01  0.34933800321E+03  0.40041525383E+03  0.00000000000E+00 0. -1.
    9900018    1    4    4    0    0 -0.17023137378E+03  0.83096271921E+02  0.48569272485E+03  0.52924126105E+03  0.91187600000E+02 0.  0.
<mgrwt>
<rscale>  0 0.93592342E+03</rscale>
<asrwt>0</asrwt>
<pdfrwt beam="1">  1        1 0.31391672E+00 0.93592342E+03</pdfrwt>
<pdfrwt beam="2">  1       -1 0.16511232E-01 0.93592342E+03</pdfrwt>
<totfact> 0.79716698E+01</totfact>
</mgrwt>
</event>
<event>
11    1  0.1318428E-011  0.1974590E+04  0.7818608E-02  0.8618594E-01
          1   -1    0    0  501    0  0.00000000000E+00  0.00000000000E+00  0.21761589997E+04  0.21761589997E+04  0.00000000000E+00 0. -1.
         -1   -1    0    0    0  501 -0.00000000000E+00 -0.00000000000E+00 -0.44792289656E+03  0.44792289656E+03  0.00000000000E+00 0.  1.
    9900016    2    1    2    0    0 -0.53660583018E+03 -0.32248777565E+03  0.18499916021E+03  0.95869171842E+03  0.70208328513E+03 0.  0.
         23    2    3    3    0    0 -0.10607530083E+01  0.20697477788E+02 -0.20533545920E+02  0.95574272910E+02  0.91012660386E+02 0.  0.
        -15    1    3    3    0    0  0.89687630492E+02 -0.13127769337E+02 -0.32316066999E+02  0.96231686971E+02  0.00000000000E+00 0.  1.
        -15    1    4    4    0    0 -0.17750006855E+02  0.53563171289E+02 -0.10821263885E+02  0.57455859701E+02  0.00000000000E+00 0.  1.
         15    1    4    4    0    0  0.16689253847E+02 -0.32865693501E+02 -0.97122820355E+01  0.38118413209E+02  0.00000000000E+00 0. -1.
         15    1    3    3    0    0 -0.20585396863E+03 -0.10962262229E+03  0.95855401921E+02  0.25215319510E+03  0.00000000000E+00 0. -1.
        -16    1    3    3    0    0 -0.20751711956E+03 -0.13911737260E+03  0.81554052057E+02  0.26280803199E+03  0.00000000000E+00 0.  1.
         16    1    1    2    0    0  0.53660583018E+03  0.32248777565E+03  0.15432369429E+04  0.16653901779E+04  0.00000000000E+00 0. -1.
    9900018    1    3    3    0    0 -0.21186161947E+03 -0.81317489209E+02  0.60439319151E+02  0.25192453145E+03  0.91187600000E+02 0.  0.
<mgrwt>
<rscale>  0 0.19745900E+04</rscale>
<asrwt>0</asrwt>
<pdfrwt beam="1">  1        1 0.33479368E+00 0.19745900E+04</pdfrwt>
<pdfrwt beam="2">  1       -1 0.68911216E-01 0.19745900E+04</pdfrwt>
<totfact> 0.44803872E+00</totfact>
</mgrwt>
</event>
<event>
11    1  0.1318428E-011  0.8714335E+03  0.7818608E-02  0.9462013E-01
         -1   -1    0    0    0  501 -0.00000000000E+00  0.00000000000E+00  0.18386498095E+03  0.18386498095E+03  0.00000000000E+00 0.  1.
          1   -1    0    0  501    0  0.00000000000E+00 -0.00000000000E+00 -0.10325461882E+04  0.10325461882E+04  0.00000000000E+00 0. -1.
    9900016    2    1    2    0    0  0.94992436212E+02  0.10412411706E+03 -0.67990289193E+03  0.99652139127E+03  0.71478776298E+03 0.  0.
         23    2    3    3    0    0  0.12520438650E+02  0.11247543106E+03 -0.72270861768E+02  0.16256348730E+03  0.91631468207E+02 0.  0.
        -15    1    4    4    0    0  0.25703357113E+02 -0.10740031202E+01  0.26888634646E+01  0.25865924231E+02  0.00000000000E+00 0. -1.
        -15    1    3    3    0    0 -0.32606359363E+02  0.27679604206E+02  0.78485244825E+02  0.89382709821E+02  0.00000000000E+00 0. -1.
         15    1    3    3    0    0  0.24553881408E+02  0.28744286331E+02 -0.26896938167E+02  0.46395822782E+02  0.00000000000E+00 0.  1.
         15    1    4    4    0    0 -0.13182918463E+02  0.11354943418E+03 -0.74959725233E+02  0.13669756307E+03  0.00000000000E+00 0.  1.
        -16    1    1    2    0    0 -0.94992436212E+02 -0.10412411706E+03 -0.16877831532E+03  0.21988977787E+03  0.00000000000E+00 0.  1.
         16    1    3    3    0    0  0.11170234658E+03 -0.37172237897E+02 -0.47871100224E+03  0.49297404919E+03  0.00000000000E+00 0. -1.
    9900018    1    3    3    0    0 -0.21177871066E+02 -0.27602966633E+02 -0.18050933457E+03  0.20520532218E+03  0.91187600000E+02 0.  0.
<mgrwt>
<rscale>  0 0.87143350E+03</rscale>
<asrwt>0</asrwt>
<pdfrwt beam="1">  1        1 0.15885326E+00 0.87143350E+03</pdfrwt>
<pdfrwt beam="2">  1       -1 0.28286921E-01 0.87143350E+03</pdfrwt>
<totfact> 0.16264237E+02</totfact>
</mgrwt>
</event>
<event>
11    1  0.1318428E-011  0.9126580E+03  0.7818608E-02  0.9409895E-01
          2   -1    0    0  501    0  0.00000000000E+00  0.00000000000E+00  0.34724812383E+03  0.34724812383E+03  0.00000000000E+00 0. -1.
         -2   -1    0    0    0  501 -0.00000000000E+00 -0.00000000000E+00 -0.59967543346E+03  0.59967543346E+03  0.00000000000E+00 0.  1.
    9900016    2    1    2    0    0  0.22855498932E+02 -0.12526229721E+03 -0.33586071830E+03  0.79469297359E+03  0.70888749688E+03 0.  0.
         23    2    3    3    0    0 -0.53026589771E+02  0.41712823862E+02 -0.44350423862E+02  0.12213161997E+03  0.91637293736E+02 0.  0.
        -15    1    3    3    0    0 -0.62633230685E+01 -0.67997584286E+02  0.35473215421E+02  0.76949656900E+02  0.00000000000E+00 0.  1.
        -15    1    4    4    0    0 -0.55354408664E+02  0.57402953519E+02 -0.60040883004E+02  0.99820425080E+02  0.00000000000E+00 0.  1.
         15    1    4    4    0    0  0.23278188930E+01 -0.15690129657E+02  0.15690459142E+02  0.22311194893E+02  0.00000000000E+00 0. -1.
         15    1    3    3    0    0 -0.87345706802E+02  0.40619762822E+02  0.68195863063E+02  0.11802505398E+03  0.00000000000E+00 0. -1.
        -16    1    3    3    0    0  0.12842456027E+03 -0.83866043087E+02 -0.21482551779E+03  0.26396284579E+03  0.00000000000E+00 0.  1.
         16    1    1    2    0    0 -0.22855498932E+02  0.12526229721E+03  0.83433408670E+02  0.15223058371E+03  0.00000000000E+00 0. -1.
    9900018    1    3    3    0    0  0.41066558305E+02 -0.55731256518E+02 -0.18035385514E+03  0.21362379695E+03  0.91187600000E+02 0.  0.
<mgrwt>
<rscale>  0 0.91265803E+03</rscale>
<asrwt>0</asrwt>
<pdfrwt beam="1">  1        2 0.53422788E-01 0.91265803E+03</pdfrwt>
<pdfrwt beam="2">  1       -2 0.92257759E-01 0.91265803E+03</pdfrwt>
<totfact> 0.93318526E+01</totfact>
</mgrwt>
</event>
<event>
11    1  0.1318428E-011  0.8170379E+03  0.7818608E-02  0.9535678E-01
         -1   -1    0    0    0  501 -0.00000000000E+00  0.00000000000E+00  0.26730012592E+03  0.26730012592E+03  0.00000000000E+00 0.  1.
          1   -1    0    0  501    0  0.00000000000E+00 -0.00000000000E+00 -0.62434590397E+03  0.62434590397E+03  0.00000000000E+00 0. -1.
    9900016    2    1    2    0    0  0.75389301829E+02 -0.89562297176E+01 -0.25277928777E+03  0.76266827259E+03  0.71554298600E+03 0.  0.
         23    2    3    3    0    0  0.21528837943E+03 -0.54795852042E+02 -0.52356626054E+02  0.24368471312E+03  0.85377698483E+02 0.  0.
        -15    1    4    4    0    0  0.12128791686E+03 -0.24123859396E+02  0.14224903502E+02  0.12447918399E+03  0.00000000000E+00 0.  1.
        -15    1    3    3    0    0 -0.58494584719E+02 -0.10526041672E+03  0.94037286216E+01  0.12078825225E+03  0.00000000000E+00 0. -1.
         15    1    3    3    0    0 -0.74621033004E+02  0.15347827135E+01  0.81765674189E+01  0.75083356207E+02  0.00000000000E+00 0.  1.
         15    1    4    4    0    0  0.94000462574E+02 -0.30671992646E+02 -0.66581529556E+02  0.11920552913E+03  0.00000000000E+00 0. -1.
        -16    1    3    3    0    0 -0.54167877705E+02  0.10403236015E+03 -0.67687966740E+02  0.13541990908E+03  0.00000000000E+00 0.  1.
         16    1    1    2    0    0 -0.75389301829E+02  0.89562297176E+01 -0.10426649028E+03  0.12897775729E+03  0.00000000000E+00 0. -1.
    9900018    1    3    3    0    0  0.47384417825E+02  0.45532896179E+02 -0.15031499102E+03  0.18769204193E+03  0.91187600000E+02 0.  0.
<mgrwt>
<rscale>  0 0.81703792E+03</rscale>
<asrwt>0</asrwt>
<pdfrwt beam="1">  1        1 0.96053216E-01 0.81703792E+03</pdfrwt>
<pdfrwt beam="2">  1       -1 0.41123096E-01 0.81703792E+03</pdfrwt>
<totfact> 0.18899747E+02</totfact>
</mgrwt>
</event>
<event>
12    1  0.1318428E-011  0.1427916E+04  0.7818608E-02  0.8933856E-01
         -1   -1    0    0    0  501 -0.00000000000E+00  0.00000000000E+00  0.36664277989E+03  0.36664277989E+03  0.00000000000E+00 0.  1.
          1   -1    0    0  501    0  0.00000000000E+00 -0.00000000000E+00 -0.13902794752E+04  0.13902794752E+04  0.00000000000E+00 0. -1.
    9900016    2    1    2    0    0 -0.15020818736E+01 -0.29688167619E+03 -0.11907470706E+04  0.14162363831E+04  0.70689880514E+03 0.  0.
    9900016    2    3    3    0    0  0.40631883601E+02 -0.28322386695E+03 -0.11931165539E+04  0.13353425601E+04  0.52701606487E+03 0.  0.
         23    2    4    4    0    0  0.97880987817E+02 -0.10877137789E+02 -0.73827505433E+02  0.15441795320E+03  0.93249149107E+02 0.  0.
        -15    1    5    5    0    0  0.74252549817E+02  0.32600614185E+02 -0.24902383881E+02  0.84831420609E+02  0.00000000000E+00 0.  1.
        -15    1    3    3    0    0 -0.83309340630E+01 -0.31737334504E+02  0.20288465339E+02  0.38578292985E+02  0.00000000000E+00 0.  1.
         15    1    5    5    0    0  0.23628438000E+02 -0.43477751974E+02 -0.48925121553E+02  0.69586532591E+02  0.00000000000E+00 0. -1.
         15    1    3    3    0    0 -0.33803031412E+02  0.18079525263E+02 -0.17918981990E+02  0.42315530032E+02  0.00000000000E+00 0. -1.
        -16    1    1    2    0    0  0.15020818736E+01  0.29688167619E+03  0.16711037523E+03  0.34068587206E+03  0.00000000000E+00 0.  1.
         16    1    4    4    0    0 -0.12121344533E+03 -0.21910166394E+03 -0.81314384040E+03  0.85082380294E+03  0.00000000000E+00 0. -1.
    9900018    1    4    4    0    0  0.63964341113E+02 -0.53245065222E+02 -0.30614520811E+03  0.33010080391E+03  0.91187600000E+02 0.  0.
<mgrwt>
<rscale>  0 0.14279159E+04</rscale>
<asrwt>0</asrwt>
<pdfrwt beam="1">  1        1 0.21388915E+00 0.14279159E+04</pdfrwt>
<pdfrwt beam="2">  1       -1 0.56406581E-01 0.14279159E+04</pdfrwt>
<totfact> 0.24150369E+01</totfact>
</mgrwt>
</event>
<event>
12    1  0.1318428E-011  0.1540961E+04  0.7818608E-02  0.8857662E-01
          1   -1    0    0  501    0  0.00000000000E+00  0.00000000000E+00  0.51318026096E+03  0.51318026096E+03  0.00000000000E+00 0. -1.
         -1   -1    0    0    0  501 -0.00000000000E+00 -0.00000000000E+00 -0.11567871261E+04  0.11567871261E+04  0.00000000000E+00 0.  1.
    9900016    2    1    2    0    0 -0.43626467281E+03 -0.15958440454E+02  0.68997966589E+02  0.83427175899E+03  0.70757834329E+03 0.  0.
    9900016    2    3    3    0    0 -0.27032048807E+03  0.13869232146E+02  0.38770074061E+02  0.62814085213E+03  0.56550180336E+03 0.  0.
         23    2    4    4    0    0  0.87997308296E+02  0.35927636382E+02 -0.43071358923E+01  0.13319002027E+03  0.93202514757E+02 0.  0.
        -15    1    5    5    0    0  0.43269265307E+02  0.60086168595E+02 -0.25219251280E+02  0.78221401239E+02  0.00000000000E+00 0. -1.
        -15    1    3    3    0    0 -0.15976621081E+03  0.13109044404E+02  0.19845898945E+02  0.16152692923E+03  0.00000000000E+00 0.  1.
         15    1    5    5    0    0  0.44728042989E+02 -0.24158532214E+02  0.20912115388E+02  0.54968619032E+02  0.00000000000E+00 0.  1.
         15    1    3    3    0    0 -0.61779739245E+01 -0.42936717004E+02  0.10381993582E+02  0.44603977621E+02  0.00000000000E+00 0. -1.
        -16    1    1    2    0    0  0.43626467281E+03  0.15958440454E+02 -0.71260483175E+03  0.83569562809E+03  0.00000000000E+00 0.  1.
         16    1    4    4    0    0  0.13313726664E+02 -0.94557734315E+02 -0.26998709341E+02  0.99233818542E+02  0.00000000000E+00 0. -1.
    9900018    1    4    4    0    0 -0.37163152303E+03  0.72499330079E+02  0.70075919294E+02  0.39571701332E+03  0.91187600000E+02 0.  0.
<mgrwt>
<rscale>  0 0.15409612E+04</rscale>
<asrwt>0</asrwt>
<pdfrwt beam="1">  1        1 0.78950810E-01 0.15409612E+04</pdfrwt>
<pdfrwt beam="2">  1       -1 0.17796725E+00 0.15409612E+04</pdfrwt>
<totfact> 0.88710704E+00</totfact>
</mgrwt>
</event>
<event>
12    1  0.1318428E-011  0.8593177E+03  0.7818608E-02  0.9477916E-01
          2   -1    0    0  501    0  0.00000000000E+00  0.00000000000E+00  0.10075314552E+04  0.10075314552E+04  0.00000000000E+00 0. -1.
         -2   -1    0    0    0  501 -0.00000000000E+00 -0.00000000000E+00 -0.18322675492E+03  0.18322675492E+03  0.00000000000E+00 0.  1.
    9900016    2    1    2    0    0  0.91995682724E+02  0.91822877263E+02  0.66244536855E+03  0.98316945873E+03  0.71476826443E+03 0.  0.
    9900016    2    3    3    0    0  0.41752613795E+01  0.11384745045E+03  0.63650554898E+03  0.84640059557E+03  0.54614648174E+03 0.  0.
         23    2    4    4    0    0  0.56908227947E+02  0.13701716229E+03  0.34369230873E+02  0.18407382242E+03  0.10339090338E+03 0.  0.
        -15    1    3    3    0    0  0.95010347941E+02 -0.87324486626E+01  0.50485235269E+02  0.10794434147E+03  0.00000000000E+00 0.  1.
        -15    1    5    5    0    0 -0.19563266068E+02  0.85949592344E+02  0.85449829916E+01  0.88561111881E+02  0.00000000000E+00 0.  1.
         15    1    5    5    0    0  0.76471494015E+02  0.51067569942E+02  0.25824247882E+02  0.95512710543E+02  0.00000000000E+00 0. -1.
         15    1    3    3    0    0 -0.71899265966E+01 -0.13292124522E+02 -0.24545415697E+02  0.28824521688E+02  0.00000000000E+00 0. -1.
        -16    1    1    2    0    0 -0.91995682724E+02 -0.91822877263E+02  0.16185933170E+03  0.20758875135E+03  0.00000000000E+00 0.  1.
         16    1    4    4    0    0 -0.11758801705E+03  0.63096830293E+02  0.26249018787E+03  0.29446434500E+03  0.00000000000E+00 0. -1.
    9900018    1    4    4    0    0  0.64855050487E+02 -0.86266542131E+02  0.33964613023E+03  0.36786242815E+03  0.91187600000E+02 0.  0.
<mgrwt>
<rscale>  0 0.85931768E+03</rscale>
<asrwt>0</asrwt>
<pdfrwt beam="1">  1        2 0.15500484E+00 0.85931768E+03</pdfrwt>
<pdfrwt beam="2">  1       -2 0.28188732E-01 0.85931768E+03</pdfrwt>
<totfact> 0.28746964E+02</totfact>
</mgrwt>
</event>
<event>
11    1  0.1318428E-011  0.9395376E+03  0.7818608E-02  0.9377464E-01
         -2   -1    0    0    0  501 -0.00000000000E+00  0.00000000000E+00  0.92290354205E+02  0.92290354205E+02  0.00000000000E+00 0.  1.
          2   -1    0    0  501    0  0.00000000000E+00 -0.00000000000E+00 -0.23911787549E+04  0.23911787549E+04  0.00000000000E+00 0. -1.
    9900016    2    1    2    0    0  0.65709965657E+02  0.11349161155E+03 -0.14162875508E+04  0.15911785703E+04  0.71328863052E+03 0.  0.
         23    2    3    3    0    0  0.66851424241E+02  0.12287874787E+03 -0.32435714183E+03  0.36429953348E+03  0.89097110130E+02 0.  0.
        -15    1    4    4    0    0  0.17417872593E+02  0.63058297696E+02 -0.24387979624E+03  0.25250165586E+03  0.00000000000E+00 0. -1.
        -15    1    3    3    0    0  0.71095533583E+02  0.71992195185E+02 -0.39624807730E+03  0.40896208850E+03  0.00000000000E+00 0.  1.
         15    1    3    3    0    0 -0.16266966215E+03  0.86777154265E+01 -0.45003911167E+03  0.47861458791E+03  0.00000000000E+00 0. -1.
         15    1    4    4    0    0  0.49433551647E+02  0.59820450178E+02 -0.80477345584E+02  0.11179787762E+03  0.00000000000E+00 0.  1.
        -16    1    3    3    0    0  0.66471612763E+02 -0.42588509136E+02 -0.21552941727E+03  0.22953253827E+03  0.00000000000E+00 0.  1.
         16    1    1    2    0    0 -0.65709965657E+02 -0.11349161155E+03 -0.88260084981E+03  0.89229053877E+03  0.00000000000E+00 0. -1.
    9900018    1    3    3    0    0  0.23961057219E+02 -0.47468537797E+02 -0.30113802771E+02  0.10976982215E+03  0.91187600000E+02 0.  0.
<mgrwt>
<rscale>  0 0.93953762E+03</rscale>
<asrwt>0</asrwt>
<pdfrwt beam="1">  1        2 0.36787365E+00 0.93953762E+03</pdfrwt>
<pdfrwt beam="2">  1       -2 0.14198516E-01 0.93953762E+03</pdfrwt>
<totfact> 0.15715725E+02</totfact>
</mgrwt>
</event>
<event>
12    1  0.1318428E-011  0.8752951E+03  0.7818608E-02  0.9457002E-01
         -2   -1    0    0    0  501 -0.00000000000E+00  0.00000000000E+00  0.23346332151E+03  0.23346332151E+03  0.00000000000E+00 0.  1.
          2   -1    0    0  501    0  0.00000000000E+00 -0.00000000000E+00 -0.82040882568E+03  0.82040882568E+03  0.00000000000E+00 0. -1.
    9900016    2    1    2    0    0  0.56216534346E+01  0.14585833153E+03 -0.52027352058E+03  0.89339969081E+03  0.71145781003E+03 0.  0.
    9900016    2    3    3    0    0 -0.11258139515E+02  0.81493263806E+02 -0.51660171259E+03  0.77680607978E+03  0.57426688777E+03 0.  0.
         23    2    4    4    0    0  0.18836642340E+02  0.50159972524E+02  0.50134138695E+02  0.11689818252E+03  0.90999512496E+02 0.  0.
        -15    1    5    5    0    0  0.18569864377E+02  0.75035719864E+02  0.24289198706E+02  0.81025701430E+02  0.00000000000E+00 0.  1.
        -15    1    3    3    0    0 -0.27787425821E+02  0.63507038728E+01  0.25047023579E+02  0.37945037404E+02  0.00000000000E+00 0.  1.
         15    1    3    3    0    0  0.44667218771E+02  0.58014363849E+02 -0.28718831570E+02  0.78648573619E+02  0.00000000000E+00 0. -1.
         15    1    5    5    0    0  0.26677796381E+00 -0.24875747340E+02  0.25844939988E+02  0.35872481085E+02  0.00000000000E+00 0. -1.
        -16    1    4    4    0    0 -0.10374428002E+03 -0.11128921209E+03 -0.28516761297E+03  0.32321623080E+03  0.00000000000E+00 0.  1.
         16    1    1    2    0    0 -0.56216534346E+01 -0.14585833153E+03 -0.66671983591E+02  0.16047245639E+03  0.00000000000E+00 0. -1.
    9900018    1    4    4    0    0  0.73649498166E+02  0.14262250337E+03 -0.28156823832E+03  0.33669166647E+03  0.91187600000E+02 0.  0.
<mgrwt>
<rscale>  0 0.87529508E+03</rscale>
<asrwt>0</asrwt>
<pdfrwt beam="1">  1        2 0.12621674E+00 0.87529508E+03</pdfrwt>
<pdfrwt beam="2">  1       -2 0.35917434E-01 0.87529508E+03</pdfrwt>
<totfact> 0.24342627E+02</totfact>
</mgrwt>
</event>
<event>
12    1  0.1318428E-011  0.1068594E+04  0.7818608E-02  0.9236355E-01
         -1   -1    0    0    0  501 -0.00000000000E+00  0.00000000000E+00  0.50093351857E+03  0.50093351857E+03  0.00000000000E+00 0.  1.
          1   -1    0    0  501    0  0.00000000000E+00 -0.00000000000E+00 -0.56988240975E+03  0.56988240975E+03  0.00000000000E+00 0. -1.
    9900016    2    1    2    0    0 -0.10985632800E+03  0.79377717113E+02 -0.31289144538E+03  0.79175105320E+03  0.71456241077E+03 0.  0.
    9900016    2    3    3    0    0 -0.61195374608E+01  0.12718684807E+03 -0.24649559264E+03  0.64079780449E+03  0.57762254629E+03 0.  0.
         23    2    4    4    0    0  0.48082847489E+02  0.11043942918E+03 -0.96107179437E+02  0.17740533562E+03  0.87904695147E+02 0.  0.
        -15    1    3    3    0    0 -0.12498178809E+02  0.16314139486E+02  0.11337232336E+01  0.20582539908E+02  0.00000000000E+00 0. -1.
        -15    1    5    5    0    0 -0.69867327487E+01  0.87907244292E+02 -0.45172649311E+02  0.99081109598E+02  0.00000000000E+00 0.  1.
         15    1    3    3    0    0 -0.91238611734E+02 -0.64123270443E+02 -0.67529575968E+02  0.13037070880E+03  0.00000000000E+00 0.  1.
         15    1    5    5    0    0  0.55069580238E+02  0.22532184884E+02 -0.50934530126E+02  0.78324226024E+02  0.00000000000E+00 0. -1.
        -16    1    1    2    0    0  0.10985632800E+03 -0.79377717113E+02  0.24394255420E+03  0.27906487512E+03  0.00000000000E+00 0.  1.
         16    1    4    4    0    0 -0.21170700688E+03  0.83973898545E+02 -0.17900219856E+02  0.22845544482E+03  0.00000000000E+00 0. -1.
    9900018    1    4    4    0    0  0.15750462193E+03 -0.67226479651E+02 -0.13248819335E+03  0.23493702404E+03  0.91187600000E+02 0.  0.
<mgrwt>
<rscale>  0 0.10685938E+04</rscale>
<asrwt>0</asrwt>
<pdfrwt beam="1">  1        1 0.87674217E-01 0.10685938E+04</pdfrwt>
<pdfrwt beam="2">  1       -1 0.77066695E-01 0.10685938E+04</pdfrwt>
<totfact> 0.62215441E+01</totfact>
</mgrwt>
</event>
<event>
11    1  0.1318428E-011  0.9716970E+03  0.7818608E-02  0.9340144E-01
         -1   -1    0    0    0  501 -0.00000000000E+00  0.00000000000E+00  0.22253846499E+03  0.22253846499E+03  0.00000000000E+00 0.  1.
          1   -1    0    0  501    0  0.00000000000E+00 -0.00000000000E+00 -0.10607099634E+04  0.10607099634E+04  0.00000000000E+00 0. -1.
    9900016    2    1    2    0    0  0.73474774015E+02 -0.74973317000E+02 -0.37237920927E+03  0.80577382456E+03  0.70681372382E+03 0.  0.
         23    2    3    3    0    0  0.21111739203E+02 -0.97400697280E+02  0.29476877954E+01  0.13535911434E+03  0.91546707245E+02 0.  0.
        -15    1    3    3    0    0  0.95726641933E+01  0.82008126204E+02 -0.54301573201E+02  0.98821199726E+02  0.00000000000E+00 0. -1.
        -15    1    4    4    0    0  0.52368078561E+02 -0.82612392077E+02  0.14545373282E+02  0.98887769015E+02  0.00000000000E+00 0. -1.
         15    1    4    4    0    0 -0.31256339358E+02 -0.14788305203E+02 -0.11597685487E+02  0.36471345320E+02  0.00000000000E+00 0.  1.
         15    1    3    3    0    0  0.15090949718E+03 -0.73506176452E+01 -0.14369542717E+03  0.20850919335E+03  0.00000000000E+00 0.  1.
        -16    1    3    3    0    0 -0.18090424821E+03 -0.16969643470E+02 -0.53685037342E+02  0.18946345044E+03  0.00000000000E+00 0.  1.
         16    1    1    2    0    0 -0.73474774015E+02  0.74973317000E+02 -0.46579228915E+03  0.47747460383E+03  0.00000000000E+00 0. -1.
    9900018    1    3    3    0    0  0.72785121641E+02 -0.35260484808E+02 -0.12364485935E+03  0.17362086671E+03  0.91187600000E+02 0.  0.
<mgrwt>
<rscale>  0 0.97169700E+03</rscale>
<asrwt>0</asrwt>
<pdfrwt beam="1">  1        1 0.16318615E+00 0.97169700E+03</pdfrwt>
<pdfrwt beam="2">  1       -1 0.34236686E-01 0.97169700E+03</pdfrwt>
<totfact> 0.10995251E+02</totfact>
</mgrwt>
</event>
<event>
11    1  0.1318428E-011  0.1168534E+04  0.7818608E-02  0.9140853E-01
         -2   -1    0    0    0  501 -0.00000000000E+00  0.00000000000E+00  0.23109027977E+03  0.23109027977E+03  0.00000000000E+00 0.  1.
          2   -1    0    0  501    0  0.00000000000E+00 -0.00000000000E+00 -0.14772068589E+04  0.14772068589E+04  0.00000000000E+00 0. -1.
    9900016    2    1    2    0    0 -0.35025704548E+03  0.10264915714E+03 -0.76848500293E+03  0.11071742145E+04  0.70855394586E+03 0.  0.
         23    2    3    3    0    0 -0.20799281510E+03  0.47330215140E+02 -0.31050092460E+03  0.38775350374E+03  0.91873799795E+02 0.  0.
        -15    1    4    4    0    0 -0.12425390176E+03  0.68334314983E+02 -0.22696133977E+03  0.26761924530E+03  0.00000000000E+00 0.  1.
        -15    1    3    3    0    0  0.51073273062E+02  0.43503066258E+02  0.65244269774E+02  0.93583175483E+02  0.00000000000E+00 0.  1.
         15    1    3    3    0    0 -0.51662196901E+02  0.51923926718E+02 -0.35666806080E+02  0.81468999076E+02  0.00000000000E+00 0. -1.
         15    1    4    4    0    0 -0.83738913334E+02 -0.21004099843E+02 -0.83539584838E+02  0.12013425844E+03  0.00000000000E+00 0. -1.
        -16    1    1    2    0    0  0.35025704548E+03 -0.10264915714E+03 -0.47763157621E+03  0.60112292417E+03  0.00000000000E+00 0.  1.
         16    1    3    3    0    0  0.25112386893E+02  0.54063639428E+01 -0.86493892164E+01  0.27104846068E+02  0.00000000000E+00 0. -1.
    9900018    1    3    3    0    0 -0.16678769343E+03 -0.45514414915E+02 -0.47891215281E+03  0.51726369015E+03  0.91187600000E+02 0.  0.
<mgrwt>
<rscale>  0 0.11685344E+04</rscale>
<asrwt>0</asrwt>
<pdfrwt beam="1">  1        2 0.22726260E+00 0.11685344E+04</pdfrwt>
<pdfrwt beam="2">  1       -2 0.35552350E-01 0.11685344E+04</pdfrwt>
<totfact> 0.96053667E+01</totfact>
</mgrwt>
</event>
<event>
11    1  0.1318428E-011  0.8005741E+03  0.7818608E-02  0.9559186E-01
          2   -1    0    0  501    0  0.00000000000E+00  0.00000000000E+00  0.56636263463E+03  0.56636263463E+03  0.00000000000E+00 0. -1.
         -2   -1    0    0    0  501 -0.00000000000E+00 -0.00000000000E+00 -0.28291014460E+03  0.28291014460E+03  0.00000000000E+00 0.  1.
    9900016    2    1    2    0    0 -0.52672631085E+01  0.75471789601E+02  0.28972390037E+03  0.77335792117E+03  0.71303492250E+03 0.  0.
         23    2    3    3    0    0 -0.28810132240E+02  0.11067122280E+03 -0.81253131016E+02  0.16924089188E+03  0.94669239496E+02 0.  0.
        -15    1    3    3    0    0 -0.49914215989E+02 -0.29701734371E+02 -0.29404978141E+02  0.65102033163E+02  0.00000000000E+00 0.  1.
        -15    1    4    4    0    0 -0.62283010853E+02  0.75040422270E+02 -0.66998737975E+02  0.11831766269E+03  0.00000000000E+00 0. -1.
         15    1    3    3    0    0  0.84137196945E+02  0.58116665468E+02  0.14860886174E+02  0.10333179885E+03  0.00000000000E+00 0. -1.
         15    1    4    4    0    0  0.33472878613E+02  0.35630800533E+02 -0.14254393041E+02  0.50923229181E+02  0.00000000000E+00 0.  1.
        -16    1    1    2    0    0  0.52672631085E+01 -0.75471789601E+02 -0.62714103405E+01  0.75914858057E+02  0.00000000000E+00 0.  1.
         16    1    3    3    0    0  0.51844768332E+02 -0.73474955010E+02  0.20353276079E+03  0.22251299677E+03  0.00000000000E+00 0. -1.
    9900018    1    3    3    0    0 -0.62524880156E+02  0.98605907116E+01  0.18198836256E+03  0.21317020051E+03  0.91187600000E+02 0.  0.
<mgrwt>
<rscale>  0 0.80057413E+03</rscale>
<asrwt>0</asrwt>
<pdfrwt beam="1">  1        2 0.87132713E-01 0.80057413E+03</pdfrwt>
<pdfrwt beam="2">  1       -2 0.43524638E-01 0.80057413E+03</pdfrwt>
<totfact> 0.26780433E+02</totfact>
</mgrwt>
</event>
<event>
12    1  0.1318428E-011  0.7967744E+03  0.7818608E-02  0.9564698E-01
         -1   -1    0    0    0  501 -0.00000000000E+00  0.00000000000E+00  0.33363965548E+03  0.33363965548E+03  0.00000000000E+00 0.  1.
          1   -1    0    0  501    0  0.00000000000E+00 -0.00000000000E+00 -0.47569998292E+03  0.47569998292E+03  0.00000000000E+00 0. -1.
    9900016    2    1    2    0    0  0.37716098513E+02  0.45891739539E+02 -0.19123224553E+03  0.73222651777E+03  0.70431338604E+03 0.  0.
    9900016    2    3    3    0    0  0.37020036775E+02  0.69852223140E+02 -0.11047727076E+03  0.62069240806E+03  0.60564347752E+03 0.  0.
         23    2    4    4    0    0 -0.46740094474E+02  0.16317733226E+03 -0.14906421084E+03  0.24472092624E+03  0.94110119487E+02 0.  0.
        -15    1    3    3    0    0 -0.72566815245E+01  0.12424374675E+02  0.71484245895E+01  0.16066253045E+02  0.00000000000E+00 0.  1.
        -15    1    5    5    0    0 -0.12590206244E+02  0.52737500745E+02  0.22934486460E+01  0.54268012537E+02  0.00000000000E+00 0. -1.
         15    1    3    3    0    0  0.79527432628E+01 -0.36384858276E+02 -0.87903399364E+02  0.95467856668E+02  0.00000000000E+00 0. -1.
         15    1    5    5    0    0 -0.34149888230E+02  0.11043983152E+03 -0.15135765949E+03  0.19045291370E+03  0.00000000000E+00 0.  1.
        -16    1    1    2    0    0 -0.37716098513E+02 -0.45891739539E+02  0.49171918091E+02  0.77113120633E+02  0.00000000000E+00 0.  1.
         16    1    4    4    0    0  0.11042558268E+03 -0.19204298872E+03 -0.28617096765E+02  0.22336798574E+03  0.00000000000E+00 0. -1.
    9900018    1    4    4    0    0 -0.26665451431E+02  0.98717879597E+02  0.67204036851E+02  0.15260349608E+03  0.91187600000E+02 0.  0.
<mgrwt>
<rscale>  0 0.79677444E+03</rscale>
<asrwt>0</asrwt>
<pdfrwt beam="1">  1        1 0.73184612E-01 0.79677444E+03</pdfrwt>
<pdfrwt beam="2">  1       -1 0.51329178E-01 0.79677444E+03</pdfrwt>
<totfact> 0.18333965E+02</totfact>
</mgrwt>
</event>
