<event>
11    1  0.3184848E-013  0.2689256E+04  0.7818608E-02  0.8497413E-01
          2   -1    0    0  501    0  0.00000000000E+00  0.00000000000E+00  0.44202796009E+04  0.44202796009E+04  0.00000000000E+00 0. -1.
         -2   -1    0    0    0  501 -0.00000000000E+00 -0.00000000000E+00 -0.92500135748E+03  0.92500135748E+03  0.00000000000E+00 0.  1.
    9900016    2    1    2    0    0  0.30492029538E+01  0.19793229977E+03  0.20491791100E+04  0.27922525888E+04  0.18863597223E+04 0.  0.
         24    2    3    3    0    0 -0.62994869180E+03 -0.55354678477E+03  0.84123090727E+03  0.11905009147E+04  0.79834774911E+02 0.  0.
        -15    1    1    2    0    0  0.42859499195E+03  0.36338687572E+03 -0.41985546720E+02  0.56347712882E+03  0.00000000000E+00 0.  1.
        -15    1    4    4    0    0 -0.22218146167E+03 -0.23540000628E+03  0.35874454796E+03  0.48319293823E+03  0.00000000000E+00 0.  1.
         15    1    1    2    0    0 -0.39926687169E+03 -0.88864401831E+02  0.14588257894E+04  0.15150853443E+04  0.00000000000E+00 0. -1.
         15    1    3    3    0    0  0.62161202138E+03  0.72740639018E+03  0.11038287510E+04  0.14608078153E+04  0.00000000000E+00 0. -1.
        -16    1    1    2    0    0 -0.32377323215E+02 -0.47245477366E+03  0.29258890734E+02  0.47446589645E+03  0.00000000000E+00 0.  1.
         16    1    4    4    0    0 -0.40776723012E+03 -0.31814677849E+03  0.48248635931E+03  0.70730797645E+03  0.00000000000E+00 0. -1.
    9900018    1    3    3    0    0  0.11385873371E+02  0.24072694359E+02  0.10411945175E+03  0.14094385887E+03  0.91187600000E+02 0.  0.
<mgrwt>
<rscale>  0 0.22512042E+04</rscale>
<asrwt>0</asrwt>
<pdfrwt beam="1">  1        2 0.68004300E+00 0.26892556E+04</pdfrwt>
<pdfrwt beam="2">  1       -2 0.14230790E+00 0.26892556E+04</pdfrwt>
<totfact> 0.43083351E-02</totfact>
</mgrwt>
</event>
<event>
11    1  0.3184848E-013  0.2926635E+04  0.7818608E-02  0.8551271E-01
          2   -1    0    0  501    0  0.00000000000E+00  0.00000000000E+00  0.21426584873E+04  0.21426584873E+04  0.00000000000E+00 0.  1.
         -2   -1    0    0    0  501 -0.00000000000E+00 -0.00000000000E+00 -0.16416433273E+04  0.16416433273E+04  0.00000000000E+00 0. -1.
    9900016    2    1    2    0    0 -0.42041539221E+03 -0.65369150456E+03  0.49840479178E+03  0.21108015159E+04  0.18981606933E+04 0.  0.
        -24    2    3    3    0    0 -0.38478961336E+03 -0.12005771338E+04  0.99528742928E+02  0.12671884259E+04  0.80075185032E+02 0.  0.
        -15    1    3    3    0    0 -0.67300259292E+02  0.61499350848E+03  0.37385819871E+03  0.72285288484E+03  0.00000000000E+00 0.  1.
        -15    1    1    2    0    0  0.66825518544E+03 -0.17840624953E+03  0.24653513941E+03  0.73428424858E+03  0.00000000000E+00 0.  1.
         15    1    4    4    0    0 -0.13609361832E+03 -0.46567653690E+03  0.75341483632E+02  0.49097092493E+03  0.00000000000E+00 0. -1.
         15    1    1    2    0    0  0.50547646942E+02  0.10026299996E+03 -0.62182677205E+00  0.11228588710E+03  0.00000000000E+00 0. -1.
        -16    1    4    4    0    0 -0.24869599504E+03 -0.73490059688E+03  0.24187259296E+02  0.77621750094E+03  0.00000000000E+00 0.  1.
         16    1    1    2    0    0 -0.29838744018E+03  0.73183475413E+03 -0.24330294448E+03  0.82693016308E+03  0.00000000000E+00 0. -1.
    9900018    1    3    3    0    0  0.31674480447E+02 -0.68107879261E+02  0.25017850142E+02  0.12076020515E+03  0.91187600000E+02 0.  0.
<mgrwt>
<rscale>  0 0.21227876E+04</rscale>
<asrwt>0</asrwt>
<pdfrwt beam="1">  1        2 0.32963977E+00 0.29266347E+04</pdfrwt>
<pdfrwt beam="2">  1       -2 0.25256051E+00 0.29266347E+04</pdfrwt>
<totfact> 0.28889694E-01</totfact>
</mgrwt>
</event>
<event>
11    1  0.3184848E-013  0.2354578E+04  0.7818608E-02  0.8809796E-01
         -1   -1    0    0    0  501 -0.00000000000E+00  0.00000000000E+00  0.78453624495E+03  0.78453624495E+03  0.00000000000E+00 0.  1.
          1   -1    0    0  501    0  0.00000000000E+00 -0.00000000000E+00 -0.28466908863E+04  0.28466908863E+04  0.00000000000E+00 0. -1.
    9900016    2    1    2    0    0 -0.52882424650E+03  0.11299344108E+03 -0.15166550471E+04  0.24105997120E+04  0.17939692970E+04 0.  0.
        -24    2    3    3    0    0 -0.75596786175E+03 -0.16676057317E+03 -0.17942716810E+04  0.19557068391E+04  0.77986400177E+02 0.  0.
        -15    1    3    3    0    0  0.22714361526E+03  0.27975401425E+03  0.27761663388E+03  0.45489287294E+03  0.00000000000E+00 0.  1.
        -15    1    1    2    0    0  0.29842232590E+03  0.29193120076E+03 -0.56002830866E+02  0.42120782001E+03  0.00000000000E+00 0.  1.
         15    1    4    4    0    0 -0.16255267827E+03 -0.76977343077E+01 -0.41662252383E+03  0.44727726936E+03  0.00000000000E+00 0. -1.
         15    1    1    2    0    0  0.60639064761E+02 -0.83266822231E+02  0.18506596302E+02  0.10465636133E+03  0.00000000000E+00 0. -1.
        -16    1    4    4    0    0 -0.59341518349E+03 -0.15906283886E+03 -0.13776491571E+04  0.15084295697E+04  0.00000000000E+00 0.  1.
         16    1    1    2    0    0  0.21384460015E+03 -0.27185562673E+03 -0.45087418470E+03  0.56826272553E+03  0.00000000000E+00 0. -1.
    9900018    1    1    2    0    0 -0.44081744320E+02 -0.49802192877E+02 -0.57129175030E+02  0.12650051237E+03  0.91187600000E+02 0.  0.
<mgrwt>
<rscale>  0 0.16176199E+04</rscale>
<asrwt>0</asrwt>
<pdfrwt beam="1">  1        1 0.43795244E+00 0.23545780E+04</pdfrwt>
<pdfrwt beam="2">  1       -1 0.12069788E+00 0.23545780E+04</pdfrwt>
<totfact> 0.41694379E-01</totfact>
</mgrwt>
</event>
<event>
11    1  0.3184848E-013  0.4892571E+04  0.7818608E-02  0.7845296E-01
          2   -1    0    0  501    0  0.00000000000E+00  0.00000000000E+00  0.19946977438E+04  0.19946977438E+04  0.00000000000E+00 0. -1.
         -2   -1    0    0    0  501 -0.00000000000E+00 -0.00000000000E+00 -0.30001104469E+04  0.30001104469E+04  0.00000000000E+00 0.  1.
    9900016    2    1    2    0    0  0.38465398633E+03 -0.14261864694E+04  0.24258809038E+03  0.24055059831E+04  0.18829879231E+04 0.  0.
         24    2    3    3    0    0  0.54531216178E+03  0.28195986950E+03 -0.64721023154E+02  0.62267344588E+03  0.81649786087E+02 0.  0.
        -15    1    4    4    0    0  0.28111152409E+03  0.10457948017E+03 -0.50310462234E+02  0.30412447988E+03  0.00000000000E+00 0.  1.
        -15    1    1    2    0    0 -0.14667967162E+03 -0.14390303460E+03 -0.28431948001E+03  0.35079990898E+03  0.00000000000E+00 0.  1.
         15    1    1    2    0    0 -0.55998557034E+02  0.29990677422E+03  0.30688161278E+03  0.43273113578E+03  0.00000000000E+00 0. -1.
         15    1    3    3    0    0 -0.17104697889E+03 -0.16067015253E+04  0.31341494066E+03  0.16458966509E+04  0.00000000000E+00 0. -1.
        -16    1    1    2    0    0 -0.18197575768E+03  0.12701827297E+04 -0.12705629262E+04  0.18057711629E+04  0.00000000000E+00 0.  1.
         16    1    4    4    0    0  0.26420063769E+03  0.17738038933E+03 -0.14410560921E+02  0.31854896600E+03  0.00000000000E+00 0. -1.
    9900018    1    3    3    0    0  0.10388803441E+02 -0.10144481356E+03 -0.61058271327E+01  0.13693588629E+03  0.91187600000E+02 0.  0.
<mgrwt>
<rscale>  0 0.48925713E+04</rscale>
<asrwt>0</asrwt>
<pdfrwt beam="1">  1        2 0.30687658E+00 0.48925713E+04</pdfrwt>
<pdfrwt beam="2">  1       -2 0.46155545E+00 0.48925713E+04</pdfrwt>
<totfact> 0.14429631E-02</totfact>
</mgrwt>
</event>
<event>
11    1  0.3184848E-013  0.3251503E+04  0.7818608E-02  0.8302185E-01
         -2   -1    0    0    0  501 -0.00000000000E+00  0.00000000000E+00  0.28583992692E+04  0.28583992692E+04  0.00000000000E+00 0.  1.
          2   -1    0    0  501    0  0.00000000000E+00 -0.00000000000E+00 -0.23311609764E+04  0.23311609764E+04  0.00000000000E+00 0. -1.
    9900016    2    1    2    0    0 -0.19871313498E+03 -0.80209024028E+03 -0.80739192411E+03  0.22192504865E+04  0.18948233003E+04 0.  0.
        -24    2    3    3    0    0  0.63302370904E+03 -0.24322114118E+03 -0.92873747279E+03  0.11526162181E+04  0.78072486514E+02 0.  0.
        -15    1    3    3    0    0 -0.77242949925E+03 -0.54302318619E+03  0.14188838072E+03  0.95480564757E+03  0.00000000000E+00 0.  1.
        -15    1    1    2    0    0  0.77242906271E+01  0.10352288902E+04  0.10638623561E+03  0.10407096382E+04  0.00000000000E+00 0.  1.
         15    1    1    2    0    0 -0.63548509522E+03 -0.15971943805E+03  0.60540600815E+03  0.89211436477E+03  0.00000000000E+00 0. -1.
         15    1    4    4    0    0  0.11969324581E+03 -0.23153908149E+02 -0.13282017587E+03  0.18028803530E+03  0.00000000000E+00 0. -1.
        -16    1    4    4    0    0  0.51333046322E+03 -0.22006723303E+03 -0.79591729692E+03  0.97232818280E+03  0.00000000000E+00 0.  1.
         16    1    1    2    0    0  0.82647393957E+03 -0.73419211899E+02  0.62283797307E+03  0.10374857561E+04  0.00000000000E+00 0. -1.
    9900018    1    3    3    0    0 -0.59307344770E+02 -0.15845912920E+02 -0.20542832033E+02  0.11182862085E+03  0.91187600000E+02 0.  0.
<mgrwt>
<rscale>  0 0.28034919E+04</rscale>
<asrwt>0</asrwt>
<pdfrwt beam="1">  1        2 0.35864015E+00 0.32515029E+04</pdfrwt>
<pdfrwt beam="2">  1       -2 0.43975374E+00 0.32515029E+04</pdfrwt>
<totfact> 0.13999732E-02</totfact>
</mgrwt>
</event>
<event>
11    1  0.3184848E-013  0.3566123E+04  0.7818608E-02  0.8381859E-01
         -2   -1    0    0    0  501 -0.00000000000E+00  0.00000000000E+00  0.16251341062E+04  0.16251341062E+04  0.00000000000E+00 0.  1.
          2   -1    0    0  501    0  0.00000000000E+00 -0.00000000000E+00 -0.32151916301E+04  0.32151916301E+04  0.00000000000E+00 0. -1.
    9900016    2    1    2    0    0  0.66771690013E+03  0.78668275102E+03 -0.50476136552E+03  0.22080684731E+04  0.18857536256E+04 0.  0.
        -24    2    3    3    0    0  0.44470624520E+03 -0.52626983397E+03  0.71636870220E+02  0.69791374568E+03  0.85018660132E+02 0.  0.
        -15    1    3    3    0    0  0.18997633178E+03  0.12742949574E+04 -0.50573786524E+03  0.13840843303E+04  0.00000000000E+00 0.  1.
        -15    1    1    2    0    0  0.46158377168E+03 -0.15100063730E+03 -0.10159628186E+02  0.48576124670E+03  0.00000000000E+00 0.  1.
         15    1    1    2    0    0  0.48472648123E+02  0.14830139955E+03 -0.65101768331E+03  0.66945270685E+03  0.00000000000E+00 0. -1.
         15    1    4    4    0    0  0.53571288742E+02 -0.11152435289E+03  0.22049551413E+02  0.12567317527E+03  0.00000000000E+00 0. -1.
        -16    1    4    4    0    0  0.39113495645E+03 -0.41474548108E+03  0.49587318806E+02  0.57224057041E+03  0.00000000000E+00 0.  1.
         16    1    1    2    0    0 -0.11777733199E+04 -0.78398351327E+03 -0.42411884690E+03  0.14770433096E+04  0.00000000000E+00 0. -1.
    9900018    1    3    3    0    0  0.33034323154E+02  0.38657627601E+02 -0.70660370499E+02  0.12607039712E+03  0.91187600000E+02 0.  0.
<mgrwt>
<rscale>  0 0.25601669E+04</rscale>
<asrwt>0</asrwt>
<pdfrwt beam="1">  1        2 0.49464486E+00 0.35661226E+04</pdfrwt>
<pdfrwt beam="2">  1       -2 0.25002063E+00 0.35661226E+04</pdfrwt>
<totfact> 0.64337749E-02</totfact>
</mgrwt>
</event>
<event>
11    1  0.3184848E-013  0.3370624E+04  0.7818608E-02  0.8410510E-01
          2   -1    0    0  501    0  0.00000000000E+00  0.00000000000E+00  0.20629211581E+04  0.20629211581E+04  0.00000000000E+00 0.  1.
         -2   -1    0    0    0  501 -0.00000000000E+00 -0.00000000000E+00 -0.23227349404E+04  0.23227349404E+04  0.00000000000E+00 0. -1.
    9900016    2    1    2    0    0  0.69361915677E+02  0.97169752876E+03 -0.61627673545E+03  0.21321142750E+04  0.17936295895E+04 0.  0.
         24    2    3    3    0    0  0.63361639354E+03  0.44753534363E+03 -0.10028417230E+04  0.12703941339E+04  0.80325065412E+02 0.  0.
        -15    1    4    4    0    0  0.27460975773E+03  0.16622248129E+03 -0.46768300957E+03  0.56724582833E+03  0.00000000000E+00 0.  1.
        -15    1    1    2    0    0 -0.13975892288E+03 -0.10210708084E+02  0.61798951761E+01  0.14026762345E+03  0.00000000000E+00 0.  1.
         15    1    3    3    0    0 -0.56425447786E+03  0.52416218513E+03  0.38656498751E+03  0.86172014116E+03  0.00000000000E+00 0. -1.
         15    1    1    2    0    0  0.83560137328E+03 -0.12947026368E+03  0.11477398461E+03  0.85332600555E+03  0.00000000000E+00 0. -1.
        -16    1    1    2    0    0 -0.75303826309E+03 -0.82474584333E+03  0.28857812146E+03  0.11534945444E+04  0.00000000000E+00 0.  1.
         16    1    4    4    0    0  0.35900663581E+03  0.28131286234E+03 -0.53515871339E+03  0.70314830555E+03  0.00000000000E+00 0. -1.
    9900018    1    1    2    0    0 -0.12166102992E+02 -0.72707136560E+01 -0.53069048130E+02  0.10645365002E+03  0.91187600000E+02 0.  0.
<mgrwt>
<rscale>  0 0.24789878E+04</rscale>
<asrwt>0</asrwt>
<pdfrwt beam="1">  1        2 0.31737249E+00 0.33706236E+04</pdfrwt>
<pdfrwt beam="2">  1       -2 0.35734384E+00 0.33706236E+04</pdfrwt>
<totfact> 0.69203098E-02</totfact>
</mgrwt>
</event>
