<event>
11    1  0.4548827E-012  0.2389485E+04  0.7818608E-02  0.8443451E-01
         -1   -1    0    0    0  501 -0.00000000000E+00  0.00000000000E+00  0.13611838669E+04  0.13611838669E+04  0.00000000000E+00 0.  1.
          1   -1    0    0  501    0  0.00000000000E+00 -0.00000000000E+00 -0.10486530119E+04  0.10486530119E+04  0.00000000000E+00 0. -1.
        -24    2    1    2    0    0 -0.74825096345E+02  0.12223046029E+02  0.53540823045E+02  0.12300459600E+03  0.80717488862E+02 0.  0.
    9900016    2    1    2    0    0 -0.14968376882E+02 -0.18069978571E+02 -0.16637159670E+02  0.19968884895E+04  0.19966813136E+04 0.  0.
        -15    1    4    4    0    0  0.41962102189E+03  0.88872610511E+02  0.13457905342E+03  0.44954606497E+03  0.00000000000E+00 0.  1.
        -15    1    1    2    0    0  0.89793473227E+02  0.58469325428E+01  0.27562719169E+03  0.28994379326E+03  0.00000000000E+00 0.  1.
         15    1    3    3    0    0  0.15760494147E+02 -0.46472589709E+01  0.17659983693E+02  0.24121882508E+02  0.00000000000E+00 0. -1.
         15    1    4    4    0    0 -0.28501732075E+03 -0.53915584112E+03  0.86907662233E+02  0.61601691202E+03  0.00000000000E+00 0. -1.
        -16    1    3    3    0    0 -0.90585590491E+02  0.16870305000E+02  0.35880839352E+02  0.98882713495E+02  0.00000000000E+00 0.  1.
         16    1    4    4    0    0  0.23725030186E+03 -0.49935086813E+02  0.42886004388E+02  0.24621216054E+03  0.00000000000E+00 0. -1.
    9900018    1    4    4    0    0 -0.38682237988E+03  0.48214833885E+03 -0.28100987971E+03  0.68511335202E+03  0.91187600000E+02 0.  0.
<mgrwt>
<rscale>  0 0.23894849E+04</rscale>
<asrwt>0</asrwt>
<pdfrwt beam="1">  1        1 0.16133123E+00 0.23894849E+04</pdfrwt>
<pdfrwt beam="2">  1       -1 0.20941290E+00 0.23894849E+04</pdfrwt>
<totfact> 0.16143197E+00</totfact>
</mgrwt>
</event>
<event>
12    1  0.4548826E-012  0.2841065E+04  0.7818608E-02  0.8934202E-01
          2   -1    0    0  501    0  0.00000000000E+00  0.00000000000E+00  0.13023855797E+04  0.13023855797E+04  0.00000000000E+00 0. -1.
         -2   -1    0    0    0  501 -0.00000000000E+00 -0.00000000000E+00 -0.18046789177E+04  0.18046789177E+04  0.00000000000E+00 0.  1.
         24    2    1    2    0    0 -0.90392092876E+02  0.13505303098E+03 -0.16696900486E+03  0.24627946190E+03  0.79780155071E+02 0.  0.
    9900016    2    1    2    0    0 -0.11738000359E+03 -0.11943735780E+02 -0.95287064099E+03  0.21976948568E+04  0.19768610237E+04 0.  0.
        -24    2    4    4    0    0  0.12278091923E+03 -0.48913281470E+03  0.22710495022E+03  0.56396614060E+03  0.11025010107E+03 0.  0.
        -15    1    3    3    0    0 -0.88686812911E+02  0.62714997658E+02 -0.10328982916E+03  0.14989099547E+03  0.00000000000E+00 0.  1.
        -15    1    4    4    0    0  0.30266098034E+03  0.12845251906E+03 -0.54560385860E+02  0.33328749508E+03  0.00000000000E+00 0.  1.
         15    1    1    2    0    0  0.20777209647E+03 -0.12310929520E+03  0.61754630786E+03  0.66309017863E+03  0.00000000000E+00 0. -1.
         15    1    5    5    0    0 -0.21084929715E+02 -0.58477621998E+02  0.28198605467E+02  0.68259562596E+02  0.00000000000E+00 0. -1.
        -16    1    5    5    0    0  0.14386584894E+03 -0.43065519271E+03  0.19890634475E+03  0.49570657801E+03  0.00000000000E+00 0.  1.
         16    1    3    3    0    0 -0.17052799654E+01  0.72338033318E+02 -0.63679175699E+02  0.96388466435E+02  0.00000000000E+00 0. -1.
    9900018    1    4    4    0    0 -0.54282190316E+03  0.34873655987E+03 -0.11254152054E+04  0.13004412211E+04  0.91187600000E+02 0.  0.
<mgrwt>
<rscale>  0 0.14274260E+04</rscale>
<asrwt>0</asrwt>
<pdfrwt beam="1">  1        2 0.20036701E+00 0.28410647E+04</pdfrwt>
<pdfrwt beam="2">  1       -2 0.27764291E+00 0.28410647E+04</pdfrwt>
<totfact> 0.61723229E-01</totfact>
</mgrwt>
</event>
<event>
11    1  0.4548826E-012  0.1777619E+04  0.7818608E-02  0.8718293E-01
          1   -1    0    0  501    0  0.00000000000E+00  0.00000000000E+00  0.10552284676E+04  0.10552284676E+04  0.00000000000E+00 0. -1.
         -1   -1    0    0    0  501 -0.00000000000E+00 -0.00000000000E+00 -0.74863598401E+03  0.74863598401E+03  0.00000000000E+00 0.  1.
         24    2    1    2    0    0  0.53062585787E+02 -0.11278228656E+03  0.24723865234E+01  0.14785383282E+03  0.79493150723E+02 0.  0.
        -24    2    1    2    0    0  0.92502629893E+02 -0.59145301039E+03  0.10331335933E+03  0.60958996126E+03  0.50525940019E+02 0.  0.
        -15    1    3    3    0    0 -0.59488862710E+01  0.84875607459E+01 -0.72337338573E+01  0.12639416157E+02  0.00000000000E+00 0.  1.
        -15    1    1    2    0    0 -0.10652665321E+03 -0.64658073231E+02  0.23783649633E+03  0.26850473602E+03  0.00000000000E+00 0.  1.
         15    1    4    4    0    0  0.49966671176E+02 -0.25910156248E+03  0.21927486166E+02  0.26478501195E+03  0.00000000000E+00 0. -1.
         15    1    1    2    0    0  0.83632902174E+01  0.51501161075E+02 -0.62171247919E+01  0.52544903235E+02  0.00000000000E+00 0. -1.
        -16    1    4    4    0    0  0.42535958717E+02 -0.33235144792E+03  0.81385873161E+02  0.34480494931E+03  0.00000000000E+00 0.  1.
         16    1    3    3    0    0  0.59011472058E+02 -0.12126984731E+03  0.97061203807E+01  0.13521441666E+03  0.00000000000E+00 0. -1.
    9900018    1    1    2    0    0 -0.47401852683E+02  0.71739220911E+03 -0.30812633817E+02  0.72537101826E+03  0.91187600000E+02 0.  0.
<mgrwt>
<rscale>  0 0.17776186E+04</rscale>
<asrwt>0</asrwt>
<pdfrwt beam="1">  1        1 0.16234284E+00 0.17776186E+04</pdfrwt>
<pdfrwt beam="2">  1       -1 0.11517477E+00 0.17776186E+04</pdfrwt>
<totfact> 0.88672224E+00</totfact>
</mgrwt>
</event>
