<event>
11    1  0.1162062E-014  0.1018519E+04  0.7818608E-02  0.9288463E-01
          1   -1    0    0  501    0  0.00000000000E+00  0.00000000000E+00  0.14418035505E+04  0.14418035505E+04  0.00000000000E+00 0. -1.
         -1   -1    0    0    0  501 -0.00000000000E+00 -0.00000000000E+00 -0.17987563801E+03  0.17987563801E+03  0.00000000000E+00 0.  1.
    9900016    2    1    2    0    0 -0.20838450031E+03 -0.20206843440E+02  0.11150932831E+04  0.13659589803E+04  0.76064347060E+03 0.  0.
         23    2    3    3    0    0 -0.54840796992E+02  0.26411207178E+02  0.68489805497E+01  0.10681722411E+03  0.87509690626E+02 0.  0.
        -15    1    4    4    0    0 -0.68159098034E+01  0.93968774427E+01 -0.37508512210E+02  0.39263805475E+02  0.00000000000E+00 0.  1.
        -15    1    3    3    0    0 -0.88622876411E+02 -0.88783805210E+02  0.94533699846E+02  0.15707704701E+03  0.00000000000E+00 0. -1.
         15    1    3    3    0    0 -0.39543835155E+02  0.57825028112E+02  0.27780335144E+01  0.70108246627E+02  0.00000000000E+00 0. -1.
         15    1    4    4    0    0 -0.48024887188E+02  0.17014329735E+02  0.44357492760E+02  0.67553418639E+02  0.00000000000E+00 0.  1.
        -16    1    1    2    0    0  0.20838450031E+03  0.20206843440E+02  0.14683462936E+03  0.25572020817E+03  0.00000000000E+00 0.  1.
         16    1    3    3    0    0 -0.24978322093E+01 -0.44336868313E+02  0.77628590672E+03  0.77755501801E+03  0.00000000000E+00 0. -1.
    9900018    1    3    3    0    0 -0.22879159542E+02  0.28677594793E+02  0.23464666249E+03  0.25440144456E+03  0.91187600000E+02 0.  0.
<mgrwt>
<rscale>  0 0.10185192E+04</rscale>
<asrwt>0</asrwt>
<pdfrwt beam="1">  1        1 0.22181592E+00 0.10185192E+04</pdfrwt>
<pdfrwt beam="2">  1       -1 0.27673176E-01 0.10185192E+04</pdfrwt>
<totfact> 0.84489934E+01</totfact>
</mgrwt>
</event>
<event>
12    1  0.1162062E-014  0.1086268E+04  0.7818608E-02  0.9218680E-01
          2   -1    0    0  501    0  0.00000000000E+00  0.00000000000E+00  0.75152071932E+03  0.75152071932E+03  0.00000000000E+00 0. -1.
         -2   -1    0    0    0  501 -0.00000000000E+00 -0.00000000000E+00 -0.39253017920E+03  0.39253017920E+03  0.00000000000E+00 0.  1.
    9900016    2    1    2    0    0 -0.21460333722E+03 -0.10082191780E+03  0.28877497842E+03  0.75966417675E+03  0.66142196957E+03 0.  0.
         23    2    3    3    0    0  0.51433377340E+02 -0.73952461662E+02 -0.11318480475E+03  0.17176903818E+03  0.92625285762E+02 0.  0.
         23    2    3    3    0    0 -0.96279404161E+02  0.79952658029E+02  0.91148891507E+00  0.13948880183E+03  0.61596621917E+02 0.  0.
        -15    1    4    4    0    0  0.42429062980E+02 -0.13326343496E+02 -0.99474372738E+02  0.10896314812E+03  0.00000000000E+00 0.  1.
        -15    1    5    5    0    0 -0.72680016741E+02  0.49648043808E+02  0.28139312739E+02  0.92407434814E+02  0.00000000000E+00 0.  1.
         15    1    5    5    0    0 -0.23599387420E+02  0.30304614221E+02 -0.27227823824E+02  0.47081367013E+02  0.00000000000E+00 0. -1.
         15    1    4    4    0    0  0.90043143601E+01 -0.60626118165E+02 -0.13710432009E+02  0.62805890064E+02  0.00000000000E+00 0. -1.
        -16    1    1    2    0    0  0.24642331577E+03  0.66592265062E+02 -0.81436477991E+01  0.25539244179E+03  0.00000000000E+00 0.  1.
         16    1    3    3    0    0 -0.16975731040E+03 -0.10682211417E+03  0.40104829425E+03  0.44840633674E+03  0.00000000000E+00 0. -1.
    9900018    1    1    2    0    0 -0.31819978548E+02  0.34229652737E+02  0.78359209506E+02  0.12899427999E+03  0.91187600000E+02 0.  0.
<mgrwt>
<rscale>  0 0.10862680E+04</rscale>
<asrwt>0</asrwt>
<pdfrwt beam="1">  1        2 0.11561857E+00 0.10862680E+04</pdfrwt>
<pdfrwt beam="2">  1       -2 0.60389259E-01 0.10862680E+04</pdfrwt>
<totfact> 0.94983150E+01</totfact>
</mgrwt>
</event>
<event>
12    1  0.1162062E-014  0.1711346E+04  0.7818608E-02  0.8754919E-01
          2   -1    0    0  501    0  0.00000000000E+00  0.00000000000E+00  0.16825857463E+04  0.16825857463E+04  0.00000000000E+00 0. -1.
         -2   -1    0    0    0  501 -0.00000000000E+00 -0.00000000000E+00 -0.43514963678E+03  0.43514963678E+03  0.00000000000E+00 0.  1.
    9900016    2    1    2    0    0  0.29835830951E+03 -0.36265870930E+02 -0.19089195023E+02  0.81603678459E+03  0.75843176502E+03 0.  0.
         23    2    3    3    0    0  0.91013959646E+02  0.16838208297E+03 -0.25162717244E+03  0.32835971697E+03  0.88700637566E+02 0.  0.
         23    2    3    3    0    0  0.14625938706E+03 -0.61950781966E+02  0.14692081312E+03  0.24523787154E+03  0.11543907754E+03 0.  0.
        -15    1    4    4    0    0  0.90287613287E+02  0.81925876339E+02 -0.12145046942E+03  0.17208695142E+03  0.00000000000E+00 0. -1.
        -15    1    5    5    0    0  0.25400472363E+02 -0.43167199137E+02 -0.48466384842E+01  0.50319787183E+02  0.00000000000E+00 0.  1.
         15    1    4    4    0    0  0.72634635881E+00  0.86456206628E+02 -0.13017670302E+03  0.15627276555E+03  0.00000000000E+00 0.  1.
         15    1    5    5    0    0  0.12085891470E+03 -0.18783582830E+02  0.15176745160E+03  0.19491808436E+03  0.00000000000E+00 0. -1.
        -16    1    3    3    0    0  0.37312362957E+02 -0.11035036003E+03  0.82526721182E+02  0.14275879691E+03  0.00000000000E+00 0.  1.
         16    1    1    2    0    0 -0.29835830951E+03  0.36265870930E+02  0.12665253045E+04  0.13016985985E+04  0.00000000000E+00 0. -1.
    9900018    1    3    3    0    0  0.23772599846E+02 -0.32346811906E+02  0.30904431221E+01  0.99680399158E+02  0.91187600000E+02 0.  0.
<mgrwt>
<rscale>  0 0.17113463E+04</rscale>
<asrwt>0</asrwt>
<pdfrwt beam="1">  1        2 0.25885934E+00 0.17113463E+04</pdfrwt>
<pdfrwt beam="2">  1       -2 0.66946099E-01 0.17113463E+04</pdfrwt>
<totfact> 0.19527645E+01</totfact>
</mgrwt>
</event>
<event>
12    1  0.1162062E-014  0.1783332E+04  0.7818608E-02  0.8715214E-01
          2   -1    0    0  501    0  0.00000000000E+00  0.00000000000E+00  0.27524956914E+04  0.27524956914E+04  0.00000000000E+00 0. -1.
         -2   -1    0    0    0  501 -0.00000000000E+00 -0.00000000000E+00 -0.28885372084E+03  0.28885372084E+03  0.00000000000E+00 0.  1.
    9900016    2    1    2    0    0 -0.18651310538E+03 -0.10449391751E+03  0.23059565010E+04  0.24100518489E+04  0.66723939675E+03 0.  0.
         23    2    3    3    0    0 -0.39117002332E+03 -0.16498205835E+03  0.15302075123E+04  0.15905182823E+04  0.89332574041E+02 0.  0.
         23    2    3    3    0    0  0.11429151546E+03  0.37353836786E+02  0.64235725952E+03  0.65676239165E+03  0.65239026676E+02 0.  0.
        -15    1    4    4    0    0 -0.18489113084E+03 -0.48409056311E+02  0.55679914815E+03  0.58868791255E+03  0.00000000000E+00 0.  1.
        -15    1    5    5    0    0  0.89244946555E+02  0.55970008672E+02  0.47830783526E+03  0.48977105634E+03  0.00000000000E+00 0.  1.
         15    1    5    5    0    0  0.25046568910E+02 -0.18616171886E+02  0.16404942426E+03  0.16699133531E+03  0.00000000000E+00 0. -1.
         15    1    4    4    0    0 -0.20627889248E+03 -0.11657300204E+03  0.97340836416E+03  0.10018303697E+04  0.00000000000E+00 0. -1.
        -16    1    3    3    0    0  0.90365402475E+02  0.23134304056E+02  0.13339172914E+03  0.16277117494E+03  0.00000000000E+00 0.  1.
         16    1    1    2    0    0  0.22396123326E+03  0.88985542114E+02 -0.16596560905E+03  0.29261176343E+03  0.00000000000E+00 0. -1.
    9900018    1    1    2    0    0 -0.37448127873E+02  0.15508375399E+02  0.32365107865E+03  0.33868579996E+03  0.91187600000E+02 0.  0.
<mgrwt>
<rscale>  0 0.17833324E+04</rscale>
<asrwt>0</asrwt>
<pdfrwt beam="1">  1        2 0.42346086E+00 0.17833324E+04</pdfrwt>
<pdfrwt beam="2">  1       -2 0.44439036E-01 0.17833324E+04</pdfrwt>
<totfact> 0.11241085E+01</totfact>
</mgrwt>
</event>
<event>
12    1  0.1162062E-014  0.1050440E+04  0.7818608E-02  0.9254890E-01
          2   -1    0    0  501    0  0.00000000000E+00  0.00000000000E+00  0.88785929288E+03  0.88785929288E+03  0.00000000000E+00 0. -1.
         -2   -1    0    0    0  501 -0.00000000000E+00 -0.00000000000E+00 -0.31069795572E+03  0.31069795572E+03  0.00000000000E+00 0.  1.
    9900016    2    1    2    0    0 -0.52434178786E+02 -0.22407631907E+03  0.33008044813E+03  0.86090579280E+03  0.76108221761E+03 0.  0.
         23    2    3    3    0    0  0.67007796952E+02  0.13330353285E+03  0.77614662802E+02  0.19076809971E+03  0.90047516705E+02 0.  0.
         23    2    3    3    0    0  0.59026571709E+02 -0.42599505158E+02  0.17910219202E+03  0.20311627636E+03  0.62287820071E+02 0.  0.
        -15    1    5    5    0    0  0.71311287928E+02 -0.32434616694E+02  0.13327875764E+03  0.15459796694E+03  0.00000000000E+00 0.  1.
        -15    1    4    4    0    0  0.18399141345E+02  0.16745983565E+02  0.57811701695E+02  0.62937661386E+02  0.00000000000E+00 0.  1.
         15    1    5    5    0    0 -0.12284716218E+02 -0.10164888464E+02  0.45823434387E+02  0.48518309421E+02  0.00000000000E+00 0. -1.
         15    1    4    4    0    0  0.48608655607E+02  0.11655754928E+03  0.19802961106E+02  0.12783043833E+03  0.00000000000E+00 0. -1.
        -16    1    3    3    0    0 -0.20398672542E+03 -0.24765799983E+03 -0.14914364097E+02  0.32119699140E+03  0.00000000000E+00 0.  1.
         16    1    1    2    0    0  0.52434178786E+02  0.22407631907E+03  0.24708088903E+03  0.33765145579E+03  0.00000000000E+00 0. -1.
    9900018    1    3    3    0    0  0.25518177974E+02 -0.67122346934E+02  0.88277957404E+02  0.14582442533E+03  0.91187600000E+02 0.  0.
<mgrwt>
<rscale>  0 0.10504400E+04</rscale>
<asrwt>0</asrwt>
<pdfrwt beam="1">  1        2 0.13659374E+00 0.10504400E+04</pdfrwt>
<pdfrwt beam="2">  1       -2 0.47799686E-01 0.10504400E+04</pdfrwt>
<totfact> 0.12337061E+02</totfact>
</mgrwt>
</event>
<event>
12    1  0.1162062E-014  0.9487416E+03  0.7818608E-02  0.9366623E-01
          2   -1    0    0  501    0  0.00000000000E+00  0.00000000000E+00  0.62244262510E+03  0.62244262510E+03  0.00000000000E+00 0. -1.
         -2   -1    0    0    0  501 -0.00000000000E+00 -0.00000000000E+00 -0.36152351314E+03  0.36152351314E+03  0.00000000000E+00 0.  1.
    9900016    2    1    2    0    0 -0.83597792616E+02 -0.12400493997E+03  0.27249555330E+03  0.73339435261E+03  0.66426473172E+03 0.  0.
         23    2    3    3    0    0  0.58544748572E+02  0.14677153193E+03 -0.52586721714E+02  0.18983552020E+03  0.91119653527E+02 0.  0.
         23    2    3    3    0    0  0.41670703197E+02  0.28513387697E+01  0.13912850219E+03  0.16509048075E+03  0.78444560519E+02 0.  0.
        -15    1    5    5    0    0 -0.97458215911E+01 -0.23636935728E+02  0.72413338139E+02  0.76794383320E+02  0.00000000000E+00 0.  1.
        -15    1    4    4    0    0  0.75750364778E+02  0.13472167136E+03 -0.27279578421E+02  0.15694655745E+03  0.00000000000E+00 0.  1.
         15    1    4    4    0    0 -0.17205616206E+02  0.12049860567E+02 -0.25307143293E+02  0.32888962744E+02  0.00000000000E+00 0. -1.
         15    1    5    5    0    0  0.51416524788E+02  0.26488274497E+02  0.66715164056E+02  0.88296097434E+02  0.00000000000E+00 0. -1.
        -16    1    1    2    0    0  0.64193521690E+02  0.12015735555E+03 -0.55922211319E+02  0.14726130530E+03  0.00000000000E+00 0.  1.
         16    1    3    3    0    0 -0.18381324438E+03 -0.27362781067E+03  0.18595377282E+03  0.37846835166E+03  0.00000000000E+00 0. -1.
    9900018    1    1    2    0    0  0.19404270926E+02  0.38475844250E+01  0.44345769983E+02  0.10331048033E+03  0.91187600000E+02 0.  0.
<mgrwt>
<rscale>  0 0.94874158E+03</rscale>
<asrwt>0</asrwt>
<pdfrwt beam="1">  1        2 0.95760404E-01 0.94874158E+03</pdfrwt>
<pdfrwt beam="2">  1       -2 0.55619002E-01 0.94874158E+03</pdfrwt>
<totfact> 0.14425242E+02</totfact>
</mgrwt>
</event>
<event>
12    1  0.1162062E-014  0.8703294E+03  0.7818608E-02  0.9463451E-01
         -1   -1    0    0    0  501 -0.00000000000E+00  0.00000000000E+00  0.16692180027E+03  0.16692180027E+03  0.00000000000E+00 0.  1.
          1   -1    0    0  501    0  0.00000000000E+00 -0.00000000000E+00 -0.11344731415E+04  0.11344731415E+04  0.00000000000E+00 0. -1.
    9900016    2    1    2    0    0  0.44952184347E+02  0.51760647720E+02 -0.72533845886E+03  0.10496670253E+04  0.75563557395E+03 0.  0.
         23    2    3    3    0    0 -0.13624706556E+03 -0.16158018779E+03 -0.38544361402E+03  0.44895766691E+03  0.91240271400E+02 0.  0.
         23    2    3    3    0    0 -0.26991482220E+02  0.11523861711E+03 -0.39620858705E+02  0.13618790205E+03  0.54487184133E+02 0.  0.
        -15    1    5    5    0    0 -0.31487803759E+02  0.10263689357E+03 -0.50783059824E+02  0.11876334818E+03  0.00000000000E+00 0. -1.
        -15    1    4    4    0    0 -0.74121120810E+02 -0.62766792871E+02 -0.94669969589E+02  0.13563190620E+03  0.00000000000E+00 0.  1.
         15    1    4    4    0    0 -0.62125944749E+02 -0.98813394920E+02 -0.29077364443E+03  0.31332576071E+03  0.00000000000E+00 0. -1.
         15    1    5    5    0    0  0.44963215391E+01  0.12601723537E+02  0.11162201119E+02  0.17424553863E+02  0.00000000000E+00 0.  1.
        -16    1    3    3    0    0  0.22674074030E+03  0.12310310534E+03 -0.22254351269E+03  0.34072181159E+03  0.00000000000E+00 0.  1.
         16    1    1    2    0    0 -0.44952184347E+02 -0.51760647720E+02 -0.24221288238E+03  0.25172791645E+03  0.00000000000E+00 0. -1.
    9900018    1    3    3    0    0 -0.18550008172E+02 -0.25000886935E+02 -0.77730473453E+02  0.12379964478E+03  0.91187600000E+02 0.  0.
<mgrwt>
<rscale>  0 0.87032936E+03</rscale>
<asrwt>0</asrwt>
<pdfrwt beam="1">  1        1 0.17453433E+00 0.87032936E+03</pdfrwt>
<pdfrwt beam="2">  1       -1 0.25680277E-01 0.87032936E+03</pdfrwt>
<totfact> 0.16100222E+02</totfact>
</mgrwt>
</event>
<event>
12    1  0.1162062E-014  0.9042732E+03  0.7818608E-02  0.9420255E-01
         -1   -1    0    0    0  501 -0.00000000000E+00  0.00000000000E+00  0.57068942303E+03  0.57068942303E+03  0.00000000000E+00 0.  1.
          1   -1    0    0  501    0  0.00000000000E+00 -0.00000000000E+00 -0.35821151415E+03  0.35821151415E+03  0.00000000000E+00 0. -1.
    9900016    2    1    2    0    0 -0.68713082615E+02  0.12460492667E+03  0.16504720551E+03  0.77890911376E+03  0.74780408663E+03 0.  0.
         23    2    3    3    0    0  0.61655649323E+02  0.33666918386E+02  0.54552392883E+02  0.12809042604E+03  0.92175447856E+02 0.  0.
         23    2    3    3    0    0 -0.30124364929E+03  0.13062316398E+03  0.17951046329E+02  0.33790302506E+03  0.77756460037E+02 0.  0.
        -15    1    4    4    0    0  0.66381410438E+02 -0.60393636811E+01  0.57452868988E+02  0.87998850676E+02  0.00000000000E+00 0.  1.
        -15    1    5    5    0    0 -0.70750887107E+02  0.66069323544E+02 -0.80281183147E+01  0.97135442675E+02  0.00000000000E+00 0.  1.
         15    1    4    4    0    0 -0.47257611151E+01  0.39706282067E+02 -0.29004761051E+01  0.40091575367E+02  0.00000000000E+00 0. -1.
         15    1    5    5    0    0 -0.23049276218E+03  0.64553840433E+02  0.25979164644E+02  0.24076758239E+03  0.00000000000E+00 0. -1.
        -16    1    3    3    0    0  0.18242217966E+03 -0.78569890987E+02  0.53072311657E+02  0.20559121982E+03  0.00000000000E+00 0.  1.
         16    1    1    2    0    0  0.68713082615E+02 -0.12460492667E+03  0.47430703361E+02  0.14999182342E+03  0.00000000000E+00 0. -1.
    9900018    1    3    3    0    0 -0.11547262310E+02  0.38884735289E+02  0.39471454645E+02  0.10732444284E+03  0.91187600000E+02 0.  0.
<mgrwt>
<rscale>  0 0.90427324E+03</rscale>
<asrwt>0</asrwt>
<pdfrwt beam="1">  1        1 0.55109464E-01 0.90427324E+03</pdfrwt>
<pdfrwt beam="2">  1       -1 0.87798373E-01 0.90427324E+03</pdfrwt>
<totfact> 0.89344794E+01</totfact>
</mgrwt>
</event>
<event>
12    1  0.1162062E-014  0.8381166E+03  0.7818608E-02  0.9506427E-01
          2   -1    0    0  501    0  0.00000000000E+00  0.00000000000E+00  0.81454129831E+03  0.81454129831E+03  0.00000000000E+00 0. -1.
         -2   -1    0    0    0  501 -0.00000000000E+00 -0.00000000000E+00 -0.21559356008E+03  0.21559356008E+03  0.00000000000E+00 0.  1.
    9900016    2    1    2    0    0 -0.18747192483E+02  0.47754031528E+02  0.61124245399E+03  0.97738009758E+03  0.76093535392E+03 0.  0.
         23    2    3    3    0    0 -0.89250422138E+02  0.17057175072E+02 -0.83400752165E+02  0.15313697529E+03  0.90767079201E+02 0.  0.
         23    2    3    3    0    0 -0.74750073398E+02  0.12323005559E+03  0.13860458707E+03  0.21384068903E+03  0.75785147993E+02 0.  0.
        -15    1    5    5    0    0 -0.14750681150E+02  0.78514649420E+02  0.38018431041E+02  0.88473351167E+02  0.00000000000E+00 0. -1.
        -15    1    4    4    0    0 -0.37970408405E+02  0.52323130715E+02 -0.30620375825E+02  0.71533693725E+02  0.00000000000E+00 0.  1.
         15    1    5    5    0    0 -0.59999392248E+02  0.44715406165E+02  0.10058615603E+03  0.12536733786E+03  0.00000000000E+00 0.  1.
         15    1    4    4    0    0 -0.51280013733E+02 -0.35265955643E+02 -0.52780376340E+02  0.81603281567E+02  0.00000000000E+00 0. -1.
        -16    1    1    2    0    0  0.18747192483E+02 -0.47754031528E+02 -0.12294715751E+02  0.52754760814E+02  0.00000000000E+00 0.  1.
         16    1    3    3    0    0  0.10849653631E+03 -0.70248419201E+02  0.43000426198E+03  0.44901002674E+03  0.00000000000E+00 0. -1.
    9900018    1    3    3    0    0  0.36756766746E+02 -0.22284779929E+02  0.12603435710E+03  0.16139240652E+03  0.91187600000E+02 0.  0.
<mgrwt>
<rscale>  0 0.83811660E+03</rscale>
<asrwt>0</asrwt>
<pdfrwt beam="1">  1        2 0.12531404E+00 0.83811660E+03</pdfrwt>
<pdfrwt beam="2">  1       -2 0.33168240E-01 0.83811660E+03</pdfrwt>
<totfact> 0.28645785E+02</totfact>
</mgrwt>
</event>
<event>
12    1  0.1162062E-014  0.1936585E+04  0.7818608E-02  0.8636857E-01
         -1   -1    0    0    0  501 -0.00000000000E+00  0.00000000000E+00  0.74604680419E+03  0.74604680419E+03  0.00000000000E+00 0.  1.
          1   -1    0    0  501    0  0.00000000000E+00 -0.00000000000E+00 -0.12567445213E+04  0.12567445213E+04  0.00000000000E+00 0. -1.
    9900016    2    1    2    0    0  0.20859628064E+03 -0.17499767124E+03 -0.10965267294E+04  0.13567787677E+04  0.75122643933E+03 0.  0.
         23    2    3    3    0    0  0.30659616149E+03  0.47288688779E+02 -0.59676848874E+03  0.67823677890E+03  0.87378903461E+02 0.  0.
         23    2    3    3    0    0 -0.11695481123E+03 -0.20351069377E+03 -0.18548407764E+03  0.32072483360E+03  0.11560728990E+03 0.  0.
        -15    1    5    5    0    0  0.20747706216E+02 -0.13272585059E+02 -0.65689431070E+01  0.25490779527E+02  0.00000000000E+00 0.  1.
        -15    1    4    4    0    0  0.92571743098E+02  0.52074954212E+02 -0.16358675391E+03  0.19504346831E+03  0.00000000000E+00 0.  1.
         15    1    4    4    0    0  0.21402441840E+03 -0.47862654327E+01 -0.43318173483E+03  0.48319331058E+03  0.00000000000E+00 0. -1.
         15    1    5    5    0    0 -0.13770251745E+03 -0.19023810871E+03 -0.17891513453E+03  0.29523405407E+03  0.00000000000E+00 0. -1.
        -16    1    1    2    0    0 -0.20859628064E+03  0.17499767124E+03  0.58582901223E+03  0.64601255778E+03  0.00000000000E+00 0.  1.
         16    1    3    3    0    0  0.76004590445E+01  0.33128443871E+02 -0.19756198451E+03  0.20046445693E+03  0.00000000000E+00 0. -1.
    9900018    1    3    3    0    0  0.11354471340E+02 -0.51904110118E+02 -0.11671217849E+03  0.15735269832E+03  0.91187600000E+02 0.  0.
<mgrwt>
<rscale>  0 0.19365849E+04</rscale>
<asrwt>0</asrwt>
<pdfrwt beam="1">  1        1 0.19334531E+00 0.19365849E+04</pdfrwt>
<pdfrwt beam="2">  1       -1 0.11477643E+00 0.19365849E+04</pdfrwt>
<totfact> 0.62506345E+00</totfact>
</mgrwt>
</event>
<event>
12    1  0.1162062E-014  0.2457121E+04  0.7818608E-02  0.8418423E-01
          2   -1    0    0  501    0  0.00000000000E+00  0.00000000000E+00  0.16660468067E+04  0.16660468067E+04  0.00000000000E+00 0. -1.
         -2   -1    0    0    0  501 -0.00000000000E+00 -0.00000000000E+00 -0.90595334748E+03  0.90595334748E+03  0.00000000000E+00 0.  1.
    9900016    2    1    2    0    0 -0.13559550989E+03  0.83565481103E+03  0.57344841759E+03  0.12161569074E+04  0.65839914203E+03 0.  0.
         23    2    3    3    0    0  0.77551898526E+02  0.21158150370E+03 -0.93707002644E+02  0.26097598159E+03  0.92446908800E+02 0.  0.
         23    2    3    3    0    0 -0.11164755927E+03  0.33301997840E+03  0.25425871459E+03  0.43991599473E+03  0.74236816788E+02 0.  0.
        -15    1    5    5    0    0 -0.17293487134E+02  0.11606455040E+02  0.27045703697E+01  0.21002123625E+02  0.00000000000E+00 0.  1.
        -15    1    4    4    0    0  0.41739415805E+02  0.16273053833E+02 -0.21483667965E+02  0.49684394955E+02  0.00000000000E+00 0. -1.
         15    1    5    5    0    0 -0.94354072135E+02  0.32141352336E+03  0.25155414422E+03  0.41891387110E+03  0.00000000000E+00 0. -1.
         15    1    4    4    0    0  0.35812482721E+02  0.19530844987E+03 -0.72223334678E+02  0.21129158663E+03  0.00000000000E+00 0.  1.
        -16    1    1    2    0    0  0.13718264089E+03 -0.10660685813E+04  0.57481059111E+02  0.10763946159E+04  0.00000000000E+00 0.  1.
         16    1    3    3    0    0 -0.10149984915E+03  0.29105332893E+03  0.41289670564E+03  0.51526493106E+03  0.00000000000E+00 0. -1.
    9900018    1    1    2    0    0 -0.15871309944E+01  0.23041377029E+03  0.12916398251E+03  0.27944863087E+03  0.91187600000E+02 0.  0.
<mgrwt>
<rscale>  0 0.24571208E+04</rscale>
<asrwt>0</asrwt>
<pdfrwt beam="1">  1        2 0.25631489E+00 0.24571208E+04</pdfrwt>
<pdfrwt beam="2">  1       -2 0.13937744E+00 0.24571208E+04</pdfrwt>
<totfact> 0.33317597E+00</totfact>
</mgrwt>
</event>
<event>
12    1  0.1162062E-014  0.1583560E+04  0.7818608E-02  0.8830712E-01
         -1   -1    0    0    0  501 -0.00000000000E+00  0.00000000000E+00  0.87912457492E+03  0.87912457492E+03  0.00000000000E+00 0.  1.
          1   -1    0    0  501    0  0.00000000000E+00 -0.00000000000E+00 -0.71311385094E+03  0.71311385094E+03  0.00000000000E+00 0. -1.
    9900016    2    1    2    0    0 -0.43773767434E+03 -0.21502813067E+03 -0.14623640530E+03  0.83450625824E+03  0.66118396857E+03 0.  0.
         23    2    3    3    0    0 -0.10936269497E+02  0.95713963699E+02  0.20774845576E+02  0.13299136174E+03  0.89299178341E+02 0.  0.
         23    2    3    3    0    0 -0.11084206021E+03  0.18365471279E+01  0.11565142271E+03  0.17479495040E+03  0.69919152540E+02 0.  0.
        -15    1    4    4    0    0 -0.33421905305E+02  0.62572341133E+02 -0.22118739521E+02  0.74307201986E+02  0.00000000000E+00 0. -1.
        -15    1    5    5    0    0 -0.94844034785E+02  0.16001649971E+02  0.55697464446E+02  0.11114698053E+03  0.00000000000E+00 0.  1.
         15    1    4    4    0    0  0.22485635808E+02  0.33141622566E+02  0.42893585097E+02  0.58684159758E+02  0.00000000000E+00 0.  1.
         15    1    5    5    0    0 -0.15998025426E+02 -0.14165102844E+02  0.59953958262E+02  0.63647969861E+02  0.00000000000E+00 0. -1.
        -16    1    1    2    0    0  0.45056257565E+03  0.27838410945E+03  0.35550580619E+03  0.63787829968E+03  0.00000000000E+00 0.  1.
         16    1    3    3    0    0 -0.31595934464E+03 -0.31257864150E+03 -0.28266267359E+03  0.52671994610E+03  0.00000000000E+00 0. -1.
    9900018    1    1    2    0    0 -0.12824901306E+02 -0.63355978779E+02 -0.43258676905E+02  0.11985386795E+03  0.91187600000E+02 0.  0.
<mgrwt>
<rscale>  0 0.15835604E+04</rscale>
<asrwt>0</asrwt>
<pdfrwt beam="1">  1        1 0.10970982E+00 0.15835604E+04</pdfrwt>
<pdfrwt beam="2">  1       -1 0.13524993E+00 0.15835604E+04</pdfrwt>
<totfact> 0.11667427E+01</totfact>
</mgrwt>
</event>
<event>
12    1  0.1162062E-014  0.1035583E+04  0.7818608E-02  0.9270356E-01
          1   -1    0    0  501    0  0.00000000000E+00  0.00000000000E+00  0.33151349579E+03  0.33151349579E+03  0.00000000000E+00 0. -1.
         -1   -1    0    0    0  501 -0.00000000000E+00 -0.00000000000E+00 -0.80874001677E+03  0.80874001677E+03  0.00000000000E+00 0.  1.
    9900016    2    1    2    0    0  0.19260859670E+03  0.10030144794E+03 -0.37626755252E+03  0.78926435292E+03  0.65894043413E+03 0.  0.
         23    2    3    3    0    0 -0.18045256135E+03 -0.76506382409E+02 -0.98671290187E+02  0.23760617992E+03  0.91128040580E+02 0.  0.
         23    2    3    3    0    0  0.11895326822E+03  0.36531246101E+02 -0.17683581065E+03  0.24441070209E+03  0.11393540013E+03 0.  0.
        -15    1    4    4    0    0 -0.86113035799E+02  0.10501541898E+02 -0.51432384202E+02  0.10085151194E+03  0.00000000000E+00 0.  1.
        -15    1    5    5    0    0  0.45829493542E+02  0.72726199023E+02 -0.10502075375E+03  0.13571588419E+03  0.00000000000E+00 0.  1.
         15    1    4    4    0    0 -0.94339525551E+02 -0.87007924307E+02 -0.47238905985E+02  0.13675466797E+03  0.00000000000E+00 0. -1.
         15    1    5    5    0    0  0.73123774675E+02 -0.36194952922E+02 -0.71815056900E+02  0.10869481790E+03  0.00000000000E+00 0. -1.
        -16    1    1    2    0    0 -0.20913166176E+03 -0.58477289572E+02 -0.14692614744E+02  0.21764999030E+03  0.00000000000E+00 0.  1.
         16    1    3    3    0    0  0.25410788983E+03  0.14027658425E+03 -0.10076045168E+03  0.30724747092E+03  0.00000000000E+00 0. -1.
    9900018    1    1    2    0    0  0.16523065063E+02 -0.41824158373E+02 -0.86266353724E+02  0.13333916934E+03  0.91187600000E+02 0.  0.
<mgrwt>
<rscale>  0 0.10355834E+04</rscale>
<asrwt>0</asrwt>
<pdfrwt beam="1">  1        1 0.51002077E-01 0.10355834E+04</pdfrwt>
<pdfrwt beam="2">  1       -1 0.12442154E+00 0.10355834E+04</pdfrwt>
<totfact> 0.43584460E+01</totfact>
</mgrwt>
</event>
<event>
12    1  0.1162062E-014  0.2948304E+04  0.7818608E-02  0.8258649E-01
          2   -1    0    0  501    0  0.00000000000E+00  0.00000000000E+00  0.23375911244E+04  0.23375911244E+04  0.00000000000E+00 0. -1.
         -2   -1    0    0    0  501 -0.00000000000E+00 -0.00000000000E+00 -0.92964236495E+03  0.92964236495E+03  0.00000000000E+00 0.  1.
    9900016    2    1    2    0    0  0.93680098506E+03 -0.81794499319E+03  0.14040094745E+04  0.20235914124E+04  0.75963774409E+03 0.  0.
         23    2    3    3    0    0  0.24458842974E+03 -0.14910084449E+03  0.39864554690E+02  0.30275814127E+03  0.89547460012E+02 0.  0.
         23    2    3    3    0    0  0.31487136534E+03 -0.30603202456E+03  0.39504548819E+03  0.60096150763E+03  0.11087929994E+03 0.  0.
        -15    1    4    4    0    0  0.46999499005E+02  0.76671980566E+01  0.11105322728E+02  0.48898538072E+02  0.00000000000E+00 0.  1.
        -15    1    5    5    0    0  0.26576107974E+03 -0.20352075880E+03  0.25625068439E+03  0.42156145936E+03  0.00000000000E+00 0. -1.
         15    1    5    5    0    0  0.49110285593E+02 -0.10251126576E+03  0.13879480380E+03  0.17940004828E+03  0.00000000000E+00 0.  1.
         15    1    4    4    0    0  0.19758893073E+03 -0.15676804254E+03  0.28759231962E+02  0.25385960319E+03  0.00000000000E+00 0. -1.
        -16    1    1    2    0    0 -0.93680098506E+03  0.81794499319E+03  0.39392848800E+01  0.12436420769E+04  0.00000000000E+00 0.  1.
         16    1    3    3    0    0  0.26903251503E+03 -0.21735202673E+03  0.71821126495E+03  0.79714980949E+03  0.00000000000E+00 0. -1.
    9900018    1    3    3    0    0  0.10830867496E+03 -0.14546009742E+03  0.25088816670E+03  0.32272195400E+03  0.91187600000E+02 0.  0.
<mgrwt>
<rscale>  0 0.29483037E+04</rscale>
<asrwt>0</asrwt>
<pdfrwt beam="1">  1        2 0.35962940E+00 0.29483037E+04</pdfrwt>
<pdfrwt beam="2">  1       -2 0.14302190E+00 0.29483037E+04</pdfrwt>
<totfact> 0.12601711E+00</totfact>
</mgrwt>
</event>
<event>
11    1  0.1162062E-014  0.9532295E+03  0.7818608E-02  0.9361384E-01
         -1   -1    0    0    0  501 -0.00000000000E+00  0.00000000000E+00  0.40417820308E+03  0.40417820308E+03  0.00000000000E+00 0.  1.
          1   -1    0    0  501    0  0.00000000000E+00 -0.00000000000E+00 -0.56203331536E+03  0.56203331536E+03  0.00000000000E+00 0. -1.
    9900016    2    1    2    0    0  0.15826350785E+03 -0.57656922716E+02 -0.19816118279E+03  0.79301729806E+03  0.74915747477E+03 0.  0.
         23    2    3    3    0    0 -0.80891082319E+02 -0.16807600049E+03 -0.12639413425E+03  0.24281396376E+03  0.90499915372E+02 0.  0.
        -15    1    3    3    0    0  0.10564150356E+03 -0.52390990323E+02 -0.84736547230E+01  0.11822328860E+03  0.00000000000E+00 0. -1.
        -15    1    4    4    0    0 -0.43591393345E+02 -0.17028600341E+02 -0.53253075944E+02  0.70894801649E+02  0.00000000000E+00 0.  1.
         15    1    4    4    0    0 -0.37299688974E+02 -0.15104740015E+03 -0.73141058308E+02  0.17191916211E+03  0.00000000000E+00 0. -1.
         15    1    3    3    0    0  0.96246998787E+02 -0.33879993740E+02  0.40104077932E+02  0.10963428213E+03  0.00000000000E+00 0.  1.
        -16    1    1    2    0    0 -0.15826350785E+03  0.57656922716E+02  0.40306070513E+02  0.17319422038E+03  0.00000000000E+00 0.  1.
         16    1    3    3    0    0 -0.64130143347E+01  0.20335294984E+03 -0.77908710656E+02  0.21786077242E+03  0.00000000000E+00 0. -1.
    9900018    1    3    3    0    0  0.43679102153E+02 -0.66628880033E+01 -0.25488761092E+02  0.10448499116E+03  0.91187600000E+02 0.  0.
<mgrwt>
<rscale>  0 0.95322949E+03</rscale>
<asrwt>0</asrwt>
<pdfrwt beam="1">  1        1 0.86466663E-01 0.95322949E+03</pdfrwt>
<pdfrwt beam="2">  1       -1 0.62181263E-01 0.95322949E+03</pdfrwt>
<totfact> 0.99220146E+01</totfact>
</mgrwt>
</event>
<event>
11    1  0.1162062E-014  0.1015280E+04  0.7818608E-02  0.9291943E-01
         -2   -1    0    0    0  501 -0.00000000000E+00  0.00000000000E+00  0.27883527510E+03  0.27883527510E+03  0.00000000000E+00 0.  1.
          2   -1    0    0  501    0  0.00000000000E+00 -0.00000000000E+00 -0.92419612404E+03  0.92419612404E+03  0.00000000000E+00 0. -1.
    9900016    2    1    2    0    0  0.65110303258E+02  0.10190279646E+03 -0.53067374079E+03  0.85072226486E+03  0.65382736349E+03 0.  0.
         23    2    3    3    0    0  0.29966419091E+02  0.10754580181E+03  0.87479860407E+02  0.16819561732E+03  0.90404391211E+02 0.  0.
        -15    1    4    4    0    0  0.61687511838E+02  0.64264845195E+02  0.63639258455E+02  0.10947727920E+03  0.00000000000E+00 0. -1.
        -15    1    3    3    0    0  0.10969955183E+03  0.89398776624E+01 -0.20357085359E+03  0.23141954436E+03  0.00000000000E+00 0.  1.
         15    1    4    4    0    0 -0.31721092747E+02  0.43280956611E+02  0.23840601951E+02  0.58718338120E+02  0.00000000000E+00 0.  1.
         15    1    3    3    0    0 -0.61734010115E+01 -0.71561470855E+02 -0.93435519721E+02  0.11785309218E+03  0.00000000000E+00 0. -1.
        -16    1    3    3    0    0 -0.68382266652E+02  0.56978587845E+02 -0.32114722789E+03  0.33325401099E+03  0.00000000000E+00 0.  1.
         16    1    1    2    0    0 -0.13506225709E+03 -0.15508562150E+03 -0.58844660576E+02  0.21390665572E+03  0.00000000000E+00 0. -1.
    9900018    1    1    2    0    0  0.69951953828E+02  0.53182825038E+02 -0.55842447581E+02  0.13840247855E+03  0.91187600000E+02 0.  0.
<mgrwt>
<rscale>  0 0.10152802E+04</rscale>
<asrwt>0</asrwt>
<pdfrwt beam="1">  1        2 0.14218402E+00 0.10152802E+04</pdfrwt>
<pdfrwt beam="2">  1       -2 0.42897735E-01 0.10152802E+04</pdfrwt>
<totfact> 0.14506691E+02</totfact>
</mgrwt>
</event>
<event>
12    1  0.1162062E-014  0.9294344E+03  0.7818608E-02  0.9389517E-01
         -5   -1    0    0    0  501 -0.00000000000E+00  0.00000000000E+00  0.33111526336E+03  0.33111526336E+03  0.00000000000E+00 0.  1.
          5   -1    0    0  501    0  0.00000000000E+00 -0.00000000000E+00 -0.65222630635E+03  0.65222630635E+03  0.00000000000E+00 0. -1.
    9900016    2    1    2    0    0  0.27623854974E+02  0.83102028958E+01 -0.42836801205E+03  0.87227314824E+03  0.75929516958E+03 0.  0.
         23    2    3    3    0    0 -0.76322015433E+02 -0.16868034682E+03 -0.29561229693E+03  0.35985142515E+03  0.88477729640E+02 0.  0.
         23    2    3    3    0    0  0.14064664762E+03  0.29573325224E+01  0.22317285372E+02  0.17694005683E+03  0.10497379283E+03 0.  0.
        -15    1    4    4    0    0 -0.60459494967E+02 -0.33876669816E+02 -0.93246936765E+02  0.11618076650E+03  0.00000000000E+00 0.  1.
        -15    1    5    5    0    0  0.13093724839E+03 -0.19272656818E+02 -0.14191813006E+02  0.13310674616E+03  0.00000000000E+00 0.  1.
         15    1    5    5    0    0  0.97093992255E+01  0.22229989340E+02  0.36509098378E+02  0.43833310664E+02  0.00000000000E+00 0. -1.
         15    1    4    4    0    0 -0.15862520466E+02 -0.13480367701E+03 -0.20236536016E+03  0.24367065864E+03  0.00000000000E+00 0. -1.
        -16    1    1    2    0    0 -0.27623854974E+02 -0.83102028958E+01  0.10725696906E+03  0.11106842147E+03  0.00000000000E+00 0.  1.
         16    1    3    3    0    0 -0.62500524018E+02  0.17684782833E+03 -0.15063875861E+03  0.24056912828E+03  0.00000000000E+00 0. -1.
    9900018    1    3    3    0    0  0.25799746805E+02 -0.28146111332E+01 -0.44342418872E+01  0.94912537981E+02  0.91187600000E+02 0.  0.
<mgrwt>
<rscale>  0 0.92943442E+03</rscale>
<asrwt>0</asrwt>
<pdfrwt beam="1">  1        5 0.10034251E+00 0.92943442E+03</pdfrwt>
<pdfrwt beam="2">  1       -5 0.50940810E-01 0.92943442E+03</pdfrwt>
<totfact> 0.27757068E+00</totfact>
</mgrwt>
</event>
<event>
12    1  0.1162062E-014  0.9870851E+03  0.7818608E-02  0.9322824E-01
         -2   -1    0    0    0  501 -0.00000000000E+00  0.00000000000E+00  0.49562015578E+03  0.49562015578E+03  0.00000000000E+00 0.  1.
          2   -1    0    0  501    0  0.00000000000E+00 -0.00000000000E+00 -0.49147365264E+03  0.49147365264E+03  0.00000000000E+00 0. -1.
    9900016    2    1    2    0    0  0.89774649671E+02 -0.62825579534E+02  0.11666608283E+03  0.68350675846E+03  0.66450280120E+03 0.  0.
         23    2    3    3    0    0 -0.12336927378E+03  0.34716507016E+02 -0.15606384443E+03  0.22432376463E+03  0.97672996619E+02 0.  0.
         23    2    3    3    0    0  0.19190050846E+02  0.29091092790E+02  0.20417549053E+03  0.21761772811E+03  0.66747995640E+02 0.  0.
        -15    1    5    5    0    0  0.15499633777E+02  0.50820602783E+02  0.13843767292E+03  0.14828338274E+03  0.00000000000E+00 0.  1.
        -15    1    4    4    0    0 -0.12947953483E+02 -0.12035163493E+02 -0.80886388529E+02  0.82795546432E+02  0.00000000000E+00 0. -1.
         15    1    5    5    0    0  0.36904170693E+01 -0.21729509994E+02  0.65737817616E+02  0.69334345368E+02  0.00000000000E+00 0. -1.
         15    1    4    4    0    0 -0.11042132029E+03  0.46751670509E+02 -0.75177455899E+02  0.14152821820E+03  0.00000000000E+00 0.  1.
        -16    1    3    3    0    0  0.19395387260E+03 -0.12663317934E+03  0.68554436729E+02  0.24156526572E+03  0.00000000000E+00 0.  1.
         16    1    1    2    0    0 -0.15018187284E+03  0.53219569436E+02 -0.11025735761E+03  0.19376171554E+03  0.00000000000E+00 0. -1.
    9900018    1    1    2    0    0  0.60407223169E+02  0.96060100984E+01 -0.22622220863E+01  0.10982533443E+03  0.91187600000E+02 0.  0.
<mgrwt>
<rscale>  0 0.98708510E+03</rscale>
<asrwt>0</asrwt>
<pdfrwt beam="1">  1        2 0.75611331E-01 0.98708510E+03</pdfrwt>
<pdfrwt beam="2">  1       -2 0.76249255E-01 0.98708510E+03</pdfrwt>
<totfact> 0.96685123E+01</totfact>
</mgrwt>
</event>
<event>
12    1  0.1162062E-014  0.9535238E+03  0.7818608E-02  0.9361041E-01
         -2   -1    0    0    0  501 -0.00000000000E+00  0.00000000000E+00  0.34164896959E+03  0.34164896959E+03  0.00000000000E+00 0.  1.
          2   -1    0    0  501    0  0.00000000000E+00 -0.00000000000E+00 -0.66530832295E+03  0.66530832295E+03  0.00000000000E+00 0. -1.
    9900016    2    1    2    0    0  0.13854386829E+03  0.11520297012E+03 -0.22076174009E+03  0.79946260205E+03  0.74695286224E+03 0.  0.
         23    2    3    3    0    0 -0.16725711242E+03  0.38112273637E+02  0.93061954036E+01  0.19490703630E+03  0.92057919102E+02 0.  0.
         23    2    3    3    0    0  0.97178958413E+02  0.12676689747E+03 -0.22651817784E+03  0.30491923126E+03  0.12708916731E+03 0.  0.
        -15    1    5    5    0    0  0.43022537050E+02  0.10491395444E+03 -0.59645475401E+02  0.12812282882E+03  0.00000000000E+00 0.  1.
        -15    1    4    4    0    0 -0.29966570701E+02 -0.84760473826E+01 -0.31498423223E+02  0.44294349575E+02  0.00000000000E+00 0.  1.
         15    1    5    5    0    0  0.54156421363E+02  0.21852943028E+02 -0.16687270244E+03  0.17679640243E+03  0.00000000000E+00 0. -1.
         15    1    4    4    0    0 -0.13729054172E+03  0.46588321020E+02  0.40804618626E+02  0.15061268673E+03  0.00000000000E+00 0. -1.
        -16    1    3    3    0    0  0.16305825159E+03 -0.74469234949E+02  0.43807046125E+02  0.18453378459E+03  0.00000000000E+00 0.  1.
         16    1    1    2    0    0 -0.13854386829E+03 -0.11520297012E+03 -0.10289761327E+03  0.20749469050E+03  0.00000000000E+00 0. -1.
    9900018    1    3    3    0    0  0.45563770716E+02  0.24793033970E+02 -0.47356803781E+02  0.11510254990E+03  0.91187600000E+02 0.  0.
<mgrwt>
<rscale>  0 0.95352379E+03</rscale>
<asrwt>0</asrwt>
<pdfrwt beam="1">  1        2 0.10235513E+00 0.95352379E+03</pdfrwt>
<pdfrwt beam="2">  1       -2 0.52561381E-01 0.95352379E+03</pdfrwt>
<totfact> 0.14932756E+02</totfact>
</mgrwt>
</event>
<event>
12    1  0.1162062E-014  0.1111034E+04  0.7818608E-02  0.9194504E-01
         -2   -1    0    0    0  501 -0.00000000000E+00  0.00000000000E+00  0.36408438391E+03  0.36408438391E+03  0.00000000000E+00 0.  1.
          2   -1    0    0  501    0  0.00000000000E+00 -0.00000000000E+00 -0.84760337508E+03  0.84760337508E+03  0.00000000000E+00 0. -1.
    9900016    2    1    2    0    0  0.31615465478E+02  0.20197208873E+03 -0.59804097128E+03  0.97736416604E+03  0.74551689950E+03 0.  0.
         23    2    3    3    0    0  0.12769498429E+03  0.22364400865E+03 -0.39082666753E+02  0.27616373671E+03  0.91740411021E+02 0.  0.
         23    2    3    3    0    0 -0.19057935497E+03  0.23956240180E+02 -0.28843184933E+03  0.35347147317E+03  0.69676098159E+02 0.  0.
        -15    1    5    5    0    0 -0.72985604003E+02  0.29231309851E+02 -0.16574772625E+03  0.18344938437E+03  0.00000000000E+00 0.  1.
        -15    1    4    4    0    0  0.97583785737E+02  0.93202032528E+02  0.55265541513E+01  0.13505464415E+03  0.00000000000E+00 0.  1.
         15    1    5    5    0    0 -0.11759375096E+03 -0.52750696713E+01 -0.12268412308E+03  0.17002208881E+03  0.00000000000E+00 0. -1.
         15    1    4    4    0    0  0.30111198557E+02  0.13044197612E+03 -0.44609220904E+02  0.14110909256E+03  0.00000000000E+00 0. -1.
        -16    1    1    2    0    0 -0.31615465478E+02 -0.20197208873E+03  0.11452198011E+03  0.23432359295E+03  0.00000000000E+00 0.  1.
         16    1    3    3    0    0  0.91258269871E+02 -0.69129119607E+02 -0.19842617218E+03  0.22908481575E+03  0.00000000000E+00 0. -1.
    9900018    1    3    3    0    0  0.32415662793E+01  0.23500959512E+02 -0.72100283010E+02  0.11864414041E+03  0.91187600000E+02 0.  0.
<mgrwt>
<rscale>  0 0.11110340E+04</rscale>
<asrwt>0</asrwt>
<pdfrwt beam="1">  1        2 0.13040052E+00 0.11110340E+04</pdfrwt>
<pdfrwt beam="2">  1       -2 0.56012982E-01 0.11110340E+04</pdfrwt>
<totfact> 0.94631976E+01</totfact>
</mgrwt>
</event>
<event>
12    1  0.1162062E-014  0.9954111E+03  0.7818608E-02  0.9313592E-01
         -2   -1    0    0    0  501 -0.00000000000E+00  0.00000000000E+00  0.34343224346E+03  0.34343224346E+03  0.00000000000E+00 0.  1.
          2   -1    0    0  501    0  0.00000000000E+00 -0.00000000000E+00 -0.72128001492E+03  0.72128001492E+03  0.00000000000E+00 0. -1.
    9900016    2    1    2    0    0 -0.14665292739E+03  0.24153298484E+02 -0.27789075853E+03  0.73729012954E+03  0.66654557121E+03 0.  0.
         23    2    3    3    0    0  0.12272501890E+03 -0.15772119698E+03 -0.26915419568E+03  0.34796654733E+03  0.93270203005E+02 0.  0.
         23    2    3    3    0    0 -0.84213753518E+02  0.54020438434E+02 -0.45252270631E+02  0.16136342100E+03  0.11823798708E+03 0.  0.
        -15    1    4    4    0    0 -0.63873998308E+01 -0.54146531347E+02 -0.56948369020E+02  0.78840106973E+02  0.00000000000E+00 0. -1.
        -15    1    5    5    0    0 -0.52326611925E+02  0.70017900825E+02 -0.74795901973E+02  0.11504350353E+03  0.00000000000E+00 0. -1.
         15    1    5    5    0    0 -0.31887141592E+02 -0.15997462391E+02  0.29543631342E+02  0.46319917473E+02  0.00000000000E+00 0.  1.
         15    1    4    4    0    0  0.12911241873E+03 -0.10357466563E+03 -0.21220582666E+03  0.26912644036E+03  0.00000000000E+00 0.  1.
        -16    1    3    3    0    0 -0.18516419277E+03  0.12785405703E+03  0.36515707783E+02  0.22796016121E+03  0.00000000000E+00 0.  1.
         16    1    1    2    0    0  0.20082853220E+03  0.79096150738E+01 -0.64339015438E+02  0.21103120685E+03  0.00000000000E+00 0. -1.
    9900018    1    1    2    0    0 -0.54175604816E+02 -0.32062913558E+02 -0.35617997499E+02  0.11639092199E+03  0.91187600000E+02 0.  0.
<mgrwt>
<rscale>  0 0.99541110E+03</rscale>
<asrwt>0</asrwt>
<pdfrwt beam="1">  1        2 0.11096616E+00 0.99541110E+03</pdfrwt>
<pdfrwt beam="2">  1       -2 0.52835730E-01 0.99541110E+03</pdfrwt>
<totfact> 0.13310181E+02</totfact>
</mgrwt>
</event>
<event>
12    1  0.1162062E-014  0.9346188E+03  0.7818608E-02  0.9383312E-01
         -1   -1    0    0    0  501 -0.00000000000E+00  0.00000000000E+00  0.15532745961E+03  0.15532745961E+03  0.00000000000E+00 0.  1.
          1   -1    0    0  501    0  0.00000000000E+00 -0.00000000000E+00 -0.14059205637E+04  0.14059205637E+04  0.00000000000E+00 0. -1.
    9900016    2    1    2    0    0 -0.50916313970E+02  0.81646836894E+02 -0.10986658117E+04  0.12892131617E+04  0.66764162062E+03 0.  0.
         23    2    3    3    0    0 -0.12546810861E+03 -0.11729457985E+03 -0.28069502509E+03  0.34162194858E+03  0.91736546127E+02 0.  0.
         23    2    3    3    0    0 -0.74421540750E+02 -0.98218210682E+02 -0.27729084663E+03  0.31290097665E+03  0.76363767079E+02 0.  0.
        -15    1    5    5    0    0 -0.61136382070E+02 -0.19180975287E+02 -0.13916167308E+03  0.15320423715E+03  0.00000000000E+00 0. -1.
        -15    1    4    4    0    0 -0.10440071993E+02 -0.18909913144E+02  0.12277438210E+01  0.21635324662E+02  0.00000000000E+00 0.  1.
         15    1    4    4    0    0 -0.11502803662E+03 -0.98384666711E+02 -0.28192276892E+03  0.31998662392E+03  0.00000000000E+00 0. -1.
         15    1    5    5    0    0 -0.13285158680E+02 -0.79037235395E+02 -0.13812917355E+03  0.15969673950E+03  0.00000000000E+00 0.  1.
        -16    1    1    2    0    0  0.57784928754E+02 -0.57380779692E+02  0.12443361405E+02  0.82380149988E+02  0.00000000000E+00 0.  1.
         16    1    3    3    0    0  0.14897333539E+03  0.29715962743E+03 -0.54067993992E+03  0.63469023647E+03  0.00000000000E+00 0. -1.
    9900018    1    1    2    0    0 -0.68686147841E+01 -0.24266057202E+02 -0.16437065381E+03  0.18965471159E+03  0.91187600000E+02 0.  0.
<mgrwt>
<rscale>  0 0.93461879E+03</rscale>
<asrwt>0</asrwt>
<pdfrwt beam="1">  1        1 0.21629547E+00 0.93461879E+03</pdfrwt>
<pdfrwt beam="2">  1       -1 0.23896532E-01 0.93461879E+03</pdfrwt>
<totfact> 0.11584425E+02</totfact>
</mgrwt>
</event>
