<event>
11    1  0.1003812E-013  0.4204762E+04  0.7818608E-02  0.8699228E-01
          2   -1    0    0  501    0  0.00000000000E+00  0.00000000000E+00  0.28881058371E+04  0.28881058371E+04  0.00000000000E+00 0. -1.
         -2   -1    0    0    0  501 -0.00000000000E+00 -0.00000000000E+00 -0.19230996874E+04  0.19230996874E+04  0.00000000000E+00 0.  1.
    9900016    2    1    2    0    0  0.69120213425E+03 -0.51503895728E+03  0.10221586704E+04  0.22748707961E+04  0.18404356205E+04 0.  0.
         23    2    3    3    0    0 -0.26722737047E+02 -0.11371922548E+03 -0.51492615895E+03  0.53156834936E+03  0.61398647765E+02 0.  0.
        -15    1    4    4    0    0 -0.43803652642E+02 -0.10071409086E+03 -0.40904411886E+03  0.42353179250E+03  0.00000000000E+00 0.  1.
        -15    1    1    2    0    0 -0.93872138693E+03  0.57594544173E+03 -0.10193132085E+04  0.15006366686E+04  0.00000000000E+00 0.  1.
         15    1    1    2    0    0  0.88537320903E+02  0.36325768514E+02  0.39765489064E+03  0.40900835041E+03  0.00000000000E+00 0. -1.
         15    1    4    4    0    0  0.17080915596E+02 -0.13005134615E+02 -0.10588204009E+03  0.10803655686E+03  0.00000000000E+00 0. -1.
        -16    1    1    2    0    0  0.23470182261E+02  0.43336804965E+02  0.17196353597E+03  0.17888651661E+03  0.00000000000E+00 0.  1.
         16    1    3    3    0    0  0.71792487130E+03 -0.40131973180E+03  0.15370848294E+04  0.17433024467E+04  0.00000000000E+00 0. -1.
    9900018    1    1    2    0    0  0.13551174952E+03 -0.14056905793E+03  0.39254226120E+03  0.44780319285E+03  0.91187600000E+02 0.  0.
<mgrwt>
<rscale>  0 0.18133569E+04</rscale>
<asrwt>0</asrwt>
<pdfrwt beam="1">  1        2 0.44432397E+00 0.42047618E+04</pdfrwt>
<pdfrwt beam="2">  1       -2 0.29586149E+00 0.42047618E+04</pdfrwt>
<totfact> 0.52422064E-02</totfact>
</mgrwt>
</event>
<event>
10    1  0.1003812E-013  0.3175022E+04  0.7818608E-02  0.8725548E-01
         -1   -1    0    0    0  501 -0.00000000000E+00  0.00000000000E+00  0.15402127795E+04  0.15402127795E+04  0.00000000000E+00 0.  1.
          1   -1    0    0  501    0  0.00000000000E+00 -0.00000000000E+00 -0.23955324806E+04  0.23955324806E+04  0.00000000000E+00 0. -1.
    9900016    2    1    2    0    0  0.21782335948E+01 -0.52887007584E+03 -0.23462112128E+03  0.19313024399E+04  0.18425997237E+04 0.  0.
        -15    1    3    3    0    0  0.63510382039E+02 -0.56892881979E+03  0.22254315223E+03  0.61419787139E+03  0.00000000000E+00 0. -1.
        -15    1    1    2    0    0  0.40357337288E+03  0.15606482292E+03  0.29667407147E+03  0.52463625583E+03  0.00000000000E+00 0.  1.
         15    1    3    3    0    0 -0.71551546213E+02 -0.58173999208E+03 -0.84697396538E+02  0.59221169453E+03  0.00000000000E+00 0.  1.
         15    1    1    2    0    0  0.38468919120E+02  0.89902408361E+01 -0.10558396831E+03  0.11273267731E+03  0.00000000000E+00 0. -1.
        -16    1    1    2    0    0  0.20680719620E+03  0.16202182581E+03 -0.58782805432E+03  0.64386497800E+03  0.00000000000E+00 0.  1.
         16    1    3    3    0    0  0.10219397769E+02  0.62179873604E+03 -0.37246687697E+03  0.72489287393E+03  0.00000000000E+00 0. -1.
    9900018    1    1    2    0    0 -0.65102772180E+03  0.20179318628E+03 -0.22396062869E+03  0.72320890908E+03  0.91187600000E+02 0.  0.
<mgrwt>
<rscale>  0 0.17642443E+04</rscale>
<asrwt>0</asrwt>
<pdfrwt beam="1">  1        1 0.36854346E+00 0.31750221E+04</pdfrwt>
<pdfrwt beam="2">  1       -1 0.23695581E+00 0.31750221E+04</pdfrwt>
<totfact> 0.11147403E-01</totfact>
</mgrwt>
</event>
<event>
11    1  0.1003812E-013  0.3957037E+04  0.7818608E-02  0.8579103E-01
          2   -1    0    0  501    0  0.00000000000E+00  0.00000000000E+00  0.35517799349E+04  0.35517799349E+04  0.00000000000E+00 0.  1.
         -2   -1    0    0    0  501 -0.00000000000E+00 -0.00000000000E+00 -0.12775313175E+04  0.12775313175E+04  0.00000000000E+00 0. -1.
        -24    2    1    2    0    0 -0.15856248204E+03 -0.22220080171E+03  0.66731111442E+02  0.29816628255E+03  0.99673636548E+02 0.  0.
    9900016    2    1    2    0    0 -0.34977044161E+03 -0.99423546612E+03  0.87919248651E+03  0.22897472333E+04  0.18327900699E+04 0.  0.
        -15    1    4    4    0    0 -0.25571596735E+02  0.34866347684E+02  0.15943350778E+03  0.16519265166E+03  0.00000000000E+00 0.  1.
        -15    1    1    2    0    0  0.83628525335E+03  0.11304814884E+04  0.83340902296E+03  0.16346045455E+04  0.00000000000E+00 0.  1.
         15    1    3    3    0    0 -0.67255952952E+02 -0.28499196528E+02 -0.25662455811E+01  0.73090033702E+02  0.00000000000E+00 0. -1.
         15    1    4    4    0    0  0.20676932668E+03  0.35678528594E+03  0.46016906182E+03  0.61790360104E+03  0.00000000000E+00 0. -1.
        -16    1    3    3    0    0 -0.91306529090E+02 -0.19370160518E+03  0.69297357023E+02  0.22507624885E+03  0.00000000000E+00 0.  1.
         16    1    4    4    0    0 -0.53096817156E+03 -0.13858870997E+04  0.25958991690E+03  0.15066509806E+04  0.00000000000E+00 0. -1.
    9900018    1    1    2    0    0 -0.32795232970E+03  0.85954779457E+02  0.49491599649E+03  0.60679319099E+03  0.91187600000E+02 0.  0.
<mgrwt>
<rscale>  0 0.20599306E+04</rscale>
<asrwt>0</asrwt>
<pdfrwt beam="1">  1        2 0.54642768E+00 0.39570369E+04</pdfrwt>
<pdfrwt beam="2">  1       -2 0.19654328E+00 0.39570369E+04</pdfrwt>
<totfact> 0.81912705E-02</totfact>
</mgrwt>
</event>
<event>
11    1  0.1003812E-013  0.4478001E+04  0.7818608E-02  0.8291866E-01
         -2   -1    0    0    0  501 -0.00000000000E+00  0.00000000000E+00  0.34298597725E+04  0.34298597725E+04  0.00000000000E+00 0.  1.
          2   -1    0    0  501    0  0.00000000000E+00 -0.00000000000E+00 -0.21096813360E+04  0.21096813360E+04  0.00000000000E+00 0. -1.
    9900016    2    1    2    0    0  0.90964896629E+03  0.40209033910E+03 -0.23696940896E+03  0.21014459504E+04  0.18359691443E+04 0.  0.
         23    2    3    3    0    0 -0.15969418925E+03 -0.58139019741E+03 -0.21369332879E+03  0.64842477848E+03  0.10617466202E+03 0.  0.
        -15    1    4    4    0    0 -0.72176276574E+02 -0.13565106992E+03 -0.88144894461E+02  0.17714443285E+03  0.00000000000E+00 0. -1.
        -15    1    1    2    0    0 -0.10500482643E+04 -0.75646379957E+03  0.96866945953E+02  0.12977758060E+04  0.00000000000E+00 0.  1.
         15    1    4    4    0    0 -0.87517912679E+02 -0.44573912749E+03 -0.12554843432E+03  0.47128034563E+03  0.00000000000E+00 0.  1.
         15    1    1    2    0    0  0.16023104749E+03 -0.63439496500E+02  0.15233695348E+03  0.23001109906E+03  0.00000000000E+00 0. -1.
        -16    1    1    2    0    0  0.49025449770E+03 -0.24540630659E+03  0.57157705386E+03  0.79200634866E+03  0.00000000000E+00 0.  1.
         16    1    3    3    0    0  0.10693431555E+04  0.98348053651E+03 -0.23276080172E+02  0.14530211719E+04  0.00000000000E+00 0. -1.
    9900018    1    1    2    0    0 -0.51008624719E+03  0.66321926356E+03  0.73636689223E+03  0.11183019044E+04  0.91187600000E+02 0.  0.
<mgrwt>
<rscale>  0 0.28370199E+04</rscale>
<asrwt>0</asrwt>
<pdfrwt beam="1">  1        2 0.32456636E+00 0.44780005E+04</pdfrwt>
<pdfrwt beam="2">  1       -2 0.52767074E+00 0.44780005E+04</pdfrwt>
<totfact> 0.48471795E-03</totfact>
</mgrwt>
</event>
<event>
12    1  0.1003812E-013  0.4437362E+04  0.7818608E-02  0.8530200E-01
         -2   -1    0    0    0  501 -0.00000000000E+00  0.00000000000E+00  0.14937646314E+04  0.14937646314E+04  0.00000000000E+00 0.  1.
          2   -1    0    0  501    0  0.00000000000E+00 -0.00000000000E+00 -0.37646195689E+04  0.37646195689E+04  0.00000000000E+00 0. -1.
        -24    2    1    2    0    0  0.92628666844E+02  0.21102818203E+03  0.35974805694E+02  0.25722001893E+03  0.10842042226E+03 0.  0.
    9900016    2    1    2    0    0  0.14434899947E+04  0.78783778552E+02 -0.11358604765E+04  0.26032773763E+04  0.18430962610E+04 0.  0.
         23    2    4    4    0    0 -0.14676088430E+03 -0.26748677614E+03 -0.90805633788E+03  0.95989796762E+03  0.61236124065E+02 0.  0.
        -15    1    1    2    0    0 -0.12187026956E+03  0.45950752867E+03 -0.38891395217E+03  0.61420973103E+03  0.00000000000E+00 0.  1.
        -15    1    5    5    0    0  0.18514162468E+01 -0.35118866396E+02 -0.11384089899E+03  0.11914912002E+03  0.00000000000E+00 0.  1.
         15    1    3    3    0    0  0.49054076575E+02  0.18959892758E+03  0.57493624896E+02  0.20410676782E+03  0.00000000000E+00 0. -1.
         15    1    5    5    0    0 -0.14861230055E+03 -0.23236790975E+03 -0.79421543889E+03  0.84074884759E+03  0.00000000000E+00 0. -1.
        -16    1    3    3    0    0  0.43574590269E+02  0.21429254449E+02 -0.21518819202E+02  0.53113251107E+02  0.00000000000E+00 0.  1.
         16    1    4    4    0    0  0.15902508790E+04  0.34627055470E+03 -0.22780413859E+03  0.16433794086E+04  0.00000000000E+00 0. -1.
    9900018    1    1    2    0    0 -0.14142483920E+04 -0.74931948925E+03 -0.78205531454E+03  0.17836770741E+04  0.91187600000E+02 0.  0.
<mgrwt>
<rscale>  0 0.21719379E+04</rscale>
<asrwt>0</asrwt>
<pdfrwt beam="1">  1        2 0.57917223E+00 0.44373618E+04</pdfrwt>
<pdfrwt beam="2">  1       -2 0.22980995E+00 0.44373618E+04</pdfrwt>
<totfact> 0.33639562E-02</totfact>
</mgrwt>
</event>
<event>
11    1  0.1003812E-013  0.2734770E+04  0.7818608E-02  0.9058800E-01
         -1   -1    0    0    0  501 -0.00000000000E+00  0.00000000000E+00  0.11582508246E+04  0.11582508246E+04  0.00000000000E+00 0.  1.
          1   -1    0    0  501    0  0.00000000000E+00 -0.00000000000E+00 -0.17682127325E+04  0.17682127325E+04  0.00000000000E+00 0. -1.
        -24    2    1    2    0    0 -0.59813307406E+02  0.89379868644E+02 -0.53247469584E+02  0.13560408076E+03  0.63140961661E+02 0.  0.
    9900016    2    1    2    0    0  0.27609376431E+03 -0.18806346544E+03 -0.24414258268E+03  0.19028836121E+04  0.18573542491E+04 0.  0.
        -15    1    1    2    0    0  0.20576977406E+03 -0.12765870979E+03  0.87336689420E+02  0.25742114020E+03  0.00000000000E+00 0.  1.
        -15    1    4    4    0    0  0.22934084436E+02 -0.37283843078E+02  0.30830894242E+02  0.53540650195E+02  0.00000000000E+00 0. -1.
         15    1    4    4    0    0  0.23491631855E+03 -0.95564244101E+03  0.39867790580E+02  0.98489978805E+03  0.00000000000E+00 0.  1.
         15    1    3    3    0    0  0.30553790047E+00  0.27303749585E+02 -0.39623453403E+02  0.48120745571E+02  0.00000000000E+00 0. -1.
        -16    1    3    3    0    0 -0.60118845307E+02  0.62076119059E+02 -0.13624016181E+02  0.87483335187E+02  0.00000000000E+00 0.  1.
         16    1    4    4    0    0  0.18243361317E+02  0.80486281864E+03 -0.31484126750E+03  0.86444317383E+03  0.00000000000E+00 0. -1.
    9900018    1    1    2    0    0 -0.42205023096E+03  0.22634230659E+03 -0.39990854506E+03  0.63055472405E+03  0.91187600000E+02 0.  0.
<mgrwt>
<rscale>  0 0.12637697E+04</rscale>
<asrwt>0</asrwt>
<pdfrwt beam="1">  1        1 0.27203273E+00 0.27347698E+04</pdfrwt>
<pdfrwt beam="2">  1       -1 0.17819243E+00 0.27347698E+04</pdfrwt>
<totfact> 0.79599728E-01</totfact>
</mgrwt>
</event>
<event>
11    1  0.1003812E-013  0.3213088E+04  0.7818608E-02  0.8616445E-01
          2   -1    0    0  501    0  0.00000000000E+00  0.00000000000E+00  0.30566759930E+04  0.30566759930E+04  0.00000000000E+00 0. -1.
         -2   -1    0    0    0  501 -0.00000000000E+00 -0.00000000000E+00 -0.16167838228E+04  0.16167838228E+04  0.00000000000E+00 0.  1.
         24    2    1    2    0    0 -0.41345468518E+03  0.18260077350E+03 -0.68121591414E+03  0.82339019103E+03  0.98124746263E+02 0.  0.
    9900016    2    1    2    0    0 -0.57801486426E+02 -0.97607201290E+02  0.95322566079E+03  0.20726962581E+04  0.18369982145E+04 0.  0.
        -15    1    3    3    0    0 -0.31726054127E+03  0.17724149276E+03 -0.57274627297E+03  0.67831194226E+03  0.00000000000E+00 0.  1.
        -15    1    4    4    0    0 -0.70278299091E+02  0.18669180576E+03  0.50278765135E+03  0.54091431115E+03  0.00000000000E+00 0. -1.
         15    1    1    2    0    0  0.81361288009E+03  0.24887944864E+03  0.79096585873E+03  0.11616944040E+04  0.00000000000E+00 0. -1.
         15    1    4    4    0    0 -0.17810608341E+03  0.49775671805E+03  0.49685924245E+03  0.72550164308E+03  0.00000000000E+00 0.  1.
        -16    1    4    4    0    0  0.19058289608E+03 -0.78205572510E+03 -0.46421233006E+02  0.80628030382E+03  0.00000000000E+00 0.  1.
         16    1    3    3    0    0 -0.96194143908E+02  0.53592807363E+01 -0.10846964116E+03  0.14507824877E+03  0.00000000000E+00 0. -1.
    9900018    1    1    2    0    0 -0.34235670849E+03 -0.33387302085E+03  0.37691656478E+03  0.61567896269E+03  0.91187600000E+02 0.  0.
<mgrwt>
<rscale>  0 0.19791219E+04</rscale>
<asrwt>0</asrwt>
<pdfrwt beam="1">  1        2 0.47025784E+00 0.32130883E+04</pdfrwt>
<pdfrwt beam="2">  1       -2 0.24873597E+00 0.32130883E+04</pdfrwt>
<totfact> 0.84884929E-02</totfact>
</mgrwt>
</event>
