<event>
12    1  0.2864070E-012  0.3312955E+04  0.7818608E-02  0.8494921E-01
         -2   -1    0    0    0  501 -0.00000000000E+00  0.00000000000E+00  0.21863946387E+04  0.21863946387E+04  0.00000000000E+00 0.  1.
          2   -1    0    0  501    0  0.00000000000E+00 -0.00000000000E+00 -0.21797491533E+04  0.21797491533E+04  0.00000000000E+00 0. -1.
         24    2    1    2    0    0 -0.30741904124E+03  0.64198396369E+03  0.67929301306E+03  0.98559227523E+03  0.57473984024E+02 0.  0.
    9900016    2    1    2    0    0 -0.26464402299E+03 -0.10271266865E+03 -0.89351205147E+03  0.20343579229E+04  0.18054534115E+04 0.  0.
         23    2    4    4    0    0  0.61860400703E+03  0.73806673438E+02  0.15819025650E+03  0.64966882235E+03  0.94483220302E+02 0.  0.
        -15    1    3    3    0    0 -0.37357122360E+02  0.11063662661E+03  0.90103563545E+02  0.14749464364E+03  0.00000000000E+00 0.  1.
        -15    1    5    5    0    0  0.94364895453E+02  0.35398318063E+02  0.16942012377E+00  0.10078592719E+03  0.00000000000E+00 0.  1.
         15    1    1    2    0    0  0.88342271835E+03 -0.45012657552E+03  0.16564375584E+03  0.10052300668E+04  0.00000000000E+00 0. -1.
         15    1    5    5    0    0  0.52423911158E+03  0.38408355375E+02  0.15802083638E+03  0.54888289516E+03  0.00000000000E+00 0. -1.
        -16    1    4    4    0    0 -0.88324803003E+03 -0.17651934209E+03 -0.10517023080E+04  0.13846891006E+04  0.00000000000E+00 0.  1.
         16    1    3    3    0    0 -0.27006191888E+03  0.53134733708E+03  0.58918944952E+03  0.83809763159E+03  0.00000000000E+00 0. -1.
    9900018    1    1    2    0    0 -0.31135965411E+03 -0.89144719518E+02  0.55220767951E+02  0.34096352713E+03  0.91187600000E+02 0.  0.
<mgrwt>
<rscale>  0 0.22573715E+04</rscale>
<asrwt>0</asrwt>
<pdfrwt beam="1">  1        2 0.33534602E+00 0.33129555E+04</pdfrwt>
<pdfrwt beam="2">  1       -2 0.33636841E+00 0.33129555E+04</pdfrwt>
<totfact> 0.80947469E-02</totfact>
</mgrwt>
</event>
<event>
12    1  0.2864070E-012  0.3665307E+04  0.7818608E-02  0.8661142E-01
          2   -1    0    0  501    0  0.00000000000E+00  0.00000000000E+00  0.23286254249E+04  0.23286254249E+04  0.00000000000E+00 0. -1.
         -2   -1    0    0    0  501 -0.00000000000E+00 -0.00000000000E+00 -0.24644068473E+04  0.24644068473E+04  0.00000000000E+00 0.  1.
        -24    2    1    2    0    0  0.23809752328E+03  0.74072106436E+02  0.93873549481E+03  0.97346965800E+03  0.65128628897E+02 0.  0.
    9900016    2    1    2    0    0 -0.21994113178E+03  0.12551214249E+04 -0.44482155271E+03  0.22879029300E+04  0.18474116246E+04 0.  0.
         23    2    4    4    0    0 -0.32250581791E+03 -0.28532591655E+03 -0.59136974096E+03  0.73710510373E+03  0.90470338690E+02 0.  0.
        -15    1    1    2    0    0  0.10769557214E+03 -0.90377515722E+03 -0.57223917456E+03  0.10751118751E+04  0.00000000000E+00 0.  1.
        -15    1    5    5    0    0 -0.26612037514E+03 -0.18369413180E+03 -0.44892316986E+03  0.55325907183E+03  0.00000000000E+00 0. -1.
         15    1    5    5    0    0 -0.56385442764E+02 -0.10163178475E+03 -0.14244657110E+03  0.18384603190E+03  0.00000000000E+00 0.  1.
         15    1    3    3    0    0  0.21975340028E+03  0.54066877955E+02  0.77009199356E+03  0.80265588067E+03  0.00000000000E+00 0. -1.
        -16    1    3    3    0    0  0.18344123001E+02  0.20005228481E+02  0.16864350124E+03  0.17081377733E+03  0.00000000000E+00 0.  1.
         16    1    4    4    0    0  0.10256468612E+03  0.15404473414E+04  0.14654818825E+03  0.15507978263E+04  0.00000000000E+00 0. -1.
    9900018    1    1    2    0    0 -0.12585196364E+03 -0.42541837412E+03 -0.57456189962E+02  0.45654780905E+03  0.91187600000E+02 0.  0.
<mgrwt>
<rscale>  0 0.18874228E+04</rscale>
<asrwt>0</asrwt>
<pdfrwt beam="1">  1        2 0.35825006E+00 0.36653065E+04</pdfrwt>
<pdfrwt beam="2">  1       -2 0.37913952E+00 0.36653065E+04</pdfrwt>
<totfact> 0.34577461E-02</totfact>
</mgrwt>
</event>
<event>
12    1  0.2864070E-012  0.3577577E+04  0.7818608E-02  0.8581354E-01
         -2   -1    0    0    0  501 -0.00000000000E+00  0.00000000000E+00  0.11763150315E+04  0.11763150315E+04  0.00000000000E+00 0. -1.
          2   -1    0    0  501    0  0.00000000000E+00 -0.00000000000E+00 -0.34379276866E+04  0.34379276866E+04  0.00000000000E+00 0.  1.
         24    2    1    2    0    0  0.38073870690E+03  0.64578470778E+02 -0.14941306954E+02  0.38972073101E+03  0.50265929859E+02 0.  0.
    9900016    2    1    2    0    0 -0.29542081034E+02 -0.40228049093E+03 -0.32178186556E+03  0.19131967583E+04  0.18423018045E+04 0.  0.
         23    2    4    4    0    0 -0.87369880184E+02  0.46046261464E+03  0.52008533527E+03  0.70637858457E+03  0.93928873787E+02 0.  0.
        -15    1    3    3    0    0  0.64941279277E+02 -0.75021553895E+01  0.14202020561E+01  0.65388600409E+02  0.00000000000E+00 0.  1.
        -15    1    5    5    0    0 -0.14441597707E+02  0.19239333085E+03  0.27487863640E+03  0.33583034147E+03  0.00000000000E+00 0. -1.
         15    1    1    2    0    0  0.26320074794E+03  0.36179608499E+03 -0.14820699749E+04  0.15481286934E+04  0.00000000000E+00 0. -1.
         15    1    5    5    0    0 -0.72928282476E+02  0.26806928379E+03  0.24520669887E+03  0.37054824310E+03  0.00000000000E+00 0.  1.
        -16    1    4    4    0    0  0.57827799149E+02 -0.86274310557E+03 -0.84186720083E+03  0.12068181737E+04  0.00000000000E+00 0.  1.
         16    1    3    3    0    0  0.31579742763E+03  0.72080626168E+02 -0.16361509011E+02  0.32433213060E+03  0.00000000000E+00 0. -1.
    9900018    1    1    2    0    0 -0.61439737381E+03 -0.24094064841E+02 -0.44281950759E+03  0.76319653537E+03  0.91187600000E+02 0.  0.
<mgrwt>
<rscale>  0 0.20549454E+04</rscale>
<asrwt>0</asrwt>
<pdfrwt beam="1">  1        2 0.52891195E+00 0.35775765E+04</pdfrwt>
<pdfrwt beam="2">  1       -2 0.18097154E+00 0.35775765E+04</pdfrwt>
<totfact> 0.12880921E-01</totfact>
</mgrwt>
</event>
<event>
12    1  0.2864070E-012  0.3915462E+04  0.7818608E-02  0.8472131E-01
          1   -1    0    0  501    0  0.00000000000E+00  0.00000000000E+00  0.25036971402E+04  0.25036971402E+04  0.00000000000E+00 0. -1.
         -1   -1    0    0    0  501 -0.00000000000E+00 -0.00000000000E+00 -0.19492158452E+04  0.19492158452E+04  0.00000000000E+00 0.  1.
         24    2    1    2    0    0  0.39436469415E+03  0.26252016511E+03  0.20998528149E+03  0.52232499717E+03  0.65492252516E+02 0.  0.
    9900016    2    1    2    0    0 -0.50574924351E+03  0.10749654939E+04 -0.18312115079E+03  0.21604444152E+04  0.17951750903E+04 0.  0.
         23    2    4    4    0    0  0.39920026231E+02 -0.17075032224E+03 -0.68346057905E+03  0.71134041963E+03  0.90208361336E+02 0.  0.
        -15    1    3    3    0    0  0.14837798731E+03  0.11053938544E+03  0.11555349630E+03  0.21814580757E+03  0.00000000000E+00 0.  1.
        -15    1    5    5    0    0 -0.48705047890E+01 -0.14427830553E+03 -0.52950906322E+03  0.54883494722E+03  0.00000000000E+00 0.  1.
         15    1    5    5    0    0  0.44790531020E+02 -0.26472016718E+02 -0.15395151583E+03  0.16250547241E+03  0.00000000000E+00 0. -1.
         15    1    1    2    0    0  0.55910401123E+03 -0.87373239351E+03  0.28963474179E+03  0.10769836928E+04  0.00000000000E+00 0. -1.
        -16    1    4    4    0    0 -0.54566926974E+03  0.12457158161E+04  0.50033942825E+03  0.14491039956E+04  0.00000000000E+00 0.  1.
         16    1    3    3    0    0  0.24598670684E+03  0.15198077967E+03  0.94431785195E+02  0.30417918960E+03  0.00000000000E+00 0. -1.
    9900018    1    1    2    0    0 -0.44771946186E+03 -0.46375326549E+03  0.23798242252E+03  0.69315988027E+03  0.91187600000E+02 0.  0.
<mgrwt>
<rscale>  0 0.23147422E+04</rscale>
<asrwt>0</asrwt>
<pdfrwt beam="1">  1        1 0.38518418E+00 0.39154622E+04</pdfrwt>
<pdfrwt beam="2">  1       -1 0.29987936E+00 0.39154622E+04</pdfrwt>
<totfact> 0.34513528E-02</totfact>
</mgrwt>
</event>
