<event>
11    1  0.6441684E-013  0.2985199E+04  0.7818608E-02  0.8247970E-01
          2   -1    0    0  501    0  0.00000000000E+00  0.00000000000E+00  0.16418180585E+04  0.16418180585E+04  0.00000000000E+00 0. -1.
         -2   -1    0    0    0  501 -0.00000000000E+00 -0.00000000000E+00 -0.13569432320E+04  0.13569432320E+04  0.00000000000E+00 0.  1.
    9900016    2    1    2    0    0 -0.13482950444E+03  0.34958360661E+03  0.79230806703E+03  0.23679870149E+04  0.21998233421E+04 0.  0.
         24    2    3    3    0    0 -0.45909695590E+02  0.65993637282E+02 -0.49404567787E+03  0.50608091702E+03  0.74658572437E+02 0.  0.
        -15    1    4    4    0    0 -0.44128152979E+02  0.71611263777E+02 -0.29006656879E+03  0.30201669046E+03  0.00000000000E+00 0.  1.
        -15    1    3    3    0    0 -0.93611916286E+01  0.72702206692E+01 -0.28461098104E+02  0.30830538798E+02  0.00000000000E+00 0.  1.
         15    1    3    3    0    0 -0.11360789806E+02  0.13165883709E+02 -0.92676824938E+02  0.94294230573E+02  0.00000000000E+00 0. -1.
         15    1    3    3    0    0 -0.43536616025E+03  0.34439322486E+03  0.11351218422E+04  0.12635869513E+04  0.00000000000E+00 0. -1.
        -16    1    1    2    0    0  0.13482950444E+03 -0.34958360661E+03 -0.50743324050E+03  0.63077427567E+03  0.00000000000E+00 0.  1.
         16    1    4    4    0    0 -0.17815426109E+01 -0.56176264944E+01 -0.20397910908E+03  0.20406422656E+03  0.00000000000E+00 0. -1.
    9900018    1    3    3    0    0  0.36716833284E+03 -0.81239359913E+02  0.27236982571E+03  0.47319437717E+03  0.91187600000E+02 0.  0.
<mgrwt>
<rscale>  0 0.29851994E+04</rscale>
<asrwt>0</asrwt>
<pdfrwt beam="1">  1        2 0.25258739E+00 0.29851994E+04</pdfrwt>
<pdfrwt beam="2">  1       -2 0.20876050E+00 0.29851994E+04</pdfrwt>
<totfact> 0.10564492E+00</totfact>
</mgrwt>
</event>
<event>
11    1  0.6441683E-013  0.3313200E+04  0.7818608E-02  0.8159545E-01
          2   -1    0    0  501    0  0.00000000000E+00  0.00000000000E+00  0.36574867343E+04  0.36574867343E+04  0.00000000000E+00 0. -1.
         -2   -1    0    0    0  501 -0.00000000000E+00 -0.00000000000E+00 -0.75033033127E+03  0.75033033127E+03  0.00000000000E+00 0.  1.
    9900016    2    1    2    0    0  0.80860590595E+03  0.45783827479E+03  0.19630327685E+04  0.30831175395E+04  0.21882999601E+04 0.  0.
        -24    2    3    3    0    0 -0.10128166120E+03  0.14380745540E+03  0.98924650785E+03  0.10073390709E+04  0.72005495633E+02 0.  0.
        -15    1    3    3    0    0 -0.20213235401E+02  0.63655142350E+01  0.12395257800E+03  0.12575108846E+03  0.00000000000E+00 0. -1.
        -15    1    3    3    0    0  0.93370958348E+03  0.52728301220E+03  0.10782343613E+04  0.15206677149E+04  0.00000000000E+00 0.  1.
         15    1    4    4    0    0 -0.19017926631E+02  0.85980588712E+02  0.40043353553E+03  0.41000165798E+03  0.00000000000E+00 0. -1.
         15    1    3    3    0    0 -0.78994915507E+01  0.68039160199E+01  0.54612828025E+02  0.55599066762E+02  0.00000000000E+00 0.  1.
        -16    1    4    4    0    0 -0.82263734572E+02  0.57826866685E+02  0.58881297232E+03  0.59733741295E+03  0.00000000000E+00 0.  1.
         16    1    1    2    0    0 -0.80860590595E+03 -0.45783827479E+03  0.94412363447E+03  0.13246995260E+04  0.00000000000E+00 0. -1.
    9900018    1    3    3    0    0  0.42907106251E+01 -0.22642162306E+03 -0.28301350670E+03  0.37376059845E+03  0.91187600000E+02 0.  0.
<mgrwt>
<rscale>  0 0.33131998E+04</rscale>
<asrwt>0</asrwt>
<pdfrwt beam="1">  1        2 0.56269026E+00 0.33131998E+04</pdfrwt>
<pdfrwt beam="2">  1       -2 0.11543544E+00 0.33131998E+04</pdfrwt>
<totfact> 0.30522573E-01</totfact>
</mgrwt>
</event>
<event>
11    1  0.6441683E-013  0.2843926E+04  0.7818608E-02  0.8289759E-01
         -2   -1    0    0    0  501 -0.00000000000E+00  0.00000000000E+00  0.11450803828E+04  0.11450803828E+04  0.00000000000E+00 0.  1.
          2   -1    0    0  501    0  0.00000000000E+00 -0.00000000000E+00 -0.17657963108E+04  0.17657963108E+04  0.00000000000E+00 0. -1.
    9900016    2    1    2    0    0 -0.15207487629E+03 -0.38114376399E+03 -0.89552428011E+03  0.24169971868E+04  0.22071507262E+04 0.  0.
         24    2    3    3    0    0  0.30741534380E+03 -0.52392229833E+02  0.46690800126E+03  0.56629407359E+03  0.73734366399E+02 0.  0.
        -15    1    4    4    0    0  0.20114244224E+03 -0.23629982294E+02  0.23960215444E+03  0.31372894438E+03  0.00000000000E+00 0.  1.
        -15    1    3    3    0    0  0.94899163893E+01 -0.59707242779E+01  0.16381321584E+02  0.19850837723E+02  0.00000000000E+00 0.  1.
         15    1    3    3    0    0  0.81929989014E+02  0.16621569067E+03 -0.57189321035E+02  0.19393503388E+03  0.00000000000E+00 0. -1.
         15    1    3    3    0    0  0.27800056523E+02 -0.29669599810E+01  0.56216878774E+02  0.62785216838E+02  0.00000000000E+00 0. -1.
        -16    1    1    2    0    0  0.15207487629E+03  0.38114376399E+03  0.27480835213E+03  0.49387950679E+03  0.00000000000E+00 0.  1.
         16    1    4    4    0    0  0.10627290156E+03 -0.28762247539E+02  0.22730584682E+03  0.25256512920E+03  0.00000000000E+00 0. -1.
    9900018    1    3    3    0    0 -0.57871018202E+03 -0.48602954057E+03 -0.13778411607E+04  0.15741320248E+04  0.91187600000E+02 0.  0.
<mgrwt>
<rscale>  0 0.28439260E+04</rscale>
<asrwt>0</asrwt>
<pdfrwt beam="1">  1        2 0.27166097E+00 0.28439260E+04</pdfrwt>
<pdfrwt beam="2">  1       -2 0.17616621E+00 0.28439260E+04</pdfrwt>
<totfact> 0.15072371E+00</totfact>
</mgrwt>
</event>
<event>
11    1  0.6441683E-013  0.3171621E+04  0.7818608E-02  0.8196352E-01
          2   -1    0    0  501    0  0.00000000000E+00  0.00000000000E+00  0.13175144305E+04  0.13175144305E+04  0.00000000000E+00 0. -1.
         -2   -1    0    0    0  501 -0.00000000000E+00 -0.00000000000E+00 -0.19087422602E+04  0.19087422602E+04  0.00000000000E+00 0.  1.
    9900016    2    1    2    0    0  0.41184556987E+03  0.37886888632E+03  0.18348340741E+03  0.22705705982E+04  0.21928671356E+04 0.  0.
         24    2    3    3    0    0 -0.23158126343E+03 -0.19650710409E+03 -0.76831373654E+03  0.82969194380E+03  0.76405499344E+02 0.  0.
        -15    1    3    3    0    0 -0.62171111089E+01 -0.80898538431E+01 -0.30099481265E+02  0.31781708232E+02  0.00000000000E+00 0.  1.
        -15    1    4    4    0    0 -0.30025529977E+02 -0.14293790404E+02 -0.16053682731E+03  0.16394486213E+03  0.00000000000E+00 0.  1.
         15    1    3    3    0    0  0.14048352122E+03  0.19873038513E+02  0.15263925812E+03  0.20839697818E+03  0.00000000000E+00 0. -1.
         15    1    3    3    0    0 -0.13040225185E+02 -0.15347002646E+02 -0.30468541680E+02  0.36522732581E+02  0.00000000000E+00 0. -1.
        -16    1    1    2    0    0 -0.41184556987E+03 -0.37886888632E+03 -0.77471123715E+03  0.95568609251E+03  0.00000000000E+00 0.  1.
         16    1    4    4    0    0 -0.20155573345E+03 -0.18221331368E+03 -0.60777690922E+03  0.66574708167E+03  0.00000000000E+00 0. -1.
    9900018    1    3    3    0    0  0.52220064837E+03  0.57893980838E+03  0.85972590877E+03  0.11641772354E+04  0.91187600000E+02 0.  0.
<mgrwt>
<rscale>  0 0.31716213E+04</rscale>
<asrwt>0</asrwt>
<pdfrwt beam="1">  1        2 0.20269453E+00 0.31716213E+04</pdfrwt>
<pdfrwt beam="2">  1       -2 0.29365265E+00 0.31716213E+04</pdfrwt>
<totfact> 0.47365182E-01</totfact>
</mgrwt>
</event>
<event>
11    1  0.6441683E-013  0.3044590E+04  0.7818608E-02  0.8231111E-01
          1   -1    0    0  501    0  0.00000000000E+00  0.00000000000E+00  0.34332435047E+04  0.34332435047E+04  0.00000000000E+00 0. -1.
         -1   -1    0    0    0  501 -0.00000000000E+00 -0.00000000000E+00 -0.67498321786E+03  0.67498321786E+03  0.00000000000E+00 0.  1.
    9900016    2    1    2    0    0 -0.59902915815E+03  0.95049283515E+02  0.15595180671E+04  0.27647784697E+04  0.22009164197E+04 0.  0.
        -24    2    3    3    0    0 -0.51224028442E+03  0.31552630640E+03 -0.13047464697E+03  0.62053580775E+03  0.78064692312E+02 0.  0.
        -15    1    3    3    0    0 -0.20605629658E+02  0.88568239705E+01 -0.57662985612E+01  0.23157838923E+02  0.00000000000E+00 0. -1.
        -15    1    3    3    0    0  0.45799445420E+03 -0.39931534689E+03  0.47188600511E+03  0.76934262079E+03  0.00000000000E+00 0.  1.
         15    1    4    4    0    0 -0.44079045114E+02  0.30588457590E+02 -0.35442675045E+02  0.64302404078E+02  0.00000000000E+00 0. -1.
         15    1    3    3    0    0 -0.91472173833E+01  0.72665454071E+01  0.91909315030E+00  0.11718319002E+02  0.00000000000E+00 0.  1.
        -16    1    4    4    0    0 -0.46816123930E+03  0.28493784881E+03 -0.95031971923E+02  0.55623340367E+03  0.00000000000E+00 0.  1.
         16    1    1    2    0    0  0.59902915815E+03 -0.95049283515E+02  0.11987422197E+04  0.13434482528E+04  0.00000000000E+00 0. -1.
    9900018    1    3    3    0    0 -0.51503048089E+03  0.16271495463E+03  0.12229539144E+04  0.13400238833E+04  0.91187600000E+02 0.  0.
<mgrwt>
<rscale>  0 0.30445898E+04</rscale>
<asrwt>0</asrwt>
<pdfrwt beam="1">  1        1 0.52819130E+00 0.30445898E+04</pdfrwt>
<pdfrwt beam="2">  1       -1 0.10384357E+00 0.30445898E+04</pdfrwt>
<totfact> 0.20859977E-01</totfact>
</mgrwt>
</event>
<event>
11    1  0.6441683E-013  0.4872113E+04  0.7818608E-02  0.7848544E-01
          2   -1    0    0  501    0  0.00000000000E+00  0.00000000000E+00  0.29099445422E+04  0.29099445422E+04  0.00000000000E+00 0.  1.
         -2   -1    0    0    0  501 -0.00000000000E+00 -0.00000000000E+00 -0.20393417704E+04  0.20393417704E+04  0.00000000000E+00 0. -1.
    9900016    2    1    2    0    0 -0.18668798850E+04  0.34547146681E+03  0.90385504933E+03  0.30504190835E+04  0.22098668728E+04 0.  0.
         24    2    3    3    0    0 -0.29126754210E+02 -0.19838035837E+03  0.98676013829E+02  0.23782730739E+03  0.81374062432E+02 0.  0.
        -15    1    4    4    0    0 -0.57054991447E+00 -0.18215930746E+02  0.45059633339E+01  0.18773634856E+02  0.00000000000E+00 0.  1.
        -15    1    4    4    0    0  0.15546491049E+02 -0.29981041167E+02 -0.33126180559E+01  0.33934195906E+02  0.00000000000E+00 0.  1.
         15    1    4    4    0    0  0.60772849527E+00 -0.13198353650E+02  0.96864170090E+01  0.16382690483E+02  0.00000000000E+00 0. -1.
         15    1    3    3    0    0  0.12159618940E+03  0.63688131682E+03 -0.89813696304E+02  0.65457615679E+03  0.00000000000E+00 0. -1.
        -16    1    1    2    0    0  0.18668798850E+04 -0.34547146681E+03 -0.33252277532E+02  0.18988672290E+04  0.00000000000E+00 0.  1.
         16    1    4    4    0    0 -0.44710423840E+02 -0.13698503281E+03  0.87796251542E+02  0.16873678614E+03  0.00000000000E+00 0. -1.
    9900018    1    3    3    0    0 -0.19593493202E+04 -0.93029491638E+02  0.89499273180E+03  0.21580156194E+04  0.91187600000E+02 0.  0.
<mgrwt>
<rscale>  0 0.48721131E+04</rscale>
<asrwt>0</asrwt>
<pdfrwt beam="1">  1        2 0.44768377E+00 0.48721131E+04</pdfrwt>
<pdfrwt beam="2">  1       -2 0.31374489E+00 0.48721131E+04</pdfrwt>
<totfact> 0.38110959E-02</totfact>
</mgrwt>
</event>
