<event>
11    1  0.1457195E-012  0.2539337E+04  0.7818608E-02  0.8891975E-01
          1   -1    0    0  501    0  0.00000000000E+00  0.00000000000E+00  0.19597767033E+04  0.19597767033E+04  0.00000000000E+00 0. -1.
         -1   -1    0    0    0  501 -0.00000000000E+00 -0.00000000000E+00 -0.14163462580E+04  0.14163462580E+04  0.00000000000E+00 0.  1.
         24    2    1    2    0    0  0.27358507823E+03  0.68310712083E+03  0.35253803418E+03  0.81969979439E+03  0.78361685918E+02 0.  0.
         23    2    1    2    0    0 -0.19293546461E+03 -0.21073531502E+03 -0.53808857451E+03  0.61606580037E+03  0.91456491628E+02 0.  0.
        -15    1    3    3    0    0  0.94249418181E+02  0.26031370416E+03  0.92268745375E+02  0.29182134736E+03  0.00000000000E+00 0.  1.
        -15    1    4    4    0    0 -0.53144931128E+02 -0.11767659314E+03 -0.19189888939E+03  0.23129493731E+03  0.00000000000E+00 0. -1.
         15    1    1    2    0    0 -0.57853428488E+03  0.36369885895E+02  0.77158570855E+03  0.96507470851E+03  0.00000000000E+00 0. -1.
         15    1    4    4    0    0 -0.13979053348E+03 -0.93058721874E+02 -0.34618968512E+03  0.38477086305E+03  0.00000000000E+00 0.  1.
        -16    1    1    2    0    0  0.26897508225E+03 -0.62376317633E+03  0.65968893851E+02  0.68248076162E+03  0.00000000000E+00 0.  1.
         16    1    3    3    0    0  0.17933566005E+03  0.42279341667E+03  0.26026928881E+03  0.52787844703E+03  0.00000000000E+00 0. -1.
    9900018    1    1    2    0    0  0.22890958901E+03  0.11502148463E+03 -0.10857361674E+03  0.29280189636E+03  0.91187600000E+02 0.  0.
<mgrwt>
<rscale>  0 0.14887412E+04</rscale>
<asrwt>0</asrwt>
<pdfrwt beam="1">  1        1 0.30150411E+00 0.25393369E+04</pdfrwt>
<pdfrwt beam="2">  1       -1 0.21789942E+00 0.25393369E+04</pdfrwt>
<totfact> 0.31201249E-01</totfact>
</mgrwt>
</event>
<event>
12    1  0.1457195E-012  0.2924860E+04  0.7818608E-02  0.8265519E-01
          2   -1    0    0  501    0  0.00000000000E+00  0.00000000000E+00  0.18480959710E+04  0.18480959710E+04  0.00000000000E+00 0. -1.
         -2   -1    0    0    0  501 -0.00000000000E+00 -0.00000000000E+00 -0.11572458273E+04  0.11572458273E+04  0.00000000000E+00 0.  1.
        -24    2    1    2    0    0 -0.14153126804E+02  0.24362184611E+03 -0.14182545512E+03  0.29328123456E+03  0.79671249050E+02 0.  0.
    9900016    2    1    2    0    0  0.20853955134E+03 -0.10905696521E+03  0.10501322185E+04  0.23908423036E+04  0.21349395959E+04 0.  0.
         23    2    4    4    0    0  0.12723470426E+03 -0.10725025179E+03 -0.84457422512E+02  0.20726146639E+03  0.90182995936E+02 0.  0.
        -15    1    1    2    0    0 -0.19438642454E+03 -0.13456488090E+03 -0.21745661966E+03  0.32121826014E+03  0.00000000000E+00 0.  1.
        -15    1    5    5    0    0  0.88641436319E+02 -0.79310889745E+02 -0.10659998740E+02  0.11942008641E+03  0.00000000000E+00 0. -1.
         15    1    5    5    0    0  0.38593267943E+02 -0.27939362049E+02 -0.73797423773E+02  0.87841379985E+02  0.00000000000E+00 0.  1.
         15    1    3    3    0    0  0.20053656881E+02  0.26761986132E+02 -0.37397955566E+02  0.50169314691E+02  0.00000000000E+00 0. -1.
        -16    1    3    3    0    0 -0.34206783685E+02  0.21685985997E+03 -0.10442749955E+03  0.24311191987E+03  0.00000000000E+00 0.  1.
         16    1    4    4    0    0 -0.62935700273E+03  0.45721227726E+02 -0.20516355230E+03  0.66353051983E+03  0.00000000000E+00 0. -1.
    9900018    1    4    4    0    0  0.71066184981E+03 -0.47527941142E+02  0.13397531933E+04  0.15200503174E+04  0.91187600000E+02 0.  0.
<mgrwt>
<rscale>  0 0.29248599E+04</rscale>
<asrwt>0</asrwt>
<pdfrwt beam="1">  1        2 0.28432246E+00 0.29248599E+04</pdfrwt>
<pdfrwt beam="2">  1       -2 0.17803782E+00 0.29248599E+04</pdfrwt>
<totfact> 0.13077937E+00</totfact>
</mgrwt>
</event>
<event>
12    1  0.1457195E-012  0.4847238E+04  0.7818608E-02  0.8719424E-01
         -2   -1    0    0    0  501 -0.00000000000E+00  0.00000000000E+00  0.23998452173E+04  0.23998452173E+04  0.00000000000E+00 0.  1.
          2   -1    0    0  501    0  0.00000000000E+00 -0.00000000000E+00 -0.25824834143E+04  0.25824834143E+04  0.00000000000E+00 0. -1.
        -24    2    1    2    0    0  0.39136182797E+01 -0.40361769940E+02  0.92657269713E+02  0.12727918217E+03  0.77267274457E+02 0.  0.
    9900016    2    1    2    0    0  0.16840952093E+04  0.17528026537E+03 -0.94792676480E+03  0.30329600812E+04  0.23309615736E+04 0.  0.
         23    2    4    4    0    0  0.26354112708E+03  0.37104232104E+03  0.66035080508E+03  0.80748518736E+03  0.94036229045E+02 0.  0.
        -15    1    5    5    0    0  0.16571988589E+03  0.16497005914E+03  0.37830706893E+03  0.44474086769E+03  0.00000000000E+00 0.  1.
        -15    1    1    2    0    0 -0.16880088276E+04 -0.13491849543E+03  0.67263129807E+03  0.18220893681E+04  0.00000000000E+00 0.  1.
         15    1    3    3    0    0 -0.36640275909E+02 -0.17072426577E+02  0.45573850234E+02  0.60917595102E+02  0.00000000000E+00 0. -1.
         15    1    5    5    0    0  0.97821241195E+02  0.20607226190E+03  0.28204373615E+03  0.36274431967E+03  0.00000000000E+00 0. -1.
        -16    1    3    3    0    0  0.40553894188E+02 -0.23289343364E+02  0.47083419480E+02  0.66361587067E+02  0.00000000000E+00 0.  1.
         16    1    4    4    0    0  0.75802530763E+03 -0.25913984587E+03 -0.11886795477E+04  0.14334276730E+04  0.00000000000E+00 0. -1.
    9900018    1    4    4    0    0  0.66252877457E+03  0.63377790199E+02 -0.41959802222E+03  0.79204722085E+03  0.91187600000E+02 0.  0.
<mgrwt>
<rscale>  0 0.17755250E+04</rscale>
<asrwt>0</asrwt>
<pdfrwt beam="1">  1        2 0.39730514E+00 0.48472381E+04</pdfrwt>
<pdfrwt beam="2">  1       -2 0.36920696E+00 0.48472381E+04</pdfrwt>
<totfact> 0.26841904E-02</totfact>
</mgrwt>
</event>
<event>
11    1  0.1457195E-012  0.1926236E+04  0.7818608E-02  0.9031871E-01
         -2   -1    0    0    0  501 -0.00000000000E+00  0.00000000000E+00  0.77106132189E+03  0.77106132189E+03  0.00000000000E+00 0.  1.
          2   -1    0    0  501    0  0.00000000000E+00 -0.00000000000E+00 -0.19096698393E+04  0.19096698393E+04  0.00000000000E+00 0. -1.
         24    2    1    2    0    0 -0.32988159141E+03  0.26250834522E+03 -0.89646020137E+03  0.99393929160E+03  0.80882180305E+02 0.  0.
         23    2    1    2    0    0  0.35994369856E+03  0.13727552139E+03 -0.52799196315E+03  0.66002874482E+03  0.91969538082E+02 0.  0.
        -15    1    3    3    0    0 -0.34370671161E+02  0.10629052364E+02 -0.12787284502E+03  0.13283743555E+03  0.00000000000E+00 0.  1.
        -15    1    4    4    0    0  0.12599911503E+03  0.75688284088E+01 -0.20382891630E+03  0.23974839159E+03  0.00000000000E+00 0. -1.
         15    1    1    2    0    0 -0.28392013609E+01 -0.49863625687E+02 -0.35607610862E+02  0.61337950588E+02  0.00000000000E+00 0. -1.
         15    1    4    4    0    0  0.23394458353E+03  0.12970669298E+03 -0.32416304685E+03  0.42028035323E+03  0.00000000000E+00 0.  1.
        -16    1    1    2    0    0 -0.32135123794E+03 -0.24839684962E+03 -0.11461282393E+03  0.42202335532E+03  0.00000000000E+00 0.  1.
         16    1    3    3    0    0 -0.29551092024E+03  0.25187929285E+03 -0.76858735635E+03  0.86110185605E+03  0.00000000000E+00 0. -1.
    9900018    1    1    2    0    0  0.29412833215E+03 -0.10152339130E+03  0.43606408193E+03  0.54340181882E+03  0.91187600000E+02 0.  0.
<mgrwt>
<rscale>  0 0.12970957E+04</rscale>
<asrwt>0</asrwt>
<pdfrwt beam="1">  1        2 0.29379536E+00 0.19262361E+04</pdfrwt>
<pdfrwt beam="2">  1       -2 0.11862482E+00 0.19262361E+04</pdfrwt>
<totfact> 0.37788511E+00</totfact>
</mgrwt>
</event>
<event>
11    1  0.1457195E-012  0.2789567E+04  0.7818608E-02  0.8306515E-01
         -2   -1    0    0    0  501 -0.00000000000E+00  0.00000000000E+00  0.26214134140E+04  0.26214134140E+04  0.00000000000E+00 0.  1.
          2   -1    0    0  501    0  0.00000000000E+00 -0.00000000000E+00 -0.74212666045E+03  0.74212666045E+03  0.00000000000E+00 0. -1.
        -24    2    1    2    0    0 -0.68630953797E+03  0.24043224939E+03  0.15773295897E+04  0.17387513041E+04  0.80367994508E+02 0.  0.
         23    2    1    2    0    0  0.13548530355E+03 -0.16081590907E+03 -0.18824017889E+03  0.29705552270E+03  0.92680065403E+02 0.  0.
        -15    1    4    4    0    0  0.17151091677E+02 -0.71102199022E+02 -0.27292601316E+02  0.78067718924E+02  0.00000000000E+00 0. -1.
        -15    1    1    2    0    0 -0.67520036277E+02 -0.20113656574E+03 -0.90936650142E+01  0.21236188010E+03  0.00000000000E+00 0.  1.
         15    1    4    4    0    0  0.11833421188E+03 -0.89713710053E+02 -0.16094757758E+03  0.21898780377E+03  0.00000000000E+00 0.  1.
         15    1    3    3    0    0 -0.74598794448E+02  0.53853633286E+02  0.20780766236E+03  0.22726464416E+03  0.00000000000E+00 0. -1.
        -16    1    3    3    0    0 -0.61171074352E+03  0.18657861610E+03  0.13695219274E+04  0.15114866600E+04  0.00000000000E+00 0.  1.
         16    1    1    2    0    0  0.37630467095E+03  0.23101926229E+03  0.65825381935E+03  0.79263686239E+03  0.00000000000E+00 0. -1.
    9900018    1    1    2    0    0  0.24203959974E+03 -0.10949903686E+03 -0.15896281163E+03  0.32273450511E+03  0.91187600000E+02 0.  0.
<mgrwt>
<rscale>  0 0.27895668E+04</rscale>
<asrwt>0</asrwt>
<pdfrwt beam="1">  1        2 0.11417333E+00 0.27895668E+04</pdfrwt>
<pdfrwt beam="2">  1       -2 0.40329437E+00 0.27895668E+04</pdfrwt>
<totfact> 0.23373035E-01</totfact>
</mgrwt>
</event>
<event>
11    1  0.1457195E-012  0.2681688E+04  0.7818608E-02  0.9015458E-01
         -2   -1    0    0    0  501 -0.00000000000E+00  0.00000000000E+00  0.10262753536E+04  0.10262753536E+04  0.00000000000E+00 0.  1.
          2   -1    0    0  501    0  0.00000000000E+00 -0.00000000000E+00 -0.21568677288E+04  0.21568677288E+04  0.00000000000E+00 0. -1.
         24    2    1    2    0    0 -0.19678151786E+02  0.16065562830E+03 -0.62178721532E+03  0.64731003595E+03  0.78698671853E+02 0.  0.
         23    2    1    2    0    0 -0.21440827159E+02  0.12654764892E+03  0.14520388898E+03  0.21344505031E+03  0.89446093317E+02 0.  0.
        -15    1    4    4    0    0 -0.49207041051E+02  0.41217028244E+02  0.42113448845E+02  0.76770559982E+02  0.00000000000E+00 0. -1.
        -15    1    3    3    0    0  0.60769576612E+01  0.10232838408E+03 -0.49370910522E+03  0.50423874125E+03  0.00000000000E+00 0.  1.
         15    1    4    4    0    0  0.27766213892E+02  0.85330620675E+02  0.10309044013E+03  0.13667449032E+03  0.00000000000E+00 0.  1.
         15    1    1    2    0    0 -0.40872315160E+03 -0.39179454427E+03 -0.11697389360E+03  0.57813534000E+03  0.00000000000E+00 0. -1.
        -16    1    1    2    0    0 -0.44327359940E+03  0.50832382181E+03 -0.19339263541E+03  0.70163046056E+03  0.00000000000E+00 0.  1.
         16    1    3    3    0    0 -0.25755109447E+02  0.58327244226E+02 -0.12807811010E+03  0.14307129470E+03  0.00000000000E+00 0. -1.
    9900018    1    1    2    0    0  0.89311572995E+03 -0.40373255476E+03 -0.34364251984E+03  0.10426221956E+04  0.91187600000E+02 0.  0.
<mgrwt>
<rscale>  0 0.13179401E+04</rscale>
<asrwt>0</asrwt>
<pdfrwt beam="1">  1        2 0.33182580E+00 0.26816880E+04</pdfrwt>
<pdfrwt beam="2">  1       -2 0.15788852E+00 0.26816880E+04</pdfrwt>
<totfact> 0.12405286E+00</totfact>
</mgrwt>
</event>
<event>
12    1  0.1457195E-012  0.2824013E+04  0.7818608E-02  0.8295852E-01
          1   -1    0    0  501    0  0.00000000000E+00  0.00000000000E+00  0.39050245314E+04  0.39050245314E+04  0.00000000000E+00 0. -1.
         -1   -1    0    0    0  501 -0.00000000000E+00 -0.00000000000E+00 -0.51056320717E+03  0.51056320717E+03  0.00000000000E+00 0.  1.
         24    2    1    2    0    0  0.26224748130E+02  0.34396395504E+02 -0.12077625069E+03  0.15020436689E+03  0.78125537850E+02 0.  0.
    9900016    2    1    2    0    0  0.39329863302E+02 -0.16584368923E+02  0.32309324056E+04  0.39730751359E+04  0.23118347577E+04 0.  0.
         23    2    4    4    0    0 -0.18972953452E+03 -0.51799294717E+02 -0.72073347733E+02  0.22810125779E+03  0.90305886564E+02 0.  0.
        -15    1    5    5    0    0 -0.90189593495E+02 -0.70233918875E+02 -0.27996561683E+02  0.11768930963E+03  0.00000000000E+00 0.  1.
        -15    1    3    3    0    0  0.49706610527E+02  0.69177364774E+01 -0.50601672694E+02  0.71268025702E+02  0.00000000000E+00 0.  1.
         15    1    1    2    0    0 -0.65554611433E+02 -0.17812026582E+02  0.28430516930E+03  0.29230823571E+03  0.00000000000E+00 0. -1.
         15    1    5    5    0    0 -0.99539941024E+02  0.18434624158E+02 -0.44076786050E+02  0.11041194816E+03  0.00000000000E+00 0. -1.
        -16    1    4    4    0    0 -0.32319396183E+03  0.30238424128E+03  0.30387294832E+04  0.30707926401E+04  0.00000000000E+00 0.  1.
         16    1    3    3    0    0 -0.23481862396E+02  0.27478659027E+02 -0.70174577993E+02  0.78936341188E+02  0.00000000000E+00 0. -1.
    9900018    1    4    4    0    0  0.55225335965E+03 -0.26716931548E+03  0.26427627007E+03  0.67418123802E+03  0.91187600000E+02 0.  0.
<mgrwt>
<rscale>  0 0.28240126E+04</rscale>
<asrwt>0</asrwt>
<pdfrwt beam="1">  1        1 0.60077298E+00 0.28240126E+04</pdfrwt>
<pdfrwt beam="2">  1       -1 0.78548188E-01 0.28240126E+04</pdfrwt>
<totfact> 0.16264287E-01</totfact>
</mgrwt>
</event>
<event>
11    1  0.1457195E-012  0.3177863E+04  0.7818608E-02  0.9029848E-01
          1   -1    0    0  501    0  0.00000000000E+00  0.00000000000E+00  0.16591790085E+04  0.16591790085E+04  0.00000000000E+00 0. -1.
         -1   -1    0    0    0  501 -0.00000000000E+00 -0.00000000000E+00 -0.16357874485E+04  0.16357874485E+04  0.00000000000E+00 0.  1.
         24    2    1    2    0    0  0.34027003574E+02 -0.42041911712E-01 -0.73916864734E+02  0.11561368962E+03  0.82127849089E+02 0.  0.
         23    2    1    2    0    0  0.48628717517E+03  0.11653014854E+02  0.13873864416E+04  0.14731275380E+04  0.93019329064E+02 0.  0.
        -15    1    3    3    0    0  0.31328167644E+02 -0.21027192269E+02  0.10228381239E+01  0.37744444631E+02  0.00000000000E+00 0.  1.
        -15    1    4    4    0    0  0.15414488712E+03 -0.15542730010E+02  0.56308725599E+03  0.58401154144E+03  0.00000000000E+00 0. -1.
         15    1    1    2    0    0  0.34320333456E+02  0.23437095661E+03 -0.22538226791E+03  0.32696299068E+03  0.00000000000E+00 0. -1.
         15    1    4    4    0    0  0.33214228805E+03  0.27195744863E+02  0.82429918558E+03  0.88911599659E+03  0.00000000000E+00 0.  1.
        -16    1    1    2    0    0 -0.40954882260E+03  0.15260907326E+03 -0.45453374441E+03  0.63057171847E+03  0.00000000000E+00 0.  1.
         16    1    3    3    0    0  0.26988359299E+01  0.20985150358E+02 -0.74939702858E+02  0.77869244990E+02  0.00000000000E+00 0. -1.
    9900018    1    1    2    0    0 -0.14508568960E+03 -0.39859100280E+03 -0.61016200455E+03  0.74869052019E+03  0.91187600000E+02 0.  0.
<mgrwt>
<rscale>  0 0.12996433E+04</rscale>
<asrwt>0</asrwt>
<pdfrwt beam="1">  1        1 0.25525831E+00 0.31778633E+04</pdfrwt>
<pdfrwt beam="2">  1       -1 0.25165961E+00 0.31778633E+04</pdfrwt>
<totfact> 0.28850615E-01</totfact>
</mgrwt>
</event>
<event>
12    1  0.1457195E-012  0.2950601E+04  0.7818608E-02  0.8990364E-01
          3   -1    0    0  501    0  0.00000000000E+00  0.00000000000E+00  0.16559799744E+04  0.16559799744E+04  0.00000000000E+00 0. -1.
         -3   -1    0    0    0  501 -0.00000000000E+00 -0.00000000000E+00 -0.14324325271E+04  0.14324325271E+04  0.00000000000E+00 0.  1.
         24    2    1    2    0    0 -0.10041112186E+03 -0.13659786830E+02  0.16002953836E+02  0.13052110570E+03  0.80688793094E+02 0.  0.
    9900016    2    1    2    0    0  0.50916357301E+02  0.18636431634E+03 -0.37053434386E+03  0.23525388304E+04  0.23151283149E+04 0.  0.
         23    2    4    4    0    0  0.13193801440E+03  0.22139661766E+03  0.55973120783E+03  0.62294896184E+03  0.91336094101E+02 0.  0.
        -15    1    3    3    0    0  0.12389848183E+02 -0.40822974264E+01 -0.72885026162E+01  0.14943084041E+02  0.00000000000E+00 0.  1.
        -15    1    5    5    0    0  0.85890719052E+02  0.74383352285E+02  0.30222551691E+03  0.32287824607E+03  0.00000000000E+00 0.  1.
         15    1    5    5    0    0  0.46047295347E+02  0.14701326538E+03  0.25750569092E+03  0.30007071577E+03  0.00000000000E+00 0. -1.
         15    1    1    2    0    0  0.49494764562E+02 -0.17270452951E+03  0.57807883733E+03  0.60535256537E+03  0.00000000000E+00 0. -1.
        -16    1    4    4    0    0 -0.34221805081E+03 -0.20223598304E+03  0.27393523895E+03  0.48275573769E+03  0.00000000000E+00 0.  1.
         16    1    3    3    0    0 -0.11280097005E+03 -0.95774894034E+01  0.23291456452E+02  0.11557802166E+03  0.00000000000E+00 0. -1.
    9900018    1    4    4    0    0  0.26119639371E+03  0.16720368172E+03 -0.12042007906E+04  0.12468341308E+04  0.91187600000E+02 0.  0.
<mgrwt>
<rscale>  0 0.13506127E+04</rscale>
<asrwt>0</asrwt>
<pdfrwt beam="1">  1        3 0.25476615E+00 0.29506011E+04</pdfrwt>
<pdfrwt beam="2">  1       -3 0.22037424E+00 0.29506011E+04</pdfrwt>
<totfact> 0.16830880E-02</totfact>
</mgrwt>
</event>
