<event>
10    1  0.6458596E-013  0.3179288E+04  0.7818608E-02  0.8321657E-01
          1   -1    0    0  501    0  0.00000000000E+00  0.00000000000E+00  0.29364935162E+04  0.29364935162E+04  0.00000000000E+00 0. -1.
         -1   -1    0    0    0  501 -0.00000000000E+00 -0.00000000000E+00 -0.20766590432E+04  0.20766590432E+04  0.00000000000E+00 0.  1.
    9900016    2    1    2    0    0 -0.11122660747E+03  0.97714048489E+02 -0.28949146010E+03  0.17875414641E+04  0.17577200536E+04 0.  0.
        -15    1    1    2    0    0 -0.28837314589E+03 -0.51354259444E+02 -0.35625199154E+03  0.46120690878E+03  0.00000000000E+00 0.  1.
        -15    1    3    3    0    0  0.20163146275E+03  0.43127113666E+03 -0.94764253623E+02  0.48541765919E+03  0.00000000000E+00 0.  1.
         15    1    1    2    0    0 -0.15208056380E+03 -0.11099309827E+04  0.72634154068E+03  0.13351581622E+04  0.00000000000E+00 0. -1.
         15    1    3    3    0    0 -0.11145591509E+03 -0.22345634240E+03  0.64718679953E+02  0.25796058905E+03  0.00000000000E+00 0. -1.
        -16    1    1    2    0    0  0.55168031716E+03  0.10635711937E+04  0.77923638394E+03  0.14292460245E+04  0.00000000000E+00 0.  1.
         16    1    3    3    0    0  0.12819302169E+03  0.37906168715E+03 -0.19101413609E+03  0.44340457109E+03  0.00000000000E+00 0. -1.
    9900018    1    3    3    0    0 -0.32959517682E+03 -0.48916243292E+03 -0.68431750339E+02  0.60075864473E+03  0.91187600000E+02 0.  0.
<mgrwt>
<rscale>  0 0.27415207E+04</rscale>
<asrwt>0</asrwt>
<pdfrwt beam="1">  1        1 0.45176823E+00 0.31792879E+04</pdfrwt>
<pdfrwt beam="2">  1       -1 0.31948601E+00 0.31792879E+04</pdfrwt>
<totfact> 0.13080084E-02</totfact>
</mgrwt>
</event>
<event>
11    1  0.6458596E-013  0.5317821E+04  0.7818608E-02  0.8093482E-01
         -2   -1    0    0    0  501 -0.00000000000E+00  0.00000000000E+00  0.27189393790E+04  0.27189393790E+04  0.00000000000E+00 0.  1.
          2   -1    0    0  501    0  0.00000000000E+00 -0.00000000000E+00 -0.38643272240E+04  0.38643272240E+04  0.00000000000E+00 0. -1.
    9900016    2    1    2    0    0 -0.75257424708E+03 -0.37611490733E+03 -0.25975970027E+04  0.32572981783E+04  0.17761336698E+04 0.  0.
         24    2    3    3    0    0 -0.12360154100E+04 -0.37912889644E+03 -0.11913919423E+04  0.17610224237E+04  0.10155000220E+03 0.  0.
        -15    1    4    4    0    0 -0.62663326276E+03 -0.15069824721E+03 -0.54980408807E+03  0.84715036621E+03  0.00000000000E+00 0.  1.
        -15    1    1    2    0    0  0.38572841503E+03  0.14467599519E+03 -0.19419962321E+03  0.45544598736E+03  0.00000000000E+00 0.  1.
         15    1    3    3    0    0  0.16699221656E+03  0.59156984925E+02 -0.47613857662E+03  0.50802942179E+03  0.00000000000E+00 0. -1.
         15    1    1    2    0    0  0.61584409906E+03 -0.30796619750E+03 -0.36071553169E+03  0.77731771365E+03  0.00000000000E+00 0. -1.
        -16    1    1    2    0    0 -0.24899826700E+03  0.53940510964E+03  0.20071243125E+04  0.20932047237E+04  0.00000000000E+00 0.  1.
         16    1    4    4    0    0 -0.60938214720E+03 -0.22843064923E+03 -0.64158785420E+03  0.91387205751E+03  0.00000000000E+00 0. -1.
    9900018    1    3    3    0    0  0.31644894632E+03 -0.56142995815E+02 -0.93006648378E+03  0.98824633278E+03  0.91187600000E+02 0.  0.
<mgrwt>
<rscale>  0 0.35869727E+04</rscale>
<asrwt>0</asrwt>
<pdfrwt beam="1">  1        2 0.59451188E+00 0.53178213E+04</pdfrwt>
<pdfrwt beam="2">  1       -2 0.41829837E+00 0.53178213E+04</pdfrwt>
<totfact> 0.16778140E-03</totfact>
</mgrwt>
</event>
<event>
10    1  0.6458596E-013  0.5310082E+04  0.7818608E-02  0.8049288E-01
          2   -1    0    0  501    0  0.00000000000E+00  0.00000000000E+00  0.31280966070E+04  0.31280966070E+04  0.00000000000E+00 0.  1.
         -2   -1    0    0    0  501 -0.00000000000E+00 -0.00000000000E+00 -0.36484002662E+04  0.36484002662E+04  0.00000000000E+00 0. -1.
        -24    2    1    2    0    0  0.98419605193E+03 -0.95260673390E+03  0.29894181520E+03  0.14035898901E+04  0.67800535536E+02 0.  0.
        -15    1    1    2    0    0 -0.22098016552E+03 -0.76352821904E+03 -0.12368872126E+04  0.14702712510E+04  0.00000000000E+00 0.  1.
        -15    1    1    2    0    0 -0.87980713544E+02 -0.69207145460E+03 -0.36891706306E+02  0.69861613367E+03  0.00000000000E+00 0.  1.
         15    1    3    3    0    0  0.27950808263E+03 -0.23989692852E+03  0.59475781690E+02  0.37311214557E+03  0.00000000000E+00 0. -1.
         15    1    1    2    0    0 -0.59943412041E+02  0.25457540044E+03  0.46027794779E+03  0.52939364973E+03  0.00000000000E+00 0. -1.
        -16    1    3    3    0    0  0.70468796930E+03 -0.71270980538E+03  0.23946603351E+03  0.10304777445E+04  0.00000000000E+00 0.  1.
         16    1    1    2    0    0 -0.18641836039E+03  0.20621268093E+04 -0.36246973737E+03  0.21020235710E+04  0.00000000000E+00 0. -1.
    9900018    1    1    2    0    0 -0.42887340044E+03  0.91504197810E+02  0.35672523414E+03  0.57260237764E+03  0.91187600000E+02 0.  0.
<mgrwt>
<rscale>  0 0.37854354E+04</rscale>
<asrwt>0</asrwt>
<pdfrwt beam="1">  1        2 0.48124563E+00 0.53100816E+04</pdfrwt>
<pdfrwt beam="2">  1       -2 0.56129235E+00 0.53100816E+04</pdfrwt>
<totfact> 0.74190462E-04</totfact>
</mgrwt>
</event>
<event>
11    1  0.6458596E-013  0.4563378E+04  0.7818608E-02  0.8202445E-01
         -2   -1    0    0    0  501 -0.00000000000E+00  0.00000000000E+00  0.28541388963E+04  0.28541388963E+04  0.00000000000E+00 0.  1.
          2   -1    0    0  501    0  0.00000000000E+00 -0.00000000000E+00 -0.28145556600E+04  0.28145556600E+04  0.00000000000E+00 0. -1.
    9900016    2    1    2    0    0  0.73392033760E+03  0.35771887301E+03 -0.17579332915E+02  0.19190852172E+04  0.17366568988E+04 0.  0.
         24    2    3    3    0    0 -0.17892657140E+03  0.50200550620E+03  0.59959164157E+03  0.80777602376E+03  0.94698055546E+02 0.  0.
        -15    1    4    4    0    0 -0.16611866004E+03  0.45469615281E+03  0.49549859856E+03  0.69272134497E+03  0.00000000000E+00 0.  1.
        -15    1    1    2    0    0  0.37540061266E+02  0.96430196955E+02  0.26428095529E+03  0.28381765698E+03  0.00000000000E+00 0.  1.
         15    1    3    3    0    0  0.91284690900E+03 -0.14428663319E+03 -0.61717097448E+03  0.11113091935E+04  0.00000000000E+00 0. -1.
         15    1    1    2    0    0 -0.59393083122E+02  0.52799849411E+03 -0.60558323306E+03  0.80563080891E+03  0.00000000000E+00 0. -1.
        -16    1    1    2    0    0 -0.13829659199E+04 -0.10811022987E+04 -0.17941284435E+03  0.17645299330E+04  0.00000000000E+00 0.  1.
         16    1    4    4    0    0 -0.12807911356E+02  0.47309353390E+02  0.10409304300E+03  0.11505467880E+03  0.00000000000E+00 0. -1.
    9900018    1    1    2    0    0  0.67089860415E+03  0.98954734593E+02  0.57787769129E+03  0.89563094020E+03  0.91187600000E+02 0.  0.
<mgrwt>
<rscale>  0 0.31488985E+04</rscale>
<asrwt>0</asrwt>
<pdfrwt beam="1">  1        2 0.43300856E+00 0.45633782E+04</pdfrwt>
<pdfrwt beam="2">  1       -2 0.43909829E+00 0.45633782E+04</pdfrwt>
<totfact> 0.67470204E-03</totfact>
</mgrwt>
</event>
<event>
 9    1  0.6458596E-013  0.3083636E+04  0.7818608E-02  0.8220243E-01
          2   -1    0    0  501    0  0.00000000000E+00  0.00000000000E+00  0.33071500746E+04  0.33071500746E+04  0.00000000000E+00 0.  1.
         -2   -1    0    0    0  501 -0.00000000000E+00 -0.00000000000E+00 -0.71880701870E+03  0.71880701870E+03  0.00000000000E+00 0. -1.
        -15    1    1    2    0    0 -0.53545396829E+03 -0.34235979987E+03  0.15835747524E+03  0.65497959869E+03  0.00000000000E+00 0.  1.
        -15    1    1    2    0    0  0.19540000171E+03 -0.14290858404E+02  0.69326817747E+02  0.20782588136E+03  0.00000000000E+00 0.  1.
         15    1    1    2    0    0 -0.95660758164E+02  0.10556063140E+02  0.50577341880E+02  0.10872202460E+03  0.00000000000E+00 0. -1.
         15    1    1    2    0    0  0.58096157330E+03  0.41155877811E+03  0.10646345803E+04  0.12807590589E+04  0.00000000000E+00 0. -1.
        -16    1    1    2    0    0  0.10430764806E+03  0.44868876946E+02  0.10487279875E+03  0.15456909613E+03  0.00000000000E+00 0.  1.
         16    1    1    2    0    0 -0.33104882420E+03  0.16999267825E+03 -0.62857251608E+02  0.37741471718E+03  0.00000000000E+00 0. -1.
    9900018    1    1    2    0    0  0.81494327591E+02 -0.28032573817E+03  0.12034312937E+04  0.12416867165E+04  0.91187600000E+02 0.  0.
<mgrwt>
<rscale>  0 0.30836360E+04</rscale>
<asrwt>0</asrwt>
<pdfrwt beam="1">  1        2 0.50879231E+00 0.30836360E+04</pdfrwt>
<pdfrwt beam="2">  1       -2 0.11058570E+00 0.30836360E+04</pdfrwt>
<totfact> 0.60693198E-01</totfact>
</mgrwt>
</event>
<event>
10    1  0.6458596E-013  0.5278517E+04  0.7818608E-02  0.7786923E-01
         -1   -1    0    0    0  501 -0.00000000000E+00  0.00000000000E+00  0.27982343527E+04  0.27982343527E+04  0.00000000000E+00 0.  1.
          1   -1    0    0  501    0  0.00000000000E+00 -0.00000000000E+00 -0.24893145952E+04  0.24893145952E+04  0.00000000000E+00 0. -1.
    9900016    2    1    2    0    0  0.23930012981E+02  0.12740542241E+04 -0.10225445172E+04  0.23592894945E+04  0.17020172790E+04 0.  0.
        -15    1    1    2    0    0 -0.51277836752E+03 -0.65363852483E+03  0.72366148254E+02  0.83391956132E+03  0.00000000000E+00 0.  1.
        -15    1    3    3    0    0 -0.13152532265E+03  0.89979935580E+02 -0.27099575240E+02  0.16164679485E+03  0.00000000000E+00 0.  1.
         15    1    1    2    0    0  0.10890779726E+03  0.38862199328E+03  0.79077811354E+03  0.88781641505E+03  0.00000000000E+00 0. -1.
         15    1    3    3    0    0  0.77576487301E+03  0.10789042932E+04 -0.63865688695E+03  0.14743568874E+04  0.00000000000E+00 0. -1.
        -16    1    1    2    0    0  0.33298947127E+03 -0.90580881009E+03  0.42647269341E+03  0.10551068887E+04  0.00000000000E+00 0.  1.
         16    1    3    3    0    0 -0.62030953737E+03  0.10516999527E+03 -0.35678805501E+03  0.72328581229E+03  0.00000000000E+00 0. -1.
    9900018    1    1    2    0    0  0.46951086012E+02 -0.10322888247E+03  0.41847319558E+02  0.15141658826E+03  0.91187600000E+02 0.  0.
<mgrwt>
<rscale>  0 0.52785171E+04</rscale>
<asrwt>0</asrwt>
<pdfrwt beam="1">  1        1 0.38297148E+00 0.52785171E+04</pdfrwt>
<pdfrwt beam="2">  1       -1 0.43049759E+00 0.52785171E+04</pdfrwt>
<totfact> 0.43026081E-03</totfact>
</mgrwt>
</event>
