<event>
12    1  0.4714907E-010  0.1848268E+04  0.7818608E-02  0.9437333E-01
          2   -1    0    0  501    0  0.00000000000E+00  0.00000000000E+00  0.31713283408E+04  0.31713283408E+04  0.00000000000E+00 0. -1.
         -2   -1    0    0    0  501 -0.00000000000E+00 -0.00000000000E+00 -0.29914456526E+03  0.29914456526E+03  0.00000000000E+00 0.  1.
         23    2    1    2    0    0 -0.20215291019E+02 -0.41366939298E+02  0.15374605523E+03  0.18322504462E+03  0.88395055417E+02 0.  0.
    9900016    2    1    2    0    0 -0.55418760075E+03  0.38047838420E+03  0.13517713265E+04  0.16713875030E+04  0.71719088688E+03 0.  0.
         23    2    4    4    0    0 -0.22436003624E+03  0.30349210763E+03  0.13947696566E+03  0.41266961303E+03  0.91637875976E+02 0.  0.
        -15    1    3    3    0    0  0.33549095283E+02 -0.28864689779E+02  0.74374793573E+02  0.86546646552E+02  0.00000000000E+00 0. -1.
        -15    1    5    5    0    0 -0.35696676409E+02  0.70296502313E+02 -0.64420290722E+01  0.79103417642E+02  0.00000000000E+00 0.  1.
         15    1    5    5    0    0 -0.18866335984E+03  0.23319560531E+03  0.14591899473E+03  0.33356619539E+03  0.00000000000E+00 0. -1.
         15    1    3    3    0    0 -0.53764386302E+02 -0.12502249519E+02  0.79371261652E+02  0.96678398072E+02  0.00000000000E+00 0.  1.
        -16    1    1    2    0    0  0.63031288397E+03 -0.18170383501E+03  0.91602970870E+03  0.11266858669E+04  0.00000000000E+00 0.  1.
         16    1    4    4    0    0 -0.32982756450E+03  0.76986276575E+02  0.12122943609E+04  0.12587178899E+04  0.00000000000E+00 0. -1.
    9900018    1    1    2    0    0 -0.55909992202E+02 -0.15740760990E+03  0.45063668507E+03  0.48917449157E+03  0.91187600000E+02 0.  0.
<mgrwt>
<rscale>  0 0.89065985E+03</rscale>
<asrwt>0</asrwt>
<pdfrwt beam="1">  1        2 0.48789665E+00 0.18482681E+04</pdfrwt>
<pdfrwt beam="2">  1       -2 0.46022243E-01 0.18482681E+04</pdfrwt>
<totfact> 0.57157977E+00</totfact>
</mgrwt>
</event>
<event>
12    1  0.4714907E-010  0.1697930E+04  0.7818608E-02  0.9424689E-01
          1   -1    0    0  501    0  0.00000000000E+00  0.00000000000E+00  0.61928943891E+03  0.61928943891E+03  0.00000000000E+00 0. -1.
         -1   -1    0    0    0  501 -0.00000000000E+00 -0.00000000000E+00 -0.13602765868E+04  0.13602765868E+04  0.00000000000E+00 0.  1.
         23    2    1    2    0    0  0.47118297881E+02  0.88693350376E+02 -0.86407772231E+02  0.15982925806E+03  0.89400471102E+02 0.  0.
    9900016    2    1    2    0    0  0.22195403004E+03  0.21653290716E+03 -0.49132735956E+03  0.92043497886E+03  0.71389627028E+03 0.  0.
         23    2    4    4    0    0  0.47049310170E+01  0.18296844719E+03  0.14283904167E+03  0.24924888808E+03  0.90677601083E+02 0.  0.
        -15    1    3    3    0    0  0.65553776961E+02  0.71470467091E+02 -0.92342103991E+02  0.13391187218E+03  0.00000000000E+00 0.  1.
        -15    1    5    5    0    0 -0.35805808304E+02  0.12830345188E+03  0.11408457094E+03  0.17538278421E+03  0.00000000000E+00 0. -1.
         15    1    5    5    0    0  0.40510739321E+02  0.54664995309E+02  0.28754470736E+02  0.73866103862E+02  0.00000000000E+00 0.  1.
         15    1    3    3    0    0 -0.18435479079E+02  0.17222883285E+02  0.59343317604E+01  0.25917385882E+02  0.00000000000E+00 0. -1.
        -16    1    4    4    0    0  0.21724909903E+03  0.33564459967E+02 -0.63416640124E+03  0.67118609078E+03  0.00000000000E+00 0.  1.
         16    1    1    2    0    0 -0.32656911194E+03 -0.31788454096E+03  0.21635107445E+03  0.50448563277E+03  0.00000000000E+00 0. -1.
    9900018    1    1    2    0    0  0.57496784018E+02  0.12658283432E+02 -0.37960309056E+03  0.39481615604E+03  0.91187600000E+02 0.  0.
<mgrwt>
<rscale>  0 0.90071415E+03</rscale>
<asrwt>0</asrwt>
<pdfrwt beam="1">  1        1 0.95275300E-01 0.16979304E+04</pdfrwt>
<pdfrwt beam="2">  1       -1 0.20927332E+00 0.16979304E+04</pdfrwt>
<totfact> 0.40339383E+00</totfact>
</mgrwt>
</event>
<event>
12    1  0.4714907E-010  0.2436975E+04  0.7818608E-02  0.9087735E-01
         -2   -1    0    0    0  501 -0.00000000000E+00  0.00000000000E+00  0.73678191737E+03  0.73678191737E+03  0.00000000000E+00 0.  1.
          2   -1    0    0  501    0  0.00000000000E+00 -0.00000000000E+00 -0.22846057364E+04  0.22846057364E+04  0.00000000000E+00 0. -1.
         23    2    1    2    0    0  0.22429134073E+02  0.12820866195E+03 -0.86914787300E+02  0.18006693445E+03  0.89047142434E+02 0.  0.
    9900016    2    1    2    0    0  0.22877265716E+02  0.77296541508E+03  0.49026823605E+02  0.10468993584E+04  0.70398560712E+03 0.  0.
         23    2    4    4    0    0  0.54130807350E+02 -0.10775615700E+03 -0.49254875652E+02  0.16016007103E+03  0.93186221637E+02 0.  0.
        -15    1    5    5    0    0 -0.13302461821E+02 -0.60261788051E+02 -0.47132849405E+02  0.77652714586E+02  0.00000000000E+00 0. -1.
        -15    1    3    3    0    0  0.45187199743E+02  0.52918287356E+02 -0.10443578868E+02  0.70365449597E+02  0.00000000000E+00 0.  1.
         15    1    3    3    0    0 -0.22758065670E+02  0.75290374593E+02 -0.76471208432E+02  0.10970148485E+03  0.00000000000E+00 0. -1.
         15    1    5    5    0    0  0.67433269171E+02 -0.47494368945E+02 -0.21220262478E+01  0.82507356448E+02  0.00000000000E+00 0.  1.
        -16    1    1    2    0    0 -0.15575965691E+03 -0.48942681923E+03 -0.99488690223E+03  0.11196426351E+04  0.00000000000E+00 0.  1.
         16    1    4    4    0    0 -0.31253541634E+02  0.88072157208E+03  0.98281699257E+02  0.88673928739E+03  0.00000000000E+00 0. -1.
    9900018    1    1    2    0    0  0.11045325712E+03 -0.41174725779E+03 -0.51504895312E+03  0.67477872581E+03  0.91187600000E+02 0.  0.
<mgrwt>
<rscale>  0 0.12291295E+04</rscale>
<asrwt>0</asrwt>
<pdfrwt beam="1">  1        2 0.35147780E+00 0.24369752E+04</pdfrwt>
<pdfrwt beam="2">  1       -2 0.11335107E+00 0.24369752E+04</pdfrwt>
<totfact> 0.25203290E+00</totfact>
</mgrwt>
</event>
<event>
12    1  0.4714907E-010  0.2174616E+04  0.7818608E-02  0.9142564E-01
          2   -1    0    0  501    0  0.00000000000E+00  0.00000000000E+00  0.30336688102E+04  0.30336688102E+04  0.00000000000E+00 0.  1.
         -2   -1    0    0    0  501 -0.00000000000E+00 -0.00000000000E+00 -0.48252484320E+03  0.48252484320E+03  0.00000000000E+00 0. -1.
         23    2    1    2    0    0  0.65266241590E+02  0.14151310143E+03  0.48165078552E+03  0.51423479319E+03  0.90356533588E+02 0.  0.
    9900016    2    1    2    0    0  0.19004365241E+03 -0.33036691744E+03  0.88959851675E+03  0.11959755201E+04  0.70264716163E+03 0.  0.
         23    2    4    4    0    0 -0.20073512457E+03 -0.33106184950E+03  0.35019091783E+03  0.52989062069E+03  0.90850715648E+02 0.  0.
        -15    1    3    3    0    0  0.21127711265E+02  0.71248238330E+02  0.35588742567E+03  0.36356368273E+03  0.00000000000E+00 0.  1.
        -15    1    5    5    0    0 -0.17730316776E+03 -0.21801630370E+03  0.22890381112E+03  0.36244237710E+03  0.00000000000E+00 0.  1.
         15    1    5    5    0    0 -0.23431956812E+02 -0.11304554581E+03  0.12128710672E+03  0.16744824359E+03  0.00000000000E+00 0. -1.
         15    1    3    3    0    0  0.44138530325E+02  0.70264863100E+02  0.12576335985E+03  0.15067111046E+03  0.00000000000E+00 0. -1.
        -16    1    1    2    0    0  0.20674609976E+02  0.72420021823E+03  0.44020711684E+03  0.84774742778E+03  0.00000000000E+00 0.  1.
         16    1    4    4    0    0  0.39077877698E+03  0.69493205866E+00  0.53940759892E+03  0.66608489942E+03  0.00000000000E+00 0. -1.
    9900018    1    1    2    0    0 -0.27598450398E+03 -0.53534640222E+03  0.73968754792E+03  0.95823591237E+03  0.91187600000E+02 0.  0.
<mgrwt>
<rscale>  0 0.11666449E+04</rscale>
<asrwt>0</asrwt>
<pdfrwt beam="1">  1        2 0.46671827E+00 0.21746161E+04</pdfrwt>
<pdfrwt beam="2">  1       -2 0.74234593E-01 0.21746161E+04</pdfrwt>
<totfact> 0.24703979E+00</totfact>
</mgrwt>
</event>
<event>
12    1  0.4714907E-010  0.1658648E+04  0.7818608E-02  0.9504790E-01
         -1   -1    0    0    0  501 -0.00000000000E+00  0.00000000000E+00  0.38765027947E+03  0.38765027947E+03  0.00000000000E+00 0.  1.
          1   -1    0    0  501    0  0.00000000000E+00 -0.00000000000E+00 -0.20229197598E+04  0.20229197598E+04  0.00000000000E+00 0. -1.
         23    2    1    2    0    0 -0.11991656548E+02 -0.71290222986E+02 -0.14120584924E+03  0.17823075985E+03  0.81246637943E+02 0.  0.
    9900016    2    1    2    0    0  0.87045732258E+02  0.23099586952E+03 -0.59178429067E+03  0.95603959257E+03  0.70913116180E+03 0.  0.
         23    2    4    4    0    0 -0.19286288451E+03 -0.15796941096E+03 -0.14780782202E+03  0.30277247425E+03  0.87599040453E+02 0.  0.
        -15    1    5    5    0    0 -0.99475276200E+02 -0.92332000142E+02 -0.12869357670E+03  0.18703626790E+03  0.00000000000E+00 0.  1.
        -15    1    3    3    0    0 -0.31387245255E+01 -0.87316641554E+02 -0.97931793772E+02  0.13124284253E+03  0.00000000000E+00 0.  1.
         15    1    5    5    0    0 -0.93387608312E+02 -0.65637410823E+02 -0.19114245320E+02  0.11573620635E+03  0.00000000000E+00 0. -1.
         15    1    3    3    0    0 -0.88529320230E+01  0.16026418568E+02 -0.43274055464E+02  0.46987917317E+02  0.00000000000E+00 0. -1.
        -16    1    4    4    0    0  0.27990861677E+03  0.38896528048E+03 -0.44397646865E+03  0.65326711832E+03  0.00000000000E+00 0.  1.
         16    1    1    2    0    0 -0.25843287831E+03  0.13296561092E+03 -0.87043388538E+03  0.91767235716E+03  0.00000000000E+00 0. -1.
    9900018    1    1    2    0    0  0.18337880260E+03 -0.29267125745E+03 -0.31845455017E+02  0.35862732966E+03  0.91187600000E+02 0.  0.
<mgrwt>
<rscale>  0 0.83931594E+03</rscale>
<asrwt>0</asrwt>
<pdfrwt beam="1">  1        1 0.31121841E+00 0.16586478E+04</pdfrwt>
<pdfrwt beam="2">  1       -1 0.59638507E-01 0.16586478E+04</pdfrwt>
<totfact> 0.78127275E+00</totfact>
</mgrwt>
</event>
<event>
12    1  0.4714907E-010  0.1396487E+04  0.7818608E-02  0.9588234E-01
          2   -1    0    0  501    0  0.00000000000E+00  0.00000000000E+00  0.20016264352E+04  0.20016264352E+04  0.00000000000E+00 0. -1.
         -2   -1    0    0    0  501 -0.00000000000E+00 -0.00000000000E+00 -0.29352086084E+03  0.29352086084E+03  0.00000000000E+00 0.  1.
         23    2    1    2    0    0  0.99487665014E+02 -0.31064542204E+02  0.14758203655E+03  0.20101050299E+03  0.88102006387E+02 0.  0.
    9900016    2    1    2    0    0 -0.33392502033E+02  0.25813046334E+00  0.66531975070E+03  0.96962282698E+03  0.70455867755E+03 0.  0.
         23    2    4    4    0    0 -0.27707036833E+03  0.21982482279E+03  0.44052218634E+03  0.57197677854E+03  0.89480147556E+02 0.  0.
        -15    1    3    3    0    0  0.26092822249E+02 -0.21266571527E+02  0.11551407596E+03  0.12031876073E+03  0.00000000000E+00 0. -1.
        -15    1    5    5    0    0 -0.25639948501E+03  0.16347475083E+03  0.38069938221E+03  0.48723373209E+03  0.00000000000E+00 0.  1.
         15    1    5    5    0    0 -0.20670883317E+02  0.56350071955E+02  0.59822804134E+02  0.84743046446E+02  0.00000000000E+00 0. -1.
         15    1    3    3    0    0  0.73394842765E+02 -0.97979706771E+01  0.32067960587E+02  0.80691742267E+02  0.00000000000E+00 0.  1.
        -16    1    4    4    0    0  0.24367786630E+03 -0.21956669232E+03  0.22479756436E+03  0.39764604844E+03  0.00000000000E+00 0.  1.
         16    1    1    2    0    0 -0.27758144414E+03 -0.19266345611E+03  0.31745552153E+03  0.46362557479E+03  0.00000000000E+00 0. -1.
    9900018    1    1    2    0    0  0.21148628116E+03  0.22346986785E+03  0.57774826560E+03  0.66088839130E+03  0.91187600000E+02 0.  0.
<mgrwt>
<rscale>  0 0.78079848E+03</rscale>
<asrwt>0</asrwt>
<pdfrwt beam="1">  1        2 0.30794252E+00 0.13964867E+04</pdfrwt>
<pdfrwt beam="2">  1       -2 0.45157057E-01 0.13964867E+04</pdfrwt>
<totfact> 0.30159853E+01</totfact>
</mgrwt>
</event>
<event>
12    1  0.4714907E-010  0.2424889E+04  0.7818608E-02  0.9051574E-01
         -2   -1    0    0    0  501 -0.00000000000E+00  0.00000000000E+00  0.73816526848E+03  0.73816526848E+03  0.00000000000E+00 0.  1.
          2   -1    0    0  501    0  0.00000000000E+00 -0.00000000000E+00 -0.23312716316E+04  0.23312716316E+04  0.00000000000E+00 0. -1.
         23    2    1    2    0    0  0.73938701948E+02 -0.14221896251E+03 -0.20466256033E+03  0.27518146461E+03  0.90249154680E+02 0.  0.
    9900016    2    1    2    0    0 -0.50074596033E+03 -0.34016026282E+03 -0.14836748762E+04  0.17529078528E+04  0.71059079715E+03 0.  0.
         23    2    4    4    0    0  0.11792457577E+03  0.71865866015E+02 -0.13781885811E+03  0.21542706122E+03  0.91344801649E+02 0.  0.
        -15    1    5    5    0    0  0.10149820228E+03  0.36518086792E+02 -0.13958737506E+03  0.17640887451E+03  0.00000000000E+00 0.  1.
        -15    1    3    3    0    0  0.91794696354E+02 -0.13597768488E+03 -0.19133627638E+03  0.25204318622E+03  0.00000000000E+00 0.  1.
         15    1    3    3    0    0 -0.17855994406E+02 -0.62412776366E+01 -0.13326283950E+02  0.23138278386E+02  0.00000000000E+00 0. -1.
         15    1    5    5    0    0  0.16426373488E+02  0.35347779224E+02  0.17685169554E+01  0.39018186711E+02  0.00000000000E+00 0. -1.
        -16    1    1    2    0    0 -0.19057361985E+03  0.30789889426E+03  0.14801989396E+03  0.39119039185E+03  0.00000000000E+00 0.  1.
         16    1    4    4    0    0 -0.61867053609E+03 -0.41202612883E+03 -0.13458560181E+04  0.15374807916E+04  0.00000000000E+00 0. -1.
    9900018    1    1    2    0    0  0.61738087823E+03  0.17448033108E+03 -0.52788820502E+02  0.65015719076E+03  0.91187600000E+02 0.  0.
<mgrwt>
<rscale>  0 0.12726079E+04</rscale>
<asrwt>0</asrwt>
<pdfrwt beam="1">  1        2 0.35865717E+00 0.24248891E+04</pdfrwt>
<pdfrwt beam="2">  1       -2 0.11356389E+00 0.24248891E+04</pdfrwt>
<totfact> 0.23598038E+00</totfact>
</mgrwt>
</event>
<event>
12    1  0.4714907E-010  0.2624498E+04  0.7818608E-02  0.8862693E-01
          3   -1    0    0  501    0  0.00000000000E+00  0.00000000000E+00  0.15096906696E+04  0.15096906696E+04  0.00000000000E+00 0. -1.
         -3   -1    0    0    0  501 -0.00000000000E+00 -0.00000000000E+00 -0.14433300069E+04  0.14433300069E+04  0.00000000000E+00 0.  1.
         23    2    1    2    0    0  0.25754165843E+03 -0.13682296407E+03  0.11900397838E+03  0.32799513414E+03  0.91491157076E+02 0.  0.
    9900016    2    1    2    0    0  0.24341684416E+02  0.51082801676E+02  0.21963903670E+03  0.73939820820E+03  0.70375168463E+03 0.  0.
         23    2    4    4    0    0  0.10916381031E+03 -0.10392927714E+02 -0.23369497195E+03  0.27411788222E+03  0.92209126494E+02 0.  0.
        -15    1    5    5    0    0  0.56878666001E+02  0.36499069228E+02 -0.77302825243E+02  0.10267955732E+03  0.00000000000E+00 0.  1.
        -15    1    3    3    0    0  0.45699284084E+02 -0.69058942134E+02  0.24733984485E+02  0.86425297471E+02  0.00000000000E+00 0. -1.
         15    1    5    5    0    0  0.52285144313E+02 -0.46891996942E+02 -0.15639214671E+03  0.17143832490E+03  0.00000000000E+00 0. -1.
         15    1    3    3    0    0  0.21184237435E+03 -0.67764021940E+02  0.94269993899E+02  0.24156983667E+03  0.00000000000E+00 0.  1.
        -16    1    1    2    0    0  0.12272342800E+03  0.34014438001E+03 -0.96988518909E+03  0.10351021781E+04  0.00000000000E+00 0.  1.
         16    1    4    4    0    0 -0.84822125898E+02  0.61475729390E+02  0.45333400865E+03  0.46528032598E+03  0.00000000000E+00 0. -1.
    9900018    1    1    2    0    0 -0.40460677085E+03 -0.25440421761E+03  0.69760283669E+03  0.85052515607E+03  0.91187600000E+02 0.  0.
<mgrwt>
<rscale>  0 0.15331652E+04</rscale>
<asrwt>0</asrwt>
<pdfrwt beam="1">  1        3 0.23226010E+00 0.26244976E+04</pdfrwt>
<pdfrwt beam="2">  1       -3 0.22205077E+00 0.26244976E+04</pdfrwt>
<totfact> 0.22659439E-02</totfact>
</mgrwt>
</event>
<event>
12    1  0.4714907E-010  0.2841740E+04  0.7818608E-02  0.8994452E-01
         -2   -1    0    0    0  501 -0.00000000000E+00  0.00000000000E+00  0.83982613826E+03  0.83982613826E+03  0.00000000000E+00 0.  1.
          2   -1    0    0  501    0  0.00000000000E+00 -0.00000000000E+00 -0.27767943054E+04  0.27767943054E+04  0.00000000000E+00 0. -1.
         23    2    1    2    0    0 -0.10709042442E+03 -0.28936888937E+02  0.47677676281E+02  0.15045447524E+03  0.89764613073E+02 0.  0.
    9900016    2    1    2    0    0  0.74681356621E+00 -0.47065226411E+02 -0.59650665625E+03  0.91537072804E+03  0.69272482671E+03 0.  0.
         23    2    4    4    0    0  0.30654098257E+03  0.13790698138E+02 -0.11240420865E+03  0.33955070657E+03  0.92208561757E+02 0.  0.
        -15    1    3    3    0    0 -0.79722501456E+02 -0.43036301699E+02 -0.35736797842E+01  0.90667368383E+02  0.00000000000E+00 0. -1.
        -15    1    5    5    0    0  0.69508953882E+02 -0.33445488140E+02 -0.41911312878E+02  0.87787547487E+02  0.00000000000E+00 0.  1.
         15    1    3    3    0    0 -0.27367922959E+02  0.14099412762E+02  0.51251356065E+02  0.59787106853E+02  0.00000000000E+00 0.  1.
         15    1    5    5    0    0  0.23703202869E+03  0.47236186278E+02 -0.70492895773E+02  0.25176315909E+03  0.00000000000E+00 0. -1.
        -16    1    1    2    0    0 -0.26087255811E+02 -0.97679586313E+03 -0.28593438220E+03  0.10181204124E+04  0.00000000000E+00 0.  1.
         16    1    4    4    0    0 -0.30579416901E+03 -0.60855924549E+02 -0.48410244760E+03  0.57582002147E+03  0.00000000000E+00 0. -1.
    9900018    1    1    2    0    0  0.13243086666E+03  0.10527979785E+04 -0.11022048049E+04  0.15326748280E+04  0.91187600000E+02 0.  0.
<mgrwt>
<rscale>  0 0.13452238E+04</rscale>
<asrwt>0</asrwt>
<pdfrwt beam="1">  1        2 0.42719913E+00 0.28417402E+04</pdfrwt>
<pdfrwt beam="2">  1       -2 0.12920402E+00 0.28417402E+04</pdfrwt>
<totfact> 0.90715356E-01</totfact>
</mgrwt>
</event>
<event>
12    1  0.4714907E-010  0.1213406E+04  0.7818608E-02  0.9668704E-01
          2   -1    0    0  501    0  0.00000000000E+00  0.00000000000E+00  0.66852539807E+03  0.66852539807E+03  0.00000000000E+00 0. -1.
         -2   -1    0    0    0  501 -0.00000000000E+00 -0.00000000000E+00 -0.74450213635E+03  0.74450213635E+03  0.00000000000E+00 0.  1.
         23    2    1    2    0    0  0.11305333146E+03  0.63657031085E+02  0.99685018457E+02  0.18697221312E+03  0.90488851313E+02 0.  0.
    9900016    2    1    2    0    0 -0.28092157830E+03 -0.33555484661E+02 -0.12042672807E+02  0.76155799829E+03  0.70695307842E+03 0.  0.
         23    2    4    4    0    0  0.14781757458E+03 -0.21406786996E+03  0.77456797267E+02  0.28783641592E+03  0.95787048079E+02 0.  0.
        -15    1    5    5    0    0  0.83106973103E+02 -0.10088584588E+03  0.87155409805E+02  0.15710120412E+03  0.00000000000E+00 0.  1.
        -15    1    3    3    0    0  0.12201300608E+03  0.41837087171E+02  0.63479427227E+02  0.14376074985E+03  0.00000000000E+00 0.  1.
         15    1    5    5    0    0  0.64710601481E+02 -0.11318202408E+03 -0.96986125376E+01  0.13073521180E+03  0.00000000000E+00 0. -1.
         15    1    3    3    0    0 -0.89596746178E+01  0.21819943913E+02  0.36205591230E+02  0.43211463270E+02  0.00000000000E+00 0. -1.
        -16    1    1    2    0    0 -0.12225299542E+03  0.67408799401E+01 -0.82372455604E+02  0.14756847832E+03  0.00000000000E+00 0.  1.
         16    1    4    4    0    0 -0.42873915288E+03  0.18051238530E+03 -0.89499470074E+02  0.47372158237E+03  0.00000000000E+00 0. -1.
    9900018    1    1    2    0    0  0.29012124226E+03 -0.36842426363E+02 -0.81246628326E+02  0.31692884470E+03  0.91187600000E+02 0.  0.
<mgrwt>
<rscale>  0 0.72911131E+03</rscale>
<asrwt>0</asrwt>
<pdfrwt beam="1">  1        2 0.10285006E+00 0.12134062E+04</pdfrwt>
<pdfrwt beam="2">  1       -2 0.11453879E+00 0.12134062E+04</pdfrwt>
<totfact> 0.25390121E+01</totfact>
</mgrwt>
</event>
<event>
12    1  0.4714907E-010  0.1669359E+04  0.7818608E-02  0.9209603E-01
          1   -1    0    0  501    0  0.00000000000E+00  0.00000000000E+00  0.35602533240E+04  0.35602533240E+04  0.00000000000E+00 0. -1.
         -1   -1    0    0    0  501 -0.00000000000E+00 -0.00000000000E+00 -0.27569168579E+03  0.27569168579E+03  0.00000000000E+00 0.  1.
         23    2    1    2    0    0 -0.20064322403E+03  0.22056310730E+03  0.58679154098E+03  0.66345028893E+03  0.83283765916E+02 0.  0.
    9900016    2    1    2    0    0 -0.24796157389E+03 -0.42910166570E+02  0.19555090548E+04  0.20951289986E+04  0.70867738268E+03 0.  0.
         23    2    4    4    0    0 -0.47358220488E+03 -0.11806183278E+03  0.15179888020E+04  0.15971566964E+04  0.91655926749E+02 0.  0.
        -15    1    5    5    0    0 -0.12530433798E+03 -0.67317447465E+02  0.36879471387E+03  0.39527503948E+03  0.00000000000E+00 0.  1.
        -15    1    3    3    0    0 -0.10151882408E+03  0.10395453435E+03  0.19779366955E+03  0.24542810061E+03  0.00000000000E+00 0.  1.
         15    1    5    5    0    0 -0.34827786689E+03 -0.50744385315E+02  0.11491940881E+04  0.12018816570E+04  0.00000000000E+00 0. -1.
         15    1    3    3    0    0 -0.99124399943E+02  0.11660857295E+03  0.38899787143E+03  0.41802218832E+03  0.00000000000E+00 0. -1.
        -16    1    1    2    0    0  0.53934097616E+03 -0.16186605950E+03  0.34708947029E+03  0.66148349199E+03  0.00000000000E+00 0.  1.
         16    1    4    4    0    0  0.22562063099E+03  0.75151666209E+02  0.43752025282E+03  0.49797230213E+03  0.00000000000E+00 0. -1.
    9900018    1    1    2    0    0 -0.90736178247E+02 -0.15786881230E+02  0.39517157219E+03  0.41588223035E+03  0.91187600000E+02 0.  0.
<mgrwt>
<rscale>  0 0.10954858E+04</rscale>
<asrwt>0</asrwt>
<pdfrwt beam="1">  1        1 0.54773125E+00 0.16693589E+04</pdfrwt>
<pdfrwt beam="2">  1       -1 0.42414108E-01 0.16693589E+04</pdfrwt>
<totfact> 0.11737125E+00</totfact>
</mgrwt>
</event>
<event>
12    1  0.4714907E-010  0.1706396E+04  0.7818608E-02  0.9458408E-01
         -1   -1    0    0    0  501 -0.00000000000E+00  0.00000000000E+00  0.36352521667E+03  0.36352521667E+03  0.00000000000E+00 0.  1.
          1   -1    0    0  501    0  0.00000000000E+00 -0.00000000000E+00 -0.22924261594E+04  0.22924261594E+04  0.00000000000E+00 0. -1.
         23    2    1    2    0    0 -0.35706410689E+02 -0.63617203101E+02 -0.96791006296E+02  0.15227095229E+03  0.92172922896E+02 0.  0.
    9900016    2    1    2    0    0  0.24278240700E+03 -0.14783554134E+03 -0.39623275044E+03  0.85942297075E+03  0.70767846209E+03 0.  0.
         23    2    4    4    0    0  0.13115081110E+03 -0.10096353226E+03  0.18647285495E+03  0.26427221591E+03  0.87598563739E+02 0.  0.
        -15    1    3    3    0    0 -0.97174403132E+01 -0.81792820829E+02 -0.85199219210E+02  0.11850485703E+03  0.00000000000E+00 0. -1.
        -15    1    5    5    0    0  0.90303111953E+02 -0.38247728983E+02  0.15424914238E+03  0.18278495213E+03  0.00000000000E+00 0. -1.
         15    1    3    3    0    0 -0.25988970376E+02  0.18175617728E+02 -0.11591787086E+02  0.33766095256E+02  0.00000000000E+00 0.  1.
         15    1    5    5    0    0  0.40847699146E+02 -0.62715803273E+02  0.32223712570E+02  0.81487263775E+02  0.00000000000E+00 0.  1.
        -16    1    4    4    0    0  0.11163159590E+03 -0.46872009084E+02 -0.58270560539E+03  0.59515075485E+03  0.00000000000E+00 0.  1.
         16    1    1    2    0    0 -0.39823595247E+03  0.25546238549E+03 -0.13126204062E+04  0.13952867931E+04  0.00000000000E+00 0. -1.
    9900018    1    1    2    0    0  0.19115995616E+03 -0.44009641051E+02 -0.12325677978E+03  0.24897065991E+03  0.91187600000E+02 0.  0.
<mgrwt>
<rscale>  0 0.87420922E+03</rscale>
<asrwt>0</asrwt>
<pdfrwt beam="1">  1        1 0.35268095E+00 0.17063965E+04</pdfrwt>
<pdfrwt beam="2">  1       -1 0.55926956E-01 0.17063965E+04</pdfrwt>
<totfact> 0.57863721E+00</totfact>
</mgrwt>
</event>
<event>
12    1  0.4714907E-010  0.1978233E+04  0.7818608E-02  0.9359090E-01
         -1   -1    0    0    0  501 -0.00000000000E+00  0.00000000000E+00  0.33478073951E+03  0.33478073951E+03  0.00000000000E+00 0.  1.
          1   -1    0    0  501    0  0.00000000000E+00 -0.00000000000E+00 -0.32546616345E+04  0.32546616345E+04  0.00000000000E+00 0. -1.
         23    2    1    2    0    0 -0.46891178155E+02  0.13025149711E+02 -0.11887561886E+03  0.16029722473E+03  0.95892389601E+02 0.  0.
    9900016    2    1    2    0    0 -0.23933200468E+03  0.17392351739E+03 -0.72119439099E+03  0.10425410368E+04  0.69227253704E+03 0.  0.
         23    2    4    4    0    0  0.21896068871E+03  0.26328647974E+02 -0.39257216956E+03  0.45960964919E+03  0.92147384181E+02 0.  0.
        -15    1    3    3    0    0 -0.65808994798E+02  0.28509489209E+02 -0.50587580435E+02  0.87765130124E+02  0.00000000000E+00 0.  1.
        -15    1    5    5    0    0  0.11478640589E+03 -0.26325270709E+02 -0.15262836409E+03  0.19278059129E+03  0.00000000000E+00 0.  1.
         15    1    3    3    0    0  0.18917816644E+02 -0.15484339499E+02 -0.68288038425E+02  0.72532094608E+02  0.00000000000E+00 0. -1.
         15    1    5    5    0    0  0.10417428282E+03  0.52653918683E+02 -0.23994380548E+03  0.26682905790E+03  0.00000000000E+00 0. -1.
        -16    1    4    4    0    0 -0.45829269339E+03  0.14759486942E+03 -0.32862222142E+03  0.58293138765E+03  0.00000000000E+00 0.  1.
         16    1    1    2    0    0 -0.24012973676E+03 -0.22323590006E+03 -0.11078303161E+03  0.34607721341E+03  0.00000000000E+00 0. -1.
    9900018    1    1    2    0    0  0.52635291960E+03  0.36287232955E+02 -0.19690278536E+04  0.20405268991E+04  0.91187600000E+02 0.  0.
<mgrwt>
<rscale>  0 0.95520283E+03</rscale>
<asrwt>0</asrwt>
<pdfrwt beam="1">  1        1 0.50071717E+00 0.19782330E+04</pdfrwt>
<pdfrwt beam="2">  1       -1 0.51504730E-01 0.19782330E+04</pdfrwt>
<totfact> 0.13641648E+00</totfact>
</mgrwt>
</event>
<event>
12    1  0.4714907E-010  0.1691902E+04  0.7818608E-02  0.9232663E-01
         -2   -1    0    0    0  501 -0.00000000000E+00  0.00000000000E+00  0.61996035489E+03  0.61996035489E+03  0.00000000000E+00 0.  1.
          2   -1    0    0  501    0  0.00000000000E+00 -0.00000000000E+00 -0.20713494624E+04  0.20713494624E+04  0.00000000000E+00 0. -1.
         23    2    1    2    0    0  0.11981305677E+03 -0.22834178399E+03  0.19117112784E+03  0.33323103227E+03  0.89450443601E+02 0.  0.
    9900016    2    1    2    0    0  0.57304245870E+02  0.17705636200E+03 -0.52419140867E+03  0.90040730462E+03  0.70804233585E+03 0.  0.
         23    2    4    4    0    0  0.31113780889E+03  0.60618404095E+02 -0.28499282353E+02  0.33146094524E+03  0.92589535510E+02 0.  0.
        -15    1    5    5    0    0  0.18586715880E+03  0.66324654656E+02  0.16962689946E+02  0.19807395938E+03  0.00000000000E+00 0.  1.
        -15    1    3    3    0    0  0.41241976217E+02 -0.99410491321E+02  0.13379656219E+03  0.17171157923E+03  0.00000000000E+00 0.  1.
         15    1    3    3    0    0  0.78571080549E+02 -0.12893129267E+03  0.57374565655E+02  0.16151945304E+03  0.00000000000E+00 0. -1.
         15    1    5    5    0    0  0.12527065009E+03 -0.57062505604E+01 -0.45461972299E+02  0.13338698585E+03  0.00000000000E+00 0. -1.
        -16    1    4    4    0    0 -0.25383356302E+03  0.11643795791E+03 -0.49569212632E+03  0.56894635938E+03  0.00000000000E+00 0.  1.
         16    1    1    2    0    0 -0.15960660162E+03 -0.14973226869E+03 -0.12014140893E+04  0.12211837837E+04  0.00000000000E+00 0. -1.
    9900018    1    1    2    0    0 -0.17510701018E+02  0.20101769067E+03  0.83045262698E+02  0.23648769664E+03  0.91187600000E+02 0.  0.
<mgrwt>
<rscale>  0 0.10722557E+04</rscale>
<asrwt>0</asrwt>
<pdfrwt beam="1">  1        2 0.31866915E+00 0.16919017E+04</pdfrwt>
<pdfrwt beam="2">  1       -2 0.95378515E-01 0.16919017E+04</pdfrwt>
<totfact> 0.52957292E+00</totfact>
</mgrwt>
</event>
<event>
12    1  0.4714907E-010  0.1352561E+04  0.7818608E-02  0.9712230E-01
          1   -1    0    0  501    0  0.00000000000E+00  0.00000000000E+00  0.82894186683E+03  0.82894186683E+03  0.00000000000E+00 0. -1.
         -1   -1    0    0    0  501 -0.00000000000E+00 -0.00000000000E+00 -0.63530546603E+03  0.63530546603E+03  0.00000000000E+00 0.  1.
         23    2    1    2    0    0  0.25581979281E+02 -0.42376065500E+01  0.18594122111E+02  0.10040638602E+03  0.95201397067E+02 0.  0.
    9900016    2    1    2    0    0 -0.23863661416E+02 -0.19728374747E+03 -0.11013384450E+03  0.74597435946E+03  0.71053355298E+03 0.  0.
         23    2    4    4    0    0 -0.29722973365E+03  0.82519144326E+02  0.44487164100E+02  0.32534824994E+03  0.93367297422E+02 0.  0.
        -15    1    3    3    0    0  0.32269414995E+02 -0.25807774085E+02 -0.27115291282E+02  0.49422620010E+02  0.00000000000E+00 0.  1.
        -15    1    5    5    0    0 -0.29893704034E+03  0.68084013451E+02  0.36485189360E+02  0.30875549552E+03  0.00000000000E+00 0. -1.
         15    1    3    3    0    0 -0.66874357145E+01  0.21570167535E+02  0.45709413394E+02  0.50983766011E+02  0.00000000000E+00 0. -1.
         15    1    5    5    0    0  0.17073066906E+01  0.14435130875E+02  0.80019747406E+01  0.16592754421E+02  0.00000000000E+00 0.  1.
        -16    1    4    4    0    0  0.27336607223E+03 -0.27980289180E+03 -0.15462100860E+03  0.42062610952E+03  0.00000000000E+00 0.  1.
         16    1    1    2    0    0 -0.16918710414E+03 -0.53457771905E+02  0.23667458450E+03  0.29579869596E+03  0.00000000000E+00 0. -1.
    9900018    1    1    2    0    0  0.16746878628E+03  0.25497912593E+03  0.48501538691E+02  0.32206789142E+03  0.91187600000E+02 0.  0.
<mgrwt>
<rscale>  0 0.70293253E+03</rscale>
<asrwt>0</asrwt>
<pdfrwt beam="1">  1        1 0.12752952E+00 0.13525614E+04</pdfrwt>
<pdfrwt beam="2">  1       -1 0.97739302E-01 0.13525614E+04</pdfrwt>
<totfact> 0.20480678E+01</totfact>
</mgrwt>
</event>
<event>
12    1  0.4714907E-010  0.1227067E+04  0.7818608E-02  0.9754407E-01
         -1   -1    0    0    0  501 -0.00000000000E+00  0.00000000000E+00  0.10749637555E+04  0.10749637555E+04  0.00000000000E+00 0.  1.
          1   -1    0    0  501    0  0.00000000000E+00 -0.00000000000E+00 -0.42254864594E+03  0.42254864594E+03  0.00000000000E+00 0. -1.
         23    2    1    2    0    0 -0.64300211584E+02  0.24227103855E+02  0.18282100641E+02  0.11627481078E+03  0.92000688302E+02 0.  0.
    9900016    2    1    2    0    0  0.47185793176E+02  0.11923376699E+03  0.39615393383E+03  0.82034388401E+03  0.70681182678E+03 0.  0.
         23    2    4    4    0    0  0.35064637220E+03  0.18402347882E+03  0.25496017329E+03  0.47943083381E+03  0.89619837927E+02 0.  0.
        -15    1    5    5    0    0  0.31537174367E+03  0.18317787620E+03  0.20533520205E+03  0.41854034004E+03  0.00000000000E+00 0. -1.
        -15    1    3    3    0    0 -0.85622987275E+02  0.78030473901E+01  0.22879845204E+02  0.88970055722E+02  0.00000000000E+00 0.  1.
         15    1    3    3    0    0  0.21322775691E+02  0.16424056465E+02 -0.45977445636E+01  0.27304755062E+02  0.00000000000E+00 0. -1.
         15    1    5    5    0    0  0.35274628528E+02  0.84560261709E+00  0.49624971237E+02  0.60890493772E+02  0.00000000000E+00 0.  1.
        -16    1    1    2    0    0 -0.12593842933E+03 -0.26883735805E+03  0.13406995938E+03  0.32574340680E+03  0.00000000000E+00 0.  1.
         16    1    4    4    0    0 -0.30346057902E+03 -0.64789711827E+02  0.14119376054E+03  0.34091305020E+03  0.00000000000E+00 0. -1.
    9900018    1    1    2    0    0  0.14305284774E+03  0.12537648720E+03  0.10390911567E+03  0.23515029981E+03  0.91187600000E+02 0.  0.
<mgrwt>
<rscale>  0 0.67867772E+03</rscale>
<asrwt>0</asrwt>
<pdfrwt beam="1">  1        1 0.65007485E-01 0.12270667E+04</pdfrwt>
<pdfrwt beam="2">  1       -1 0.16537904E+00 0.12270667E+04</pdfrwt>
<totfact> 0.14642354E+01</totfact>
</mgrwt>
</event>
<event>
12    1  0.4714907E-010  0.4168443E+04  0.7818608E-02  0.8573635E-01
          2   -1    0    0  501    0  0.00000000000E+00  0.00000000000E+00  0.41670035784E+04  0.41670035784E+04  0.00000000000E+00 0. -1.
         -2   -1    0    0    0  501 -0.00000000000E+00 -0.00000000000E+00 -0.13125022668E+04  0.13125022668E+04  0.00000000000E+00 0.  1.
         23    2    1    2    0    0 -0.94840698881E+02  0.21751307242E+03  0.78574935392E+03  0.82594292838E+03  0.92048785480E+02 0.  0.
    9900016    2    1    2    0    0  0.63333643659E+03  0.19263720859E+03  0.12429033179E+04  0.15811669340E+04  0.71906611611E+03 0.  0.
         23    2    4    4    0    0  0.78362983280E+03  0.23149961596E+03  0.10419935248E+04  0.13272710171E+04  0.90719677952E+02 0.  0.
        -15    1    3    3    0    0  0.13911443154E+02  0.65133745692E+02  0.18010972976E+03  0.19202980975E+03  0.00000000000E+00 0.  1.
        -15    1    5    5    0    0  0.50394535377E+02  0.36800255781E+02  0.62237329580E+02  0.88132588835E+02  0.00000000000E+00 0.  1.
         15    1    3    3    0    0 -0.10875214203E+03  0.15237932673E+03  0.60563962417E+03  0.63391311863E+03  0.00000000000E+00 0. -1.
         15    1    5    5    0    0  0.73323529742E+03  0.19469936018E+03  0.97975619527E+03  0.12391384283E+04  0.00000000000E+00 0. -1.
        -16    1    1    2    0    0 -0.78234520007E+03 -0.13349431568E+04 -0.31693038684E+03  0.15794246149E+04  0.00000000000E+00 0.  1.
         16    1    4    4    0    0 -0.15029339621E+03 -0.38862407372E+02  0.20090979307E+03  0.25389591687E+03  0.00000000000E+00 0. -1.
    9900018    1    1    2    0    0  0.24384946236E+03  0.92479287581E+03  0.11427790266E+04  0.14929713680E+04  0.91187600000E+02 0.  0.
<mgrwt>
<rscale>  0 0.20720976E+04</rscale>
<asrwt>0</asrwt>
<pdfrwt beam="1">  1        2 0.64107747E+00 0.41684425E+04</pdfrwt>
<pdfrwt beam="2">  1       -2 0.20192343E+00 0.41684425E+04</pdfrwt>
<totfact> 0.24429365E-02</totfact>
</mgrwt>
</event>
<event>
12    1  0.6252377E-010  0.1638800E+04  0.7818608E-02  0.9555853E-01
          1   -1    0    0  501    0  0.00000000000E+00  0.00000000000E+00  0.96935315717E+03  0.96935315717E+03  0.00000000000E+00 0.  1.
         -1   -1    0    0    0  501 -0.00000000000E+00 -0.00000000000E+00 -0.78371398282E+03  0.78371398282E+03  0.00000000000E+00 0. -1.
         23    2    1    2    0    0 -0.26892111679E+02 -0.12255973780E+01  0.54534781027E+02  0.10903148531E+03  0.90493837842E+02 0.  0.
    9900016    2    1    2    0    0  0.31730234999E+03 -0.18419236408E+03  0.42999300224E+03  0.88933835406E+03  0.68660113438E+03 0.  0.
         23    2    4    4    0    0  0.10417668555E+02  0.87564756895E+00 -0.16869677089E+03  0.19158637729E+03  0.90207787225E+02 0.  0.
        -15    1    5    5    0    0 -0.30232486916E+01  0.43333952390E+02 -0.59606118661E+02  0.73755412304E+02  0.00000000000E+00 0.  1.
        -15    1    3    3    0    0  0.13916804400E+02 -0.80343016536E+01  0.64503020739E+02  0.66474560038E+02  0.00000000000E+00 0.  1.
         15    1    3    3    0    0 -0.40808916079E+02  0.68087042757E+01 -0.99682397127E+01  0.42556925270E+02  0.00000000000E+00 0. -1.
         15    1    5    5    0    0  0.13440917247E+02 -0.42458304821E+02 -0.10909065223E+03  0.11783096498E+03  0.00000000000E+00 0. -1.
        -16    1    4    4    0    0  0.30688468143E+03 -0.18506801165E+03  0.59868977313E+03  0.69775197677E+03  0.00000000000E+00 0.  1.
         16    1    1    2    0    0  0.20498401643E+02  0.23868556435E+03  0.80704872090E+02  0.25279291817E+03  0.00000000000E+00 0. -1.
    9900018    1    1    2    0    0 -0.31090863995E+03 -0.53267602889E+02 -0.37959348100E+03  0.50190438245E+03  0.91187600000E+02 0.  0.
<mgrwt>
<rscale>  0 0.80288331E+03</rscale>
<asrwt>0</asrwt>
<pdfrwt beam="1">  1        1 0.14913126E+00 0.16387998E+04</pdfrwt>
<pdfrwt beam="2">  1       -1 0.12057138E+00 0.16387998E+04</pdfrwt>
<totfact> 0.93392603E+00</totfact>
</mgrwt>
</event>
<event>
12    1  0.4714907E-010  0.2303697E+04  0.7818608E-02  0.9213272E-01
         -1   -1    0    0    0  501 -0.00000000000E+00  0.00000000000E+00  0.31359843839E+03  0.31359843839E+03  0.00000000000E+00 0.  1.
          1   -1    0    0  501    0  0.00000000000E+00 -0.00000000000E+00 -0.47215589141E+04  0.47215589141E+04  0.00000000000E+00 0. -1.
         23    2    1    2    0    0  0.71891822417E+02  0.21551130293E+02 -0.35128928811E+03  0.37000963670E+03  0.88713482415E+02 0.  0.
    9900016    2    1    2    0    0 -0.26612979632E+03  0.22160734708E+03 -0.11166573972E+04  0.13706972124E+04  0.71550836525E+03 0.  0.
         23    2    4    4    0    0  0.55426803827E+02 -0.17123213866E+03 -0.82129424645E+02  0.21832156422E+03  0.92338979410E+02 0.  0.
        -15    1    3    3    0    0  0.82056067927E+02  0.41509760851E+02 -0.25280216252E+03  0.26900779153E+03  0.00000000000E+00 0. -1.
        -15    1    5    5    0    0  0.82345463258E+01 -0.15050908494E+03 -0.62080686135E+02  0.16301780269E+03  0.00000000000E+00 0.  1.
         15    1    3    3    0    0 -0.10164245509E+02 -0.19958630557E+02 -0.98487125590E+02  0.10100184517E+03  0.00000000000E+00 0.  1.
         15    1    5    5    0    0  0.47192257501E+02 -0.20723053718E+02 -0.20048738510E+02  0.55303761529E+02  0.00000000000E+00 0. -1.
        -16    1    4    4    0    0 -0.32155660015E+03  0.39283948574E+03 -0.10345279725E+04  0.11523756482E+04  0.00000000000E+00 0.  1.
         16    1    1    2    0    0  0.47833085826E+03  0.79574541888E+02 -0.27872814853E+04  0.28291466197E+04  0.00000000000E+00 0. -1.
    9900018    1    1    2    0    0 -0.28409288436E+03 -0.32273301926E+03 -0.15273230510E+03  0.46530388359E+03  0.91187600000E+02 0.  0.
<mgrwt>
<rscale>  0 0.10917488E+04</rscale>
<asrwt>0</asrwt>
<pdfrwt beam="1">  1        1 0.72639364E+00 0.23036975E+04</pdfrwt>
<pdfrwt beam="2">  1       -1 0.48245916E-01 0.23036975E+04</pdfrwt>
<totfact> 0.72858534E-02</totfact>
</mgrwt>
</event>
<event>
12    1  0.4714907E-010  0.2260799E+04  0.7818608E-02  0.8910466E-01
          1   -1    0    0  501    0  0.00000000000E+00  0.00000000000E+00  0.36645235372E+04  0.36645235372E+04  0.00000000000E+00 0. -1.
         -1   -1    0    0    0  501 -0.00000000000E+00 -0.00000000000E+00 -0.48133447067E+03  0.48133447067E+03  0.00000000000E+00 0.  1.
         23    2    1    2    0    0 -0.90180634197E+02  0.37122100644E+03  0.50457557524E+03  0.64069279076E+03  0.99765518090E+02 0.  0.
    9900016    2    1    2    0    0  0.25237427244E+03  0.76850169021E+01  0.11800267613E+04  0.14008740726E+04  0.71150065138E+03 0.  0.
         23    2    4    4    0    0  0.49602435007E+03  0.27796450418E+02  0.87101480804E+03  0.10068458790E+04  0.90879203628E+02 0.  0.
        -15    1    5    5    0    0  0.34260327000E+02  0.18642586795E+02  0.10927722040E+03  0.11602942276E+03  0.00000000000E+00 0.  1.
        -15    1    3    3    0    0 -0.18270816291E+02  0.26414240088E+03  0.36097565848E+03  0.44767003103E+03  0.00000000000E+00 0.  1.
         15    1    5    5    0    0  0.46176402307E+03  0.91538636232E+01  0.76173758764E+03  0.89081645621E+03  0.00000000000E+00 0. -1.
         15    1    3    3    0    0 -0.71909817906E+02  0.10707860556E+03  0.14359991676E+03  0.19302275973E+03  0.00000000000E+00 0. -1.
        -16    1    4    4    0    0 -0.24365007763E+03 -0.20111433516E+02  0.30901195327E+03  0.39402819360E+03  0.00000000000E+00 0.  1.
         16    1    1    2    0    0  0.58565838629E+03 -0.14387735340E+03  0.10092267401E+04  0.11756849285E+04  0.00000000000E+00 0. -1.
    9900018    1    1    2    0    0 -0.74785202454E+03 -0.23502866994E+03  0.48935998989E+03  0.92860621600E+03  0.91187600000E+02 0.  0.
<mgrwt>
<rscale>  0 0.14615007E+04</rscale>
<asrwt>0</asrwt>
<pdfrwt beam="1">  1        1 0.56377284E+00 0.22607992E+04</pdfrwt>
<pdfrwt beam="2">  1       -1 0.74051459E-01 0.22607992E+04</pdfrwt>
<totfact> 0.30539690E-01</totfact>
</mgrwt>
</event>
<event>
12    1  0.4714907E-010  0.1754636E+04  0.7818608E-02  0.9450171E-01
         -1   -1    0    0    0  501 -0.00000000000E+00  0.00000000000E+00  0.15439960337E+04  0.15439960337E+04  0.00000000000E+00 0.  1.
          1   -1    0    0  501    0  0.00000000000E+00 -0.00000000000E+00 -0.56703604888E+03  0.56703604888E+03  0.00000000000E+00 0. -1.
         23    2    1    2    0    0  0.61982232733E+02 -0.78464260695E+00  0.22372765464E+02  0.11353796045E+03  0.92454934916E+02 0.  0.
    9900016    2    1    2    0    0  0.94831667337E+02  0.76777665837E+01 -0.10515981275E+03  0.73332244293E+03  0.71947983006E+03 0.  0.
         23    2    4    4    0    0 -0.25366672864E+03 -0.74869080519E+02 -0.22086776557E+03  0.35695368186E+03  0.93172810881E+02 0.  0.
        -15    1    3    3    0    0  0.16513672918E+02 -0.25692629241E+02 -0.27867194520E+02  0.41344807666E+02  0.00000000000E+00 0.  1.
        -15    1    5    5    0    0 -0.18783768180E+03 -0.82862132050E+02 -0.12492169500E+03  0.24032177911E+03  0.00000000000E+00 0. -1.
         15    1    3    3    0    0  0.45468559815E+02  0.24907986634E+02  0.50239959985E+02  0.72193152785E+02  0.00000000000E+00 0. -1.
         15    1    5    5    0    0 -0.65829046835E+02  0.79930515308E+01 -0.95946070578E+02  0.11663190275E+03  0.00000000000E+00 0.  1.
        -16    1    4    4    0    0  0.34849839597E+03  0.82546847103E+02  0.11570795283E+03  0.37636876107E+03  0.00000000000E+00 0.  1.
         16    1    1    2    0    0  0.10174132007E+03  0.15992100500E+03  0.38137034513E+02  0.19334026340E+03  0.00000000000E+00 0. -1.
    9900018    1    1    2    0    0 -0.25855522014E+03 -0.16681412898E+03  0.10216099976E+04  0.10708314158E+04  0.91187600000E+02 0.  0.
<mgrwt>
<rscale>  0 0.88059365E+03</rscale>
<asrwt>0</asrwt>
<pdfrwt beam="1">  1        1 0.87236316E-01 0.17546356E+04</pdfrwt>
<pdfrwt beam="2">  1       -1 0.23753785E+00 0.17546356E+04</pdfrwt>
<totfact> 0.29530352E+00</totfact>
</mgrwt>
</event>
<event>
12    1  0.4714907E-010  0.1817965E+04  0.7818608E-02  0.9232372E-01
          1   -1    0    0  501    0  0.00000000000E+00  0.00000000000E+00  0.21835495547E+04  0.21835495547E+04  0.00000000000E+00 0.  1.
         -1   -1    0    0    0  501 -0.00000000000E+00 -0.00000000000E+00 -0.49536540972E+03  0.49536540972E+03  0.00000000000E+00 0. -1.
         23    2    1    2    0    0 -0.12048885452E+03  0.16051557834E+03  0.37993823694E+03  0.43915919408E+03  0.90691338599E+02 0.  0.
    9900016    2    1    2    0    0 -0.20321274219E+03  0.30324299871E+03  0.13644901734E+04  0.15873228818E+04  0.72422977220E+03 0.  0.
         23    2    4    4    0    0  0.42763852574E+02  0.18278207205E+02 -0.57448659299E+02  0.11639818573E+03  0.89918570052E+02 0.  0.
        -15    1    3    3    0    0 -0.22231836642E+02  0.10501065679E+03  0.19016493581E+03  0.21836711156E+03  0.00000000000E+00 0.  1.
        -15    1    5    5    0    0 -0.23203231193E+02 -0.13337410592E+02 -0.24053580096E+02  0.35984040553E+02  0.00000000000E+00 0. -1.
         15    1    5    5    0    0  0.65967083766E+02  0.31615617798E+02 -0.33395079203E+02  0.80414145175E+02  0.00000000000E+00 0.  1.
         15    1    3    3    0    0 -0.98257017878E+02  0.55504921553E+02  0.18977330113E+03  0.22079208252E+03  0.00000000000E+00 0. -1.
        -16    1    4    4    0    0 -0.24597659477E+03  0.28496479151E+03  0.14219388327E+04  0.14709246961E+04  0.00000000000E+00 0.  1.
         16    1    1    2    0    0 -0.45423723854E+01 -0.19071190692E+03 -0.96872648911E+02  0.21395320679E+03  0.00000000000E+00 0. -1.
    9900018    1    1    2    0    0  0.32824396910E+03 -0.27304667013E+03  0.40628383486E+02  0.43847968169E+03  0.91187600000E+02 0.  0.
<mgrwt>
<rscale>  0 0.10725452E+04</rscale>
<asrwt>0</asrwt>
<pdfrwt beam="1">  1        1 0.33593070E+00 0.18179655E+04</pdfrwt>
<pdfrwt beam="2">  1       -1 0.76210064E-01 0.18179655E+04</pdfrwt>
<totfact> 0.36223223E+00</totfact>
</mgrwt>
</event>
<event>
12    1  0.4714907E-010  0.1240454E+04  0.7818608E-02  0.9792771E-01
         -1   -1    0    0    0  501 -0.00000000000E+00  0.00000000000E+00  0.11809096865E+04  0.11809096865E+04  0.00000000000E+00 0.  1.
          1   -1    0    0  501    0  0.00000000000E+00 -0.00000000000E+00 -0.39627404036E+03  0.39627404036E+03  0.00000000000E+00 0. -1.
         23    2    1    2    0    0  0.26601026828E+02 -0.25873823146E+02 -0.18189613724E+02  0.99599566079E+02  0.90620870462E+02 0.  0.
    9900016    2    1    2    0    0 -0.26383681789E+03 -0.21054043291E+03  0.29490207359E+03  0.84563563061E+03  0.71707408710E+03 0.  0.
         23    2    4    4    0    0 -0.19280771093E+03 -0.24620227404E+03 -0.17455266431E+03  0.36950051126E+03  0.90948458274E+02 0.  0.
        -15    1    5    5    0    0 -0.14350432122E+03 -0.11251838962E+03 -0.11101138292E+03  0.21348865392E+03  0.00000000000E+00 0.  1.
        -15    1    3    3    0    0  0.87176037549E+01  0.18962424541E+02  0.26558685783E+02  0.33777713810E+02  0.00000000000E+00 0.  1.
         15    1    3    3    0    0  0.17883423073E+02 -0.44836247687E+02 -0.44748299507E+02  0.65821852269E+02  0.00000000000E+00 0. -1.
         15    1    5    5    0    0 -0.49303389711E+02 -0.13368388442E+03 -0.63541281386E+02  0.15601185734E+03  0.00000000000E+00 0. -1.
        -16    1    4    4    0    0 -0.71029106957E+02  0.35661841130E+02  0.46945473790E+03  0.47613511935E+03  0.00000000000E+00 0.  1.
         16    1    1    2    0    0  0.36207096904E+02  0.35774502414E+02  0.10553029252E+02  0.51982067250E+02  0.00000000000E+00 0. -1.
    9900018    1    1    2    0    0  0.20102869416E+03  0.20063975364E+03  0.49737015700E+03  0.57996646289E+03  0.91187600000E+02 0.  0.
<mgrwt>
<rscale>  0 0.65751915E+03</rscale>
<asrwt>0</asrwt>
<pdfrwt beam="1">  1        1 0.60965237E-01 0.12404542E+04</pdfrwt>
<pdfrwt beam="2">  1       -1 0.18167841E+00 0.12404542E+04</pdfrwt>
<totfact> 0.12119140E+01</totfact>
</mgrwt>
</event>
<event>
12    1  0.4714907E-010  0.1864785E+04  0.7818608E-02  0.9219500E-01
          5   -1    0    0  501    0  0.00000000000E+00  0.00000000000E+00  0.84615117278E+03  0.84615117278E+03  0.00000000000E+00 0. -1.
         -5   -1    0    0    0  501 -0.00000000000E+00 -0.00000000000E+00 -0.12886490222E+04  0.12886490222E+04  0.00000000000E+00 0.  1.
         23    2    1    2    0    0  0.18816714353E+02  0.19166121049E+03  0.15416187411E+02  0.21461561299E+03  0.93456482704E+02 0.  0.
    9900016    2    1    2    0    0  0.38596940330E+03  0.34208040445E+03 -0.46763627548E+03  0.99932784377E+03  0.71692473091E+03 0.  0.
         23    2    4    4    0    0  0.31211768974E+03  0.83390532995E+02 -0.60878729645E+03  0.69552176103E+03  0.93579455530E+02 0.  0.
        -15    1    5    5    0    0  0.22972464106E+03  0.20964698731E+02 -0.38127961970E+03  0.44563110046E+03  0.00000000000E+00 0. -1.
        -15    1    3    3    0    0 -0.43289740409E+01  0.89021836718E+02  0.52039455820E+02  0.10320723032E+03  0.00000000000E+00 0. -1.
         15    1    5    5    0    0  0.82393048681E+02  0.62425834264E+02 -0.22750767676E+03  0.24989066056E+03  0.00000000000E+00 0.  1.
         15    1    3    3    0    0  0.23145688394E+02  0.10263937377E+03 -0.36623268410E+02  0.11140838267E+03  0.00000000000E+00 0.  1.
        -16    1    4    4    0    0  0.73851713553E+02  0.25868987146E+03  0.14115102097E+03  0.30380608274E+03  0.00000000000E+00 0.  1.
         16    1    1    2    0    0 -0.31383015651E+03 -0.59979304012E+03  0.17695669387E+03  0.69968187744E+03  0.00000000000E+00 0. -1.
    9900018    1    1    2    0    0 -0.90955961142E+02  0.66051425181E+02 -0.16723445523E+03  0.22117486079E+03  0.91187600000E+02 0.  0.
<mgrwt>
<rscale>  0 0.10854407E+04</rscale>
<asrwt>0</asrwt>
<pdfrwt beam="1">  1        5 0.13017710E+00 0.18647851E+04</pdfrwt>
<pdfrwt beam="2">  1       -5 0.19825369E+00 0.18647851E+04</pdfrwt>
<totfact> 0.41454495E-02</totfact>
</mgrwt>
</event>
<event>
12    1  0.4714907E-010  0.1546189E+04  0.7818608E-02  0.9579207E-01
          1   -1    0    0  501    0  0.00000000000E+00  0.00000000000E+00  0.44615953392E+04  0.44615953392E+04  0.00000000000E+00 0. -1.
         -1   -1    0    0    0  501 -0.00000000000E+00 -0.00000000000E+00 -0.15264361854E+03  0.15264361854E+03  0.00000000000E+00 0.  1.
         23    2    1    2    0    0  0.49818380466E+02 -0.12453273442E+02  0.30222895646E+03  0.31952956106E+03  0.90110172663E+02 0.  0.
    9900016    2    1    2    0    0 -0.82394619352E+02 -0.15608910691E+03  0.30924004215E+04  0.31765548777E+04  0.70456216283E+03 0.  0.
         23    2    4    4    0    0 -0.36710792412E+03 -0.18119558913E+03  0.22005522165E+04  0.22400265961E+04  0.87687081789E+02 0.  0.
        -15    1    3    3    0    0  0.73877949759E+02  0.47732685759E+01  0.22189313101E+03  0.23391728697E+03  0.00000000000E+00 0. -1.
        -15    1    5    5    0    0 -0.30197896333E+03 -0.17877447211E+03  0.19372188770E+04  0.19687479736E+04  0.00000000000E+00 0.  1.
         15    1    5    5    0    0 -0.65128960788E+02 -0.24211170224E+01  0.26333333946E+03  0.27127862248E+03  0.00000000000E+00 0. -1.
         15    1    3    3    0    0 -0.24059569293E+02 -0.17226542018E+02  0.80335825446E+02  0.85612274088E+02  0.00000000000E+00 0.  1.
        -16    1    4    4    0    0  0.28471330477E+03  0.25106482220E+02  0.89184820506E+03  0.93652828160E+03  0.00000000000E+00 0.  1.
         16    1    1    2    0    0 -0.66180586363E+02  0.30118226865E+03  0.87159760738E+03  0.92453935457E+03  0.00000000000E+00 0. -1.
    9900018    1    1    2    0    0  0.98756825248E+02 -0.13263988829E+03  0.42724735303E+02  0.19361516444E+03  0.91187600000E+02 0.  0.
<mgrwt>
<rscale>  0 0.78687797E+03</rscale>
<asrwt>0</asrwt>
<pdfrwt beam="1">  1        1 0.68639918E+00 0.15461893E+04</pdfrwt>
<pdfrwt beam="2">  1       -1 0.23483637E-01 0.15461893E+04</pdfrwt>
<totfact> 0.54348227E-01</totfact>
</mgrwt>
</event>
<event>
12    1  0.4714908E-010  0.1621969E+04  0.7818608E-02  0.9398357E-01
          1   -1    0    0  501    0  0.00000000000E+00  0.00000000000E+00  0.24425642288E+04  0.24425642288E+04  0.00000000000E+00 0. -1.
         -1   -1    0    0    0  501 -0.00000000000E+00 -0.00000000000E+00 -0.33041654801E+03  0.33041654801E+03  0.00000000000E+00 0.  1.
         23    2    1    2    0    0  0.79102728474E+02 -0.11837526231E+03  0.14203092267E+03  0.22109079485E+03  0.91860830580E+02 0.  0.
    9900016    2    1    2    0    0  0.26058537282E+03  0.29511885638E+03  0.16635551207E+04  0.18573294311E+04  0.72612471409E+03 0.  0.
         23    2    4    4    0    0 -0.88406496825E+02  0.11846586651E+03  0.27866790252E+02  0.17552149974E+03  0.90450918540E+02 0.  0.
        -15    1    5    5    0    0 -0.25054530214E+02  0.73958562907E+02  0.52707454734E+02  0.94210797131E+02  0.00000000000E+00 0.  1.
        -15    1    3    3    0    0  0.80915025195E+02 -0.87484586861E+02  0.14754616901E+03  0.18965934259E+03  0.00000000000E+00 0. -1.
         15    1    3    3    0    0 -0.18122967211E+01 -0.30890675452E+02 -0.55152463439E+01  0.31431452266E+02  0.00000000000E+00 0.  1.
         15    1    5    5    0    0 -0.63351966611E+02  0.44507303600E+02 -0.24840664482E+02  0.81310702612E+02  0.00000000000E+00 0. -1.
        -16    1    1    2    0    0 -0.27184090378E+03  0.99988323976E+02  0.37246605338E+02  0.29203159334E+03  0.00000000000E+00 0.  1.
         16    1    4    4    0    0  0.34899186965E+03  0.17665298988E+03  0.16356883304E+04  0.16818079314E+04  0.00000000000E+00 0. -1.
    9900018    1    1    2    0    0 -0.67847197518E+02 -0.27673191805E+03  0.26931503210E+03  0.40252895745E+03  0.91187600000E+02 0.  0.
<mgrwt>
<rscale>  0 0.92211034E+03</rscale>
<asrwt>0</asrwt>
<pdfrwt beam="1">  1        1 0.37577910E+00 0.16219687E+04</pdfrwt>
<pdfrwt beam="2">  1       -1 0.50833317E-01 0.16219687E+04</pdfrwt>
<totfact> 0.55256790E+00</totfact>
</mgrwt>
</event>
<event>
12    1  0.4714907E-010  0.1680345E+04  0.7818608E-02  0.9237731E-01
          2   -1    0    0  501    0  0.00000000000E+00  0.00000000000E+00  0.98136298197E+03  0.98136298197E+03  0.00000000000E+00 0. -1.
         -2   -1    0    0    0  501 -0.00000000000E+00 -0.00000000000E+00 -0.97256597279E+03  0.97256597279E+03  0.00000000000E+00 0.  1.
         23    2    1    2    0    0  0.25676993915E+03  0.21049186404E+02  0.92678775141E+01  0.27358394185E+03  0.91588262284E+02 0.  0.
    9900016    2    1    2    0    0 -0.27481809251E+03  0.37402370010E+03  0.22115069268E+03  0.87767540450E+03  0.71132817644E+03 0.  0.
         23    2    4    4    0    0 -0.41609131538E+02 -0.18061427065E+03 -0.57809040329E+02  0.21447993504E+03  0.91142321684E+02 0.  0.
        -15    1    5    5    0    0  0.26556081800E+02 -0.78755603472E+02 -0.33041802397E+02  0.89439539715E+02  0.00000000000E+00 0.  1.
        -15    1    3    3    0    0  0.21134414071E+03 -0.78488209658E+01  0.34226490475E+02  0.21424145830E+03  0.00000000000E+00 0. -1.
         15    1    3    3    0    0  0.45425798438E+02  0.28898007370E+02 -0.24958612961E+02  0.59342483556E+02  0.00000000000E+00 0.  1.
         15    1    5    5    0    0 -0.68165213338E+02 -0.10185866718E+03 -0.24767237932E+02  0.12504039533E+03  0.00000000000E+00 0. -1.
        -16    1    4    4    0    0 -0.23320896097E+03  0.55463797075E+03  0.27895973300E+03  0.66319546946E+03  0.00000000000E+00 0.  1.
         16    1    1    2    0    0 -0.17519227406E+02 -0.56277305201E+03 -0.23024648479E+03  0.60830409760E+03  0.00000000000E+00 0. -1.
    9900018    1    1    2    0    0  0.35567380767E+02  0.16770016551E+03  0.86249237862E+01  0.19436551081E+03  0.91187600000E+02 0.  0.
<mgrwt>
<rscale>  0 0.10672328E+04</rscale>
<asrwt>0</asrwt>
<pdfrwt beam="1">  1        2 0.15097892E+00 0.16803449E+04</pdfrwt>
<pdfrwt beam="2">  1       -2 0.14962553E+00 0.16803449E+04</pdfrwt>
<totfact> 0.73831837E+00</totfact>
</mgrwt>
</event>
<event>
12    1  0.4714907E-010  0.2194746E+04  0.7818608E-02  0.9287534E-01
         -2   -1    0    0    0  501 -0.00000000000E+00  0.00000000000E+00  0.79683544908E+03  0.79683544908E+03  0.00000000000E+00 0.  1.
          2   -1    0    0  501    0  0.00000000000E+00 -0.00000000000E+00 -0.17325583132E+04  0.17325583132E+04  0.00000000000E+00 0. -1.
         23    2    1    2    0    0 -0.37810004508E+02 -0.84856775722E+01 -0.18223573546E+03  0.20890858392E+03  0.94505714066E+02 0.  0.
    9900016    2    1    2    0    0 -0.50468818876E+03 -0.46647415198E+03 -0.79570162409E+03  0.12594027004E+04  0.69328622145E+03 0.  0.
         23    2    4    4    0    0 -0.24947312004E+03  0.14717627553E+03 -0.17892978943E+03  0.35270039285E+03  0.92108652519E+02 0.  0.
        -15    1    5    5    0    0 -0.15926099168E+03  0.40862870162E+02 -0.92454002129E+02  0.18863080379E+03  0.00000000000E+00 0. -1.
        -15    1    3    3    0    0 -0.98165863413E+01  0.29930922670E+02 -0.14701331828E+02  0.34761396071E+02  0.00000000000E+00 0. -1.
         15    1    3    3    0    0 -0.27993418167E+02 -0.38416600242E+02 -0.16753440363E+03  0.17414718785E+03  0.00000000000E+00 0.  1.
         15    1    5    5    0    0 -0.90212128357E+02  0.10631340537E+03 -0.86475787303E+02  0.16406958906E+03  0.00000000000E+00 0.  1.
        -16    1    1    2    0    0  0.68266534645E+03  0.48732559010E+03  0.16297609181E+03  0.85444684593E+03  0.00000000000E+00 0.  1.
         16    1    4    4    0    0 -0.25521506872E+03 -0.61365042751E+03 -0.61677183466E+03  0.90670230755E+03  0.00000000000E+00 0. -1.
    9900018    1    1    2    0    0 -0.14016715318E+03 -0.12365760547E+02 -0.12076159633E+03  0.20663563199E+03  0.91187600000E+02 0.  0.
<mgrwt>
<rscale>  0 0.10193867E+04</rscale>
<asrwt>0</asrwt>
<pdfrwt beam="1">  1        2 0.26654743E+00 0.21947457E+04</pdfrwt>
<pdfrwt beam="2">  1       -2 0.12259007E+00 0.21947457E+04</pdfrwt>
<totfact> 0.43092026E+00</totfact>
</mgrwt>
</event>
<event>
12    1  0.4714907E-010  0.1798614E+04  0.7818608E-02  0.9095118E-01
          1   -1    0    0  501    0  0.00000000000E+00  0.00000000000E+00  0.21162413286E+04  0.21162413286E+04  0.00000000000E+00 0. -1.
         -1   -1    0    0    0  501 -0.00000000000E+00 -0.00000000000E+00 -0.57055920419E+03  0.57055920419E+03  0.00000000000E+00 0.  1.
         23    2    1    2    0    0 -0.32877062469E+03  0.17061633906E+03  0.14832402336E+03  0.40916542398E+03  0.90643639914E+02 0.  0.
    9900016    2    1    2    0    0  0.33708234163E+03  0.23946499733E+03  0.99993262859E+03  0.13047616911E+04  0.72908834776E+03 0.  0.
         23    2    4    4    0    0  0.30543130812E+03  0.44437937986E+01  0.10181082133E+04  0.10669232882E+04  0.92048561194E+02 0.  0.
        -15    1    5    5    0    0  0.55720390371E+02  0.36657603600E+02  0.18865513840E+03  0.20009823350E+03  0.00000000000E+00 0.  1.
        -15    1    3    3    0    0 -0.12402197839E+03  0.42844254197E+02  0.11459266286E+02  0.13171330998E+03  0.00000000000E+00 0.  1.
         15    1    3    3    0    0 -0.20474864630E+03  0.12777208487E+03  0.13686475707E+03  0.27745211400E+03  0.00000000000E+00 0. -1.
         15    1    5    5    0    0  0.24971091775E+03 -0.32213809802E+02  0.82945307487E+03  0.86682505467E+03  0.00000000000E+00 0. -1.
        -16    1    4    4    0    0  0.31651033506E+02  0.23502120353E+03 -0.18175584674E+02  0.23783840293E+03  0.00000000000E+00 0.  1.
         16    1    1    2    0    0 -0.39599584500E+02 -0.54732124383E+03  0.52708181184E+03  0.76088363592E+03  0.00000000000E+00 0. -1.
    9900018    1    1    2    0    0  0.31287867566E+02  0.13723990744E+03 -0.12965633938E+03  0.21198978179E+03  0.91187600000E+02 0.  0.
<mgrwt>
<rscale>  0 0.12204784E+04</rscale>
<asrwt>0</asrwt>
<pdfrwt beam="1">  1        1 0.32557559E+00 0.17986139E+04</pdfrwt>
<pdfrwt beam="2">  1       -1 0.87778340E-01 0.17986139E+04</pdfrwt>
<totfact> 0.29679286E+00</totfact>
</mgrwt>
</event>
<event>
12    1  0.4714907E-010  0.1820203E+04  0.7818608E-02  0.9390270E-01
         -1   -1    0    0    0  501 -0.00000000000E+00  0.00000000000E+00  0.52495494773E+03  0.52495494773E+03  0.00000000000E+00 0.  1.
          1   -1    0    0  501    0  0.00000000000E+00 -0.00000000000E+00 -0.18734923040E+04  0.18734923040E+04  0.00000000000E+00 0. -1.
         23    2    1    2    0    0 -0.75879185952E+02 -0.33676324751E+02  0.14785620258E+02  0.12429080978E+03  0.91311801653E+02 0.  0.
    9900016    2    1    2    0    0  0.25886337690E+03  0.42940500776E+03 -0.66846909764E+02  0.85735635248E+03  0.69223731278E+03 0.  0.
         23    2    4    4    0    0  0.29012035217E+03 -0.70280331655E+02  0.10219998856E+03  0.32892538181E+03  0.92940439917E+02 0.  0.
        -15    1    5    5    0    0  0.99800740072E+02 -0.18785389354E+02  0.82386349250E+02  0.13076922082E+03  0.00000000000E+00 0.  1.
        -15    1    3    3    0    0 -0.26783227919E+02 -0.21086181356E+01  0.49541787554E+02  0.56357575199E+02  0.00000000000E+00 0.  1.
         15    1    3    3    0    0 -0.49095958033E+02 -0.31567706616E+02 -0.34756167297E+02  0.67933234586E+02  0.00000000000E+00 0. -1.
         15    1    5    5    0    0  0.19031961210E+03 -0.51494942300E+02  0.19813639314E+02  0.19815616098E+03  0.00000000000E+00 0. -1.
        -16    1    4    4    0    0 -0.31256975273E+02  0.49968533941E+03 -0.16904689833E+03  0.52843097067E+03  0.00000000000E+00 0.  1.
         16    1    1    2    0    0  0.12235211870E+02 -0.31452543506E+03 -0.95000941301E+03  0.10007966000E+04  0.00000000000E+00 0. -1.
    9900018    1    1    2    0    0 -0.19521940282E+03 -0.81203247946E+02 -0.34646665377E+03  0.41600348951E+03  0.91187600000E+02 0.  0.
<mgrwt>
<rscale>  0 0.92880779E+03</rscale>
<asrwt>0</asrwt>
<pdfrwt beam="1">  1        1 0.28822959E+00 0.18202027E+04</pdfrwt>
<pdfrwt beam="2">  1       -1 0.80762299E-01 0.18202027E+04</pdfrwt>
<totfact> 0.52093812E+00</totfact>
</mgrwt>
</event>
<event>
12    1  0.4714907E-010  0.1596500E+04  0.7818608E-02  0.9183369E-01
          1   -1    0    0  501    0  0.00000000000E+00  0.00000000000E+00  0.11139539914E+04  0.11139539914E+04  0.00000000000E+00 0. -1.
         -1   -1    0    0    0  501 -0.00000000000E+00 -0.00000000000E+00 -0.93240911854E+03  0.93240911854E+03  0.00000000000E+00 0.  1.
         23    2    1    2    0    0  0.34406417281E+03 -0.16120246819E+03 -0.14564172349E+03  0.41668145698E+03  0.89696901850E+02 0.  0.
    9900016    2    1    2    0    0 -0.30844300491E+03 -0.34812977152E+02  0.17020401930E+02  0.78188884980E+03  0.71743393334E+03 0.  0.
         23    2    4    4    0    0 -0.44014527301E+03  0.35533786533E+02  0.24211466029E+03  0.51177483733E+03  0.91123345308E+02 0.  0.
        -15    1    5    5    0    0 -0.20425333369E+03 -0.82502629396E+01  0.68371897587E+02  0.21555093955E+03  0.00000000000E+00 0. -1.
        -15    1    3    3    0    0  0.56410209144E+02 -0.47925246066E+02 -0.61622178344E+02  0.96313206623E+02  0.00000000000E+00 0.  1.
         15    1    5    5    0    0 -0.23589193932E+03  0.43784049472E+02  0.17374276270E+03  0.29622389778E+03  0.00000000000E+00 0.  1.
         15    1    3    3    0    0  0.28765396367E+03 -0.11327722212E+03 -0.84019545143E+02  0.32036825035E+03  0.00000000000E+00 0. -1.
        -16    1    4    4    0    0  0.13170226811E+03 -0.70346763685E+02 -0.22509425836E+03  0.27011401247E+03  0.00000000000E+00 0.  1.
         16    1    1    2    0    0 -0.31196168320E+02  0.24943076172E+03  0.53952952952E+03  0.59521510316E+03  0.00000000000E+00 0. -1.
    9900018    1    1    2    0    0 -0.44249995885E+01 -0.53415316378E+02 -0.22936333511E+03  0.25257769999E+03  0.91187600000E+02 0.  0.
<mgrwt>
<rscale>  0 0.11226749E+04</rscale>
<asrwt>0</asrwt>
<pdfrwt beam="1">  1        1 0.17137754E+00 0.15964997E+04</pdfrwt>
<pdfrwt beam="2">  1       -1 0.14344756E+00 0.15964997E+04</pdfrwt>
<totfact> 0.46244817E+00</totfact>
</mgrwt>
</event>
<event>
12    1  0.4714907E-010  0.3017816E+04  0.7818608E-02  0.8860722E-01
          2   -1    0    0  501    0  0.00000000000E+00  0.00000000000E+00  0.20743307329E+04  0.20743307329E+04  0.00000000000E+00 0. -1.
         -2   -1    0    0    0  501 -0.00000000000E+00 -0.00000000000E+00 -0.13350615289E+04  0.13350615289E+04  0.00000000000E+00 0.  1.
         23    2    1    2    0    0 -0.17240883701E+03  0.54596553252E+02  0.29669988775E+03  0.35929690210E+03  0.91421276297E+02 0.  0.
    9900016    2    1    2    0    0 -0.25013448183E+03  0.11575706680E+03  0.51836671463E+03  0.91735713531E+03  0.70489226507E+03 0.  0.
         23    2    4    4    0    0 -0.48982833402E+03  0.13284740584E+03  0.34594712168E+03  0.62159753953E+03  0.95518899160E+02 0.  0.
        -15    1    3    3    0    0 -0.63973352762E+02 -0.19082756677E+02  0.13915534299E+03  0.15434037368E+03  0.00000000000E+00 0.  1.
        -15    1    5    5    0    0 -0.35887444446E+03  0.78789596467E+02  0.29447080350E+03  0.47086274169E+03  0.00000000000E+00 0.  1.
         15    1    3    3    0    0 -0.10843548425E+03  0.73679309929E+02  0.15754454476E+03  0.20495652841E+03  0.00000000000E+00 0. -1.
         15    1    5    5    0    0 -0.13095388956E+03  0.54057809372E+02  0.51476318184E+02  0.15073479784E+03  0.00000000000E+00 0. -1.
        -16    1    1    2    0    0  0.92318452602E+03 -0.58785350331E+03 -0.63822223741E+03  0.12669526569E+04  0.00000000000E+00 0.  1.
         16    1    4    4    0    0  0.23969385219E+03 -0.17090339044E+02  0.17241959295E+03  0.29575959578E+03  0.00000000000E+00 0. -1.
    9900018    1    1    2    0    0 -0.50064120717E+03  0.41749988326E+03  0.56242483906E+03  0.86578556747E+03  0.91187600000E+02 0.  0.
<mgrwt>
<rscale>  0 0.15362132E+04</rscale>
<asrwt>0</asrwt>
<pdfrwt beam="1">  1        2 0.31912780E+00 0.30178161E+04</pdfrwt>
<pdfrwt beam="2">  1       -2 0.20539408E+00 0.30178161E+04</pdfrwt>
<totfact> 0.62964841E-01</totfact>
</mgrwt>
</event>
<event>
12    1  0.4714907E-010  0.1559301E+04  0.7818608E-02  0.9296605E-01
         -2   -1    0    0    0  501 -0.00000000000E+00  0.00000000000E+00  0.39686007705E+03  0.39686007705E+03  0.00000000000E+00 0.  1.
          2   -1    0    0  501    0  0.00000000000E+00 -0.00000000000E+00 -0.22053688436E+04  0.22053688436E+04  0.00000000000E+00 0. -1.
         23    2    1    2    0    0  0.21610634609E+03 -0.14461875115E+03 -0.48126170534E+03  0.55454617563E+03  0.91060945892E+02 0.  0.
    9900016    2    1    2    0    0  0.39810802778E+02  0.18847679112E+03 -0.20334091782E+03  0.75904865325E+03  0.70547780145E+03 0.  0.
         23    2    4    4    0    0 -0.29508632408E+03  0.11155278854E+03  0.48194069542E+02  0.33320450615E+03  0.95825942677E+02 0.  0.
        -15    1    5    5    0    0 -0.74506739400E+02 -0.41596505677E+01 -0.15247366937E+02  0.76164552828E+02  0.00000000000E+00 0.  1.
        -15    1    3    3    0    0  0.10551715380E+03 -0.44296502090E+02 -0.29098294354E+03  0.31267734692E+03  0.00000000000E+00 0. -1.
         15    1    3    3    0    0  0.11058919228E+03 -0.10032224906E+03 -0.19027876180E+03  0.24186882871E+03  0.00000000000E+00 0.  1.
         15    1    5    5    0    0 -0.22057958468E+03  0.11571243911E+03  0.63441436478E+02  0.25703995333E+03  0.00000000000E+00 0. -1.
        -16    1    1    2    0    0 -0.82084016587E+02  0.24546512503E+03 -0.65061573875E+03  0.70020836391E+03  0.00000000000E+00 0.  1.
         16    1    4    4    0    0  0.33489712686E+03  0.76924002581E+02 -0.25153498736E+03  0.42584414710E+03  0.00000000000E+00 0. -1.
    9900018    1    1    2    0    0 -0.17383313228E+03 -0.28932316500E+03 -0.47329040461E+03  0.58842572783E+03  0.91187600000E+02 0.  0.
<mgrwt>
<rscale>  0 0.10109598E+04</rscale>
<asrwt>0</asrwt>
<pdfrwt beam="1">  1        2 0.33928751E+00 0.15593011E+04</pdfrwt>
<pdfrwt beam="2">  1       -2 0.61055397E-01 0.15593011E+04</pdfrwt>
<totfact> 0.12259986E+01</totfact>
</mgrwt>
</event>
<event>
12    1  0.4714907E-010  0.1121101E+04  0.7818608E-02  0.9896861E-01
         -3   -1    0    0    0  501 -0.00000000000E+00  0.00000000000E+00  0.57969130391E+03  0.57969130391E+03  0.00000000000E+00 0.  1.
          3   -1    0    0  501    0  0.00000000000E+00 -0.00000000000E+00 -0.95732230696E+03  0.95732230696E+03  0.00000000000E+00 0. -1.
         23    2    1    2    0    0 -0.13935267407E+01  0.27494345577E+01  0.23935584311E+03  0.25734928714E+03  0.94487748696E+02 0.  0.
    9900016    2    1    2    0    0  0.45274666008E+02  0.21118290251E+03 -0.57589969690E+03  0.93101997915E+03  0.69892040104E+03 0.  0.
         23    2    4    4    0    0 -0.39394010693E+02  0.44519104882E+03 -0.48548050494E+03  0.66624794962E+03  0.91913283383E+02 0.  0.
        -15    1    5    5    0    0  0.31794125739E+00  0.22477469599E+03 -0.30348860085E+03  0.37766267474E+03  0.00000000000E+00 0.  1.
        -15    1    3    3    0    0  0.16870382635E+02  0.41874475489E+02  0.76130048559E+02  0.88509128350E+02  0.00000000000E+00 0. -1.
         15    1    3    3    0    0 -0.18263909376E+02 -0.39125040931E+02  0.16322579455E+03  0.16884015879E+03  0.00000000000E+00 0.  1.
         15    1    5    5    0    0 -0.39711951951E+02  0.22041635282E+03 -0.18199190409E+03  0.28858527488E+03  0.00000000000E+00 0. -1.
        -16    1    1    2    0    0 -0.39383462942E+01 -0.18459021269E+03  0.69225569186E+02  0.19718325645E+03  0.00000000000E+00 0.  1.
         16    1    4    4    0    0  0.84668676701E+02 -0.23400814630E+03 -0.90419191957E+02  0.26477202954E+03  0.00000000000E+00 0. -1.
    9900018    1    1    2    0    0 -0.39942792973E+02 -0.29342124375E+02 -0.11031271844E+03  0.15146108813E+03  0.91187600000E+02 0.  0.
<mgrwt>
<rscale>  0 0.60413674E+03</rscale>
<asrwt>0</asrwt>
<pdfrwt beam="1">  1        3 0.14728035E+00 0.11211013E+04</pdfrwt>
<pdfrwt beam="2">  1       -3 0.89183278E-01 0.11211013E+04</pdfrwt>
<totfact> 0.98854326E-01</totfact>
</mgrwt>
</event>
<event>
12    1  0.4714907E-010  0.1985571E+04  0.7818608E-02  0.9359606E-01
         -1   -1    0    0    0  501 -0.00000000000E+00  0.00000000000E+00  0.16307067966E+04  0.16307067966E+04  0.00000000000E+00 0.  1.
          1   -1    0    0  501    0  0.00000000000E+00 -0.00000000000E+00 -0.68832740257E+03  0.68832740257E+03  0.00000000000E+00 0. -1.
         23    2    1    2    0    0  0.42814375816E+02  0.31569680440E+02 -0.26908417346E+02  0.10950701539E+03  0.91858630497E+02 0.  0.
    9900016    2    1    2    0    0  0.20774749071E+03  0.38923844885E+02  0.28395043110E+03  0.78444851950E+03  0.70004110367E+03 0.  0.
         23    2    4    4    0    0  0.37140835982E+03  0.88352792194E+02 -0.62768571229E+02  0.39787101436E+03  0.92795823736E+02 0.  0.
        -15    1    3    3    0    0  0.46779438698E+02 -0.22492946816E+02 -0.14579124798E+02  0.53914742151E+02  0.00000000000E+00 0.  1.
        -15    1    5    5    0    0  0.35397073954E+03  0.63452082418E+02 -0.70603636631E+02  0.36647827319E+03  0.00000000000E+00 0. -1.
         15    1    3    3    0    0 -0.39650628828E+01  0.54062627256E+02 -0.12329292549E+02  0.55592273242E+02  0.00000000000E+00 0. -1.
         15    1    5    5    0    0  0.17437620272E+02  0.24900709775E+02  0.78350654021E+01  0.31392741166E+02  0.00000000000E+00 0.  1.
        -16    1    1    2    0    0 -0.27951066303E+03 -0.54566129612E+03  0.71207272870E+03  0.93963824517E+03  0.00000000000E+00 0.  1.
         16    1    4    4    0    0 -0.16366086911E+03 -0.49428947309E+02  0.34671900233E+03  0.38657750514E+03  0.00000000000E+00 0. -1.
    9900018    1    1    2    0    0  0.28948796508E+02  0.47516777080E+03 -0.26735348438E+02  0.48544041908E+03  0.91187600000E+02 0.  0.
<mgrwt>
<rscale>  0 0.95475856E+03</rscale>
<asrwt>0</asrwt>
<pdfrwt beam="1">  1        1 0.10589652E+00 0.19855708E+04</pdfrwt>
<pdfrwt beam="2">  1       -1 0.25087797E+00 0.19855708E+04</pdfrwt>
<totfact> 0.17796737E+00</totfact>
</mgrwt>
</event>
<event>
12    1  0.4714907E-010  0.1502142E+04  0.7818608E-02  0.9623606E-01
          1   -1    0    0  501    0  0.00000000000E+00  0.00000000000E+00  0.66960451834E+03  0.66960451834E+03  0.00000000000E+00 0. -1.
         -1   -1    0    0    0  501 -0.00000000000E+00 -0.00000000000E+00 -0.98720708409E+03  0.98720708409E+03  0.00000000000E+00 0.  1.
         23    2    1    2    0    0 -0.24648370168E+02 -0.19864388811E+02 -0.99240142650E+02  0.13888142053E+03  0.91854814570E+02 0.  0.
    9900016    2    1    2    0    0  0.22260376750E+03  0.98105634117E+02 -0.29936792020E+03  0.81021785239E+03  0.71249888698E+03 0.  0.
         23    2    4    4    0    0 -0.15054012847E+03 -0.19930859519E+03 -0.49239796988E+02  0.27146404135E+03  0.94243948015E+02 0.  0.
        -15    1    5    5    0    0 -0.16277833386E+03 -0.17168655032E+03 -0.40632775255E+02  0.24005016134E+03  0.00000000000E+00 0.  1.
        -15    1    3    3    0    0 -0.53115919434E+02 -0.35648676304E+02 -0.73069926129E+02  0.97115102451E+02  0.00000000000E+00 0. -1.
         15    1    3    3    0    0  0.28467549266E+02  0.15784287493E+02 -0.26170216521E+02  0.41766318076E+02  0.00000000000E+00 0.  1.
         15    1    5    5    0    0  0.12238205383E+02 -0.27622044872E+02 -0.86070217335E+01  0.31413880006E+02  0.00000000000E+00 0. -1.
        -16    1    4    4    0    0  0.37314389597E+03  0.29741422931E+03 -0.25012812321E+03  0.53875381105E+03  0.00000000000E+00 0.  1.
         16    1    1    2    0    0 -0.18913350936E+02 -0.26849030577E+03  0.26316385419E+03  0.37643056902E+03  0.00000000000E+00 0. -1.
    9900018    1    1    2    0    0 -0.17904204640E+03  0.19024906046E+03 -0.18215835710E+03  0.33128176050E+03  0.91187600000E+02 0.  0.
<mgrwt>
<rscale>  0 0.75753288E+03</rscale>
<asrwt>0</asrwt>
<pdfrwt beam="1">  1        1 0.10301608E+00 0.15021418E+04</pdfrwt>
<pdfrwt beam="2">  1       -1 0.15187801E+00 0.15021418E+04</pdfrwt>
<totfact> 0.94809502E+00</totfact>
</mgrwt>
</event>
<event>
12    1  0.4714907E-010  0.1383383E+04  0.7818608E-02  0.9587850E-01
          1   -1    0    0  501    0  0.00000000000E+00  0.00000000000E+00  0.13162776907E+04  0.13162776907E+04  0.00000000000E+00 0. -1.
         -1   -1    0    0    0  501 -0.00000000000E+00 -0.00000000000E+00 -0.44159558855E+03  0.44159558855E+03  0.00000000000E+00 0.  1.
         23    2    1    2    0    0 -0.79077523946E+02 -0.56564265405E+02  0.64027728028E+02  0.15446742754E+03  0.10152765781E+03 0.  0.
    9900016    2    1    2    0    0  0.17822421190E+01 -0.11019418738E+03  0.51648855154E+03  0.87619633109E+03  0.69915209463E+03 0.  0.
         23    2    4    4    0    0  0.27946687184E+03 -0.26958403737E+02  0.12736433392E+02  0.29498798136E+03  0.89594667381E+02 0.  0.
        -15    1    3    3    0    0 -0.42412943676E+02 -0.36819112981E+02 -0.20861398609E+02  0.59914128750E+02  0.00000000000E+00 0.  1.
        -15    1    5    5    0    0  0.26813583226E+03 -0.34987872077E+02 -0.74197906728E+01  0.27051068191E+03  0.00000000000E+00 0. -1.
         15    1    5    5    0    0  0.11331039580E+02  0.80294683396E+01  0.20156224064E+02  0.24477299449E+02  0.00000000000E+00 0.  1.
         15    1    3    3    0    0 -0.36664580271E+02 -0.19745152424E+02  0.84889126638E+02  0.94553298789E+02  0.00000000000E+00 0. -1.
        -16    1    4    4    0    0 -0.27768462972E+03 -0.83235783640E+02  0.50375211815E+03  0.58120834973E+03  0.00000000000E+00 0.  1.
         16    1    1    2    0    0 -0.26886306018E+03  0.12721672107E+03  0.79268695082E+02  0.30782294468E+03  0.00000000000E+00 0. -1.
    9900018    1    1    2    0    0  0.34615834201E+03  0.39541731715E+02  0.21489712754E+03  0.41938657597E+03  0.91187600000E+02 0.  0.
<mgrwt>
<rscale>  0 0.78105578E+03</rscale>
<asrwt>0</asrwt>
<pdfrwt beam="1">  1        1 0.20250426E+00 0.13833835E+04</pdfrwt>
<pdfrwt beam="2">  1       -1 0.67937783E-01 0.13833835E+04</pdfrwt>
<totfact> 0.18820776E+01</totfact>
</mgrwt>
</event>
