<event>
12    1  0.1200672E-010  0.1745731E+04  0.7818608E-02  0.8735704E-01
         -3   -1    0    0    0  501 -0.00000000000E+00  0.00000000000E+00  0.77314816727E+03  0.77314816727E+03  0.00000000000E+00 0.  1.
          3   -1    0    0  501    0  0.00000000000E+00 -0.00000000000E+00 -0.98544356688E+03  0.98544356688E+03  0.00000000000E+00 0. -1.
    9900016    2    1    2    0    0 -0.91155828939E+02  0.29187778950E+03 -0.55896922384E+03  0.98276129804E+03  0.74824537858E+03 0.  0.
         23    2    3    3    0    0 -0.49513736262E+02  0.21255965424E+03 -0.71126401056E+02  0.24214048771E+03  0.77070319663E+02 0.  0.
         23    2    3    3    0    0  0.46381099066E+02  0.21395013994E+03 -0.52421554838E+03  0.57570618352E+03  0.93326308465E+02 0.  0.
        -15    1    4    4    0    0 -0.66546395605E+02  0.19731798704E+03 -0.68069288452E+02  0.21908043912E+03  0.00000000000E+00 0.  1.
        -15    1    5    5    0    0 -0.22062731296E+02  0.10693342716E+03 -0.20770622523E+03  0.23465591395E+03  0.00000000000E+00 0. -1.
         15    1    5    5    0    0  0.68443830362E+02  0.10701671278E+03 -0.31650932315E+03  0.34105026957E+03  0.00000000000E+00 0.  1.
         15    1    4    4    0    0  0.17032659342E+02  0.15241667202E+02 -0.30571126040E+01  0.23060048587E+02  0.00000000000E+00 0. -1.
        -16    1    1    2    0    0  0.77701119133E+02 -0.45858535238E+03  0.35505770068E+03  0.58515293740E+03  0.00000000000E+00 0.  1.
         16    1    3    3    0    0 -0.88023191743E+02 -0.13463200468E+03  0.36372725591E+02  0.16491462681E+03  0.00000000000E+00 0. -1.
    9900018    1    1    2    0    0  0.13454709806E+02  0.16670756289E+03 -0.83838764397E+01  0.19067749872E+03  0.91187600000E+02 0.  0.
<mgrwt>
<rscale>  0 0.17457307E+04</rscale>
<asrwt>0</asrwt>
<pdfrwt beam="1">  1        3 0.15160670E+00 0.17457307E+04</pdfrwt>
<pdfrwt beam="2">  1       -3 0.11894587E+00 0.17457307E+04</pdfrwt>
<totfact> 0.45109161E-01</totfact>
</mgrwt>
</event>
<event>
11    1  0.1200672E-010  0.1841754E+04  0.7818608E-02  0.8684405E-01
         -2   -1    0    0    0  501 -0.00000000000E+00  0.00000000000E+00  0.82172929002E+03  0.82172929002E+03  0.00000000000E+00 0.  1.
          2   -1    0    0  501    0  0.00000000000E+00 -0.00000000000E+00 -0.10319871877E+04  0.10319871877E+04  0.00000000000E+00 0. -1.
    9900016    2    1    2    0    0 -0.61313016954E+03 -0.84108051115E+02 -0.23101474761E+03  0.97064199560E+03  0.71117881082E+03 0.  0.
         23    2    3    3    0    0 -0.36641394042E+03 -0.34450776205E+03 -0.22510771216E+03  0.55861456181E+03  0.91825773907E+02 0.  0.
        -15    1    3    3    0    0 -0.84295953752E+01  0.23947737145E+02 -0.36767206174E+02  0.44680864388E+02  0.00000000000E+00 0.  1.
        -15    1    4    4    0    0 -0.34479076763E+03 -0.33340425245E+03 -0.18994147216E+03  0.51586512951E+03  0.00000000000E+00 0.  1.
         15    1    4    4    0    0 -0.21623172782E+02 -0.11103509595E+02 -0.35166239998E+02  0.42749432302E+02  0.00000000000E+00 0. -1.
         15    1    3    3    0    0 -0.19088521930E+02  0.10103856012E+03 -0.19921144674E+02  0.10473783608E+03  0.00000000000E+00 0. -1.
        -16    1    1    2    0    0  0.18017804332E+03 -0.32826830973E+01  0.30192027695E+03  0.35161165642E+03  0.00000000000E+00 0.  1.
         16    1    3    3    0    0 -0.21919811182E+03  0.13541341366E+03  0.50781315399E+02  0.26260873332E+03  0.00000000000E+00 0. -1.
    9900018    1    1    2    0    0  0.43295212622E+03  0.87390734213E+02 -0.28116342704E+03  0.53146282573E+03  0.91187600000E+02 0.  0.
<mgrwt>
<rscale>  0 0.18417536E+04</rscale>
<asrwt>0</asrwt>
<pdfrwt beam="1">  1        2 0.15876726E+00 0.18417536E+04</pdfrwt>
<pdfrwt beam="2">  1       -2 0.12641989E+00 0.18417536E+04</pdfrwt>
<totfact> 0.10538301E+01</totfact>
</mgrwt>
</event>
<event>
12    1  0.1200672E-010  0.2312374E+04  0.7818608E-02  0.8473058E-01
          1   -1    0    0  501    0  0.00000000000E+00  0.00000000000E+00  0.81707677369E+03  0.81707677369E+03  0.00000000000E+00 0. -1.
         -1   -1    0    0    0  501 -0.00000000000E+00 -0.00000000000E+00 -0.16360372432E+04  0.16360372432E+04  0.00000000000E+00 0.  1.
    9900016    2    1    2    0    0 -0.34363373736E+03  0.11109409436E+03 -0.27725702913E+03  0.84046478303E+03  0.70645845459E+03 0.  0.
         23    2    3    3    0    0 -0.39710348616E+03  0.14019139088E+02 -0.36190064009E+03  0.54275484026E+03  0.75650699561E+02 0.  0.
         23    2    3    3    0    0  0.49612944827E+02  0.10787945550E+03 -0.54877258194E+02  0.15771821054E+03  0.88114126315E+02 0.  0.
        -15    1    4    4    0    0 -0.30241279580E+03  0.38364602235E+02 -0.29561021679E+03  0.42463012380E+03  0.00000000000E+00 0. -1.
        -15    1    5    5    0    0  0.11290983246E+02  0.32836939937E+02 -0.64153347044E+02  0.72947946263E+02  0.00000000000E+00 0.  1.
         15    1    4    4    0    0 -0.94690690364E+02 -0.24345463147E+02 -0.66290423302E+02  0.11812471646E+03  0.00000000000E+00 0.  1.
         15    1    5    5    0    0  0.38321961581E+02  0.75042515565E+02  0.92760888495E+01  0.84770264280E+02  0.00000000000E+00 0. -1.
        -16    1    3    3    0    0  0.38568039774E+01 -0.10804500228E+02  0.13952086915E+03  0.13999173223E+03  0.00000000000E+00 0.  1.
         16    1    1    2    0    0  0.31400747803E+03 -0.68404164004E+03  0.85786133667E+02  0.75754400684E+03  0.00000000000E+00 0. -1.
    9900018    1    1    2    0    0  0.29626259323E+02  0.57294754568E+03 -0.62748957399E+03  0.85510522698E+03  0.91187600000E+02 0.  0.
<mgrwt>
<rscale>  0 0.23123737E+04</rscale>
<asrwt>0</asrwt>
<pdfrwt beam="1">  1        1 0.12570412E+00 0.23123737E+04</pdfrwt>
<pdfrwt beam="2">  1       -1 0.25169804E+00 0.23123737E+04</pdfrwt>
<totfact> 0.13111092E+00</totfact>
</mgrwt>
</event>
<event>
12    1  0.1200672E-010  0.1791617E+04  0.7818608E-02  0.8710770E-01
          2   -1    0    0  501    0  0.00000000000E+00  0.00000000000E+00  0.59201192248E+03  0.59201192248E+03  0.00000000000E+00 0. -1.
         -2   -1    0    0    0  501 -0.00000000000E+00 -0.00000000000E+00 -0.13555004833E+04  0.13555004833E+04  0.00000000000E+00 0.  1.
    9900016    2    1    2    0    0 -0.34630474151E+03  0.26329797497E+02 -0.52663328893E+03  0.94777838542E+03  0.70733373639E+03 0.  0.
         23    2    3    3    0    0 -0.26660092402E+03 -0.22070656143E+03 -0.10222058790E+03  0.36898509499E+03  0.76899367929E+02 0.  0.
         23    2    3    3    0    0 -0.53691888552E+02 -0.27200840295E+02 -0.69771985635E+02  0.12973572297E+03  0.91326465085E+02 0.  0.
        -15    1    4    4    0    0 -0.16356752786E+03 -0.86871114598E+02 -0.62599356516E+02  0.19549835334E+03  0.00000000000E+00 0. -1.
        -15    1    5    5    0    0 -0.37755784891E+01 -0.18297251786E+02 -0.76353691560E+02  0.78606174253E+02  0.00000000000E+00 0. -1.
         15    1    4    4    0    0 -0.10303339616E+03 -0.13383544683E+03 -0.39621231381E+02  0.17348674165E+03  0.00000000000E+00 0.  1.
         15    1    5    5    0    0 -0.49916310063E+02 -0.89035885093E+01  0.65817059255E+01  0.51129548712E+02  0.00000000000E+00 0.  1.
        -16    1    3    3    0    0 -0.26011928945E+02  0.27423719922E+03 -0.35464071540E+03  0.44905756747E+03  0.00000000000E+00 0.  1.
         16    1    1    2    0    0  0.49035875812E+03  0.31966923847E+03 -0.13299520361E+03  0.60027315272E+03  0.00000000000E+00 0. -1.
    9900018    1    1    2    0    0 -0.14405401661E+03 -0.34599903596E+03 -0.10386006826E+03  0.39946086762E+03  0.91187600000E+02 0.  0.
<mgrwt>
<rscale>  0 0.17916165E+04</rscale>
<asrwt>0</asrwt>
<pdfrwt beam="1">  1        2 0.91078758E-01 0.17916165E+04</pdfrwt>
<pdfrwt beam="2">  1       -2 0.20853853E+00 0.17916165E+04</pdfrwt>
<totfact> 0.55680273E+00</totfact>
</mgrwt>
</event>
<event>
12    1  0.1200672E-010  0.1410922E+04  0.7818608E-02  0.8945951E-01
         -1   -1    0    0    0  501 -0.00000000000E+00  0.00000000000E+00  0.59644837139E+03  0.59644837139E+03  0.00000000000E+00 0.  1.
          1   -1    0    0  501    0  0.00000000000E+00 -0.00000000000E+00 -0.83439732864E+03  0.83439732864E+03  0.00000000000E+00 0. -1.
    9900016    2    1    2    0    0  0.69704286907E+02 -0.11341847685E+03  0.13136764292E+03  0.74175013722E+03  0.71778365122E+03 0.  0.
         23    2    3    3    0    0  0.18674162488E+03  0.43615157315E+02  0.39623386623E+02  0.23035668313E+03  0.12132383230E+03 0.  0.
         23    2    3    3    0    0 -0.11734041209E+03 -0.20042318239E+03 -0.13257905809E+03  0.28291217669E+03  0.92324800160E+02 0.  0.
        -15    1    5    5    0    0 -0.23207299450E+02 -0.11217080658E+03 -0.30926540512E+02  0.11864788032E+03  0.00000000000E+00 0. -1.
        -15    1    4    4    0    0  0.48825576948E+01  0.44242387831E+02  0.14241619366E+02  0.46733841836E+02  0.00000000000E+00 0.  1.
         15    1    5    5    0    0 -0.94133112641E+02 -0.88252375817E+02 -0.10165251757E+03  0.16426429637E+03  0.00000000000E+00 0.  1.
         15    1    4    4    0    0  0.18185906718E+03 -0.62723051559E+00  0.25381767257E+02  0.18362284129E+03  0.00000000000E+00 0. -1.
        -16    1    3    3    0    0  0.30307412152E+00  0.43389548228E+02  0.22432331438E+03  0.22848127741E+03  0.00000000000E+00 0.  1.
         16    1    1    2    0    0 -0.16656417480E+03  0.19875458585E+03 -0.44408398509E+03  0.51425440741E+03  0.00000000000E+00 0. -1.
    9900018    1    1    2    0    0  0.96859887897E+02 -0.85336108999E+02  0.74767384913E+02  0.17484115540E+03  0.91187600000E+02 0.  0.
<mgrwt>
<rscale>  0 0.14109216E+04</rscale>
<asrwt>0</asrwt>
<pdfrwt beam="1">  1        1 0.12836882E+00 0.14109216E+04</pdfrwt>
<pdfrwt beam="2">  1       -1 0.91761288E-01 0.14109216E+04</pdfrwt>
<totfact> 0.23286157E+01</totfact>
</mgrwt>
</event>
<event>
11    1  0.1200672E-010  0.1348644E+04  0.7818608E-02  0.8991855E-01
         -1   -1    0    0    0  501 -0.00000000000E+00  0.00000000000E+00  0.57032902921E+03  0.57032902921E+03  0.00000000000E+00 0.  1.
          1   -1    0    0  501    0  0.00000000000E+00 -0.00000000000E+00 -0.79727709094E+03  0.79727709094E+03  0.00000000000E+00 0. -1.
    9900016    2    1    2    0    0 -0.66902535096E+02  0.11363522807E+03 -0.28414996222E+03  0.77540396999E+03  0.70931037028E+03 0.  0.
         23    2    3    3    0    0 -0.14519522864E+03  0.27308379903E+03  0.93527974643E+02  0.33548148113E+03  0.90243705742E+02 0.  0.
        -15    1    3    3    0    0  0.58889791617E+02 -0.92122652039E+02 -0.15269779682E+03  0.18780630375E+03  0.00000000000E+00 0.  1.
        -15    1    4    4    0    0 -0.50007021654E+01  0.40971495028E+02  0.43082518767E+02  0.59663840392E+02  0.00000000000E+00 0.  1.
         15    1    4    4    0    0 -0.14019452647E+03  0.23211230400E+03  0.50445455877E+02  0.27581764073E+03  0.00000000000E+00 0. -1.
         15    1    3    3    0    0  0.18090786364E+02 -0.36013887351E+02 -0.20440388327E+02  0.45189446869E+02  0.00000000000E+00 0. -1.
        -16    1    1    2    0    0 -0.39827062828E+02 -0.29087986256E+03  0.17028014559E+03  0.33940037913E+03  0.00000000000E+00 0.  1.
         16    1    3    3    0    0  0.13121155593E+01 -0.31312031571E+02 -0.20453975172E+03  0.20692673825E+03  0.00000000000E+00 0. -1.
    9900018    1    1    2    0    0  0.10672959792E+03  0.17724463449E+03 -0.11307824511E+03  0.25280177103E+03  0.91187600000E+02 0.  0.
<mgrwt>
<rscale>  0 0.13486442E+04</rscale>
<asrwt>0</asrwt>
<pdfrwt beam="1">  1        1 0.12265801E+00 0.13486442E+04</pdfrwt>
<pdfrwt beam="2">  1       -1 0.87742928E-01 0.13486442E+04</pdfrwt>
<totfact> 0.27811593E+01</totfact>
</mgrwt>
</event>
<event>
12    1  0.1200672E-010  0.1330967E+04  0.7818608E-02  0.9005362E-01
          2   -1    0    0  501    0  0.00000000000E+00  0.00000000000E+00  0.87012313234E+03  0.87012313234E+03  0.00000000000E+00 0. -1.
         -2   -1    0    0    0  501 -0.00000000000E+00 -0.00000000000E+00 -0.50897188740E+03  0.50897188740E+03  0.00000000000E+00 0.  1.
    9900016    2    1    2    0    0  0.49922544886E+02  0.18119738292E+03  0.19594835434E+03  0.76753167011E+03  0.71790274758E+03 0.  0.
         23    2    3    3    0    0  0.17129723482E+02 -0.16778095495E+01  0.69201833316E+01  0.10633584112E+03  0.10470520378E+03 0.  0.
         23    2    3    3    0    0  0.68683908508E+02  0.60291701669E+02 -0.20804360502E+03  0.24408567847E+03  0.89124117202E+02 0.  0.
        -15    1    5    5    0    0 -0.18049402950E+02  0.19157896777E+02 -0.20354440021E+02  0.33273250281E+02  0.00000000000E+00 0. -1.
        -15    1    4    4    0    0 -0.38594536468E+02  0.22941635467E+02  0.68328972181E+01  0.45415254788E+02  0.00000000000E+00 0.  1.
         15    1    4    4    0    0  0.55724259951E+02 -0.24619445016E+02  0.87286113530E-01  0.60920586330E+02  0.00000000000E+00 0. -1.
         15    1    5    5    0    0  0.86733311458E+02  0.41133804893E+02 -0.18768916500E+03  0.21081242819E+03  0.00000000000E+00 0.  1.
        -16    1    1    2    0    0 -0.23071045289E+03 -0.19729971610E+02 -0.89569541757E+02  0.24827260756E+03  0.00000000000E+00 0.  1.
         16    1    3    3    0    0 -0.35891087105E+02  0.12258349080E+03  0.39707177602E+03  0.41711015052E+03  0.00000000000E+00 0. -1.
    9900018    1    1    2    0    0  0.18078790801E+03 -0.16146741131E+03  0.25477243235E+03  0.36329074207E+03  0.91187600000E+02 0.  0.
<mgrwt>
<rscale>  0 0.13309669E+04</rscale>
<asrwt>0</asrwt>
<pdfrwt beam="1">  1        2 0.13386510E+00 0.13309669E+04</pdfrwt>
<pdfrwt beam="2">  1       -2 0.78303367E-01 0.13309669E+04</pdfrwt>
<totfact> 0.43617165E+01</totfact>
</mgrwt>
</event>
<event>
12    1  0.1200672E-010  0.1445790E+04  0.7818608E-02  0.8921324E-01
         -1   -1    0    0    0  501 -0.00000000000E+00  0.00000000000E+00  0.96689304653E+03  0.96689304653E+03  0.00000000000E+00 0.  1.
          1   -1    0    0  501    0  0.00000000000E+00 -0.00000000000E+00 -0.54047069903E+03  0.54047069903E+03  0.00000000000E+00 0. -1.
    9900016    2    1    2    0    0 -0.29720498704E+03 -0.32614898940E+01  0.26498572516E+03  0.80644752487E+03  0.70128363320E+03 0.  0.
         23    2    3    3    0    0  0.10181207662E+03 -0.14242072384E+02  0.78315985726E+02  0.15106626775E+03  0.78224600104E+02 0.  0.
         23    2    3    3    0    0 -0.10068112767E+03  0.42579954078E+02 -0.14873023366E+03  0.20538570943E+03  0.90071445397E+02 0.  0.
        -15    1    5    5    0    0 -0.76006024523E+02  0.69395916513E+02 -0.12491271769E+03  0.16185146287E+03  0.00000000000E+00 0.  1.
        -15    1    4    4    0    0  0.68902377295E+02  0.26400274028E+02  0.61729585021E+02  0.96203189825E+02  0.00000000000E+00 0. -1.
         15    1    4    4    0    0  0.32909699326E+02 -0.40642346412E+02  0.16586400705E+02  0.54863077930E+02  0.00000000000E+00 0.  1.
         15    1    5    5    0    0 -0.24675103150E+02 -0.26815962435E+02 -0.23817515969E+02  0.43534246562E+02  0.00000000000E+00 0. -1.
        -16    1    1    2    0    0  0.84284538292E+02  0.27513810977E+03  0.18643913200E+03  0.34287667285E+03  0.00000000000E+00 0.  1.
         16    1    3    3    0    0 -0.29833593599E+03 -0.31599371588E+02  0.33539997309E+03  0.44999554769E+03  0.00000000000E+00 0. -1.
    9900018    1    1    2    0    0  0.21292044875E+03 -0.27187661988E+03 -0.25002509658E+02  0.35803954784E+03  0.91187600000E+02 0.  0.
<mgrwt>
<rscale>  0 0.14457902E+04</rscale>
<asrwt>0</asrwt>
<pdfrwt beam="1">  1        1 0.83149338E-01 0.14457902E+04</pdfrwt>
<pdfrwt beam="2">  1       -1 0.14875278E+00 0.14457902E+04</pdfrwt>
<totfact> 0.13785676E+01</totfact>
</mgrwt>
</event>
<event>
12    1  0.1200672E-010  0.2688810E+04  0.7818608E-02  0.8338645E-01
         -2   -1    0    0    0  501 -0.00000000000E+00  0.00000000000E+00  0.42580996170E+03  0.42580996170E+03  0.00000000000E+00 0. -1.
          2   -1    0    0  501    0  0.00000000000E+00 -0.00000000000E+00 -0.42446732458E+04  0.42446732458E+04  0.00000000000E+00 0.  1.
    9900016    2    1    2    0    0 -0.14182151520E+03  0.10187118444E+03 -0.76730922540E+03  0.10663117304E+04  0.71955971167E+03 0.  0.
         23    2    3    3    0    0 -0.86056391712E+02 -0.46294349992E+02 -0.21122355552E+03  0.24434591217E+03  0.74435643284E+02 0.  0.
         23    2    3    3    0    0 -0.17483154723E+03  0.28115933391E+03 -0.54385349737E+03  0.64304183996E+03  0.90052986507E+02 0.  0.
        -15    1    5    5    0    0 -0.55462385002E+02  0.45903841764E+02 -0.17788715175E+03  0.19190382382E+03  0.00000000000E+00 0. -1.
        -15    1    4    4    0    0 -0.78567004526E+02 -0.16872529988E+02 -0.19269283655E+03  0.20877735923E+03  0.00000000000E+00 0.  1.
         15    1    4    4    0    0 -0.74893871864E+01 -0.29421820004E+02 -0.18530718972E+02  0.35568552943E+02  0.00000000000E+00 0. -1.
         15    1    5    5    0    0 -0.11936916223E+03  0.23525549215E+03 -0.36596634563E+03  0.45113801614E+03  0.00000000000E+00 0.  1.
        -16    1    3    3    0    0  0.11906642374E+03 -0.13299379948E+03 -0.12232172506E+02  0.17892397829E+03  0.00000000000E+00 0.  1.
         16    1    1    2    0    0 -0.33224545556E+03 -0.55008131845E+03 -0.19342596454E+03  0.67111109618E+03  0.00000000000E+00 0. -1.
    9900018    1    1    2    0    0  0.47406697076E+03  0.44821013402E+03 -0.28581280941E+04  0.29330603809E+04  0.91187600000E+02 0.  0.
<mgrwt>
<rscale>  0 0.26888095E+04</rscale>
<asrwt>0</asrwt>
<pdfrwt beam="1">  1        2 0.65302667E+00 0.26888095E+04</pdfrwt>
<pdfrwt beam="2">  1       -2 0.65509223E-01 0.26888095E+04</pdfrwt>
<totfact> 0.40147421E-01</totfact>
</mgrwt>
</event>
<event>
12    1  0.1200672E-010  0.2010695E+04  0.7818608E-02  0.8601636E-01
          2   -1    0    0  501    0  0.00000000000E+00  0.00000000000E+00  0.25115772515E+04  0.25115772515E+04  0.00000000000E+00 0. -1.
         -2   -1    0    0    0  501 -0.00000000000E+00 -0.00000000000E+00 -0.40242600150E+03  0.40242600150E+03  0.00000000000E+00 0.  1.
    9900016    2    1    2    0    0 -0.44495813754E+01 -0.16133974216E+03  0.11594334119E+04  0.13685586960E+04  0.70895469295E+03 0.  0.
         23    2    3    3    0    0  0.58236938678E+01 -0.22473082465E+02  0.83321854110E+02  0.11055604422E+03  0.68856028750E+02 0.  0.
         23    2    3    3    0    0  0.23708989253E+03  0.12807902826E+03  0.52773097651E+03  0.59984628815E+03  0.93272349712E+02 0.  0.
        -15    1    5    5    0    0  0.71995696745E+02  0.60880522157E+02  0.27396270977E+03  0.28973329921E+03  0.00000000000E+00 0. -1.
        -15    1    4    4    0    0 -0.14829443472E+02 -0.37072669299E+02  0.73064517305E+02  0.83262950294E+02  0.00000000000E+00 0.  1.
         15    1    5    5    0    0  0.16509419579E+03  0.67198506107E+02  0.25376826674E+03  0.31011298894E+03  0.00000000000E+00 0.  1.
         15    1    4    4    0    0  0.20653137340E+02  0.14599586833E+02  0.10257336805E+02  0.27293093925E+02  0.00000000000E+00 0. -1.
        -16    1    1    2    0    0 -0.31126514861E+03 -0.43651996213E+03  0.38949363843E+03  0.66267711931E+03  0.00000000000E+00 0.  1.
         16    1    3    3    0    0 -0.24736316778E+03 -0.26694568796E+03  0.54838058124E+03  0.65815636362E+03  0.00000000000E+00 0. -1.
    9900018    1    1    2    0    0  0.31571472998E+03  0.59785970429E+03  0.56022419975E+03  0.88276743773E+03  0.91187600000E+02 0.  0.
<mgrwt>
<rscale>  0 0.20106954E+04</rscale>
<asrwt>0</asrwt>
<pdfrwt beam="1">  1        2 0.38639649E+00 0.20106954E+04</pdfrwt>
<pdfrwt beam="2">  1       -2 0.61911694E-01 0.20106954E+04</pdfrwt>
<totfact> 0.77137274E+00</totfact>
</mgrwt>
</event>
