<event>
12    1  0.7408951E-006  0.3791315E+04  0.7818608E-02  0.8048021E-01
          1   -1    0    0  501    0  0.00000000000E+00  0.00000000000E+00  0.15567094694E+04  0.15567094694E+04  0.00000000000E+00 0. -1.
         -1   -1    0    0    0  501 -0.00000000000E+00 -0.00000000000E+00 -0.23084059655E+04  0.23084059655E+04  0.00000000000E+00 0.  1.
         24    2    1    2    0    0 -0.49107698321E+03  0.55583373958E+03  0.41217479690E+03  0.85134464039E+03  0.69223435523E+02 0.  0.
    9900016    2    1    2    0    0 -0.17348859932E+03 -0.39848892698E+03 -0.29922238851E+03  0.19119438881E+04  0.18376897656E+04 0.  0.
        -24    2    4    4    0    0 -0.80040670398E+03 -0.41195430291E+02  0.87529652861E+02  0.81016675204E+03  0.79754440250E+02 0.  0.
        -15    1    3    3    0    0 -0.27779834327E+03  0.34859680741E+03  0.27591576737E+03  0.52423388325E+03  0.00000000000E+00 0.  1.
        -15    1    4    4    0    0  0.57340391843E+03 -0.49236053161E+03 -0.49079488470E+03  0.90116067691E+03  0.00000000000E+00 0.  1.
         15    1    5    5    0    0 -0.55158155810E+03 -0.24929234816E+02  0.23130951411E+02  0.55262891971E+03  0.00000000000E+00 0. -1.
         15    1    1    2    0    0  0.66456558253E+03 -0.15734481261E+03 -0.86464890456E+03  0.11018269064E+04  0.00000000000E+00 0. -1.
        -16    1    5    5    0    0 -0.24882514587E+03 -0.16266195475E+02  0.64398701449E+02  0.25753783233E+03  0.00000000000E+00 0.  1.
         16    1    3    3    0    0 -0.21327863994E+03  0.20723693217E+03  0.13625902952E+03  0.32711075714E+03  0.00000000000E+00 0. -1.
    9900018    1    4    4    0    0  0.53514186227E+02  0.13506703492E+03  0.10404284333E+03  0.20061645918E+03  0.91187600000E+02 0.  0.
<mgrwt>
<rscale>  0 0.37913150E+04</rscale>
<asrwt>0</asrwt>
<pdfrwt beam="1">  1        1 0.23949377E+00 0.37913150E+04</pdfrwt>
<pdfrwt beam="2">  1       -1 0.35513938E+00 0.37913150E+04</pdfrwt>
<totfact> 0.68319893E-02</totfact>
</mgrwt>
</event>
<event>
12    1  0.7408951E-006  0.4114657E+04  0.7818608E-02  0.7981808E-01
          2   -1    0    0  501    0  0.00000000000E+00  0.00000000000E+00  0.23330823879E+04  0.23330823879E+04  0.00000000000E+00 0. -1.
         -2   -1    0    0    0  501 -0.00000000000E+00 -0.00000000000E+00 -0.18141664992E+04  0.18141664992E+04  0.00000000000E+00 0.  1.
        -24    2    1    2    0    0 -0.12480154825E+04  0.44106062164E+03 -0.22223969625E+03  0.13467178048E+04  0.11036868544E+03 0.  0.
    9900016    2    1    2    0    0  0.79869872571E+03 -0.42058386188E+03  0.15369255442E+03  0.20606542967E+04  0.18460401647E+04 0.  0.
         24    2    4    4    0    0  0.50419349962E+03 -0.10211510466E+04 -0.26770907199E+03  0.11725858876E+04  0.79554833481E+02 0.  0.
        -15    1    5    5    0    0  0.67531872412E+02 -0.16911022059E+03 -0.69234694676E+02  0.19481340675E+03  0.00000000000E+00 0.  1.
        -15    1    1    2    0    0  0.44931675676E+03 -0.20476759762E+02  0.58746303052E+03  0.73987678557E+03  0.00000000000E+00 0.  1.
         15    1    3    3    0    0 -0.83596281701E+03  0.32804080382E+03 -0.19242573698E+03  0.91840746112E+03  0.00000000000E+00 0. -1.
         15    1    4    4    0    0  0.11860931704E+03  0.46330641725E+03  0.43523089014E+03  0.64664281802E+03  0.00000000000E+00 0. -1.
        -16    1    3    3    0    0 -0.41205266545E+03  0.11301981783E+03 -0.29813959270E+02  0.42831034367E+03  0.00000000000E+00 0.  1.
         16    1    5    5    0    0  0.43666162721E+03 -0.85204082598E+03 -0.19847437731E+03  0.97777248083E+03  0.00000000000E+00 0. -1.
    9900018    1    4    4    0    0  0.17589590904E+03  0.13726076745E+03 -0.13829263738E+02  0.24142559108E+03  0.91187600000E+02 0.  0.
<mgrwt>
<rscale>  0 0.41146567E+04</rscale>
<asrwt>0</asrwt>
<pdfrwt beam="1">  1        2 0.35893575E+00 0.41146567E+04</pdfrwt>
<pdfrwt beam="2">  1       -2 0.27910254E+00 0.41146567E+04</pdfrwt>
<totfact> 0.14472363E-01</totfact>
</mgrwt>
</event>
<event>
12    1  0.7408951E-006  0.4225695E+04  0.7818608E-02  0.7960503E-01
         -2   -1    0    0    0  501 -0.00000000000E+00  0.00000000000E+00  0.14915816362E+04  0.14915816362E+04  0.00000000000E+00 0. -1.
          2   -1    0    0  501    0  0.00000000000E+00 -0.00000000000E+00 -0.29928791125E+04  0.29928791125E+04  0.00000000000E+00 0.  1.
        -24    2    1    2    0    0  0.13850179490E+03  0.77758686007E+03  0.50850438701E+03  0.94141644728E+03  0.62162235042E+02 0.  0.
    9900016    2    1    2    0    0 -0.32818235309E+02 -0.10352582252E+04 -0.72770279556E+03  0.22310452288E+04  0.18371648878E+04 0.  0.
         24    2    4    4    0    0  0.54994721375E+03 -0.75002724979E+03  0.30515951443E+03  0.98210157014E+03  0.80114614748E+02 0.  0.
        -15    1    1    2    0    0 -0.10568355959E+03  0.25767136511E+03 -0.12820990678E+04  0.13119990727E+04  0.00000000000E+00 0.  1.
        -15    1    5    5    0    0  0.42830932169E+02 -0.99277827066E+02  0.26768014277E+02  0.11138717290E+03  0.00000000000E+00 0.  1.
         15    1    4    4    0    0 -0.15333689260E+03 -0.19633620590E+03 -0.29890981513E+03  0.38911076310E+03  0.00000000000E+00 0. -1.
         15    1    3    3    0    0  0.90868754355E+01  0.20297265758E+03  0.12444410046E+03  0.23825785437E+03  0.00000000000E+00 0. -1.
        -16    1    3    3    0    0  0.12941491946E+03  0.57461420249E+03  0.38406028654E+03  0.70315859291E+03  0.00000000000E+00 0.  1.
         16    1    5    5    0    0  0.50711628158E+03 -0.65074942272E+03  0.27839150016E+03  0.87071439725E+03  0.00000000000E+00 0. -1.
    9900018    1    4    4    0    0 -0.42942855646E+03 -0.88894769486E+02 -0.73395249486E+03  0.85983289554E+03  0.91187600000E+02 0.  0.
<mgrwt>
<rscale>  0 0.42256945E+04</rscale>
<asrwt>0</asrwt>
<pdfrwt beam="1">  1        2 0.46044294E+00 0.42256945E+04</pdfrwt>
<pdfrwt beam="2">  1       -2 0.22947410E+00 0.42256945E+04</pdfrwt>
<totfact> 0.11733509E-01</totfact>
</mgrwt>
</event>
