<event>
11    1  0.1077702E-011  0.5442147E+04  0.7818608E-02  0.8431579E-01
          1   -1    0    0  501    0  0.00000000000E+00  0.00000000000E+00  0.32084414586E+04  0.32084414586E+04  0.00000000000E+00 0. -1.
         -1   -1    0    0    0  501 -0.00000000000E+00 -0.00000000000E+00 -0.25825191186E+04  0.25825191186E+04  0.00000000000E+00 0.  1.
         23    2    1    2    0    0 -0.51841068158E+01 -0.19954193746E+03 -0.19291715137E+03  0.28755637589E+03  0.75018546043E+02 0.  0.
    9900016    2    1    2    0    0  0.21809282279E+03 -0.16912222251E+04  0.11403807732E+04  0.30073758109E+04  0.21991006949E+04 0.  0.
        -15    1    3    3    0    0  0.23156624408E+02 -0.10355590283E+03 -0.62459614582E+02  0.12313105911E+03  0.00000000000E+00 0.  1.
        -15    1    4    4    0    0  0.52352348613E+03 -0.12274731642E+03  0.22847977406E+03  0.58424887794E+03  0.00000000000E+00 0.  1.
         15    1    4    4    0    0 -0.86137282358E+03 -0.14340778520E+04  0.69170194182E+03  0.18102469454E+04  0.00000000000E+00 0. -1.
         15    1    3    3    0    0 -0.28340731224E+02 -0.95986034636E+02 -0.13045753679E+03  0.16442531678E+03  0.00000000000E+00 0. -1.
        -16    1    1    2    0    0 -0.58493945201E+03  0.17601002451E+04 -0.65975275555E+03  0.19685986726E+04  0.00000000000E+00 0.  1.
         16    1    4    4    0    0  0.55594216024E+03 -0.13439705661E+03  0.22019905728E+03  0.61287998759E+03  0.00000000000E+00 0. -1.
    9900018    1    1    2    0    0  0.37203073603E+03  0.13066391742E+03  0.33821147374E+03  0.52742971781E+03  0.91187600000E+02 0.  0.
<mgrwt>
<rscale>  0 0.24212814E+04</rscale>
<asrwt>0</asrwt>
<pdfrwt beam="1">  1        1 0.49360637E+00 0.54421466E+04</pdfrwt>
<pdfrwt beam="2">  1       -1 0.39731064E+00 0.54421466E+04</pdfrwt>
<totfact> 0.21565384E-03</totfact>
</mgrwt>
</event>
<event>
11    1  0.1077702E-011  0.4000103E+04  0.7818608E-02  0.8484677E-01
          2   -1    0    0  501    0  0.00000000000E+00  0.00000000000E+00  0.23026999699E+04  0.23026999699E+04  0.00000000000E+00 0. -1.
         -2   -1    0    0    0  501 -0.00000000000E+00 -0.00000000000E+00 -0.25274580501E+04  0.25274580501E+04  0.00000000000E+00 0.  1.
    9900016    2    1    2    0    0  0.58907109386E+03 -0.76563197583E+03 -0.42700181186E+03  0.24325245913E+04  0.21912663607E+04 0.  0.
         24    2    3    3    0    0 -0.41776175095E+03 -0.86019434706E+03  0.48195993503E+03  0.10727945163E+04  0.64370023838E+02 0.  0.
        -15    1    4    4    0    0 -0.32067274570E+03 -0.61122628896E+03  0.36888470165E+03  0.78262667298E+03  0.00000000000E+00 0.  1.
        -15    1    1    2    0    0  0.64675619981E+02  0.17064086960E+03  0.38717152196E+03  0.42802223028E+03  0.00000000000E+00 0.  1.
         15    1    3    3    0    0  0.10068328448E+04  0.94562371221E+02 -0.90896174689E+03  0.13597300750E+04  0.00000000000E+00 0. -1.
         15    1    1    2    0    0  0.17252861262E+02  0.22222152126E+03  0.22358453109E+03  0.31570573051E+03  0.00000000000E+00 0. -1.
        -16    1    1    2    0    0  0.13325936499E+03  0.70589957506E+03 -0.27150433298E+03  0.76796280591E+03  0.00000000000E+00 0.  1.
         16    1    4    4    0    0 -0.97089005246E+02 -0.24896805810E+03  0.11307523337E+03  0.29016784332E+03  0.00000000000E+00 0. -1.
    9900018    1    1    2    0    0 -0.80425894009E+03 -0.33312999010E+03 -0.13700798840E+03  0.88594266197E+03  0.91187600000E+02 0.  0.
<mgrwt>
<rscale>  0 0.22829433E+04</rscale>
<asrwt>0</asrwt>
<pdfrwt beam="1">  1        2 0.35426153E+00 0.40001033E+04</pdfrwt>
<pdfrwt beam="2">  1       -2 0.38883970E+00 0.40001033E+04</pdfrwt>
<totfact> 0.30387529E-02</totfact>
</mgrwt>
</event>
<event>
12    1  0.1077702E-011  0.4767112E+04  0.7818608E-02  0.8536314E-01
          1   -1    0    0  501    0  0.00000000000E+00  0.00000000000E+00  0.54357036575E+04  0.54357036575E+04  0.00000000000E+00 0. -1.
         -1   -1    0    0    0  501 -0.00000000000E+00 -0.00000000000E+00 -0.12249002730E+04  0.12249002730E+04  0.00000000000E+00 0.  1.
         23    2    1    2    0    0 -0.78053749025E+02  0.14538651176E+03  0.73277858746E+03  0.75958607502E+03  0.11303504582E+03 0.  0.
    9900016    2    1    2    0    0  0.36337079490E+03 -0.48876850320E+03  0.17641279650E+04  0.28856132345E+04  0.22008369494E+04 0.  0.
        -24    2    4    4    0    0  0.72839566065E+03  0.71091587242E+03  0.66204057662E+03  0.12161575252E+04  0.69135988704E+02 0.  0.
        -15    1    4    4    0    0 -0.36502486575E+03 -0.11996843756E+04  0.11020873884E+04  0.16694557093E+04  0.00000000000E+00 0.  1.
        -15    1    3    3    0    0 -0.17890557654E+02 -0.18313790703E+02  0.91492113125E+02  0.95006703696E+02  0.00000000000E+00 0.  1.
         15    1    5    5    0    0  0.26371504175E+03  0.22073828339E+03  0.20028257047E+03  0.39797502564E+03  0.00000000000E+00 0. -1.
         15    1    3    3    0    0 -0.60163191371E+02  0.16370030247E+03  0.64128647433E+03  0.66457937132E+03  0.00000000000E+00 0. -1.
        -16    1    5    5    0    0  0.46468061890E+03  0.49017758903E+03  0.46175800615E+03  0.81818249957E+03  0.00000000000E+00 0.  1.
         16    1    1    2    0    0 -0.11554617920E+04 -0.39664013684E+03  0.13323610453E+04  0.18076507699E+04  0.00000000000E+00 0. -1.
    9900018    1    1    2    0    0  0.87014474614E+03  0.74002212828E+03  0.38153578666E+03  0.12077538509E+04  0.91187600000E+02 0.  0.
<mgrwt>
<rscale>  0 0.21575352E+04</rscale>
<asrwt>0</asrwt>
<pdfrwt beam="1">  1        1 0.83626209E+00 0.47671118E+04</pdfrwt>
<pdfrwt beam="2">  1       -1 0.18844620E+00 0.47671118E+04</pdfrwt>
<totfact> 0.25362740E-04</totfact>
</mgrwt>
</event>
