<event>
10    1  0.2764527E-012  0.3789413E+04  0.7818608E-02  0.8379958E-01
          2   -1    0    0  501    0  0.00000000000E+00  0.00000000000E+00  0.34303569748E+04  0.34303569748E+04  0.00000000000E+00 0. -1.
         -2   -1    0    0    0  501 -0.00000000000E+00 -0.00000000000E+00 -0.15350973948E+04  0.15350973948E+04  0.00000000000E+00 0.  1.
    9900016    2    1    2    0    0  0.49824901477E+03  0.67892207905E+03  0.69263583197E+01  0.21890922156E+04  0.20206161149E+04 0.  0.
        -15    1    3    3    0    0 -0.34692588749E+03  0.39298947241E+03 -0.35656734215E+03  0.63398625090E+03  0.00000000000E+00 0.  1.
        -15    1    1    2    0    0 -0.13470249669E+03  0.45618134486E+03 -0.41199465563E+02  0.47743437034E+03  0.00000000000E+00 0.  1.
         15    1    1    2    0    0 -0.17342631032E+03 -0.10672152384E+03  0.29478708563E+03  0.35828144610E+03  0.00000000000E+00 0. -1.
         15    1    3    3    0    0  0.92239290931E+02  0.45589650428E+02  0.82439645122E+02  0.13184383985E+03  0.00000000000E+00 0. -1.
        -16    1    3    3    0    0  0.79901969787E+03  0.60717951921E+03  0.28218105979E+03  0.10424613166E+04  0.00000000000E+00 0.  1.
         16    1    1    2    0    0 -0.19012020776E+03 -0.10283819001E+04  0.16347456015E+04  0.19406463376E+04  0.00000000000E+00 0. -1.
    9900018    1    3    3    0    0 -0.46084086536E+02 -0.36683656300E+03 -0.11270044364E+01  0.38080080819E+03  0.91187600000E+02 0.  0.
<mgrwt>
<rscale>  0 0.25656649E+04</rscale>
<asrwt>0</asrwt>
<pdfrwt beam="1">  1        2 0.52774723E+00 0.37894134E+04</pdfrwt>
<pdfrwt beam="2">  1       -2 0.23616883E+00 0.37894134E+04</pdfrwt>
<totfact> 0.55476989E-02</totfact>
</mgrwt>
</event>
<event>
11    1  0.2764527E-012  0.3484810E+04  0.7818608E-02  0.8239664E-01
          1   -1    0    0  501    0  0.00000000000E+00  0.00000000000E+00  0.31679534835E+04  0.31679534835E+04  0.00000000000E+00 0. -1.
         -1   -1    0    0    0  501 -0.00000000000E+00 -0.00000000000E+00 -0.23493878491E+04  0.23493878491E+04  0.00000000000E+00 0.  1.
    9900016    2    1    2    0    0  0.25463984684E+03 -0.75459371844E+03  0.29731946352E+03  0.21961558305E+04  0.20249564037E+04 0.  0.
        -24    2    3    3    0    0 -0.81917528678E+02 -0.53295353191E+03 -0.44952703029E+03  0.70499827246E+03  0.64792472814E+02 0.  0.
        -15    1    1    2    0    0  0.14064228927E+04  0.69183548950E+03  0.45283359026E+03  0.16314778448E+04  0.00000000000E+00 0.  1.
        -15    1    3    3    0    0  0.71770786893E+03 -0.33541535092E+03  0.73840568915E+03  0.10829824581E+04  0.00000000000E+00 0.  1.
         15    1    4    4    0    0 -0.44356378694E+02 -0.23848093247E+03 -0.16178737629E+03  0.29157468788E+03  0.00000000000E+00 0. -1.
         15    1    1    2    0    0 -0.36149630941E+03  0.12324997845E+03  0.72383435813E+02  0.38872805492E+03  0.00000000000E+00 0. -1.
        -16    1    4    4    0    0 -0.37561149984E+02 -0.29447259944E+03 -0.28773965399E+03  0.41342358458E+03  0.00000000000E+00 0.  1.
         16    1    1    2    0    0 -0.12995664301E+04 -0.60491749502E+02 -0.39708551512E+01  0.13009796024E+04  0.00000000000E+00 0. -1.
    9900018    1    3    3    0    0 -0.38115049340E+03  0.11377516439E+03  0.84408046480E+01  0.40817509996E+03  0.91187600000E+02 0.  0.
<mgrwt>
<rscale>  0 0.30142835E+04</rscale>
<asrwt>0</asrwt>
<pdfrwt beam="1">  1        1 0.48737746E+00 0.34848103E+04</pdfrwt>
<pdfrwt beam="2">  1       -1 0.36144428E+00 0.34848103E+04</pdfrwt>
<totfact> 0.45230477E-03</totfact>
</mgrwt>
</event>
<event>
10    1  0.2764527E-012  0.4102240E+04  0.7818608E-02  0.8009948E-01
         -2   -1    0    0    0  501 -0.00000000000E+00  0.00000000000E+00  0.38417390821E+04  0.38417390821E+04  0.00000000000E+00 0.  1.
          2   -1    0    0  501    0  0.00000000000E+00 -0.00000000000E+00 -0.40248113465E+04  0.40248113465E+04  0.00000000000E+00 0. -1.
    9900016    2    1    2    0    0  0.12597918080E+04  0.47969539037E+03  0.57261113577E+03  0.24944840773E+04  0.20192533847E+04 0.  0.
        -15    1    3    3    0    0 -0.76370037791E+01 -0.69165316496E+02  0.23104095584E+03  0.24129253637E+03  0.00000000000E+00 0.  1.
        -15    1    1    2    0    0 -0.16992192472E+04 -0.13615043018E+04  0.15794611114E+04  0.26899326044E+04  0.00000000000E+00 0.  1.
         15    1    3    3    0    0  0.86058334564E+03  0.64978723774E+02  0.33781878775E+03  0.92679418573E+03  0.00000000000E+00 0. -1.
         15    1    1    2    0    0  0.36810297380E+02  0.90317805273E+03 -0.14372715499E+04  0.16978913690E+04  0.00000000000E+00 0. -1.
        -16    1    3    3    0    0  0.71179083513E+03  0.72305354603E+02  0.24047363939E+03  0.75478594881E+03  0.00000000000E+00 0.  1.
         16    1    1    2    0    0  0.40261714174E+03 -0.21369141303E+02 -0.89787296176E+03  0.98424237791E+03  0.00000000000E+00 0. -1.
    9900018    1    3    3    0    0 -0.30494536895E+03  0.41157662849E+03 -0.23672224721E+03  0.57161140636E+03  0.91187600000E+02 0.  0.
<mgrwt>
<rscale>  0 0.39733310E+04</rscale>
<asrwt>0</asrwt>
<pdfrwt beam="1">  1        2 0.61920174E+00 0.41022402E+04</pdfrwt>
<pdfrwt beam="2">  1       -2 0.59103678E+00 0.41022402E+04</pdfrwt>
<totfact> 0.12744404E-04</totfact>
</mgrwt>
</event>
<event>
10    1  0.2764527E-012  0.3162236E+04  0.7818608E-02  0.8588110E-01
          2   -1    0    0  501    0  0.00000000000E+00  0.00000000000E+00  0.25650826564E+04  0.25650826564E+04  0.00000000000E+00 0. -1.
         -2   -1    0    0    0  501 -0.00000000000E+00 -0.00000000000E+00 -0.18943569157E+04  0.18943569157E+04  0.00000000000E+00 0.  1.
    9900016    2    1    2    0    0  0.48405800355E+03 -0.26102706454E+03  0.10125843316E+04  0.23248994415E+04  0.20192531057E+04 0.  0.
        -15    1    1    2    0    0  0.20162820930E+03 -0.10990537834E+03 -0.38500241641E+03  0.44828560942E+03  0.00000000000E+00 0. -1.
        -15    1    3    3    0    0  0.63374993128E+03 -0.36671312758E+03 -0.56619753985E+02  0.73438633557E+03  0.00000000000E+00 0.  1.
         15    1    3    3    0    0 -0.36050286127E+03  0.23212753235E+02  0.84425050958E+03  0.91829192953E+03  0.00000000000E+00 0. -1.
         15    1    1    2    0    0  0.17477352012E+03 -0.26271777129E+03 -0.41688790770E+03  0.52284026076E+03  0.00000000000E+00 0.  1.
        -16    1    3    3    0    0 -0.64794056379E+02  0.10015142131E+02  0.34400819904E+03  0.35020024818E+03  0.00000000000E+00 0.  1.
         16    1    1    2    0    0 -0.86045973297E+03  0.63365021417E+03  0.46003173319E+03  0.11634142605E+04  0.00000000000E+00 0. -1.
    9900018    1    3    3    0    0  0.27560498993E+03  0.72458167669E+02 -0.11905462301E+03  0.32202092818E+03  0.91187600000E+02 0.  0.
<mgrwt>
<rscale>  0 0.20400754E+04</rscale>
<asrwt>0</asrwt>
<pdfrwt beam="1">  1        2 0.39462810E+00 0.31622357E+04</pdfrwt>
<pdfrwt beam="2">  1       -2 0.29143953E+00 0.31622357E+04</pdfrwt>
<totfact> 0.92885936E-02</totfact>
</mgrwt>
</event>
<event>
10    1  0.2764527E-012  0.3199478E+04  0.7818608E-02  0.8440397E-01
         -2   -1    0    0    0  501 -0.00000000000E+00  0.00000000000E+00  0.13851514038E+04  0.13851514038E+04  0.00000000000E+00 0.  1.
          2   -1    0    0  501    0  0.00000000000E+00 -0.00000000000E+00 -0.33397111674E+04  0.33397111674E+04  0.00000000000E+00 0. -1.
    9900016    2    1    2    0    0  0.38727663215E+03 -0.43637038047E+03 -0.15746031166E+04  0.26574496473E+04  0.20596750603E+04 0.  0.
        -15    1    1    2    0    0  0.15884494492E+03 -0.10343071861E+03  0.74987601472E+02  0.20384496671E+03  0.00000000000E+00 0.  1.
        -15    1    3    3    0    0  0.57670169585E+02 -0.20809671153E+03 -0.39438371966E+03  0.44963163606E+03  0.00000000000E+00 0.  1.
         15    1    3    3    0    0 -0.13805352159E+03  0.41306280296E+03 -0.59377342459E+03  0.73637390894E+03  0.00000000000E+00 0. -1.
         15    1    1    2    0    0 -0.59780494693E+03  0.75014295844E+02 -0.98627909268E+03  0.11557440667E+04  0.00000000000E+00 0. -1.
        -16    1    1    2    0    0  0.51683369860E+02  0.46478680324E+03  0.53133484423E+03  0.70782389043E+03  0.00000000000E+00 0.  1.
         16    1    3    3    0    0  0.34331692699E+03 -0.54249047289E+03 -0.90166827118E+03  0.11068731168E+04  0.00000000000E+00 0. -1.
    9900018    1    3    3    0    0  0.12434305716E+03 -0.98845999020E+02  0.31522229879E+03  0.36457098546E+03  0.91187600000E+02 0.  0.
<mgrwt>
<rscale>  0 0.23976147E+04</rscale>
<asrwt>0</asrwt>
<pdfrwt beam="1">  1        2 0.51380171E+00 0.31994777E+04</pdfrwt>
<pdfrwt beam="2">  1       -2 0.21310022E+00 0.31994777E+04</pdfrwt>
<totfact> 0.93205197E-02</totfact>
</mgrwt>
</event>
<event>
10    1  0.2764527E-012  0.3042301E+04  0.7818608E-02  0.8442211E-01
          2   -1    0    0  501    0  0.00000000000E+00  0.00000000000E+00  0.22902958558E+04  0.22902958558E+04  0.00000000000E+00 0.  1.
         -2   -1    0    0    0  501 -0.00000000000E+00 -0.00000000000E+00 -0.19394731313E+04  0.19394731313E+04  0.00000000000E+00 0. -1.
    9900016    2    1    2    0    0  0.28777912962E+03  0.13825172337E+03  0.45014481192E+03  0.20949290278E+04  0.20209321892E+04 0.  0.
        -15    1    1    2    0    0 -0.21799827044E+03  0.80448547580E+02  0.28018788463E+03  0.36400613377E+03  0.00000000000E+00 0.  1.
        -15    1    3    3    0    0 -0.95299996243E+02 -0.58367424552E+02 -0.12298745387E+01  0.11176027078E+03  0.00000000000E+00 0.  1.
         15    1    3    3    0    0  0.34622896262E+03 -0.61240542936E+03  0.31412320200E+02  0.70420283891E+03  0.00000000000E+00 0. -1.
         15    1    1    2    0    0  0.33174016192E+03  0.66160730794E+03 -0.30471995216E+03  0.80039366201E+03  0.00000000000E+00 0. -1.
        -16    1    1    2    0    0 -0.40152102109E+03 -0.88030757889E+03 -0.74790019976E+02  0.97044016349E+03  0.00000000000E+00 0.  1.
         16    1    3    3    0    0 -0.33831081915E+03  0.61348152361E+02  0.12565231632E+02  0.34405768586E+03  0.00000000000E+00 0. -1.
    9900018    1    3    3    0    0  0.37516098239E+03  0.74767642492E+03  0.40739713463E+03  0.93490823228E+03  0.91187600000E+02 0.  0.
<mgrwt>
<rscale>  0 0.23927818E+04</rscale>
<asrwt>0</asrwt>
<pdfrwt beam="1">  1        2 0.35235321E+00 0.30423013E+04</pdfrwt>
<pdfrwt beam="2">  1       -2 0.29838048E+00 0.30423013E+04</pdfrwt>
<totfact> 0.12274140E-01</totfact>
</mgrwt>
</event>
<event>
11    1  0.2764527E-012  0.5082999E+04  0.7818608E-02  0.7815830E-01
          2   -1    0    0  501    0  0.00000000000E+00  0.00000000000E+00  0.20658163695E+04  0.20658163695E+04  0.00000000000E+00 0. -1.
         -2   -1    0    0    0  501 -0.00000000000E+00 -0.00000000000E+00 -0.31267157479E+04  0.31267157479E+04  0.00000000000E+00 0.  1.
    9900016    2    1    2    0    0 -0.11602357731E+02  0.20089217606E+03 -0.15165273193E+04  0.25295393950E+04  0.20145029559E+04 0.  0.
         24    2    3    3    0    0  0.75027343605E+03  0.21362506864E+03 -0.12044353229E+04  0.14363858127E+04  0.63196969452E+02 0.  0.
        -15    1    1    2    0    0  0.26131778448E+03 -0.78895681935E+03  0.39981385714E+03  0.92227488725E+03  0.00000000000E+00 0.  1.
        -15    1    4    4    0    0  0.74102976951E+03  0.21290095242E+03 -0.11737427634E+04  0.14043233280E+04  0.00000000000E+00 0.  1.
         15    1    3    3    0    0 -0.66780808709E+03  0.26549398908E+03 -0.31730400955E+03  0.78558038029E+03  0.00000000000E+00 0. -1.
         15    1    1    2    0    0  0.27941698787E+01  0.98636126873E+03  0.48849979609E+03  0.11007035980E+04  0.00000000000E+00 0. -1.
        -16    1    1    2    0    0 -0.25250959663E+03 -0.39829662543E+03 -0.43268571224E+03  0.64001423719E+03  0.00000000000E+00 0.  1.
         16    1    4    4    0    0  0.92436665416E+01  0.72411621971E+00 -0.30692559518E+02  0.32062484700E+02  0.00000000000E+00 0. -1.
    9900018    1    3    3    0    0 -0.94067706699E+02 -0.27822688167E+03  0.52120131624E+01  0.30757320202E+03  0.91187600000E+02 0.  0.
<mgrwt>
<rscale>  0 0.50829993E+04</rscale>
<asrwt>0</asrwt>
<pdfrwt beam="1">  1        2 0.31781790E+00 0.50829993E+04</pdfrwt>
<pdfrwt beam="2">  1       -2 0.48103319E+00 0.50829993E+04</pdfrwt>
<totfact> 0.97098015E-03</totfact>
</mgrwt>
</event>
<event>
11    1  0.2764527E-012  0.3328637E+04  0.7818608E-02  0.8337868E-01
          1   -1    0    0  501    0  0.00000000000E+00  0.00000000000E+00  0.47304047895E+04  0.47304047895E+04  0.00000000000E+00 0. -1.
         -1   -1    0    0    0  501 -0.00000000000E+00 -0.00000000000E+00 -0.13548048867E+04  0.13548048867E+04  0.00000000000E+00 0.  1.
    9900016    2    1    2    0    0  0.84059793597E+03 -0.76994694337E+03  0.18734990485E+04  0.29833595857E+04  0.20226251623E+04 0.  0.
        -24    2    3    3    0    0  0.11885675823E+04 -0.68491504102E+02  0.45110585129E+03  0.12745508978E+04  0.59995984413E+02 0.  0.
        -15    1    3    3    0    0 -0.39628255335E+03 -0.72273753795E+03  0.13472573612E+04  0.15793960264E+04  0.00000000000E+00 0.  1.
        -15    1    1    2    0    0 -0.50842755630E+03 -0.43598863290E+03 -0.15503166934E+03  0.68747326241E+03  0.00000000000E+00 0.  1.
         15    1    1    2    0    0 -0.61496441388E+03  0.30792346150E+03  0.27203501960E+03  0.73959525443E+03  0.00000000000E+00 0. -1.
         15    1    4    4    0    0  0.27433347505E+03 -0.37274857147E+02  0.11933566271E+03  0.30147847502E+03  0.00000000000E+00 0. -1.
        -16    1    4    4    0    0  0.91423410722E+03 -0.31216646955E+02  0.33177018858E+03  0.97307242273E+03  0.00000000000E+00 0.  1.
         16    1    1    2    0    0  0.28279403422E+03  0.89801211477E+03  0.13850975040E+04  0.16747815737E+04  0.00000000000E+00 0. -1.
    9900018    1    3    3    0    0  0.48312907056E+02  0.21282098684E+02  0.75135835987E+02  0.12941266150E+03  0.91187600000E+02 0.  0.
<mgrwt>
<rscale>  0 0.26911935E+04</rscale>
<asrwt>0</asrwt>
<pdfrwt beam="1">  1        1 0.72775458E+00 0.33286375E+04</pdfrwt>
<pdfrwt beam="2">  1       -1 0.20843152E+00 0.33286375E+04</pdfrwt>
<totfact> 0.18929867E-03</totfact>
</mgrwt>
</event>
<event>
11    1  0.2764527E-012  0.4777076E+04  0.7818608E-02  0.7863847E-01
          2   -1    0    0  501    0  0.00000000000E+00  0.00000000000E+00  0.27646265097E+04  0.27646265097E+04  0.00000000000E+00 0. -1.
         -2   -1    0    0    0  501 -0.00000000000E+00 -0.00000000000E+00 -0.20636111300E+04  0.20636111300E+04  0.00000000000E+00 0.  1.
    9900016    2    1    2    0    0  0.15252663918E+04  0.27087904661E+03  0.38804358496E+03  0.25925990120E+04  0.20423463931E+04 0.  0.
         24    2    3    3    0    0  0.18761078501E+04 -0.18001617678E+03  0.32113429343E+03  0.19130821992E+04  0.67600129068E+02 0.  0.
        -15    1    4    4    0    0  0.14256160877E+04 -0.12239312361E+03  0.21821014473E+03  0.14474035282E+04  0.00000000000E+00 0.  1.
        -15    1    1    2    0    0 -0.21596212287E+03  0.27667306816E+03  0.48015970975E+02  0.35425013568E+03  0.00000000000E+00 0.  1.
         15    1    1    2    0    0 -0.71171687747E+03 -0.20680032914E+03  0.73847622425E+03  0.10462573410E+04  0.00000000000E+00 0. -1.
         15    1    3    3    0    0 -0.32510491377E+03  0.14528325609E+03  0.42651945019E+02  0.35863577328E+03  0.00000000000E+00 0. -1.
        -16    1    1    2    0    0 -0.59758739142E+03 -0.34075178563E+03 -0.47352040044E+03  0.83513115103E+03  0.00000000000E+00 0.  1.
         16    1    4    4    0    0  0.45049176238E+03 -0.57623053173E+02  0.10292414871E+03  0.46567867099E+03  0.00000000000E+00 0. -1.
    9900018    1    3    3    0    0 -0.25736544545E+02  0.30561196730E+03  0.24257346509E+02  0.32088103954E+03  0.91187600000E+02 0.  0.
<mgrwt>
<rscale>  0 0.47770761E+04</rscale>
<asrwt>0</asrwt>
<pdfrwt beam="1">  1        2 0.42532716E+00 0.47770761E+04</pdfrwt>
<pdfrwt beam="2">  1       -2 0.31747863E+00 0.47770761E+04</pdfrwt>
<totfact> 0.44663492E-02</totfact>
</mgrwt>
</event>
<event>
11    1  0.2764527E-012  0.3399382E+04  0.7818608E-02  0.8516828E-01
          1   -1    0    0  501    0  0.00000000000E+00  0.00000000000E+00  0.26777992144E+04  0.26777992144E+04  0.00000000000E+00 0. -1.
         -1   -1    0    0    0  501 -0.00000000000E+00 -0.00000000000E+00 -0.15031791221E+04  0.15031791221E+04  0.00000000000E+00 0.  1.
    9900016    2    1    2    0    0  0.30930793686E+03  0.42560894805E+03  0.17580985965E+04  0.27363013721E+04  0.20296847409E+04 0.  0.
         24    2    3    3    0    0 -0.39042946942E+03  0.32407037780E+02  0.16388077959E+04  0.16878237672E+04  0.97840127112E+02 0.  0.
        -15    1    1    2    0    0 -0.28302279666E+03  0.27566599276E+03 -0.54069282219E+02  0.39876952024E+03  0.00000000000E+00 0.  1.
        -15    1    4    4    0    0 -0.85547934744E+02  0.36137282418E+02  0.51924680819E+03  0.52748611369E+03  0.00000000000E+00 0.  1.
         15    1    1    2    0    0 -0.56812410221E+02 -0.16028786402E+03  0.11399958089E+03  0.20473337234E+03  0.00000000000E+00 0. -1.
         15    1    3    3    0    0  0.70597033210E+03  0.43524883544E+03  0.26565824008E+03  0.87086736022E+03  0.00000000000E+00 0. -1.
        -16    1    1    2    0    0  0.30527270019E+02 -0.54098707679E+03 -0.64340880291E+03  0.84117407184E+03  0.00000000000E+00 0.  1.
         16    1    4    4    0    0 -0.30488153467E+03 -0.37302446376E+01  0.11195609877E+04  0.11603376535E+04  0.00000000000E+00 0. -1.
    9900018    1    3    3    0    0 -0.62329258301E+01 -0.42046925172E+02 -0.14636743949E+03  0.17761024469E+03  0.91187600000E+02 0.  0.
<mgrwt>
<rscale>  0 0.22038489E+04</rscale>
<asrwt>0</asrwt>
<pdfrwt beam="1">  1        1 0.41196911E+00 0.33993819E+04</pdfrwt>
<pdfrwt beam="2">  1       -1 0.23125833E+00 0.33993819E+04</pdfrwt>
<totfact> 0.75963172E-02</totfact>
</mgrwt>
</event>
<event>
11    1  0.2764527E-012  0.3689894E+04  0.7818608E-02  0.8314386E-01
         -2   -1    0    0    0  501 -0.00000000000E+00  0.00000000000E+00  0.23271760687E+04  0.23271760687E+04  0.00000000000E+00 0.  1.
          2   -1    0    0  501    0  0.00000000000E+00 -0.00000000000E+00 -0.29941159551E+04  0.29941159551E+04  0.00000000000E+00 0. -1.
    9900016    2    1    2    0    0  0.83355968405E+03 -0.49288379445E+03 -0.43442002611E+03  0.22845763438E+04  0.20230699765E+04 0.  0.
         24    2    3    3    0    0  0.76769944490E+03 -0.35669374106E+03 -0.90542161019E+03  0.12429838464E+04  0.92885346743E+02 0.  0.
        -15    1    1    2    0    0  0.29411632937E+02  0.10776732645E+03  0.34485627115E+02  0.11691064656E+03  0.00000000000E+00 0.  1.
        -15    1    4    4    0    0  0.15697728510E+03 -0.93851696428E+02 -0.24613587508E+03  0.30664780769E+03  0.00000000000E+00 0.  1.
         15    1    3    3    0    0 -0.16863647291E+03 -0.72713664963E+01  0.67318674330E+03  0.69402559327E+03  0.00000000000E+00 0. -1.
         15    1    1    2    0    0 -0.50043197160E+03 -0.91798861157E+03  0.69900144032E+03  0.12576717627E+04  0.00000000000E+00 0. -1.
        -16    1    1    2    0    0 -0.36253934539E+03  0.13031050796E+04 -0.96600692779E+03  0.16621332708E+04  0.00000000000E+00 0.  1.
         16    1    4    4    0    0  0.61072215980E+03 -0.26284204463E+03 -0.65928573511E+03  0.93633603872E+03  0.00000000000E+00 0. -1.
    9900018    1    3    3    0    0  0.23449671206E+03 -0.12891868689E+03 -0.20218515922E+03  0.34756690406E+03  0.91187600000E+02 0.  0.
<mgrwt>
<rscale>  0 0.27644669E+04</rscale>
<asrwt>0</asrwt>
<pdfrwt beam="1">  1        2 0.46063322E+00 0.36898945E+04</pdfrwt>
<pdfrwt beam="2">  1       -2 0.35802709E+00 0.36898945E+04</pdfrwt>
<totfact> 0.18690701E-02</totfact>
</mgrwt>
</event>
<event>
11    1  0.2764527E-012  0.3499747E+04  0.7818608E-02  0.8445014E-01
         -1   -1    0    0    0  501 -0.00000000000E+00  0.00000000000E+00  0.18610224905E+04  0.18610224905E+04  0.00000000000E+00 0.  1.
          1   -1    0    0  501    0  0.00000000000E+00 -0.00000000000E+00 -0.25877742571E+04  0.25877742571E+04  0.00000000000E+00 0. -1.
    9900016    2    1    2    0    0 -0.11520944103E+03 -0.15981607503E+03  0.45926538302E+03  0.20760571257E+04  0.20150121846E+04 0.  0.
        -24    2    3    3    0    0  0.29800586774E+03 -0.67761012702E+03 -0.30182191777E+03  0.80450102274E+03  0.90346245588E+02 0.  0.
        -15    1    1    2    0    0  0.22488086515E+02 -0.22692339174E+03  0.46887237671E+03  0.52138397117E+03  0.00000000000E+00 0. -1.
        -15    1    3    3    0    0 -0.24210126805E+03  0.56316072417E+02 -0.10610724447E+03  0.27026518705E+03  0.00000000000E+00 0.  1.
         15    1    1    2    0    0  0.15035170557E+03 -0.15472657995E+03 -0.18624303174E+03  0.28501301160E+03  0.00000000000E+00 0.  1.
         15    1    4    4    0    0  0.17451333955E+03 -0.47904640232E+03 -0.23437774747E+03  0.56113571422E+03  0.00000000000E+00 0. -1.
        -16    1    4    4    0    0  0.12349252819E+03 -0.19856372469E+03 -0.67444170300E+02  0.24336530852E+03  0.00000000000E+00 0.  1.
         16    1    1    2    0    0 -0.57630351055E+02  0.54146604672E+03 -0.14686464946E+04  0.15663426392E+04  0.00000000000E+00 0. -1.
    9900018    1    3    3    0    0 -0.17111404073E+03  0.46147797957E+03  0.86719454527E+03  0.10012909159E+04  0.91187600000E+02 0.  0.
<mgrwt>
<rscale>  0 0.23853361E+04</rscale>
<asrwt>0</asrwt>
<pdfrwt beam="1">  1        1 0.39811912E+00 0.34997465E+04</pdfrwt>
<pdfrwt beam="2">  1       -1 0.28631115E+00 0.34997465E+04</pdfrwt>
<totfact> 0.37797109E-02</totfact>
</mgrwt>
</event>
<event>
11    1  0.2764527E-012  0.3069022E+04  0.7818608E-02  0.8224291E-01
         -2   -1    0    0    0  501 -0.00000000000E+00  0.00000000000E+00  0.85592684011E+03  0.85592684011E+03  0.00000000000E+00 0.  1.
          2   -1    0    0  501    0  0.00000000000E+00 -0.00000000000E+00 -0.27510800427E+04  0.27510800427E+04  0.00000000000E+00 0. -1.
    9900016    2    1    2    0    0  0.48401684641E+03  0.27747723196E+03 -0.17743138989E+04  0.27479198028E+04  0.20227722335E+04 0.  0.
         24    2    3    3    0    0  0.25832542806E+03  0.32372726292E+03 -0.19261545384E+04  0.19713167672E+04  0.66985994837E+02 0.  0.
        -15    1    4    4    0    0  0.91521490718E+02  0.16502838529E+03 -0.81538516710E+03  0.83693698804E+03  0.00000000000E+00 0.  1.
        -15    1    1    2    0    0 -0.21804023634E+03 -0.29516144086E+02  0.28925632129E+02  0.22192214766E+03  0.00000000000E+00 0.  1.
         15    1    1    2    0    0  0.11009724868E+03 -0.68320880113E+02 -0.17716233422E+03  0.21948949746E+03  0.00000000000E+00 0. -1.
         15    1    3    3    0    0 -0.62010009864E+02 -0.26729312923E+03  0.26933593473E+03  0.38449018713E+03  0.00000000000E+00 0. -1.
        -16    1    1    2    0    0 -0.37607385875E+03 -0.17964020776E+03  0.27397398444E+02  0.41767543490E+03  0.00000000000E+00 0.  1.
         16    1    4    4    0    0  0.16680393735E+03  0.15869887762E+03 -0.11107693713E+04  0.11343797792E+04  0.00000000000E+00 0. -1.
    9900018    1    3    3    0    0  0.28770142822E+03  0.22104309827E+03 -0.11749529529E+03  0.39211284843E+03  0.91187600000E+02 0.  0.
<mgrwt>
<rscale>  0 0.30690215E+04</rscale>
<asrwt>0</asrwt>
<pdfrwt beam="1">  1        2 0.42324308E+00 0.30690215E+04</pdfrwt>
<pdfrwt beam="2">  1       -2 0.13168105E+00 0.30690215E+04</pdfrwt>
<totfact> 0.88520046E-01</totfact>
</mgrwt>
</event>
<event>
10    1  0.2764527E-012  0.3453078E+04  0.7818608E-02  0.8210500E-01
         -1   -1    0    0    0  501 -0.00000000000E+00  0.00000000000E+00  0.27213208724E+04  0.27213208724E+04  0.00000000000E+00 0.  1.
          1   -1    0    0  501    0  0.00000000000E+00 -0.00000000000E+00 -0.34072692544E+04  0.34072692544E+04  0.00000000000E+00 0. -1.
    9900016    2    1    2    0    0  0.94585067249E+01  0.62218376558E+03 -0.52679067403E+03  0.21821798313E+04  0.20241537245E+04 0.  0.
        -15    1    3    3    0    0  0.29478202090E+03  0.91392428197E+02 -0.58531047905E+03  0.66169280838E+03  0.00000000000E+00 0.  1.
        -15    1    1    2    0    0 -0.83997512004E+03 -0.34429110563E+03  0.11628228861E+04  0.14752124024E+04  0.00000000000E+00 0.  1.
         15    1    1    2    0    0 -0.36361642930E+03 -0.72440403475E+03 -0.45591377593E+03  0.92996531350E+03  0.00000000000E+00 0. -1.
         15    1    3    3    0    0 -0.35359547951E+03  0.57273354818E+03 -0.44833779719E+02  0.67458398154E+03  0.00000000000E+00 0. -1.
        -16    1    3    3    0    0 -0.16755756858E+03  0.33527023500E+03 -0.19971510109E+02  0.37534055267E+03  0.00000000000E+00 0.  1.
         16    1    1    2    0    0  0.11941330426E+04  0.44651137480E+03 -0.86606681814E+03  0.15412325797E+04  0.00000000000E+00 0. -1.
    9900018    1    3    3    0    0  0.23582953391E+03 -0.37721244580E+03  0.12332509485E+03  0.47056248867E+03  0.91187600000E+02 0.  0.
<mgrwt>
<rscale>  0 0.31191557E+04</rscale>
<asrwt>0</asrwt>
<pdfrwt beam="1">  1        1 0.52419527E+00 0.34530780E+04</pdfrwt>
<pdfrwt beam="2">  1       -1 0.41866475E+00 0.34530780E+04</pdfrwt>
<totfact> 0.12010957E-03</totfact>
</mgrwt>
</event>
<event>
11    1  0.2764527E-012  0.4092925E+04  0.7818608E-02  0.8167638E-01
         -2   -1    0    0    0  501 -0.00000000000E+00  0.00000000000E+00  0.33854322169E+04  0.33854322169E+04  0.00000000000E+00 0. -1.
          2   -1    0    0  501    0  0.00000000000E+00 -0.00000000000E+00 -0.24838100537E+04  0.24838100537E+04  0.00000000000E+00 0.  1.
    9900016    2    1    2    0    0 -0.11113745006E+04  0.31085499166E+03  0.27567802145E+03  0.23465271245E+04  0.20244522884E+04 0.  0.
         24    2    3    3    0    0 -0.95964518987E+03 -0.27155439748E+03 -0.51515237266E+03  0.11243385853E+04  0.63989109208E+02 0.  0.
        -15    1    1    2    0    0  0.80697822547E+02  0.16828362567E+03  0.46297530933E+02  0.19228878960E+03  0.00000000000E+00 0.  1.
        -15    1    4    4    0    0 -0.54382537299E+03 -0.13742741535E+03 -0.32044135664E+03  0.64599922124E+03  0.00000000000E+00 0.  1.
         15    1    1    2    0    0 -0.44955582651E+03 -0.14355854424E+04  0.41429874304E+03  0.15603363266E+04  0.00000000000E+00 0. -1.
         15    1    3    3    0    0  0.24104946601E+03  0.86281070990E+02  0.39349366243E+03  0.46945343821E+03  0.00000000000E+00 0. -1.
        -16    1    1    2    0    0  0.14802325045E+04  0.95644682505E+03  0.16534786770E+03  0.17700900299E+04  0.00000000000E+00 0.  1.
         16    1    4    4    0    0 -0.41581981688E+03 -0.13412698214E+03 -0.19471101602E+03  0.47833936405E+03  0.00000000000E+00 0. -1.
    9900018    1    3    3    0    0 -0.39277877673E+03  0.49612831815E+03  0.39733673168E+03  0.75273510099E+03  0.91187600000E+02 0.  0.
<mgrwt>
<rscale>  0 0.32814248E+04</rscale>
<asrwt>0</asrwt>
<pdfrwt beam="1">  1        2 0.38212462E+00 0.40929247E+04</pdfrwt>
<pdfrwt beam="2">  1       -2 0.52083573E+00 0.40929247E+04</pdfrwt>
<totfact> 0.32708314E-03</totfact>
</mgrwt>
</event>
<event>
11    1  0.2764527E-012  0.3684929E+04  0.7818608E-02  0.8305944E-01
         -2   -1    0    0    0  501 -0.00000000000E+00  0.00000000000E+00  0.28340299859E+04  0.28340299859E+04  0.00000000000E+00 0.  1.
          2   -1    0    0  501    0  0.00000000000E+00 -0.00000000000E+00 -0.23002619523E+04  0.23002619523E+04  0.00000000000E+00 0. -1.
    9900016    2    1    2    0    0  0.11120801068E+04 -0.95484245948E+03  0.63605507439E+03  0.25713587460E+04  0.20146646016E+04 0.  0.
         24    2    3    3    0    0  0.22629381807E+03  0.43558462740E+03  0.12508347172E+03  0.51019097817E+03  0.60877742845E+02 0.  0.
        -15    1    4    4    0    0  0.11501943926E+03  0.18217537788E+03  0.79780107751E+02  0.22974378186E+03  0.00000000000E+00 0.  1.
        -15    1    1    2    0    0 -0.29061378234E+03 -0.11141137200E+03  0.25872294094E+03  0.40473006371E+03  0.00000000000E+00 0.  1.
         15    1    3    3    0    0 -0.83436530615E+02 -0.87817611310E+03  0.10395605582E+03  0.88823521761E+03  0.00000000000E+00 0. -1.
         15    1    1    2    0    0 -0.49832849235E+03 -0.80666940910E+02 -0.75059353934E+03  0.90456017099E+03  0.00000000000E+00 0. -1.
        -16    1    1    2    0    0 -0.32313783209E+03  0.11469207724E+04  0.38958355758E+03  0.12536429575E+04  0.00000000000E+00 0.  1.
         16    1    4    4    0    0  0.11127437882E+03  0.25340924953E+03  0.45303363970E+02  0.28044719630E+03  0.00000000000E+00 0. -1.
    9900018    1    3    3    0    0  0.96922281933E+03 -0.51225097378E+03  0.40701554685E+03  0.11729325502E+04  0.91187600000E+02 0.  0.
<mgrwt>
<rscale>  0 0.27913967E+04</rscale>
<asrwt>0</asrwt>
<pdfrwt beam="1">  1        2 0.35388645E+00 0.36849292E+04</pdfrwt>
<pdfrwt beam="2">  1       -2 0.43600461E+00 0.36849292E+04</pdfrwt>
<totfact> 0.15060176E-02</totfact>
</mgrwt>
</event>
