<event>
11    1  0.3781012E-010  0.4710900E+04  0.7818608E-02  0.8288430E-01
          1   -1    0    0  501    0  0.00000000000E+00  0.00000000000E+00  0.22617947523E+04  0.22617947523E+04  0.00000000000E+00 0. -1.
         -1   -1    0    0    0  501 -0.00000000000E+00 -0.00000000000E+00 -0.32414979525E+04  0.32414979525E+04  0.00000000000E+00 0.  1.
    9900016    2    1    2    0    0 -0.10052648352E+04  0.69880266579E+03 -0.19718957657E+04  0.31989885986E+04  0.22014251267E+04 0.  0.
        -24    2    3    3    0    0  0.93452360834E+02 -0.51853517304E+03  0.96947079804E+02  0.54151566099E+03  0.78920246968E+02 0.  0.
        -15    1    1    2    0    0  0.24908732740E+03 -0.17881662826E+03 -0.12721676467E+03  0.33196986072E+03  0.00000000000E+00 0. -1.
        -15    1    3    3    0    0 -0.67442667552E+03  0.88376442548E+03 -0.12537217898E+04  0.16756220417E+04  0.00000000000E+00 0.  1.
         15    1    1    2    0    0  0.26544506655E+03 -0.15374618291E+03 -0.29839764532E+03  0.42794874325E+03  0.00000000000E+00 0.  1.
         15    1    4    4    0    0  0.66713467705E+02 -0.46750472666E+03  0.68231902612E+02  0.47714457847E+03  0.00000000000E+00 0. -1.
        -16    1    4    4    0    0  0.26738893130E+02 -0.51030446381E+02  0.28715177192E+02  0.64371082520E+02  0.00000000000E+00 0.  1.
         16    1    1    2    0    0  0.49073244121E+03 -0.36623985462E+03  0.14178069755E+04  0.15443855023E+04  0.00000000000E+00 0. -1.
    9900018    1    3    3    0    0 -0.42429052047E+03  0.33357341335E+03 -0.81512105575E+03  0.98185089590E+03  0.91187600000E+02 0.  0.
<mgrwt>
<rscale>  0 0.28482944E+04</rscale>
<asrwt>0</asrwt>
<pdfrwt beam="1">  1        1 0.34796843E+00 0.47109005E+04</pdfrwt>
<pdfrwt beam="2">  1       -1 0.49869199E+00 0.47109005E+04</pdfrwt>
<totfact> 0.21778022E-03</totfact>
</mgrwt>
</event>
<event>
11    1  0.3781012E-010  0.3684047E+04  0.7818608E-02  0.8515199E-01
          2   -1    0    0  501    0  0.00000000000E+00  0.00000000000E+00  0.28470302970E+04  0.28470302970E+04  0.00000000000E+00 0. -1.
         -2   -1    0    0    0  501 -0.00000000000E+00 -0.00000000000E+00 -0.15326311978E+04  0.15326311978E+04  0.00000000000E+00 0.  1.
    9900016    2    1    2    0    0  0.88883707382E+03  0.23468787399E+03  0.10068725741E+04  0.25868591305E+04  0.21983944228E+04 0.  0.
        -24    2    3    3    0    0  0.30964965331E+03 -0.76946567125E+03  0.92223403329E+03  0.12429531248E+04  0.80352543620E+02 0.  0.
        -15    1    1    2    0    0  0.24828428575E+03 -0.19488170125E+03  0.52565379858E+02  0.31997981685E+03  0.00000000000E+00 0.  1.
        -15    1    3    3    0    0  0.30594544368E+03  0.93110809631E+03 -0.11365089255E+03  0.98665162388E+03  0.00000000000E+00 0.  1.
         15    1    1    2    0    0  0.14598199684E+03  0.45193279978E+02 -0.29943757366E+02  0.15572348751E+03  0.00000000000E+00 0. -1.
         15    1    4    4    0    0  0.71902896918E+02 -0.21825725604E+03  0.30582609031E+03  0.38253869597E+03  0.00000000000E+00 0. -1.
        -16    1    4    4    0    0  0.23774675639E+03 -0.55120841520E+03  0.61640794297E+03  0.86041442882E+03  0.00000000000E+00 0.  1.
         16    1    1    2    0    0 -0.12831033564E+04 -0.84999452718E+02  0.28490490253E+03  0.13170990599E+04  0.00000000000E+00 0. -1.
    9900018    1    3    3    0    0  0.27324197683E+03  0.73045448928E+02  0.19828943340E+03  0.35725438178E+03  0.91187600000E+02 0.  0.
<mgrwt>
<rscale>  0 0.22077759E+04</rscale>
<asrwt>0</asrwt>
<pdfrwt beam="1">  1        2 0.43800466E+00 0.36840468E+04</pdfrwt>
<pdfrwt beam="2">  1       -2 0.23578941E+00 0.36840468E+04</pdfrwt>
<totfact> 0.13544077E-01</totfact>
</mgrwt>
</event>
<event>
11    1  0.3781012E-010  0.3423962E+04  0.7818608E-02  0.8495967E-01
          2   -1    0    0  501    0  0.00000000000E+00  0.00000000000E+00  0.39075419705E+04  0.39075419705E+04  0.00000000000E+00 0. -1.
         -2   -1    0    0    0  501 -0.00000000000E+00 -0.00000000000E+00 -0.11002064815E+04  0.11002064815E+04  0.00000000000E+00 0.  1.
    9900016    2    1    2    0    0  0.57827147901E+03 -0.18910096177E+03  0.13791836878E+04  0.26633378298E+04  0.21956920718E+04 0.  0.
        -24    2    3    3    0    0 -0.16869505972E+03  0.71286858694E+03  0.33128554505E+03  0.80806927183E+03  0.81155346697E+02 0.  0.
        -15    1    3    3    0    0  0.90512579332E+03 -0.53556221063E+03  0.98529287782E+03  0.14411390073E+04  0.00000000000E+00 0.  1.
        -15    1    1    2    0    0  0.32176546712E+03 -0.33085691951E+03  0.20763899454E+03  0.50607634708E+03  0.00000000000E+00 0.  1.
         15    1    4    4    0    0 -0.85266085627E+02  0.33261749282E+03  0.19923075044E+03  0.39698563426E+03  0.00000000000E+00 0. -1.
         15    1    1    2    0    0 -0.39259431434E+02 -0.11353750174E+03 -0.87929108162E+02  0.14887442803E+03  0.00000000000E+00 0. -1.
        -16    1    4    4    0    0 -0.83428974093E+02  0.38025109412E+03  0.13205479460E+03  0.41108363757E+03  0.00000000000E+00 0.  1.
         16    1    1    2    0    0 -0.86077751470E+03  0.63349538302E+03  0.13084419148E+04  0.16894598470E+04  0.00000000000E+00 0. -1.
    9900018    1    3    3    0    0 -0.15815925459E+03 -0.36640733808E+03  0.62605264937E+02  0.41412955075E+03  0.91187600000E+02 0.  0.
<mgrwt>
<rscale>  0 0.22547807E+04</rscale>
<asrwt>0</asrwt>
<pdfrwt beam="1">  1        2 0.60116030E+00 0.34239621E+04</pdfrwt>
<pdfrwt beam="2">  1       -2 0.16926254E+00 0.34239621E+04</pdfrwt>
<totfact> 0.70608120E-02</totfact>
</mgrwt>
</event>
