<event>
12    1  0.3940632E-008  0.3048826E+04  0.7818608E-02  0.8229924E-01
          2   -1    0    0  501    0  0.00000000000E+00  0.00000000000E+00  0.12606723071E+04  0.12606723071E+04  0.00000000000E+00 0. -1.
         -2   -1    0    0    0  501 -0.00000000000E+00 -0.00000000000E+00 -0.18433294870E+04  0.18433294870E+04  0.00000000000E+00 0.  1.
    9900016    2    1    2    0    0  0.48928501774E+03  0.29062168952E+03 -0.53095591915E+03  0.23350118476E+04  0.22014779911E+04 0.  0.
         23    2    3    3    0    0  0.51524130877E+03 -0.11187398386E+02 -0.70303731848E+03  0.87653635120E+03  0.91955095862E+02 0.  0.
         24    2    3    3    0    0 -0.27322749409E+03 -0.51623433081E+03  0.12535991455E+03  0.60260110148E+03  0.79131735082E+02 0.  0.
        -15    1    4    4    0    0  0.45881866221E+03  0.91971762735E+01 -0.57949228140E+03  0.73919581780E+03  0.00000000000E+00 0.  1.
        -15    1    5    5    0    0 -0.78353387806E+02 -0.17751481107E+03  0.64983823132E+01  0.19414682717E+03  0.00000000000E+00 0.  1.
         15    1    3    3    0    0  0.24727120306E+03  0.81804341872E+03  0.46721484773E+02  0.85587439494E+03  0.00000000000E+00 0. -1.
         15    1    4    4    0    0  0.56422646556E+02 -0.20384574660E+02 -0.12354503708E+03  0.13734053340E+03  0.00000000000E+00 0. -1.
        -16    1    1    2    0    0 -0.54997865724E+03 -0.30351108693E+03 -0.11962520725E+03  0.63945734301E+03  0.00000000000E+00 0.  1.
         16    1    5    5    0    0 -0.19487410628E+03 -0.33871951975E+03  0.11886153224E+03  0.40845427431E+03  0.00000000000E+00 0. -1.
    9900018    1    1    2    0    0  0.60693639501E+02  0.12889397409E+02  0.67923946562E+02  0.12953260343E+03  0.91187600000E+02 0.  0.
<mgrwt>
<rscale>  0 0.30488256E+04</rscale>
<asrwt>0</asrwt>
<pdfrwt beam="1">  1        2 0.19394959E+00 0.30488256E+04</pdfrwt>
<pdfrwt beam="2">  1       -2 0.28358915E+00 0.30488256E+04</pdfrwt>
<totfact> 0.59513408E-01</totfact>
</mgrwt>
</event>
<event>
12    1  0.3940632E-008  0.3452833E+04  0.7818608E-02  0.8125060E-01
          2   -1    0    0  501    0  0.00000000000E+00  0.00000000000E+00  0.15336555530E+04  0.15336555530E+04  0.00000000000E+00 0. -1.
         -2   -1    0    0    0  501 -0.00000000000E+00 -0.00000000000E+00 -0.19434047633E+04  0.19434047633E+04  0.00000000000E+00 0.  1.
    9900016    2    1    2    0    0 -0.72118170363E+03  0.57017623933E+03 -0.55907131675E+03  0.24550869306E+04  0.22067367550E+04 0.  0.
         23    2    3    3    0    0 -0.20399539844E+03  0.10720895717E+03  0.16097521447E+01  0.24799292510E+03  0.91597033331E+02 0.  0.
        -24    2    3    3    0    0  0.41035057940E+02 -0.58180772095E+03  0.37477073720E+03  0.69771135724E+03  0.78510715324E+02 0.  0.
        -15    1    4    4    0    0 -0.13197755270E+03  0.87410623834E+02  0.41041863719E+02  0.16353325702E+03  0.00000000000E+00 0.  1.
        -15    1    3    3    0    0 -0.55822136314E+03  0.10447750031E+04 -0.93545180610E+03  0.15093826483E+04  0.00000000000E+00 0.  1.
         15    1    4    4    0    0 -0.72017845737E+02  0.19798333335E+02 -0.39432111574E+02  0.84459668071E+02  0.00000000000E+00 0. -1.
         15    1    5    5    0    0 -0.12758858082E+01 -0.36110118625E+03  0.26298663414E+03  0.44671877544E+03  0.00000000000E+00 0. -1.
        -16    1    5    5    0    0  0.42310943748E+02 -0.22070653470E+03  0.11178410306E+03  0.25099258180E+03  0.00000000000E+00 0.  1.
         16    1    1    2    0    0  0.37552035856E+03 -0.18658617679E+03 -0.11495574161E+03  0.43479278236E+03  0.00000000000E+00 0. -1.
    9900018    1    1    2    0    0  0.34566134507E+03 -0.38359006254E+03  0.26427784800E+03  0.58718060330E+03  0.91187600000E+02 0.  0.
<mgrwt>
<rscale>  0 0.34528328E+04</rscale>
<asrwt>0</asrwt>
<pdfrwt beam="1">  1        2 0.23594701E+00 0.34528328E+04</pdfrwt>
<pdfrwt beam="2">  1       -2 0.29898535E+00 0.34528328E+04</pdfrwt>
<totfact> 0.32312142E-01</totfact>
</mgrwt>
</event>
<event>
12    1  0.3940632E-008  0.4799133E+04  0.7818608E-02  0.7860263E-01
          2   -1    0    0  501    0  0.00000000000E+00  0.00000000000E+00  0.27956430806E+04  0.27956430806E+04  0.00000000000E+00 0.  1.
         -2   -1    0    0    0  501 -0.00000000000E+00 -0.00000000000E+00 -0.20596047729E+04  0.20596047729E+04  0.00000000000E+00 0. -1.
    9900016    2    1    2    0    0  0.41165808796E+03  0.52122208758E+03 -0.50142220455E+02  0.23059985367E+04  0.22077092569E+04 0.  0.
         23    2    3    3    0    0 -0.20895319927E+03  0.20083189170E+03  0.15062898536E+03  0.33740830099E+03  0.84619041236E+02 0.  0.
         24    2    3    3    0    0  0.59404132219E+03 -0.45424264229E+03 -0.71560761307E+03  0.10380965370E+04  0.79553087587E+02 0.  0.
        -15    1    5    5    0    0  0.62285814281E+02 -0.44943777667E+02 -0.43132896782E+02  0.88090366082E+02  0.00000000000E+00 0.  1.
        -15    1    4    4    0    0 -0.15912549788E+03  0.19328192556E+03  0.13609816423E+03  0.28495883410E+03  0.00000000000E+00 0.  1.
         15    1    4    4    0    0 -0.49827701398E+02  0.75499661384E+01  0.14530821130E+02  0.52449466899E+02  0.00000000000E+00 0. -1.
         15    1    3    3    0    0  0.26569965043E+02  0.77463283818E+03  0.51483640725E+03  0.93049369866E+03  0.00000000000E+00 0. -1.
        -16    1    1    2    0    0  0.79080608609E+03 -0.80323011266E+03  0.65547911244E+03  0.13039193788E+04  0.00000000000E+00 0.  1.
         16    1    5    5    0    0  0.53175550791E+03 -0.40929886462E+03 -0.67247471628E+03  0.95000617093E+03  0.00000000000E+00 0. -1.
    9900018    1    1    2    0    0 -0.12024641740E+04  0.28200802508E+03  0.13070141570E+03  0.12453299380E+04  0.91187600000E+02 0.  0.
<mgrwt>
<rscale>  0 0.47991332E+04</rscale>
<asrwt>0</asrwt>
<pdfrwt beam="1">  1        2 0.43009894E+00 0.47991332E+04</pdfrwt>
<pdfrwt beam="2">  1       -2 0.31686227E+00 0.47991332E+04</pdfrwt>
<totfact> 0.43078072E-02</totfact>
</mgrwt>
</event>
<event>
12    1  0.3940632E-008  0.3558601E+04  0.7818608E-02  0.8100041E-01
         -2   -1    0    0    0  501 -0.00000000000E+00  0.00000000000E+00  0.16349479019E+04  0.16349479019E+04  0.00000000000E+00 0. -1.
          2   -1    0    0  501    0  0.00000000000E+00 -0.00000000000E+00 -0.19363977975E+04  0.19363977975E+04  0.00000000000E+00 0.  1.
    9900016    2    1    2    0    0 -0.22589957903E+03 -0.26208020130E+03 -0.49463906886E+03  0.22689357636E+04  0.21871636974E+04 0.  0.
         23    2    3    3    0    0  0.39300217546E+02 -0.59079252064E+02  0.16235739745E+03  0.20022509747E+03  0.93248592611E+02 0.  0.
         24    2    3    3    0    0 -0.95727907465E+03  0.40300078908E+03 -0.35794157057E+03  0.11014228782E+04  0.78850022246E+02 0.  0.
        -15    1    4    4    0    0  0.44731343325E+02 -0.34334958652E+02  0.27005132859E+02  0.62522473256E+02  0.00000000000E+00 0.  1.
        -15    1    5    5    0    0 -0.34291682824E+03  0.11488938177E+03 -0.97181356338E+02  0.37448062320E+03  0.00000000000E+00 0.  1.
         15    1    3    3    0    0  0.69207927807E+03 -0.60600173831E+03 -0.29905489574E+03  0.96728778791E+03  0.00000000000E+00 0. -1.
         15    1    4    4    0    0 -0.54311257792E+01 -0.24744293412E+02  0.13535226459E+03  0.13770262421E+03  0.00000000000E+00 0. -1.
        -16    1    1    2    0    0  0.63159019755E+03 -0.19913794913E+03  0.43671823622E+02  0.66367863353E+03  0.00000000000E+00 0.  1.
         16    1    5    5    0    0 -0.61436224641E+03  0.28811140730E+03 -0.26076021423E+03  0.72694225503E+03  0.00000000000E+00 0. -1.
    9900018    1    1    2    0    0 -0.40569061852E+03  0.46121815042E+03  0.14951734969E+03  0.63873130226E+03  0.91187600000E+02 0.  0.
<mgrwt>
<rscale>  0 0.35586006E+04</rscale>
<asrwt>0</asrwt>
<pdfrwt beam="1">  1        2 0.29790735E+00 0.35586006E+04</pdfrwt>
<pdfrwt beam="2">  1       -2 0.25153045E+00 0.35586006E+04</pdfrwt>
<totfact> 0.37275953E-01</totfact>
</mgrwt>
</event>
<event>
12    1  0.3940632E-008  0.2966248E+04  0.7818608E-02  0.8253435E-01
          2   -1    0    0  501    0  0.00000000000E+00  0.00000000000E+00  0.18685224630E+04  0.18685224630E+04  0.00000000000E+00 0.  1.
         -2   -1    0    0    0  501 -0.00000000000E+00 -0.00000000000E+00 -0.11772174679E+04  0.11772174679E+04  0.00000000000E+00 0. -1.
    9900016    2    1    2    0    0  0.13839540597E+03  0.18409802928E+03  0.32907078018E+03  0.22337655321E+04  0.21973564803E+04 0.  0.
         23    2    3    3    0    0  0.21392035898E+03  0.22410714303E+03 -0.84744261232E+02  0.33389862485E+03  0.91218256505E+02 0.  0.
         24    2    3    3    0    0  0.10327506983E+03  0.30162720384E+03 -0.67168355884E+03  0.74791550515E+03  0.81080759014E+02 0.  0.
        -15    1    5    5    0    0  0.46673641381E+02  0.15740841744E+03 -0.43582053708E+03  0.46572028002E+03  0.00000000000E+00 0.  1.
        -15    1    4    4    0    0  0.15390285239E+03  0.16225352329E+03 -0.10233440648E+03  0.24593622048E+03  0.00000000000E+00 0. -1.
         15    1    3    3    0    0 -0.17880002284E+03 -0.34163631759E+03  0.10854986003E+04  0.11519514021E+04  0.00000000000E+00 0. -1.
         15    1    4    4    0    0  0.60017506593E+02  0.61853619739E+02  0.17590145250E+02  0.87962404369E+02  0.00000000000E+00 0.  1.
        -16    1    1    2    0    0 -0.30961245978E+03 -0.14653681825E+03  0.47411552729E+03  0.58490892246E+03  0.00000000000E+00 0.  1.
         16    1    5    5    0    0  0.56601428444E+02  0.14421878640E+03 -0.23586302177E+03  0.28219522514E+03  0.00000000000E+00 0. -1.
    9900018    1    1    2    0    0  0.17121705381E+03 -0.37561211025E+02 -0.11188131234E+03  0.22706547631E+03  0.91187600000E+02 0.  0.
<mgrwt>
<rscale>  0 0.29662483E+04</rscale>
<asrwt>0</asrwt>
<pdfrwt beam="1">  1        2 0.28746500E+00 0.29662483E+04</pdfrwt>
<pdfrwt beam="2">  1       -2 0.18111038E+00 0.29662483E+04</pdfrwt>
<totfact> 0.12090612E+00</totfact>
</mgrwt>
</event>
<event>
12    1  0.3940632E-008  0.4097389E+04  0.7818608E-02  0.7985183E-01
         -2   -1    0    0    0  501 -0.00000000000E+00  0.00000000000E+00  0.44113467237E+04  0.44113467237E+04  0.00000000000E+00 0.  1.
          2   -1    0    0  501    0  0.00000000000E+00 -0.00000000000E+00 -0.95144382508E+03  0.95144382508E+03  0.00000000000E+00 0. -1.
    9900016    2    1    2    0    0  0.60028547152E+03 -0.68984995361E+03  0.24365498336E+04  0.34047041562E+04  0.21952220146E+04 0.  0.
         23    2    3    3    0    0  0.36870387920E+02  0.80480886650E+02  0.40022923394E+03  0.42007214470E+03  0.91872566239E+02 0.  0.
         24    2    3    3    0    0 -0.59427795064E+03  0.86792325631E+02  0.17420679723E+03  0.63040579118E+03  0.79776330714E+02 0.  0.
        -15    1    4    4    0    0  0.64288527195E+02  0.75942894957E+02  0.30062120381E+03  0.31665982727E+03  0.00000000000E+00 0. -1.
        -15    1    5    5    0    0 -0.33068042687E+03  0.26580702319E+02  0.13058435597E+03  0.35652258340E+03  0.00000000000E+00 0.  1.
         15    1    3    3    0    0  0.11576930342E+04 -0.85712316590E+03  0.18621138025E+04  0.23542262203E+04  0.00000000000E+00 0. -1.
         15    1    4    4    0    0 -0.27418139275E+02  0.45379916930E+01  0.99608030130E+02  0.10341231743E+03  0.00000000000E+00 0.  1.
        -16    1    1    2    0    0  0.10042432382E+03  0.56186282091E+03  0.10965979093E+04  0.12362450603E+04  0.00000000000E+00 0.  1.
         16    1    5    5    0    0 -0.26359752377E+03  0.60211623312E+02  0.43622441259E+02  0.27388320778E+03  0.00000000000E+00 0. -1.
    9900018    1    1    2    0    0 -0.70070979534E+03  0.12798713271E+03 -0.73244844339E+02  0.72184133231E+03  0.91187600000E+02 0.  0.
<mgrwt>
<rscale>  0 0.40973887E+04</rscale>
<asrwt>0</asrwt>
<pdfrwt beam="1">  1        2 0.14637598E+00 0.40973887E+04</pdfrwt>
<pdfrwt beam="2">  1       -2 0.67866872E+00 0.40973887E+04</pdfrwt>
<totfact> 0.57168956E-03</totfact>
</mgrwt>
</event>
<event>
12    1  0.3940632E-008  0.3465843E+04  0.7818608E-02  0.8121933E-01
          1   -1    0    0  501    0  0.00000000000E+00  0.00000000000E+00  0.91038036374E+03  0.91038036374E+03  0.00000000000E+00 0. -1.
         -1   -1    0    0    0  501 -0.00000000000E+00 -0.00000000000E+00 -0.32986404938E+04  0.32986404938E+04  0.00000000000E+00 0.  1.
    9900016    2    1    2    0    0 -0.26154997968E+03 -0.36589939409E+03 -0.16579504028E+04  0.27929573528E+04  0.22021626820E+04 0.  0.
         23    2    3    3    0    0 -0.20244586215E+03  0.19210159401E+02 -0.47226737215E+03  0.52163874322E+03  0.87847312445E+02 0.  0.
         24    2    3    3    0    0 -0.40286957031E+03 -0.56785727149E+03  0.28012026233E+03  0.75469383439E+03  0.79559102802E+02 0.  0.
        -15    1    4    4    0    0 -0.14424966065E+03  0.26315866721E+02 -0.23304632813E+03  0.27533812031E+03  0.00000000000E+00 0.  1.
        -15    1    5    5    0    0 -0.22558697961E+03 -0.27636572648E+03  0.10907014928E+03  0.37304664267E+03  0.00000000000E+00 0.  1.
         15    1    4    4    0    0 -0.58196201503E+02 -0.71057073202E+01 -0.23922104402E+03  0.24630062292E+03  0.00000000000E+00 0. -1.
         15    1    3    3    0    0  0.34376545278E+03  0.18274771800E+03 -0.14658032930E+04  0.15166247752E+04  0.00000000000E+00 0. -1.
        -16    1    1    2    0    0  0.36403802253E+03 -0.30683164061E+03 -0.50360463392E+03  0.69302739111E+03  0.00000000000E+00 0.  1.
         16    1    5    5    0    0 -0.17728259070E+03 -0.29149154501E+03  0.17105011304E+03  0.38164719172E+03  0.00000000000E+00 0. -1.
    9900018    1    1    2    0    0 -0.10248804285E+03  0.67273103470E+03 -0.22670509340E+03  0.72303611372E+03  0.91187600000E+02 0.  0.
<mgrwt>
<rscale>  0 0.34658434E+04</rscale>
<asrwt>0</asrwt>
<pdfrwt beam="1">  1        1 0.14005852E+00 0.34658434E+04</pdfrwt>
<pdfrwt beam="2">  1       -1 0.50748314E+00 0.34658434E+04</pdfrwt>
<totfact> 0.19457748E-02</totfact>
</mgrwt>
</event>
<event>
12    1  0.3940632E-008  0.3003939E+04  0.7818608E-02  0.8242607E-01
         -2   -1    0    0    0  501 -0.00000000000E+00  0.00000000000E+00  0.99527598565E+03  0.99527598565E+03  0.00000000000E+00 0. -1.
          2   -1    0    0  501    0  0.00000000000E+00 -0.00000000000E+00 -0.22666202177E+04  0.22666202177E+04  0.00000000000E+00 0.  1.
    9900016    2    1    2    0    0  0.39663012385E+02  0.34972315621E+02 -0.94786528214E+03  0.23998047211E+04  0.22040458001E+04 0.  0.
         23    2    3    3    0    0  0.64449811603E+02 -0.88361099386E+02  0.34515335765E+03  0.37346850883E+03  0.91577424586E+02 0.  0.
         24    2    3    3    0    0 -0.28224838623E+03  0.25216938212E+03  0.24743441721E+03  0.45921120257E+03  0.79984929414E+02 0.  0.
        -15    1    4    4    0    0 -0.20521322468E+02 -0.21103487243E+01  0.67060083033E+02  0.70161477920E+02  0.00000000000E+00 0.  1.
        -15    1    5    5    0    0 -0.11675183590E+03  0.59888566500E+02  0.62976041524E+02  0.14554591506E+03  0.00000000000E+00 0.  1.
         15    1    4    4    0    0  0.84971134070E+02 -0.86250750662E+02  0.27809327461E+03  0.30330703091E+03  0.00000000000E+00 0. -1.
         15    1    3    3    0    0  0.25746158701E+03 -0.12883596711E+03 -0.15404530570E+04  0.15671250097E+04  0.00000000000E+00 0. -1.
        -16    1    1    2    0    0  0.33231113703E+03  0.86257786205E+02 -0.30615305230E+03  0.46000085751E+03  0.00000000000E+00 0.  1.
         16    1    5    5    0    0 -0.16549655032E+03  0.19228081562E+03  0.18445837569E+03  0.31366528751E+03  0.00000000000E+00 0. -1.
    9900018    1    1    2    0    0 -0.37197414941E+03 -0.12123010183E+03 -0.17325897650E+02  0.40209062479E+03  0.91187600000E+02 0.  0.
<mgrwt>
<rscale>  0 0.30039392E+04</rscale>
<asrwt>0</asrwt>
<pdfrwt beam="1">  1        2 0.34871080E+00 0.30039392E+04</pdfrwt>
<pdfrwt beam="2">  1       -2 0.15311938E+00 0.30039392E+04</pdfrwt>
<totfact> 0.11493532E+00</totfact>
</mgrwt>
</event>
<event>
12    1  0.4820222E-008  0.3025567E+04  0.7818608E-02  0.8236468E-01
         -2   -1    0    0    0  501 -0.00000000000E+00  0.00000000000E+00  0.63624341199E+03  0.63624341199E+03  0.00000000000E+00 0. -1.
          2   -1    0    0  501    0  0.00000000000E+00 -0.00000000000E+00 -0.35969157371E+04  0.35969157371E+04  0.00000000000E+00 0.  1.
    9900016    2    1    2    0    0 -0.81155747890E+02  0.20692549454E+03 -0.24069176741E+04  0.32755404651E+04  0.22105447820E+04 0.  0.
         23    2    3    3    0    0 -0.23505344038E+03  0.80910992469E+02  0.11778750195E+03  0.29031126493E+03  0.92790227890E+02 0.  0.
        -24    2    3    3    0    0 -0.21284333970E+03 -0.57731644313E+03 -0.45726480132E+03  0.77084822435E+03  0.80742328997E+02 0.  0.
        -15    1    4    4    0    0 -0.17312150147E+03  0.39688244017E+02  0.38795130098E+02  0.18180009104E+03  0.00000000000E+00 0.  1.
        -15    1    3    3    0    0  0.36674103219E+03  0.70333094520E+03 -0.20674403747E+04  0.22143809758E+04  0.00000000000E+00 0.  1.
         15    1    4    4    0    0 -0.61931938913E+02  0.41222748451E+02  0.78992371853E+02  0.10851117389E+03  0.00000000000E+00 0. -1.
         15    1    5    5    0    0 -0.18260477837E+03 -0.38754544913E+03 -0.31631895895E+03  0.53253512938E+03  0.00000000000E+00 0. -1.
        -16    1    5    5    0    0 -0.30238561325E+02 -0.18977099400E+03 -0.14094584237E+03  0.23831309497E+03  0.00000000000E+00 0.  1.
         16    1    1    2    0    0  0.17073502093E+03 -0.91631326320E+02  0.14241895168E+03  0.24047849204E+03  0.00000000000E+00 0. -1.
    9900018    1    1    2    0    0 -0.89579273044E+02 -0.11529416822E+03 -0.69617360276E+03  0.71714019198E+03  0.91187600000E+02 0.  0.
<mgrwt>
<rscale>  0 0.30255670E+04</rscale>
<asrwt>0</asrwt>
<pdfrwt beam="1">  1        2 0.55337166E+00 0.30255670E+04</pdfrwt>
<pdfrwt beam="2">  1       -2 0.97883600E-01 0.30255670E+04</pdfrwt>
<totfact> 0.51456763E-01</totfact>
</mgrwt>
</event>
<event>
12    1  0.3940632E-008  0.3529826E+04  0.7818608E-02  0.8106758E-01
         -1   -1    0    0    0  501 -0.00000000000E+00  0.00000000000E+00  0.14420043472E+04  0.14420043472E+04  0.00000000000E+00 0.  1.
          1   -1    0    0  501    0  0.00000000000E+00 -0.00000000000E+00 -0.21601313305E+04  0.21601313305E+04  0.00000000000E+00 0. -1.
    9900016    2    1    2    0    0 -0.55536641294E+03 -0.69670251514E+03 -0.30847751174E+03  0.23961859081E+04  0.22028895305E+04 0.  0.
         23    2    3    3    0    0  0.35197270129E+03 -0.86996302111E+02 -0.15998099218E+03  0.40598902972E+03  0.88204508730E+02 0.  0.
         24    2    3    3    0    0 -0.95852787938E+03  0.19925827420E+02 -0.66881227364E+03  0.11717927728E+04  0.81337019921E+02 0.  0.
        -15    1    4    4    0    0  0.14679052995E+03 -0.60602987919E+02 -0.10993966150E+03  0.19314997023E+03  0.00000000000E+00 0. -1.
        -15    1    5    5    0    0 -0.38375492747E+03  0.16297686490E+02 -0.31583757758E+03  0.49727943287E+03  0.00000000000E+00 0.  1.
         15    1    3    3    0    0  0.51188765151E+02 -0.62963204045E+03  0.52031575409E+03  0.81840410556E+03  0.00000000000E+00 0. -1.
         15    1    4    4    0    0  0.20518217134E+03 -0.26393314192E+02 -0.50041330678E+02  0.21283905949E+03  0.00000000000E+00 0.  1.
        -16    1    1    2    0    0  0.64843352611E+03  0.74019487290E+03 -0.29581826047E+03  0.10275519115E+04  0.00000000000E+00 0.  1.
         16    1    5    5    0    0 -0.57477295191E+03  0.36281409301E+01 -0.35297469606E+03  0.67451333991E+03  0.00000000000E+00 0. -1.
    9900018    1    1    2    0    0 -0.93067113174E+02 -0.43492357751E+02 -0.11383121110E+03  0.17839785803E+03  0.91187600000E+02 0.  0.
<mgrwt>
<rscale>  0 0.35298265E+04</rscale>
<asrwt>0</asrwt>
<pdfrwt beam="1">  1        1 0.33232790E+00 0.35298265E+04</pdfrwt>
<pdfrwt beam="2">  1       -1 0.22184682E+00 0.35298265E+04</pdfrwt>
<totfact> 0.20189237E-01</totfact>
</mgrwt>
</event>
<event>
12    1  0.3940632E-008  0.3419347E+04  0.7818608E-02  0.8133174E-01
          2   -1    0    0  501    0  0.00000000000E+00  0.00000000000E+00  0.18035854509E+04  0.18035854509E+04  0.00000000000E+00 0. -1.
         -2   -1    0    0    0  501 -0.00000000000E+00 -0.00000000000E+00 -0.16206516920E+04  0.16206516920E+04  0.00000000000E+00 0.  1.
    9900016    2    1    2    0    0 -0.13428902657E+03 -0.38346327986E+03  0.78718747751E+03  0.23643336238E+04  0.21921066877E+04 0.  0.
         23    2    3    3    0    0 -0.49289425927E+02 -0.46549771562E+03  0.73829330691E+03  0.87913512610E+03  0.93187939935E+02 0.  0.
         24    2    3    3    0    0 -0.19977711562E+03  0.67907282192E+03 -0.31318152857E+03  0.77757746609E+03  0.74116479565E+02 0.  0.
        -15    1    5    5    0    0 -0.14237235284E+03  0.57998591926E+03 -0.26284199430E+03  0.65248713962E+03  0.00000000000E+00 0.  1.
        -15    1    4    4    0    0 -0.15217348130E+02 -0.38793805739E+03  0.55614738579E+03  0.67825321140E+03  0.00000000000E+00 0.  1.
         15    1    4    4    0    0 -0.34072077798E+02 -0.77559658236E+02  0.18214592112E+03  0.20088191470E+03  0.00000000000E+00 0. -1.
         15    1    3    3    0    0  0.11477751497E+03 -0.59703838616E+03  0.36207569916E+03  0.70762103164E+03  0.00000000000E+00 0. -1.
        -16    1    1    2    0    0  0.19991499315E+03  0.40289428502E+03 -0.75020440444E+03  0.87469792376E+03  0.00000000000E+00 0.  1.
         16    1    5    5    0    0 -0.57404762776E+02  0.99086902657E+02 -0.50339534268E+02  0.12509032648E+03  0.00000000000E+00 0. -1.
    9900018    1    1    2    0    0 -0.65625966578E+02 -0.19431005157E+02  0.14595068582E+03  0.18520559532E+03  0.91187600000E+02 0.  0.
<mgrwt>
<rscale>  0 0.34193472E+04</rscale>
<asrwt>0</asrwt>
<pdfrwt beam="1">  1        2 0.27747469E+00 0.34193472E+04</pdfrwt>
<pdfrwt beam="2">  1       -2 0.24933103E+00 0.34193472E+04</pdfrwt>
<totfact> 0.46092295E-01</totfact>
</mgrwt>
</event>
<event>
12    1  0.3940632E-008  0.4218944E+04  0.7818608E-02  0.7961779E-01
         -1   -1    0    0    0  501 -0.00000000000E+00  0.00000000000E+00  0.15775850409E+04  0.15775850409E+04  0.00000000000E+00 0.  1.
          1   -1    0    0  501    0  0.00000000000E+00 -0.00000000000E+00 -0.28206854401E+04  0.28206854401E+04  0.00000000000E+00 0. -1.
    9900016    2    1    2    0    0 -0.23645035009E+03 -0.73577698648E+03 -0.15783525156E+04  0.28117735515E+04  0.21949025718E+04 0.  0.
         23    2    3    3    0    0  0.53194967849E+02 -0.27702141429E+02  0.67435685227E+02  0.12806742287E+03  0.90865724634E+02 0.  0.
         24    2    3    3    0    0 -0.57988590466E+03 -0.50987132822E+02 -0.18466811790E+04  0.19378094546E+04  0.77503258499E+02 0.  0.
        -15    1    5    5    0    0 -0.92542782138E+02 -0.63278579241E+01 -0.39927281052E+03  0.40990606916E+03  0.00000000000E+00 0.  1.
        -15    1    4    4    0    0 -0.24778606574E+02 -0.82810980398E+01  0.57146234070E+01  0.26743463672E+02  0.00000000000E+00 0.  1.
         15    1    3    3    0    0  0.29024058672E+03 -0.65708771223E+03  0.20089297822E+03  0.74589667410E+03  0.00000000000E+00 0. -1.
         15    1    4    4    0    0  0.77973574423E+02 -0.19421043389E+02  0.61721061820E+02  0.10132395919E+03  0.00000000000E+00 0. -1.
        -16    1    1    2    0    0  0.23770902586E+03  0.96657131985E+03  0.64765299648E+03  0.11875268844E+04  0.00000000000E+00 0.  1.
         16    1    5    5    0    0 -0.48734312252E+03 -0.44659274898E+02 -0.14474083685E+04  0.15279033854E+04  0.00000000000E+00 0. -1.
    9900018    1    1    2    0    0 -0.12586757710E+01 -0.23079433338E+03 -0.31240088008E+03  0.39897004505E+03  0.91187600000E+02 0.  0.
<mgrwt>
<rscale>  0 0.42189435E+04</rscale>
<asrwt>0</asrwt>
<pdfrwt beam="1">  1        1 0.43395160E+00 0.42189435E+04</pdfrwt>
<pdfrwt beam="2">  1       -1 0.24270539E+00 0.42189435E+04</pdfrwt>
<totfact> 0.48186696E-02</totfact>
</mgrwt>
</event>
<event>
12    1  0.3940632E-008  0.3208121E+04  0.7818608E-02  0.8186676E-01
          1   -1    0    0  501    0  0.00000000000E+00  0.00000000000E+00  0.30356397336E+04  0.30356397336E+04  0.00000000000E+00 0.  1.
         -1   -1    0    0    0  501 -0.00000000000E+00 -0.00000000000E+00 -0.84760054031E+03  0.84760054031E+03  0.00000000000E+00 0. -1.
    9900016    2    1    2    0    0 -0.61362760436E+03 -0.10206306057E+03  0.19867553233E+04  0.30303478275E+04  0.22020117020E+04 0.  0.
         23    2    3    3    0    0 -0.35174456953E+03 -0.28311237421E+03  0.63583356915E+03  0.78533250113E+03  0.92660407119E+02 0.  0.
        -24    2    3    3    0    0 -0.58201328132E+03  0.81769054538E+03  0.46755504145E+03  0.11100562162E+04  0.79118889750E+02 0.  0.
        -15    1    3    3    0    0  0.32013024649E+03 -0.63664123174E+03  0.88336671269E+03  0.11349591102E+04  0.00000000000E+00 0.  1.
        -15    1    4    4    0    0 -0.18591757117E+03 -0.11455717854E+03  0.36927751655E+03  0.42901582098E+03  0.00000000000E+00 0.  1.
         15    1    5    5    0    0 -0.50874678188E+03  0.66372530403E+03  0.38928419555E+03  0.92244064968E+03  0.00000000000E+00 0. -1.
         15    1    4    4    0    0 -0.16582699836E+03 -0.16855519567E+03  0.26655605260E+03  0.35631668014E+03  0.00000000000E+00 0. -1.
        -16    1    5    5    0    0 -0.73266499448E+02  0.15396524135E+03  0.78270845904E+02  0.18761556653E+03  0.00000000000E+00 0.  1.
         16    1    1    2    0    0  0.68200799368E+03  0.25029198719E+02  0.11950371214E+03  0.69285099513E+03  0.00000000000E+00 0. -1.
    9900018    1    1    2    0    0 -0.68380389322E+02  0.77033861848E+02  0.81780157870E+02  0.16004145129E+03  0.91187600000E+02 0.  0.
<mgrwt>
<rscale>  0 0.32081209E+04</rscale>
<asrwt>0</asrwt>
<pdfrwt beam="1">  1        1 0.46702149E+00 0.32081209E+04</pdfrwt>
<pdfrwt beam="2">  1       -1 0.13040008E+00 0.32081209E+04</pdfrwt>
<totfact> 0.23661592E-01</totfact>
</mgrwt>
</event>
<event>
12    1  0.3940632E-008  0.3060676E+04  0.7818608E-02  0.8226614E-01
          2   -1    0    0  501    0  0.00000000000E+00  0.00000000000E+00  0.20094598279E+04  0.20094598279E+04  0.00000000000E+00 0. -1.
         -2   -1    0    0    0  501 -0.00000000000E+00 -0.00000000000E+00 -0.11654546038E+04  0.11654546038E+04  0.00000000000E+00 0.  1.
    9900016    2    1    2    0    0 -0.10951862357E+02 -0.62152309605E+03  0.46277756859E+03  0.23483545935E+04  0.22167984384E+04 0.  0.
         23    2    3    3    0    0 -0.21207936029E+02 -0.11898907387E+03  0.50277262215E+02  0.15529997079E+03  0.83558970678E+02 0.  0.
        -24    2    3    3    0    0  0.98112297888E+02  0.53215284916E+03 -0.55059308411E+03  0.77677621902E+03  0.86115459117E+02 0.  0.
        -15    1    3    3    0    0 -0.87856224215E+02 -0.10346868713E+04  0.96309339049E+03  0.14162784037E+04  0.00000000000E+00 0.  1.
        -15    1    4    4    0    0 -0.45644824367E+02 -0.11232911761E+03  0.37398114178E+02  0.12688537976E+03  0.00000000000E+00 0. -1.
         15    1    5    5    0    0  0.39297409658E+01  0.51812645737E+02 -0.93932369225E+02  0.10734655612E+03  0.00000000000E+00 0. -1.
         15    1    4    4    0    0  0.24436888337E+02 -0.66599562625E+01  0.12879148037E+02  0.28414591026E+02  0.00000000000E+00 0.  1.
        -16    1    5    5    0    0  0.94182556922E+02  0.48034020342E+03 -0.45666071489E+03  0.66942966290E+03  0.00000000000E+00 0.  1.
         16    1    1    2    0    0  0.48647951914E+01  0.54400438297E+03  0.43369245459E+03  0.69573959216E+03  0.00000000000E+00 0. -1.
    9900018    1    1    2    0    0  0.60870671655E+01  0.77518713073E+02 -0.52464799100E+02  0.13082024615E+03  0.91187600000E+02 0.  0.
<mgrwt>
<rscale>  0 0.30606759E+04</rscale>
<asrwt>0</asrwt>
<pdfrwt beam="1">  1        2 0.30914767E+00 0.30606759E+04</pdfrwt>
<pdfrwt beam="2">  1       -2 0.17930071E+00 0.30606759E+04</pdfrwt>
<totfact> 0.10309754E+00</totfact>
</mgrwt>
</event>
<event>
12    1  0.3940632E-008  0.3851725E+04  0.7818608E-02  0.8035145E-01
          2   -1    0    0  501    0  0.00000000000E+00  0.00000000000E+00  0.17752402511E+04  0.17752402511E+04  0.00000000000E+00 0. -1.
         -2   -1    0    0    0  501 -0.00000000000E+00 -0.00000000000E+00 -0.20892643089E+04  0.20892643089E+04  0.00000000000E+00 0.  1.
    9900016    2    1    2    0    0 -0.73472350835E+03 -0.44908679613E+03  0.43258477261E+03  0.23919805989E+04  0.21892793371E+04 0.  0.
         23    2    3    3    0    0 -0.23967760352E+03 -0.14094978522E+03 -0.80758458581E+02  0.30329985337E+03  0.90314322462E+02 0.  0.
         24    2    3    3    0    0 -0.34570308608E+03 -0.11136030081E+04  0.49509437952E+03  0.12692835460E+04  0.79624068027E+02 0.  0.
        -15    1    5    5    0    0 -0.41703779181E+02 -0.19113426463E+03  0.11017498481E+03  0.22452180204E+03  0.00000000000E+00 0.  1.
        -15    1    4    4    0    0 -0.91542488681E+02 -0.98167545078E+02 -0.12921535895E+02  0.13484754440E+03  0.00000000000E+00 0. -1.
         15    1    4    4    0    0 -0.14813511484E+03 -0.42782240146E+02 -0.67836922687E+02  0.16845230897E+03  0.00000000000E+00 0.  1.
         15    1    3    3    0    0 -0.14934281875E+03  0.80546599715E+03  0.18248851667E+02  0.81939719957E+03  0.00000000000E+00 0. -1.
        -16    1    1    2    0    0  0.78387379691E+03  0.56841823719E+03 -0.84603937782E+03  0.12858227135E+04  0.00000000000E+00 0.  1.
         16    1    5    5    0    0 -0.30399930690E+03 -0.92246874343E+03  0.38491939471E+03  0.10447617440E+04  0.00000000000E+00 0. -1.
    9900018    1    1    2    0    0 -0.49150288565E+02 -0.11933144106E+03  0.99430547402E+02  0.18670124757E+03  0.91187600000E+02 0.  0.
<mgrwt>
<rscale>  0 0.38517249E+04</rscale>
<asrwt>0</asrwt>
<pdfrwt beam="1">  1        2 0.27311388E+00 0.38517249E+04</pdfrwt>
<pdfrwt beam="2">  1       -2 0.32142528E+00 0.38517249E+04</pdfrwt>
<totfact> 0.16682760E-01</totfact>
</mgrwt>
</event>
<event>
12    1  0.3940632E-008  0.6347910E+04  0.7818608E-02  0.7648701E-01
          2   -1    0    0  501    0  0.00000000000E+00  0.00000000000E+00  0.34500339652E+04  0.34500339652E+04  0.00000000000E+00 0. -1.
         -2   -1    0    0    0  501 -0.00000000000E+00 -0.00000000000E+00 -0.29199685480E+04  0.29199685480E+04  0.00000000000E+00 0.  1.
    9900016    2    1    2    0    0 -0.44311501238E+03  0.91199218917E+03  0.21896484195E+03  0.24368103575E+04  0.22049985145E+04 0.  0.
         23    2    3    3    0    0 -0.39008806272E+02  0.16992079774E+03  0.32251865622E+02  0.19881778234E+03  0.89964233249E+02 0.  0.
         24    2    3    3    0    0  0.35902551267E+03  0.91589524068E+03  0.77831411769E+03  0.12568826622E+04  0.78852711208E+02 0.  0.
        -15    1    5    5    0    0  0.26911533925E+03  0.75029730334E+03  0.65491582627E+03  0.10316413372E+04  0.00000000000E+00 0.  1.
        -15    1    4    4    0    0 -0.24895698502E+02 -0.50812085470E+00  0.64513679109E+00  0.24909239092E+02  0.00000000000E+00 0.  1.
         15    1    3    3    0    0 -0.76313171878E+03 -0.17382384926E+03 -0.59160114137E+03  0.98110991293E+03  0.00000000000E+00 0. -1.
         15    1    4    4    0    0 -0.14113107770E+02  0.17042891860E+03  0.31606728831E+02  0.17390854324E+03  0.00000000000E+00 0. -1.
        -16    1    1    2    0    0  0.12849242195E+04 -0.20948331591E+04  0.32173465388E+03  0.24784812692E+04  0.00000000000E+00 0.  1.
         16    1    5    5    0    0  0.89910173421E+02  0.16559793734E+03  0.12339829143E+03  0.22524132494E+03  0.00000000000E+00 0. -1.
    9900018    1    1    2    0    0 -0.84180920715E+03  0.11828409699E+04 -0.10634078665E+02  0.14547108865E+04  0.91187600000E+02 0.  0.
<mgrwt>
<rscale>  0 0.63479101E+04</rscale>
<asrwt>0</asrwt>
<pdfrwt beam="1">  1        2 0.53077446E+00 0.63479101E+04</pdfrwt>
<pdfrwt beam="2">  1       -2 0.44922593E+00 0.63479101E+04</pdfrwt>
<totfact> 0.20339688E-03</totfact>
</mgrwt>
</event>
<event>
12    1  0.3940632E-008  0.2841749E+04  0.7818608E-02  0.8290423E-01
          2   -1    0    0  501    0  0.00000000000E+00  0.00000000000E+00  0.22622780236E+04  0.22622780236E+04  0.00000000000E+00 0. -1.
         -2   -1    0    0    0  501 -0.00000000000E+00 -0.00000000000E+00 -0.89241196245E+03  0.89241196245E+03  0.00000000000E+00 0.  1.
    9900016    2    1    2    0    0 -0.16612261907E+03 -0.29389590159E+02  0.12774797619E+04  0.25405430083E+04  0.21895076530E+04 0.  0.
         23    2    3    3    0    0  0.90064585901E+02  0.29188373021E+03  0.51692163021E+03  0.60823565392E+03  0.97133399619E+02 0.  0.
         24    2    3    3    0    0 -0.57279471306E+03  0.33372444900E+02  0.11696224470E+04  0.13051330986E+04  0.78410669529E+02 0.  0.
        -15    1    5    5    0    0 -0.14108538261E+03 -0.57029256759E+00  0.36619004332E+03  0.39242904868E+03  0.00000000000E+00 0.  1.
        -15    1    4    4    0    0  0.51055198286E+02  0.20707972676E+03  0.26879742978E+03  0.34313365438E+03  0.00000000000E+00 0.  1.
         15    1    3    3    0    0  0.31660750809E+03 -0.35464576527E+03 -0.40906431537E+03  0.62717425578E+03  0.00000000000E+00 0. -1.
         15    1    4    4    0    0  0.39009387615E+02  0.84804003451E+02  0.24812420043E+03  0.26510199954E+03  0.00000000000E+00 0. -1.
        -16    1    1    2    0    0 -0.27527139089E+02  0.10792868520E+03 -0.20864712363E+03  0.23651631376E+03  0.00000000000E+00 0.  1.
         16    1    5    5    0    0 -0.43170933045E+03  0.33942737468E+02  0.80343240370E+03  0.91270404992E+03  0.00000000000E+00 0. -1.
    9900018    1    1    2    0    0  0.19364975816E+03 -0.78539095041E+02  0.30103342293E+03  0.37763066401E+03  0.91187600000E+02 0.  0.
<mgrwt>
<rscale>  0 0.28417487E+04</rscale>
<asrwt>0</asrwt>
<pdfrwt beam="1">  1        2 0.34804277E+00 0.28417487E+04</pdfrwt>
<pdfrwt beam="2">  1       -2 0.13729415E+00 0.28417487E+04</pdfrwt>
<totfact> 0.15601880E+00</totfact>
</mgrwt>
</event>
<event>
12    1  0.3940632E-008  0.4059598E+04  0.7818608E-02  0.7992630E-01
          2   -1    0    0  501    0  0.00000000000E+00  0.00000000000E+00  0.20267733104E+04  0.20267733104E+04  0.00000000000E+00 0. -1.
         -2   -1    0    0    0  501 -0.00000000000E+00 -0.00000000000E+00 -0.20328293966E+04  0.20328293966E+04  0.00000000000E+00 0.  1.
    9900016    2    1    2    0    0  0.84650325689E+03  0.14571391366E+03  0.32836035934E+03  0.23904162196E+04  0.22064607109E+04 0.  0.
         23    2    3    3    0    0 -0.52899039926E+02  0.21088343840E+03  0.25602019561E+03  0.34826366076E+03  0.92038599665E+02 0.  0.
        -24    2    3    3    0    0 -0.19582311480E+03  0.41589925049E+03  0.57893378965E+03  0.74308251820E+03  0.75421596386E+02 0.  0.
        -15    1    3    3    0    0  0.10952254116E+04 -0.48106877523E+03 -0.50659362593E+03  0.12990700407E+04  0.00000000000E+00 0.  1.
        -15    1    4    4    0    0 -0.35098364649E+02  0.18810159176E+03  0.16467373501E+03  0.25245107056E+03  0.00000000000E+00 0. -1.
         15    1    5    5    0    0 -0.11520429679E+03  0.23077089595E+03  0.38278721586E+03  0.46157695896E+03  0.00000000000E+00 0. -1.
         15    1    4    4    0    0 -0.17800675277E+02  0.22781846639E+02  0.91346460601E+02  0.95812590200E+02  0.00000000000E+00 0.  1.
        -16    1    5    5    0    0 -0.80618818008E+02  0.18512835454E+03  0.19614657379E+03  0.28150555924E+03  0.00000000000E+00 0.  1.
         16    1    1    2    0    0 -0.30503062918E+02 -0.49464986426E+03  0.29556241807E+03  0.57703212045E+03  0.00000000000E+00 0. -1.
    9900018    1    1    2    0    0 -0.81600019397E+03  0.34893595060E+03 -0.62997886363E+03  0.10921543669E+04  0.91187600000E+02 0.  0.
<mgrwt>
<rscale>  0 0.40595982E+04</rscale>
<asrwt>0</asrwt>
<pdfrwt beam="1">  1        2 0.31181128E+00 0.40595982E+04</pdfrwt>
<pdfrwt beam="2">  1       -2 0.31274298E+00 0.40595982E+04</pdfrwt>
<totfact> 0.13453032E-01</totfact>
</mgrwt>
</event>
<event>
12    1  0.3940632E-008  0.3455156E+04  0.7818608E-02  0.8124500E-01
         -1   -1    0    0    0  501 -0.00000000000E+00  0.00000000000E+00  0.20245731158E+04  0.20245731158E+04  0.00000000000E+00 0.  1.
          1   -1    0    0  501    0  0.00000000000E+00 -0.00000000000E+00 -0.14741509285E+04  0.14741509285E+04  0.00000000000E+00 0. -1.
    9900016    2    1    2    0    0  0.31971749033E+03 -0.36863560650E+03  0.36758218122E+03  0.22820171370E+04  0.21987210077E+04 0.  0.
         23    2    3    3    0    0  0.41294713558E+03  0.28267088489E+03  0.42215467630E+03  0.66112885553E+03  0.91916412805E+02 0.  0.
         24    2    3    3    0    0 -0.29531728460E+03  0.91198569124E+02  0.55431940718E+03  0.63961231242E+03  0.79400424598E+02 0.  0.
        -15    1    5    5    0    0 -0.10951944114E+03  0.70502427624E+02  0.19376689416E+03  0.23347528683E+03  0.00000000000E+00 0.  1.
        -15    1    4    4    0    0  0.85521579733E+02  0.30160672426E+02  0.43983873367E+02  0.10078783596E+03  0.00000000000E+00 0. -1.
         15    1    4    4    0    0  0.32742555585E+03  0.25251021247E+03  0.37817080293E+03  0.56034101957E+03  0.00000000000E+00 0.  1.
         15    1    3    3    0    0  0.20208763936E+03 -0.74250506052E+03 -0.60889190226E+03  0.98127596909E+03  0.00000000000E+00 0. -1.
        -16    1    1    2    0    0  0.19304250857E+03  0.53199544662E+03 -0.13940894494E+03  0.58285454383E+03  0.00000000000E+00 0.  1.
         16    1    5    5    0    0 -0.18579784346E+03  0.20696141500E+02  0.36055251302E+03  0.40613702559E+03  0.00000000000E+00 0. -1.
    9900018    1    1    2    0    0 -0.51275999891E+03 -0.16335984012E+03  0.32224895096E+03  0.63385236343E+03  0.91187600000E+02 0.  0.
<mgrwt>
<rscale>  0 0.34551563E+04</rscale>
<asrwt>0</asrwt>
<pdfrwt beam="1">  1        1 0.22679245E+00 0.34551563E+04</pdfrwt>
<pdfrwt beam="2">  1       -1 0.31147279E+00 0.34551563E+04</pdfrwt>
<totfact> 0.15527385E-01</totfact>
</mgrwt>
</event>
<event>
12    1  0.3940632E-008  0.3806639E+04  0.7818608E-02  0.8044732E-01
          2   -1    0    0  501    0  0.00000000000E+00  0.00000000000E+00  0.16538427079E+04  0.16538427079E+04  0.00000000000E+00 0.  1.
         -2   -1    0    0    0  501 -0.00000000000E+00 -0.00000000000E+00 -0.21904292834E+04  0.21904292834E+04  0.00000000000E+00 0. -1.
    9900016    2    1    2    0    0 -0.20335246887E+03  0.10222044557E+04  0.16994232455E+03  0.24440506026E+04  0.22041435476E+04 0.  0.
         23    2    3    3    0    0 -0.25649605507E+03 -0.36099930499E+03  0.27266618538E+02  0.45263706585E+03  0.89588617696E+02 0.  0.
         24    2    3    3    0    0  0.33313179558E+03  0.19257675167E+03 -0.47908647092E+03  0.61934419562E+03  0.77464750173E+02 0.  0.
        -15    1    4    4    0    0 -0.18960465324E+03 -0.21357475954E+03  0.47395173408E+02  0.28950026754E+03  0.00000000000E+00 0.  1.
        -15    1    5    5    0    0  0.14843614342E+03  0.49830500021E+02 -0.15869803257E+03  0.22293818190E+03  0.00000000000E+00 0.  1.
         15    1    4    4    0    0 -0.66891401827E+02 -0.14742454546E+03 -0.20128554870E+02  0.16313679831E+03  0.00000000000E+00 0. -1.
         15    1    3    3    0    0 -0.27998820938E+03  0.11906270091E+04  0.62176217694E+03  0.13720693411E+04  0.00000000000E+00 0. -1.
        -16    1    1    2    0    0  0.15267008410E+03 -0.10576560655E+04 -0.53174822053E+03  0.11936082596E+04  0.00000000000E+00 0.  1.
         16    1    5    5    0    0  0.18469565216E+03  0.14274625165E+03 -0.32038843836E+03  0.39640601373E+03  0.00000000000E+00 0. -1.
    9900018    1    1    2    0    0  0.50682384772E+02  0.35451609733E+02 -0.17478067955E+03  0.20661312905E+03  0.91187600000E+02 0.  0.
<mgrwt>
<rscale>  0 0.38066392E+04</rscale>
<asrwt>0</asrwt>
<pdfrwt beam="1">  1        2 0.25443734E+00 0.38066392E+04</pdfrwt>
<pdfrwt beam="2">  1       -2 0.33698912E+00 0.38066392E+04</pdfrwt>
<totfact> 0.15654095E-01</totfact>
</mgrwt>
</event>
<event>
12    1  0.3940632E-008  0.3923964E+04  0.7818608E-02  0.8020064E-01
         -2   -1    0    0    0  501 -0.00000000000E+00  0.00000000000E+00  0.12676778497E+04  0.12676778497E+04  0.00000000000E+00 0.  1.
          2   -1    0    0  501    0  0.00000000000E+00 -0.00000000000E+00 -0.30365543743E+04  0.30365543743E+04  0.00000000000E+00 0. -1.
    9900016    2    1    2    0    0  0.66356795327E+03  0.65404616794E+03 -0.17949398703E+04  0.29843233916E+04  0.21946020480E+04 0.  0.
         23    2    3    3    0    0  0.67490646200E+02  0.47095659908E+02 -0.10489463014E+03  0.16138297972E+03  0.90931810731E+02 0.  0.
         24    2    3    3    0    0 -0.71882548613E+03  0.59673088937E+03 -0.58426634020E+03  0.11048540427E+04  0.80854595407E+02 0.  0.
        -15    1    5    5    0    0 -0.27413779787E+03  0.27847107235E+03 -0.25226871868E+03  0.46512060456E+03  0.00000000000E+00 0.  1.
        -15    1    4    4    0    0  0.27927273216E+02  0.49547353296E+02 -0.10754149867E+03  0.12165544273E+03  0.00000000000E+00 0.  1.
         15    1    3    3    0    0  0.13149027932E+04  0.10219618662E+02 -0.11057789000E+04  0.17180863692E+04  0.00000000000E+00 0. -1.
         15    1    4    4    0    0  0.39563372984E+02 -0.24516933884E+01  0.26468685304E+01  0.39727536990E+02  0.00000000000E+00 0. -1.
        -16    1    1    2    0    0 -0.76866194108E+03 -0.28256997333E+03  0.26018524293E+03  0.85929234265E+03  0.00000000000E+00 0.  1.
         16    1    5    5    0    0 -0.44468768826E+03  0.31825981702E+03 -0.33199762152E+03  0.63973343817E+03  0.00000000000E+00 0. -1.
    9900018    1    1    2    0    0  0.10509398781E+03 -0.37147619461E+03 -0.23412189724E+03  0.46061648971E+03  0.91187600000E+02 0.  0.
<mgrwt>
<rscale>  0 0.39239637E+04</rscale>
<asrwt>0</asrwt>
<pdfrwt beam="1">  1        2 0.46716221E+00 0.39239637E+04</pdfrwt>
<pdfrwt beam="2">  1       -2 0.19502736E+00 0.39239637E+04</pdfrwt>
<totfact> 0.18789994E-01</totfact>
</mgrwt>
</event>
<event>
12    1  0.3940632E-008  0.3291199E+04  0.7818608E-02  0.8165138E-01
          2   -1    0    0  501    0  0.00000000000E+00  0.00000000000E+00  0.26828688404E+04  0.26828688404E+04  0.00000000000E+00 0. -1.
         -2   -1    0    0    0  501 -0.00000000000E+00 -0.00000000000E+00 -0.10093663292E+04  0.10093663292E+04  0.00000000000E+00 0.  1.
    9900016    2    1    2    0    0 -0.19460268624E+03  0.23639080921E+03  0.89495957506E+03  0.23742323016E+04  0.21776766428E+04 0.  0.
         23    2    3    3    0    0  0.92238579085E+02 -0.34920717557E+02  0.86526766513E+02  0.15959143339E+03  0.90857758631E+02 0.  0.
         24    2    3    3    0    0  0.49860132979E+03 -0.55067026952E+03  0.77593007983E+03  0.10772620522E+04  0.81148065760E+02 0.  0.
        -15    1    5    5    0    0  0.46000490585E+03 -0.53332813015E+03  0.74186286291E+03  0.10229388619E+04  0.00000000000E+00 0.  1.
        -15    1    4    4    0    0  0.32363536171E+02  0.22141725338E+02  0.61929608631E+02  0.73300278987E+02  0.00000000000E+00 0.  1.
         15    1    4    4    0    0  0.59875042913E+02 -0.57062442895E+02  0.24597157882E+02  0.86291154407E+02  0.00000000000E+00 0. -1.
         15    1    3    3    0    0 -0.78544259511E+03  0.82198179629E+03  0.32502728713E+02  0.11373788160E+04  0.00000000000E+00 0. -1.
        -16    1    1    2    0    0  0.64289893176E+02  0.40076563162E+03  0.32371810008E+03  0.51917211999E+03  0.00000000000E+00 0.  1.
         16    1    5    5    0    0  0.38596423935E+02 -0.17342139375E+02  0.34067216921E+02  0.54323190328E+02  0.00000000000E+00 0. -1.
    9900018    1    1    2    0    0  0.13031279306E+03 -0.63715644084E+03  0.45482483598E+03  0.79883074800E+03  0.91187600000E+02 0.  0.
<mgrwt>
<rscale>  0 0.32911989E+04</rscale>
<asrwt>0</asrwt>
<pdfrwt beam="1">  1        2 0.41274905E+00 0.32911989E+04</pdfrwt>
<pdfrwt beam="2">  1       -2 0.15528713E+00 0.32911989E+04</pdfrwt>
<totfact> 0.62047249E-01</totfact>
</mgrwt>
</event>
<event>
12    1  0.3940632E-008  0.3537034E+04  0.7818608E-02  0.8105069E-01
          1   -1    0    0  501    0  0.00000000000E+00  0.00000000000E+00  0.22481135920E+04  0.22481135920E+04  0.00000000000E+00 0. -1.
         -1   -1    0    0    0  501 -0.00000000000E+00 -0.00000000000E+00 -0.13912340506E+04  0.13912340506E+04  0.00000000000E+00 0.  1.
    9900016    2    1    2    0    0 -0.19755208355E+03  0.32838015630E+02  0.98898714248E+03  0.24313524991E+04  0.22120746474E+04 0.  0.
         23    2    3    3    0    0  0.30304279013E+02  0.26264942736E+03  0.16304904626E+03  0.32343692706E+03  0.90129813496E+02 0.  0.
         24    2    3    3    0    0 -0.64742442771E+03  0.12437717965E+03  0.12490858966E+04  0.14147049399E+04  0.80909935181E+02 0.  0.
        -15    1    5    5    0    0 -0.51243587472E+03  0.71176864171E+02  0.10162695362E+04  0.11403773244E+04  0.00000000000E+00 0.  1.
        -15    1    4    4    0    0 -0.31359590729E+02  0.71971852850E+02  0.37984529337E+02  0.87213508141E+02  0.00000000000E+00 0.  1.
         15    1    4    4    0    0  0.61663869742E+02  0.19067757451E+03  0.12506451692E+03  0.23622341891E+03  0.00000000000E+00 0. -1.
         15    1    3    3    0    0  0.41956806516E+03 -0.35418859138E+03 -0.42314780032E+03  0.69321063212E+03  0.00000000000E+00 0. -1.
        -16    1    1    2    0    0  0.47723949133E+03  0.50192243650E+02 -0.52430158271E+03  0.71075237815E+03  0.00000000000E+00 0.  1.
         16    1    5    5    0    0 -0.13498855299E+03  0.53200315483E+02  0.23281636035E+03  0.27432761555E+03  0.00000000000E+00 0. -1.
    9900018    1    1    2    0    0 -0.27968740778E+03 -0.83030259280E+02  0.39219398166E+03  0.49724276533E+03  0.91187600000E+02 0.  0.
<mgrwt>
<rscale>  0 0.35370339E+04</rscale>
<asrwt>0</asrwt>
<pdfrwt beam="1">  1        1 0.34586363E+00 0.35370339E+04</pdfrwt>
<pdfrwt beam="2">  1       -1 0.21403601E+00 0.35370339E+04</pdfrwt>
<totfact> 0.19829891E-01</totfact>
</mgrwt>
</event>
<event>
12    1  0.3940632E-008  0.3299341E+04  0.7818608E-02  0.8163063E-01
          1   -1    0    0  501    0  0.00000000000E+00  0.00000000000E+00  0.21552278426E+04  0.21552278426E+04  0.00000000000E+00 0. -1.
         -1   -1    0    0    0  501 -0.00000000000E+00 -0.00000000000E+00 -0.12627029779E+04  0.12627029779E+04  0.00000000000E+00 0.  1.
    9900016    2    1    2    0    0  0.49160489234E+03  0.18691434291E+03  0.64244215136E+03  0.23619083739E+04  0.22111686745E+04 0.  0.
         23    2    3    3    0    0 -0.13880580581E+03 -0.24574102725E+03  0.33202787580E+01  0.29594589582E+03  0.88978900878E+02 0.  0.
         24    2    3    3    0    0 -0.62786033557E+03  0.29187876987E+03  0.26690179224E+03  0.74626105966E+03  0.79165555484E+02 0.  0.
        -15    1    5    5    0    0 -0.31351140865E+03  0.18802362753E+03  0.12972719200E+03  0.38790647353E+03  0.00000000000E+00 0.  1.
        -15    1    4    4    0    0 -0.29476289736E+02 -0.14140057568E+03 -0.56558676587E+01  0.14455090210E+03  0.00000000000E+00 0.  1.
         15    1    4    4    0    0 -0.10932951608E+03 -0.10434045157E+03  0.89761464167E+01  0.15139499372E+03  0.00000000000E+00 0. -1.
         15    1    3    3    0    0  0.12582710337E+04  0.14077660028E+03  0.37222008037E+03  0.13197014184E+04  0.00000000000E+00 0. -1.
        -16    1    1    2    0    0  0.22548610083E+03 -0.20231811942E+03  0.75651082357E+02  0.31224940252E+03  0.00000000000E+00 0.  1.
         16    1    5    5    0    0 -0.31434892693E+03  0.10385514235E+03  0.13717460024E+03  0.35835458613E+03  0.00000000000E+00 0. -1.
    9900018    1    1    2    0    0 -0.71709099317E+03  0.15403776508E+02  0.17443163097E+03  0.74377304408E+03  0.91187600000E+02 0.  0.
<mgrwt>
<rscale>  0 0.32993409E+04</rscale>
<asrwt>0</asrwt>
<pdfrwt beam="1">  1        1 0.33157351E+00 0.32993409E+04</pdfrwt>
<pdfrwt beam="2">  1       -1 0.19426200E+00 0.32993409E+04</pdfrwt>
<totfact> 0.31987030E-01</totfact>
</mgrwt>
</event>
<event>
12    1  0.3940632E-008  0.3203771E+04  0.7818608E-02  0.8187822E-01
         -2   -1    0    0    0  501 -0.00000000000E+00  0.00000000000E+00  0.13017814454E+04  0.13017814454E+04  0.00000000000E+00 0.  1.
          2   -1    0    0  501    0  0.00000000000E+00 -0.00000000000E+00 -0.19711736864E+04  0.19711736864E+04  0.00000000000E+00 0. -1.
    9900016    2    1    2    0    0 -0.19589595685E+02 -0.32889452175E+03 -0.90847689139E+03  0.24011157109E+04  0.21980607445E+04 0.  0.
         23    2    3    3    0    0 -0.62779925240E+01  0.12657495517E+02 -0.87263727234E+02  0.12867496095E+03  0.93502203727E+02 0.  0.
        -24    2    3    3    0    0  0.69798989987E+03 -0.17862966882E+02  0.41039210262E+03  0.81381949594E+03  0.79821727460E+02 0.  0.
        -15    1    4    4    0    0 -0.94600836524E+01  0.28682945185E+02  0.86203586035E+01  0.31408838082E+02  0.00000000000E+00 0.  1.
        -15    1    3    3    0    0 -0.71130150303E+03 -0.32368905039E+03 -0.12316052668E+04  0.14586212540E+04  0.00000000000E+00 0.  1.
         15    1    5    5    0    0  0.59314876139E+03  0.25170304838E+01  0.37286880490E+03  0.70061611047E+03  0.00000000000E+00 0. -1.
         15    1    4    4    0    0  0.31820911283E+01 -0.16025449668E+02 -0.95884085837E+02  0.97266122868E+02  0.00000000000E+00 0. -1.
        -16    1    5    5    0    0  0.10484113848E+03 -0.20379997366E+02  0.37523297715E+02  0.11320338547E+03  0.00000000000E+00 0.  1.
         16    1    1    2    0    0  0.29587000636E+03  0.63119251414E+02 -0.13244733320E+03  0.33025050588E+03  0.00000000000E+00 0. -1.
    9900018    1    1    2    0    0 -0.27628041068E+03  0.26577527034E+03  0.37153198363E+03  0.54158891504E+03  0.91187600000E+02 0.  0.
<mgrwt>
<rscale>  0 0.32037711E+04</rscale>
<asrwt>0</asrwt>
<pdfrwt beam="1">  1        2 0.30325749E+00 0.32037711E+04</pdfrwt>
<pdfrwt beam="2">  1       -2 0.20027407E+00 0.32037711E+04</pdfrwt>
<totfact> 0.77301507E-01</totfact>
</mgrwt>
</event>
<event>
12    1  0.3940632E-008  0.3461441E+04  0.7818608E-02  0.8122989E-01
          2   -1    0    0  501    0  0.00000000000E+00  0.00000000000E+00  0.24483112146E+04  0.24483112146E+04  0.00000000000E+00 0. -1.
         -2   -1    0    0    0  501 -0.00000000000E+00 -0.00000000000E+00 -0.12234531225E+04  0.12234531225E+04  0.00000000000E+00 0.  1.
    9900016    2    1    2    0    0  0.52231790969E+03  0.43445794446E+03  0.22543488392E+03  0.23167503707E+04  0.22033932216E+04 0.  0.
         23    2    3    3    0    0 -0.11191133439E+01  0.85374839357E+02  0.62599358414E+02  0.13975441838E+03  0.91227748917E+02 0.  0.
        -24    2    3    3    0    0  0.68147588342E+03 -0.31576469130E+03  0.89794971065E+03  0.11733068874E+04  0.78858412411E+02 0.  0.
        -15    1    4    4    0    0 -0.33110940284E+02  0.48277015402E+01  0.35879889370E+02  0.49061263028E+02  0.00000000000E+00 0.  1.
        -15    1    3    3    0    0 -0.15803886039E+03  0.66484779640E+03 -0.73511418515E+03  0.10036890649E+04  0.00000000000E+00 0.  1.
         15    1    5    5    0    0  0.98065303970E+02 -0.16599846941E+02  0.12489906177E+03  0.15966256415E+03  0.00000000000E+00 0. -1.
         15    1    4    4    0    0  0.31991826940E+02  0.80547137817E+02  0.26719469044E+02  0.90693155351E+02  0.00000000000E+00 0. -1.
        -16    1    5    5    0    0  0.58341057945E+03 -0.29916484435E+03  0.77305064889E+03  0.10136443233E+04  0.00000000000E+00 0.  1.
         16    1    1    2    0    0 -0.50189722135E+02 -0.36253905215E+03  0.68309381857E+03  0.77496499115E+03  0.00000000000E+00 0. -1.
    9900018    1    1    2    0    0 -0.47212818755E+03 -0.71918892308E+02  0.31632938969E+03  0.58004897528E+03  0.91187600000E+02 0.  0.
<mgrwt>
<rscale>  0 0.34614413E+04</rscale>
<asrwt>0</asrwt>
<pdfrwt beam="1">  1        2 0.37666326E+00 0.34614413E+04</pdfrwt>
<pdfrwt beam="2">  1       -2 0.18822356E+00 0.34614413E+04</pdfrwt>
<totfact> 0.48972432E-01</totfact>
</mgrwt>
</event>
<event>
12    1  0.3940632E-008  0.5060978E+04  0.7818608E-02  0.7819169E-01
         -2   -1    0    0    0  501 -0.00000000000E+00  0.00000000000E+00  0.26744687217E+04  0.26744687217E+04  0.00000000000E+00 0.  1.
          2   -1    0    0  501    0  0.00000000000E+00 -0.00000000000E+00 -0.23942603326E+04  0.23942603326E+04  0.00000000000E+00 0. -1.
    9900016    2    1    2    0    0 -0.69362636429E+01  0.48013079175E+02 -0.59110319483E+03  0.22704795972E+04  0.21916480663E+04 0.  0.
         23    2    3    3    0    0  0.44353300417E+03  0.19385652467E+03 -0.13745473816E+01  0.49353764394E+03  0.96310117107E+02 0.  0.
         24    2    3    3    0    0  0.19243251518E+03  0.56755780268E+03  0.74630801619E+02  0.60919304142E+03  0.79964197513E+02 0.  0.
        -15    1    5    5    0    0  0.11560201030E+03  0.42742598268E+03  0.32794543948E+02  0.44399580805E+03  0.00000000000E+00 0.  1.
        -15    1    4    4    0    0  0.52277737145E+02 -0.77439871274E+01  0.70527045751E+01  0.53316712009E+02  0.00000000000E+00 0.  1.
         15    1    4    4    0    0  0.39125526702E+03  0.20160051180E+03 -0.84272519567E+01  0.44022093193E+03  0.00000000000E+00 0. -1.
         15    1    3    3    0    0 -0.64290178299E+03 -0.71340124818E+03 -0.66435944906E+03  0.11677489118E+04  0.00000000000E+00 0. -1.
        -16    1    1    2    0    0 -0.78197871148E+03 -0.10946585250E+04  0.44683163998E+03  0.14175424178E+04  0.00000000000E+00 0.  1.
         16    1    5    5    0    0  0.76830504882E+02  0.14013182000E+03  0.41836257671E+02  0.16519723337E+03  0.00000000000E+00 0. -1.
    9900018    1    1    2    0    0  0.78891497512E+03  0.10466454459E+04  0.42447994394E+03  0.13807070394E+04  0.91187600000E+02 0.  0.
<mgrwt>
<rscale>  0 0.50609779E+04</rscale>
<asrwt>0</asrwt>
<pdfrwt beam="1">  1        2 0.36834774E+00 0.50609779E+04</pdfrwt>
<pdfrwt beam="2">  1       -2 0.41145673E+00 0.50609779E+04</pdfrwt>
<totfact> 0.18136987E-02</totfact>
</mgrwt>
</event>
