<event>
12    1  0.1640754E-007  0.2817769E+04  0.7818608E-02  0.8297773E-01
          2   -1    0    0  501    0  0.00000000000E+00  0.00000000000E+00  0.12804175497E+04  0.12804175497E+04  0.00000000000E+00 0. -1.
         -2   -1    0    0    0  501 -0.00000000000E+00 -0.00000000000E+00 -0.15502406300E+04  0.15502406300E+04  0.00000000000E+00 0.  1.
    9900016    2    1    2    0    0  0.44342434717E+03 -0.32339044779E+03 -0.18479842851E+03  0.22752882807E+04  0.22003590088E+04 0.  0.
         23    2    3    3    0    0  0.12192022500E+03 -0.29704956352E+03 -0.30651148248E+03  0.45328552630E+03  0.91736007185E+02 0.  0.
        -24    2    3    3    0    0  0.52736758227E+02  0.68015936008E+03  0.34647609889E+03  0.76899403636E+03  0.76864947034E+02 0.  0.
        -15    1    4    4    0    0  0.12165274625E+03 -0.19869495283E+03 -0.24043685579E+03  0.33479688854E+03  0.00000000000E+00 0.  1.
        -15    1    3    3    0    0 -0.23030919561E+03 -0.20251699722E+03 -0.12028344863E+02  0.30692041448E+03  0.00000000000E+00 0.  1.
         15    1    5    5    0    0 -0.21653365816E+01  0.29386923041E+03  0.11677427853E+03  0.31622783779E+03  0.00000000000E+00 0. -1.
         15    1    4    4    0    0  0.26747874961E+00 -0.98354610681E+02 -0.66074626686E+02  0.11848863776E+03  0.00000000000E+00 0. -1.
        -16    1    5    5    0    0  0.54902094809E+02  0.38629012967E+03  0.22970182036E+03  0.45276619857E+03  0.00000000000E+00 0.  1.
         16    1    1    2    0    0 -0.44342434717E+03  0.32339044779E+03 -0.85024651794E+02  0.55536989907E+03  0.00000000000E+00 0. -1.
    9900018    1    3    3    0    0  0.49907655956E+03 -0.50398324714E+03 -0.21273470006E+03  0.74608830355E+03  0.91187600000E+02 0.  0.
<mgrwt>
<rscale>  0 0.28177688E+04</rscale>
<asrwt>0</asrwt>
<pdfrwt beam="1">  1        2 0.19698732E+00 0.28177688E+04</pdfrwt>
<pdfrwt beam="2">  1       -2 0.23849856E+00 0.28177688E+04</pdfrwt>
<totfact> 0.11161475E+00</totfact>
</mgrwt>
</event>
<event>
12    1  0.1640754E-007  0.2632813E+04  0.7818608E-02  0.8357140E-01
         -2   -1    0    0    0  501 -0.00000000000E+00  0.00000000000E+00  0.16984046653E+04  0.16984046653E+04  0.00000000000E+00 0.  1.
          2   -1    0    0  501    0  0.00000000000E+00 -0.00000000000E+00 -0.10203256445E+04  0.10203256445E+04  0.00000000000E+00 0. -1.
    9900016    2    1    2    0    0  0.31755480342E+03 -0.53964463955E+01  0.81576204083E+03  0.23725702474E+04  0.22051647777E+04 0.  0.
         23    2    3    3    0    0  0.20434323287E+03  0.27917574922E+02  0.41304801659E+03  0.47036264643E+03  0.89982261222E+02 0.  0.
         24    2    3    3    0    0 -0.12823282345E+03  0.53978958683E+03  0.75176008621E+03  0.93746576704E+03  0.76696689000E+02 0.  0.
        -15    1    4    4    0    0  0.13138948991E+03 -0.11432086366E+02  0.31790732186E+03  0.34417866864E+03  0.00000000000E+00 0. -1.
        -15    1    5    5    0    0 -0.36406635196E+02  0.12197973311E+03  0.12323750583E+03  0.17717782373E+03  0.00000000000E+00 0.  1.
         15    1    4    4    0    0  0.72953742962E+02  0.39349661288E+02  0.95140694737E+02  0.12618397779E+03  0.00000000000E+00 0.  1.
         15    1    3    3    0    0  0.45656488376E+03 -0.34402600247E+03 -0.20641086678E+03  0.60779176482E+03  0.00000000000E+00 0. -1.
        -16    1    1    2    0    0 -0.31755480342E+03  0.53964463955E+01 -0.13768301998E+03  0.34616006240E+03  0.00000000000E+00 0.  1.
         16    1    5    5    0    0 -0.91826188254E+02  0.41780985372E+03  0.62852258037E+03  0.76028794332E+03  0.00000000000E+00 0. -1.
    9900018    1    3    3    0    0 -0.21512048977E+03 -0.22907760568E+03 -0.14263519520E+03  0.35695006912E+03  0.91187600000E+02 0.  0.
<mgrwt>
<rscale>  0 0.26328128E+04</rscale>
<asrwt>0</asrwt>
<pdfrwt beam="1">  1        2 0.15697318E+00 0.26328128E+04</pdfrwt>
<pdfrwt beam="2">  1       -2 0.26129303E+00 0.26328128E+04</pdfrwt>
<totfact> 0.11813250E+00</totfact>
</mgrwt>
</event>
<event>
12    1  0.1640754E-007  0.2901904E+04  0.7818608E-02  0.8272311E-01
          1   -1    0    0  501    0  0.00000000000E+00  0.00000000000E+00  0.15104806261E+04  0.15104806261E+04  0.00000000000E+00 0. -1.
         -1   -1    0    0    0  501 -0.00000000000E+00 -0.00000000000E+00 -0.13937690476E+04  0.13937690476E+04  0.00000000000E+00 0.  1.
    9900016    2    1    2    0    0 -0.44185311163E+03  0.26189127244E+03 -0.26007119962E+03  0.22672359590E+04  0.21929205763E+04 0.  0.
         23    2    3    3    0    0  0.56980051225E+02 -0.49188730387E+02 -0.34875216543E+02  0.12543281958E+03  0.94078977805E+02 0.  0.
        -24    2    3    3    0    0  0.37779254483E+02  0.83345420447E+03  0.43877390784E+03  0.94595959371E+03  0.79017894925E+02 0.  0.
        -15    1    4    4    0    0  0.25751495713E+02 -0.75406342510E+02 -0.21743998831E+02  0.82595747514E+02  0.00000000000E+00 0. -1.
        -15    1    3    3    0    0 -0.18199869661E+03 -0.12783593533E+03 -0.61661790300E+03  0.65550224273E+03  0.00000000000E+00 0.  1.
         15    1    5    5    0    0  0.45900388801E+01  0.15103784364E+03  0.46345886627E+02  0.15805517985E+03  0.00000000000E+00 0. -1.
         15    1    4    4    0    0  0.31228555511E+02  0.26217612124E+02 -0.13131217712E+02  0.42837072068E+02  0.00000000000E+00 0.  1.
        -16    1    5    5    0    0  0.33189215603E+02  0.68241636083E+03  0.39242802121E+03  0.78790441386E+03  0.00000000000E+00 0.  1.
         16    1    1    2    0    0  0.44185311163E+03 -0.26189127244E+03  0.37678277817E+03  0.63701371474E+03  0.00000000000E+00 0. -1.
    9900018    1    3    3    0    0 -0.35461372073E+03 -0.39453826632E+03 -0.47351987918E+02  0.54034130295E+03  0.91187600000E+02 0.  0.
<mgrwt>
<rscale>  0 0.29019036E+04</rscale>
<asrwt>0</asrwt>
<pdfrwt beam="1">  1        1 0.23238163E+00 0.29019036E+04</pdfrwt>
<pdfrwt beam="2">  1       -1 0.21442601E+00 0.29019036E+04</pdfrwt>
<totfact> 0.66243655E-01</totfact>
</mgrwt>
</event>
<event>
12    1  0.1640754E-007  0.2297099E+04  0.7818608E-02  0.8479066E-01
         -1   -1    0    0    0  501 -0.00000000000E+00  0.00000000000E+00  0.19752014734E+04  0.19752014734E+04  0.00000000000E+00 0.  1.
          1   -1    0    0  501    0  0.00000000000E+00 -0.00000000000E+00 -0.66786379456E+03  0.66786379456E+03  0.00000000000E+00 0. -1.
    9900016    2    1    2    0    0 -0.34444709557E+02  0.66471592153E+02  0.13334971292E+04  0.25637606186E+04  0.21883895917E+04 0.  0.
         23    2    3    3    0    0  0.12714973490E+01  0.70420369855E+02  0.64767628863E+02  0.13306131841E+03  0.92465255700E+02 0.  0.
        -24    2    3    3    0    0  0.16435508260E+03 -0.40237807720E+03  0.15338988015E+04  0.15964198828E+04  0.82402661891E+02 0.  0.
        -15    1    3    3    0    0 -0.23050468809E+03 -0.59422792907E+02 -0.27835526472E+03  0.36625828721E+03  0.00000000000E+00 0.  1.
        -15    1    4    4    0    0 -0.41297262676E+02  0.43353954443E+02  0.55760704414E+02  0.81818612962E+02  0.00000000000E+00 0. -1.
         15    1    5    5    0    0  0.67795466842E+02 -0.84231620673E+02  0.31776329143E+03  0.33565562802E+03  0.00000000000E+00 0. -1.
         15    1    4    4    0    0  0.42568760024E+02  0.27066415411E+02  0.90069244496E+01  0.51242705445E+02  0.00000000000E+00 0.  1.
        -16    1    5    5    0    0  0.96559615755E+02 -0.31814645652E+03  0.12161355101E+04  0.12607642548E+04  0.00000000000E+00 0.  1.
         16    1    1    2    0    0  0.34444709557E+02 -0.66471592153E+02 -0.26159450326E+02  0.79304649430E+02  0.00000000000E+00 0. -1.
    9900018    1    3    3    0    0  0.30433398588E+02  0.45785209240E+03  0.13185963556E+02  0.46802113018E+03  0.91187600000E+02 0.  0.
<mgrwt>
<rscale>  0 0.22970986E+04</rscale>
<asrwt>0</asrwt>
<pdfrwt beam="1">  1        1 0.10274828E+00 0.22970986E+04</pdfrwt>
<pdfrwt beam="2">  1       -1 0.30387715E+00 0.22970986E+04</pdfrwt>
<totfact> 0.82441183E-01</totfact>
</mgrwt>
</event>
<event>
12    1  0.1640754E-007  0.2740341E+04  0.7818608E-02  0.8322033E-01
         -2   -1    0    0    0  501 -0.00000000000E+00  0.00000000000E+00  0.39236884108E+03  0.39236884108E+03  0.00000000000E+00 0.  1.
          2   -1    0    0  501    0  0.00000000000E+00 -0.00000000000E+00 -0.47846994511E+04  0.47846994511E+04  0.00000000000E+00 0. -1.
    9900016    2    1    2    0    0  0.14884622963E+03  0.19696723058E+03 -0.44098573744E+04  0.49295637923E+04  0.21892477772E+04 0.  0.
         23    2    3    3    0    0  0.30838812666E+03 -0.92556355586E+02 -0.15247738551E+04  0.15610186112E+04  0.90409511854E+02 0.  0.
         24    2    3    3    0    0 -0.74512072166E+03  0.97427827463E+01 -0.87934212669E+03  0.11554159585E+04  0.80272346951E+02 0.  0.
        -15    1    5    5    0    0 -0.53335775801E+03  0.43155582336E+02 -0.62486908850E+03  0.82267507563E+03  0.00000000000E+00 0.  1.
        -15    1    4    4    0    0  0.21196702110E+03 -0.24872089164E+02 -0.10815447929E+04  0.11024009152E+04  0.00000000000E+00 0. -1.
         15    1    3    3    0    0  0.64262463116E+03  0.21659845384E+02 -0.15549673943E+04  0.16826643049E+04  0.00000000000E+00 0. -1.
         15    1    4    4    0    0  0.96421105562E+02 -0.67684266422E+02 -0.44322906218E+03  0.45861769600E+03  0.00000000000E+00 0.  1.
        -16    1    1    2    0    0 -0.14884622963E+03 -0.19696723058E+03  0.17526764338E+02  0.24750449989E+03  0.00000000000E+00 0.  1.
         16    1    5    5    0    0 -0.21176296366E+03 -0.33412799590E+02 -0.25447303820E+03  0.33274088285E+03  0.00000000000E+00 0. -1.
    9900018    1    3    3    0    0 -0.57045806534E+02  0.25812095804E+03 -0.45077399826E+03  0.53046491771E+03  0.91187600000E+02 0.  0.
<mgrwt>
<rscale>  0 0.27403408E+04</rscale>
<asrwt>0</asrwt>
<pdfrwt beam="1">  1        2 0.73610761E+00 0.27403408E+04</pdfrwt>
<pdfrwt beam="2">  1       -2 0.60364437E-01 0.27403408E+04</pdfrwt>
<totfact> 0.13892163E-01</totfact>
</mgrwt>
</event>
<event>
12    1  0.1640754E-007  0.2472350E+04  0.7818608E-02  0.8412903E-01
         -2   -1    0    0    0  501 -0.00000000000E+00  0.00000000000E+00  0.29664365591E+04  0.29664365591E+04  0.00000000000E+00 0.  1.
          2   -1    0    0  501    0  0.00000000000E+00 -0.00000000000E+00 -0.51513956701E+03  0.51513956701E+03  0.00000000000E+00 0. -1.
    9900016    2    1    2    0    0  0.77469922922E+02  0.18040966217E+03  0.24234287531E+04  0.32832686025E+04  0.22064216641E+04 0.  0.
         23    2    3    3    0    0  0.18240946385E+03  0.13840415256E+03  0.11739139659E+04  0.12001734034E+04  0.99565441111E+02 0.  0.
        -24    2    3    3    0    0 -0.71243109475E+03 -0.35741208794E+03  0.73691330616E+03  0.10885072145E+04  0.80655253421E+02 0.  0.
        -15    1    3    3    0    0  0.30115703697E+03  0.28009908289E+03  0.42122734628E+02  0.41343122998E+03  0.00000000000E+00 0.  1.
        -15    1    4    4    0    0  0.74642343917E+02  0.11448402129E+03  0.56175036211E+03  0.57813626418E+03  0.00000000000E+00 0.  1.
         15    1    4    4    0    0  0.10776711993E+03  0.23920131276E+02  0.61216360378E+03  0.62203713925E+03  0.00000000000E+00 0. -1.
         15    1    5    5    0    0 -0.24185382670E+03 -0.87246505972E+02  0.26745553103E+03  0.37099553551E+03  0.00000000000E+00 0. -1.
        -16    1    5    5    0    0 -0.47057726805E+03 -0.27016558197E+03  0.46945777514E+03  0.71751167901E+03  0.00000000000E+00 0.  1.
         16    1    1    2    0    0 -0.77469922922E+02 -0.18040966217E+03  0.27868238958E+02  0.19830752357E+03  0.00000000000E+00 0. -1.
    9900018    1    3    3    0    0  0.30633451684E+03  0.11931851466E+03  0.47047874643E+03  0.58115675457E+03  0.91187600000E+02 0.  0.
<mgrwt>
<rscale>  0 0.24723502E+04</rscale>
<asrwt>0</asrwt>
<pdfrwt beam="1">  1        2 0.79252243E-01 0.24723502E+04</pdfrwt>
<pdfrwt beam="2">  1       -2 0.45637485E+00 0.24723502E+04</pdfrwt>
<totfact> 0.16729047E-01</totfact>
</mgrwt>
</event>
<event>
12    1  0.1640754E-007  0.2439725E+04  0.7818608E-02  0.8424779E-01
          2   -1    0    0  501    0  0.00000000000E+00  0.00000000000E+00  0.13158764720E+04  0.13158764720E+04  0.00000000000E+00 0.  1.
         -2   -1    0    0    0  501 -0.00000000000E+00 -0.00000000000E+00 -0.11308542732E+04  0.11308542732E+04  0.00000000000E+00 0. -1.
    9900016    2    1    2    0    0 -0.16090749198E+03 -0.99991186147E+02  0.28910344532E+03  0.22305771790E+04  0.22036343370E+04 0.  0.
         23    2    3    3    0    0 -0.12020116818E+03 -0.65338138127E+02 -0.19888915819E+03  0.26128480068E+03  0.99977280889E+02 0.  0.
        -24    2    3    3    0    0 -0.51056958069E+03  0.48989546474E+03  0.71813158246E+03  0.10109651842E+04  0.75224802704E+02 0.  0.
        -15    1    3    3    0    0  0.46263395149E+03 -0.13251349573E+03 -0.27334388440E+03  0.55344997855E+03  0.00000000000E+00 0.  1.
        -15    1    4    4    0    0 -0.12597162357E+03 -0.82597625876E+02 -0.18381834774E+03  0.23765605970E+03  0.00000000000E+00 0. -1.
         15    1    4    4    0    0  0.57704553858E+01  0.17259487750E+02 -0.15070810445E+02  0.23628740978E+02  0.00000000000E+00 0.  1.
         15    1    5    5    0    0 -0.49049006875E+03  0.46118759477E+03  0.65818135535E+03  0.94152918257E+03  0.00000000000E+00 0. -1.
        -16    1    5    5    0    0 -0.20079511940E+02  0.28707869971E+02  0.59950227113E+02  0.69436001677E+02  0.00000000000E+00 0.  1.
         16    1    1    2    0    0  0.16090749198E+03  0.99991186147E+02 -0.10408124652E+03  0.21615356615E+03  0.00000000000E+00 0. -1.
    9900018    1    3    3    0    0  0.72293054017E+01 -0.39203501703E+03  0.43204905443E+02  0.40487721556E+03  0.91187600000E+02 0.  0.
<mgrwt>
<rscale>  0 0.24397250E+04</rscale>
<asrwt>0</asrwt>
<pdfrwt beam="1">  1        2 0.20244253E+00 0.24397250E+04</pdfrwt>
<pdfrwt beam="2">  1       -2 0.17397758E+00 0.24397250E+04</pdfrwt>
<totfact> 0.28977441E+00</totfact>
</mgrwt>
</event>
<event>
12    1  0.1640754E-007  0.2806264E+04  0.7818608E-02  0.8301326E-01
          1   -1    0    0  501    0  0.00000000000E+00  0.00000000000E+00  0.13789377941E+04  0.13789377941E+04  0.00000000000E+00 0. -1.
         -1   -1    0    0    0  501 -0.00000000000E+00 -0.00000000000E+00 -0.14277509040E+04  0.14277509040E+04  0.00000000000E+00 0.  1.
    9900016    2    1    2    0    0 -0.29997678190E+03 -0.43197438648E+03  0.11182285535E+03  0.22567870218E+04  0.21918018547E+04 0.  0.
         23    2    3    3    0    0 -0.72022137997E+02 -0.14802339601E+03 -0.46529974189E+02  0.19383817695E+03  0.91159674296E+02 0.  0.
        -24    2    3    3    0    0  0.50417589569E+03 -0.36132485050E+03  0.78011539005E+03  0.99984871059E+03  0.79802511833E+02 0.  0.
        -15    1    3    3    0    0 -0.55087951704E+03 -0.13216773222E+03 -0.45874210541E+03  0.72895875809E+03  0.00000000000E+00 0.  1.
        -15    1    4    4    0    0 -0.71810704684E+02 -0.79601274824E+02  0.63040940991E+01  0.10739125599E+03  0.00000000000E+00 0. -1.
         15    1    5    5    0    0  0.26531495084E+03 -0.20061274819E+03  0.35558034606E+03  0.48690335836E+03  0.00000000000E+00 0. -1.
         15    1    4    4    0    0 -0.21143331282E+00 -0.68422121189E+02 -0.52834068288E+02  0.86446920963E+02  0.00000000000E+00 0.  1.
        -16    1    5    5    0    0  0.23886094485E+03 -0.16071210231E+03  0.42453504398E+03  0.51294535223E+03  0.00000000000E+00 0.  1.
         16    1    1    2    0    0  0.29997678190E+03  0.43197438648E+03 -0.16063596531E+03  0.54990167630E+03  0.00000000000E+00 0. -1.
    9900018    1    3    3    0    0 -0.18125102256E+03  0.20954159226E+03 -0.16302045510E+03  0.33414137613E+03  0.91187600000E+02 0.  0.
<mgrwt>
<rscale>  0 0.28062642E+04</rscale>
<asrwt>0</asrwt>
<pdfrwt beam="1">  1        1 0.21214428E+00 0.28062642E+04</pdfrwt>
<pdfrwt beam="2">  1       -1 0.21965398E+00 0.28062642E+04</pdfrwt>
<totfact> 0.76107764E-01</totfact>
</mgrwt>
</event>
<event>
12    1  0.1640754E-007  0.3789548E+04  0.7818608E-02  0.8048402E-01
         -1   -1    0    0    0  501 -0.00000000000E+00  0.00000000000E+00  0.14652649626E+04  0.14652649626E+04  0.00000000000E+00 0.  1.
          1   -1    0    0  501    0  0.00000000000E+00 -0.00000000000E+00 -0.24501834055E+04  0.24501834055E+04  0.00000000000E+00 0. -1.
    9900016    2    1    2    0    0  0.46496021278E+03  0.70946025921E+03 -0.16175191864E+04  0.28572869628E+04  0.21973162290E+04 0.  0.
         23    2    3    3    0    0 -0.25447033103E+03  0.10690337971E+03 -0.44333898614E+02  0.29433737373E+03  0.92116844499E+02 0.  0.
         24    2    3    3    0    0  0.11648328718E+04  0.14542530338E+03 -0.96133870131E+03  0.15193522466E+04  0.79214975897E+02 0.  0.
        -15    1    5    5    0    0  0.92870306402E+03  0.95981416374E+02 -0.79561432854E+03  0.12266637572E+04  0.00000000000E+00 0.  1.
        -15    1    4    4    0    0 -0.13004234704E+03  0.50764614517E+01 -0.16978004753E+02  0.13124418132E+03  0.00000000000E+00 0.  1.
         15    1    3    3    0    0 -0.24068125860E+03  0.55161573445E+03 -0.42162838257E+03  0.73483187173E+03  0.00000000000E+00 0. -1.
         15    1    4    4    0    0 -0.12442798399E+03  0.10182691826E+03 -0.27355893860E+02  0.16309319241E+03  0.00000000000E+00 0. -1.
        -16    1    1    2    0    0 -0.46496021278E+03 -0.70946025921E+03  0.63260074358E+03  0.10581614053E+04  0.00000000000E+00 0.  1.
         16    1    5    5    0    0  0.23612980778E+03  0.49443887008E+02 -0.16572437277E+03  0.29268848938E+03  0.00000000000E+00 0. -1.
    9900018    1    3    3    0    0 -0.20472106939E+03 -0.94484158331E+02 -0.19021820395E+03  0.30876547076E+03  0.91187600000E+02 0.  0.
<mgrwt>
<rscale>  0 0.37895477E+04</rscale>
<asrwt>0</asrwt>
<pdfrwt beam="1">  1        1 0.37695129E+00 0.37895477E+04</pdfrwt>
<pdfrwt beam="2">  1       -1 0.22542538E+00 0.37895477E+04</pdfrwt>
<totfact> 0.11825780E-01</totfact>
</mgrwt>
</event>
<event>
12    1  0.1640754E-007  0.2954671E+04  0.7818608E-02  0.8256795E-01
         -2   -1    0    0    0  501 -0.00000000000E+00  0.00000000000E+00  0.11174362374E+04  0.11174362374E+04  0.00000000000E+00 0.  1.
          2   -1    0    0  501    0  0.00000000000E+00 -0.00000000000E+00 -0.19531492230E+04  0.19531492230E+04  0.00000000000E+00 0. -1.
    9900016    2    1    2    0    0  0.27648095274E+03  0.76414134288E+02 -0.44761220320E+02  0.22292261245E+04  0.22102408715E+04 0.  0.
         23    2    3    3    0    0  0.10908441350E+03 -0.14790895663E+03  0.11656990639E+03  0.23492780043E+03  0.88465019183E+02 0.  0.
         24    2    3    3    0    0  0.24233341106E+03  0.92395797506E+03 -0.51876399209E+03  0.10900921778E+04  0.82225634148E+02 0.  0.
        -15    1    4    4    0    0  0.10832438253E+03 -0.81044652437E+02  0.92379396699E+02  0.16381807127E+03  0.00000000000E+00 0. -1.
        -15    1    5    5    0    0  0.62584598908E+02  0.30710831049E+03 -0.20981606539E+03  0.37716724101E+03  0.00000000000E+00 0.  1.
         15    1    3    3    0    0 -0.15671131337E+03 -0.53630790735E+03  0.41043880615E+03  0.69328538194E+03  0.00000000000E+00 0. -1.
         15    1    4    4    0    0  0.76003096676E+00 -0.66864304189E+02  0.24190509687E+02  0.71109729156E+02  0.00000000000E+00 0.  1.
        -16    1    1    2    0    0 -0.27648095274E+03 -0.76414134288E+02 -0.79095176533E+03  0.84135933597E+03  0.00000000000E+00 0.  1.
         16    1    5    5    0    0  0.17974881215E+03  0.61684966457E+03 -0.30894792669E+03  0.71292493683E+03  0.00000000000E+00 0. -1.
    9900018    1    3    3    0    0  0.81774441555E+02 -0.16332697680E+03 -0.53005940772E+02  0.21092076425E+03  0.91187600000E+02 0.  0.
<mgrwt>
<rscale>  0 0.29546707E+04</rscale>
<asrwt>0</asrwt>
<pdfrwt beam="1">  1        2 0.30048450E+00 0.29546707E+04</pdfrwt>
<pdfrwt beam="2">  1       -2 0.17191327E+00 0.29546707E+04</pdfrwt>
<totfact> 0.12592957E+00</totfact>
</mgrwt>
</event>
<event>
12    1  0.1640754E-007  0.3597366E+04  0.7818608E-02  0.8091095E-01
         -2   -1    0    0    0  501 -0.00000000000E+00  0.00000000000E+00  0.28639451260E+04  0.28639451260E+04  0.00000000000E+00 0.  1.
          2   -1    0    0  501    0  0.00000000000E+00 -0.00000000000E+00 -0.11296517301E+04  0.11296517301E+04  0.00000000000E+00 0. -1.
    9900016    2    1    2    0    0 -0.55718819850E+03  0.80640109088E+03  0.18027766229E+04  0.30110331888E+04  0.22035371347E+04 0.  0.
         23    2    3    3    0    0 -0.22498041850E+03  0.16344284237E+03  0.24902461451E+03  0.38409161041E+03  0.90461898761E+02 0.  0.
        -24    2    3    3    0    0 -0.39469862695E+03  0.10809658079E+04  0.16824145780E+04  0.20397600271E+04  0.76341809198E+02 0.  0.
        -15    1    3    3    0    0 -0.53264457240E+02 -0.34783647370E+02 -0.14418414314E+03  0.15759464351E+03  0.00000000000E+00 0.  1.
        -15    1    4    4    0    0 -0.14638764940E+03  0.14957007334E+03  0.15309166938E+03  0.25930215959E+03  0.00000000000E+00 0. -1.
         15    1    4    4    0    0 -0.78592769093E+02  0.13872769032E+02  0.95932945126E+02  0.12478945082E+03  0.00000000000E+00 0.  1.
         15    1    5    5    0    0 -0.15032576224E+03  0.35259750734E+03  0.50826616859E+03  0.63659825252E+03  0.00000000000E+00 0. -1.
        -16    1    5    5    0    0 -0.24437286471E+03  0.72836830058E+03  0.11741484094E+04  0.14031617746E+04  0.00000000000E+00 0.  1.
         16    1    1    2    0    0  0.55718819850E+03 -0.80640109088E+03 -0.68483227110E+02  0.98256366731E+03  0.00000000000E+00 0. -1.
    9900018    1    3    3    0    0  0.11575530419E+03 -0.40322391204E+03  0.15521573559E+02  0.42958690777E+03  0.91187600000E+02 0.  0.
<mgrwt>
<rscale>  0 0.35973660E+04</rscale>
<asrwt>0</asrwt>
<pdfrwt beam="1">  1        2 0.17379257E+00 0.35973660E+04</pdfrwt>
<pdfrwt beam="2">  1       -2 0.44060694E+00 0.35973660E+04</pdfrwt>
<totfact> 0.68143153E-02</totfact>
</mgrwt>
</event>
<event>
12    1  0.1640754E-007  0.2532887E+04  0.7818608E-02  0.8391362E-01
         -1   -1    0    0    0  501 -0.00000000000E+00  0.00000000000E+00  0.10731447765E+04  0.10731447765E+04  0.00000000000E+00 0.  1.
          1   -1    0    0  501    0  0.00000000000E+00 -0.00000000000E+00 -0.14945599228E+04  0.14945599228E+04  0.00000000000E+00 0. -1.
    9900016    2    1    2    0    0 -0.12438764502E+03  0.66451602467E+02 -0.64304856478E+03  0.23050081560E+04  0.22089959350E+04 0.  0.
         23    2    3    3    0    0  0.11012555197E+03  0.60052529250E+02 -0.31399349372E+00  0.15543096963E+03  0.91786405645E+02 0.  0.
         24    2    3    3    0    0 -0.33387822090E+03  0.80855081934E+03  0.10829824444E+03  0.88489701825E+03  0.78007238774E+02 0.  0.
        -15    1    4    4    0    0  0.80751927952E+02 -0.81540432730E+01  0.48325462258E+00  0.81164005721E+02  0.00000000000E+00 0.  1.
        -15    1    5    5    0    0 -0.23992768503E+03  0.65014795968E+03  0.10327843194E+03  0.70065975910E+03  0.00000000000E+00 0.  1.
         15    1    4    4    0    0  0.29373624018E+02  0.68206572523E+02 -0.79724811630E+00  0.74266963906E+02  0.00000000000E+00 0. -1.
         15    1    3    3    0    0 -0.17734694156E+03 -0.46092506813E+02 -0.25719371922E+03  0.31579275811E+03  0.00000000000E+00 0. -1.
        -16    1    1    2    0    0  0.12438764502E+03 -0.66451602467E+02  0.22163341844E+03  0.26269654332E+03  0.00000000000E+00 0.  1.
         16    1    5    5    0    0 -0.93950535871E+02  0.15840285966E+03  0.50198124991E+01  0.18423725915E+03  0.00000000000E+00 0. -1.
    9900018    1    3    3    0    0  0.27671196546E+03 -0.75605923931E+03 -0.49383909650E+03  0.94888740997E+03  0.91187600000E+02 0.  0.
<mgrwt>
<rscale>  0 0.25328870E+04</rscale>
<asrwt>0</asrwt>
<pdfrwt beam="1">  1        1 0.22993230E+00 0.25328870E+04</pdfrwt>
<pdfrwt beam="2">  1       -1 0.16509920E+00 0.25328870E+04</pdfrwt>
<totfact> 0.15639848E+00</totfact>
</mgrwt>
</event>
<event>
12    1  0.1640754E-007  0.2681686E+04  0.7818608E-02  0.8340972E-01
         -3   -1    0    0    0  501 -0.00000000000E+00  0.00000000000E+00  0.11896745623E+04  0.11896745623E+04  0.00000000000E+00 0.  1.
          3   -1    0    0  501    0  0.00000000000E+00 -0.00000000000E+00 -0.15112198927E+04  0.15112198927E+04  0.00000000000E+00 0. -1.
    9900016    2    1    2    0    0 -0.25636826213E+03  0.35491852086E+03 -0.26233717571E+03  0.22590829026E+04  0.22006687449E+04 0.  0.
         23    2    3    3    0    0 -0.25116153238E+03  0.93415499000E+02  0.24692135193E+02  0.28325470224E+03  0.88402228474E+02 0.  0.
        -24    2    3    3    0    0  0.14842840084E+03 -0.10026993903E+03 -0.25246724163E+02  0.19784279040E+03  0.80120670150E+02 0.  0.
        -15    1    3    3    0    0  0.21130352207E+02  0.17567722719E+03  0.72931953965E+03  0.75047716211E+03  0.00000000000E+00 0.  1.
        -15    1    4    4    0    0 -0.18404819727E+03  0.47620693237E+02 -0.18907167614E+02  0.19104698461E+03  0.00000000000E+00 0.  1.
         15    1    4    4    0    0 -0.67113335110E+02  0.45794805763E+02  0.43599302807E+02  0.92207717625E+02  0.00000000000E+00 0. -1.
         15    1    5    5    0    0  0.43923634729E+02 -0.18148707279E+02  0.27431323666E+02  0.54873844241E+02  0.00000000000E+00 0. -1.
        -16    1    5    5    0    0  0.10450476611E+03 -0.82121231749E+02 -0.52678047829E+02  0.14296894616E+03  0.00000000000E+00 0.  1.
         16    1    1    2    0    0  0.25636826213E+03 -0.35491852086E+03 -0.59208154687E+02  0.44181155243E+03  0.00000000000E+00 0. -1.
    9900018    1    3    3    0    0 -0.17476548280E+03  0.18609573369E+03 -0.99110212639E+03  0.10275082479E+04  0.91187600000E+02 0.  0.
<mgrwt>
<rscale>  0 0.26816859E+04</rscale>
<asrwt>0</asrwt>
<pdfrwt beam="1">  1        3 0.23249537E+00 0.26816859E+04</pdfrwt>
<pdfrwt beam="2">  1       -3 0.18302686E+00 0.26816859E+04</pdfrwt>
<totfact> 0.40273658E-02</totfact>
</mgrwt>
</event>
<event>
12    1  0.1640754E-007  0.2680978E+04  0.7818608E-02  0.8341203E-01
         -2   -1    0    0    0  501 -0.00000000000E+00  0.00000000000E+00  0.45996630366E+03  0.45996630366E+03  0.00000000000E+00 0.  1.
          2   -1    0    0  501    0  0.00000000000E+00 -0.00000000000E+00 -0.39066139574E+04  0.39066139574E+04  0.00000000000E+00 0. -1.
    9900016    2    1    2    0    0 -0.37808292154E+03  0.23420389957E+03 -0.27802830938E+04  0.35654311558E+04  0.21873561856E+04 0.  0.
         23    2    3    3    0    0  0.58682368817E+02  0.19737880370E+03 -0.78240929979E+03  0.81400504582E+03  0.89654278562E+02 0.  0.
         24    2    3    3    0    0 -0.88101869045E+03  0.35859602446E+03 -0.16442655621E+04  0.19011739124E+04  0.77897143933E+02 0.  0.
        -15    1    5    5    0    0 -0.41947765688E+03  0.13652775191E+03 -0.71625105621E+03  0.84119968330E+03  0.00000000000E+00 0.  1.
        -15    1    4    4    0    0 -0.14259328419E+02  0.10928041785E+03 -0.38103681094E+03  0.39665424423E+03  0.00000000000E+00 0. -1.
         15    1    4    4    0    0  0.72941697236E+02  0.88098385847E+02 -0.40137248885E+03  0.41735080159E+03  0.00000000000E+00 0.  1.
         15    1    3    3    0    0  0.44930567753E+03 -0.30154016900E+03 -0.62768876979E+02  0.54474030262E+03  0.00000000000E+00 0. -1.
        -16    1    1    2    0    0  0.37808292154E+03 -0.23420389957E+03 -0.66636455992E+03  0.80114910525E+03  0.00000000000E+00 0.  1.
         16    1    5    5    0    0 -0.46154103357E+03  0.22206827255E+03 -0.92801450585E+03  0.10599742291E+04  0.00000000000E+00 0. -1.
    9900018    1    3    3    0    0 -0.50522774324E+01 -0.20230759595E+02 -0.29083935498E+03  0.30551189493E+03  0.91187600000E+02 0.  0.
<mgrwt>
<rscale>  0 0.26809780E+04</rscale>
<asrwt>0</asrwt>
<pdfrwt beam="1">  1        2 0.60101751E+00 0.26809780E+04</pdfrwt>
<pdfrwt beam="2">  1       -2 0.70764049E-01 0.26809780E+04</pdfrwt>
<totfact> 0.64871373E-01</totfact>
</mgrwt>
</event>
<event>
12    1  0.1640754E-007  0.2607416E+04  0.7818608E-02  0.8365687E-01
          2   -1    0    0  501    0  0.00000000000E+00  0.00000000000E+00  0.32539621092E+04  0.32539621092E+04  0.00000000000E+00 0. -1.
         -2   -1    0    0    0  501 -0.00000000000E+00 -0.00000000000E+00 -0.52233369553E+03  0.52233369553E+03  0.00000000000E+00 0.  1.
    9900016    2    1    2    0    0  0.70676699408E+02 -0.59006622587E+02  0.28678341039E+04  0.36118909161E+04  0.21938109684E+04 0.  0.
         23    2    3    3    0    0  0.45366470220E+02  0.16085971381E+03  0.30130383109E+03  0.35682424030E+03  0.92766242179E+02 0.  0.
         24    2    3    3    0    0  0.65249932068E+03  0.22183164530E+03  0.20654184951E+04  0.21787304233E+04  0.77123634632E+02 0.  0.
        -15    1    4    4    0    0 -0.15792097238E+01  0.43054970787E+02  0.16550187379E+03  0.17101781966E+03  0.00000000000E+00 0. -1.
        -15    1    5    5    0    0  0.18181928335E+03  0.90366979835E+02  0.53799639777E+03  0.57503440493E+03  0.00000000000E+00 0.  1.
         15    1    4    4    0    0  0.46945679944E+02  0.11780474303E+03  0.13580195730E+03  0.18580642064E+03  0.00000000000E+00 0.  1.
         15    1    3    3    0    0 -0.36396022088E+03 -0.53715516349E+03  0.27343644034E+03  0.70410950778E+03  0.00000000000E+00 0. -1.
        -16    1    1    2    0    0 -0.70676699408E+02  0.59006622587E+02 -0.13620569023E+03  0.16440488862E+03  0.00000000000E+00 0.  1.
         16    1    5    5    0    0  0.47068003733E+03  0.13146466547E+03  0.15274220973E+04  0.16036960183E+04  0.00000000000E+00 0. -1.
    9900018    1    3    3    0    0 -0.26322887062E+03  0.95457181786E+02  0.22767533739E+03  0.37222674478E+03  0.91187600000E+02 0.  0.
<mgrwt>
<rscale>  0 0.26074156E+04</rscale>
<asrwt>0</asrwt>
<pdfrwt beam="1">  1        2 0.50060954E+00 0.26074156E+04</pdfrwt>
<pdfrwt beam="2">  1       -2 0.80359032E-01 0.26074156E+04</pdfrwt>
<totfact> 0.14460359E+00</totfact>
</mgrwt>
</event>
<event>
12    1  0.1640754E-007  0.3035938E+04  0.7818608E-02  0.8233542E-01
         -2   -1    0    0    0  501 -0.00000000000E+00  0.00000000000E+00  0.94359548832E+03  0.94359548832E+03  0.00000000000E+00 0.  1.
          2   -1    0    0  501    0  0.00000000000E+00 -0.00000000000E+00 -0.24419679032E+04  0.24419679032E+04  0.00000000000E+00 0. -1.
    9900016    2    1    2    0    0 -0.35295445433E+03  0.23465133483E+03 -0.48645944935E+03  0.22884736297E+04  0.21956390099E+04 0.  0.
         23    2    3    3    0    0 -0.72645853473E+02 -0.23663243128E+03  0.11716066802E+03  0.28871922139E+03  0.91432155766E+02 0.  0.
        -24    2    3    3    0    0 -0.20607853263E+03  0.99560457115E+03 -0.31867265539E+03  0.10684094998E+04  0.79055513372E+02 0.  0.
        -15    1    4    4    0    0  0.13490786936E+02 -0.65799251438E+02  0.57198311747E+02  0.88222387684E+02  0.00000000000E+00 0. -1.
        -15    1    3    3    0    0 -0.70236976292E+02 -0.21379376600E+03  0.23086353740E+03  0.32239568874E+03  0.00000000000E+00 0.  1.
         15    1    5    5    0    0 -0.13469233808E+03  0.50355606401E+03 -0.19024480772E+03  0.55489082026E+03  0.00000000000E+00 0. -1.
         15    1    4    4    0    0 -0.86136640409E+02 -0.17083317984E+03  0.59962356277E+02  0.20049683371E+03  0.00000000000E+00 0.  1.
        -16    1    5    5    0    0 -0.71386194549E+02  0.49204850714E+03 -0.12842784767E+03  0.51351867951E+03  0.00000000000E+00 0.  1.
         16    1    1    2    0    0  0.35295445433E+03 -0.23465133483E+03 -0.10119129655E+04  0.10970897618E+04  0.00000000000E+00 0. -1.
    9900018    1    3    3    0    0 -0.39930919365E+01 -0.31052703904E+03 -0.51581099939E+03  0.60894921975E+03  0.91187600000E+02 0.  0.
<mgrwt>
<rscale>  0 0.30359380E+04</rscale>
<asrwt>0</asrwt>
<pdfrwt beam="1">  1        2 0.37568737E+00 0.30359380E+04</pdfrwt>
<pdfrwt beam="2">  1       -2 0.14516854E+00 0.30359380E+04</pdfrwt>
<totfact> 0.10483734E+00</totfact>
</mgrwt>
</event>
