<event>
11    1  0.2094954E-014  0.1531348E+04  0.7818608E-02  0.9410559E-01
          2   -1    0    0  501    0  0.00000000000E+00  0.00000000000E+00  0.13066869806E+04  0.13066869806E+04  0.00000000000E+00 0.  1.
         -2   -1    0    0    0  501 -0.00000000000E+00 -0.00000000000E+00 -0.59070042559E+03  0.59070042559E+03  0.00000000000E+00 0. -1.
    9900016    2    1    2    0    0  0.37964329222E+03  0.78210663309E+02  0.11728650597E+03  0.86092310214E+03  0.75972792902E+03 0.  0.
         23    2    3    3    0    0  0.10421154793E+03 -0.19727759452E+03  0.29328956769E+03  0.37953973695E+03  0.90846823720E+02 0.  0.
        -15    1    4    4    0    0  0.63502802191E+02 -0.82521599328E+02  0.20233601214E+03  0.22755720611E+03  0.00000000000E+00 0.  1.
        -15    1    1    2    0    0  0.54939565434E+02  0.46853115877E+02 -0.16988272650E+02  0.74176625194E+02  0.00000000000E+00 0.  1.
         15    1    4    4    0    0  0.40708745737E+02 -0.11475599519E+03  0.90953555555E+02  0.15198253084E+03  0.00000000000E+00 0. -1.
         15    1    1    2    0    0  0.11777764510E+03 -0.23491544974E+02 -0.11199070384E+02  0.12061859536E+03  0.00000000000E+00 0. -1.
        -16    1    1    2    0    0 -0.55236050275E+03 -0.10157223421E+03  0.62688739205E+03  0.84166908347E+03  0.00000000000E+00 0.  1.
         16    1    3    3    0    0  0.21722375486E+03  0.25573742065E+03 -0.15418084558E+03  0.36926890086E+03  0.00000000000E+00 0. -1.
    9900018    1    3    3    0    0  0.58207989427E+02  0.19750837186E+02 -0.21822216150E+02  0.11211446434E+03  0.91187600000E+02 0.  0.
<mgrwt>
<rscale>  0 0.91211822E+03</rscale>
<asrwt>0</asrwt>
<pdfrwt beam="1">  1        2 0.20102877E+00 0.15313476E+04</pdfrwt>
<pdfrwt beam="2">  1       -2 0.90876989E-01 0.15313476E+04</pdfrwt>
<totfact> 0.16232019E+01</totfact>
</mgrwt>
</event>
<event>
11    1  0.2094954E-014  0.4209391E+04  0.7818608E-02  0.7963588E-01
         -3   -1    0    0    0  501 -0.00000000000E+00  0.00000000000E+00  0.23117431724E+04  0.23117431724E+04  0.00000000000E+00 0.  1.
          3   -1    0    0  501    0  0.00000000000E+00 -0.00000000000E+00 -0.19161919699E+04  0.19161919699E+04  0.00000000000E+00 0. -1.
    9900016    2    1    2    0    0  0.90938067888E+02 -0.53755639898E+03 -0.12181829041E+03  0.94261153432E+03  0.75923658663E+03 0.  0.
         23    2    3    3    0    0  0.28748365833E+03 -0.34875277620E+01 -0.11964768126E+02  0.30282385874E+03  0.94340431878E+02 0.  0.
        -15    1    4    4    0    0  0.58983306711E+02 -0.23832349906E+02  0.28790160337E+02  0.69827535434E+02  0.00000000000E+00 0.  1.
        -15    1    1    2    0    0 -0.61264186056E+03 -0.13100505309E+03 -0.56011015236E+02  0.62899094355E+03  0.00000000000E+00 0.  1.
         15    1    1    2    0    0  0.17941026620E+03 -0.93569687320E+03  0.23826583280E+03  0.98208313763E+03  0.00000000000E+00 0. -1.
         15    1    4    4    0    0  0.22850035162E+03  0.20344822144E+02 -0.40754928463E+02  0.23299632331E+03  0.00000000000E+00 0. -1.
        -16    1    1    2    0    0  0.34229352646E+03  0.16042583253E+04  0.33511467536E+03  0.16742495268E+04  0.00000000000E+00 0.  1.
         16    1    3    3    0    0 -0.17403148634E+03 -0.49853692728E+03 -0.10995104399E+03  0.53936560715E+03  0.00000000000E+00 0. -1.
    9900018    1    3    3    0    0 -0.22514104101E+02 -0.35531943939E+02  0.97521705400E-01  0.10042206843E+03  0.91187600000E+02 0.  0.
<mgrwt>
<rscale>  0 0.42093913E+04</rscale>
<asrwt>0</asrwt>
<pdfrwt beam="1">  1        3 0.29479877E+00 0.42093913E+04</pdfrwt>
<pdfrwt beam="2">  1       -3 0.35565279E+00 0.42093913E+04</pdfrwt>
<totfact> 0.15331363E-03</totfact>
</mgrwt>
</event>
<event>
11    1  0.2094954E-014  0.3926226E+04  0.7818608E-02  0.8019597E-01
          2   -1    0    0  501    0  0.00000000000E+00  0.00000000000E+00  0.14989186087E+04  0.14989186087E+04  0.00000000000E+00 0. -1.
         -2   -1    0    0    0  501 -0.00000000000E+00 -0.00000000000E+00 -0.25710618284E+04  0.25710618284E+04  0.00000000000E+00 0.  1.
    9900016    2    1    2    0    0  0.11811566300E+03  0.88864165647E+03  0.33278908355E+03  0.11641424893E+04  0.66396073505E+03 0.  0.
         23    2    3    3    0    0  0.32376200672E+03  0.29042572638E+03 -0.10309865087E+02  0.44451091250E+03  0.91185078133E+02 0.  0.
        -15    1    4    4    0    0  0.20985367770E+03  0.24205724025E+03 -0.14502181302E+02  0.32068767807E+03  0.00000000000E+00 0. -1.
        -15    1    1    2    0    0 -0.86339070522E+02 -0.17738686634E+03  0.66526093814E+02  0.20819763833E+03  0.00000000000E+00 0.  1.
         15    1    4    4    0    0  0.11390832902E+03  0.48368486136E+02  0.41923162156E+01  0.12382323443E+03  0.00000000000E+00 0.  1.
         15    1    1    2    0    0  0.88459382662E+03 -0.57753006296E+03 -0.95443460070E+03  0.14237249098E+04  0.00000000000E+00 0. -1.
        -16    1    1    2    0    0 -0.92912514006E+03 -0.27957036961E+03 -0.52117212244E+03  0.11013870794E+04  0.00000000000E+00 0.  1.
         16    1    3    3    0    0 -0.20564634372E+03  0.59821593009E+03  0.34309894863E+03  0.71963157675E+03  0.00000000000E+00 0. -1.
    9900018    1    1    2    0    0  0.12754720973E+02  0.14584564243E+03  0.41483261204E+01  0.17252832036E+03  0.91187600000E+02 0.  0.
<mgrwt>
<rscale>  0 0.39262259E+04</rscale>
<asrwt>0</asrwt>
<pdfrwt beam="1">  1        2 0.23060287E+00 0.39262259E+04</pdfrwt>
<pdfrwt beam="2">  1       -2 0.39554797E+00 0.39262259E+04</pdfrwt>
<totfact> 0.80019050E-02</totfact>
</mgrwt>
</event>
<event>
11    1  0.2094954E-014  0.2206383E+04  0.7818608E-02  0.8681026E-01
         -2   -1    0    0    0  501 -0.00000000000E+00  0.00000000000E+00  0.21000883507E+04  0.21000883507E+04  0.00000000000E+00 0.  1.
          2   -1    0    0  501    0  0.00000000000E+00 -0.00000000000E+00 -0.14161018273E+04  0.14161018273E+04  0.00000000000E+00 0. -1.
    9900016    2    1    2    0    0 -0.37309993899E+03  0.40345156136E+03  0.63496179254E+03  0.10684524581E+04  0.66063412749E+03 0.  0.
         23    2    3    3    0    0 -0.12789121270E+03 -0.16421123827E+03  0.25915434198E+03  0.34485062462E+03  0.91866682064E+02 0.  0.
        -15    1    4    4    0    0  0.15939316553E+01 -0.57070401187E+02  0.45432723977E+02  0.72963715076E+02  0.00000000000E+00 0.  1.
        -15    1    1    2    0    0  0.64117645391E+03 -0.64893412889E+03  0.64157305270E+03  0.11152751816E+04  0.00000000000E+00 0.  1.
         15    1    1    2    0    0  0.15068233406E+03  0.83831349718E+02  0.88988363466E+02  0.19404069116E+03  0.00000000000E+00 0. -1.
         15    1    4    4    0    0 -0.12948514435E+03 -0.10714083708E+03  0.21372161800E+03  0.27188690954E+03  0.00000000000E+00 0. -1.
        -16    1    3    3    0    0 -0.24520872630E+03  0.56766279963E+03  0.37580745056E+03  0.72360183349E+03  0.00000000000E+00 0.  1.
         16    1    1    2    0    0 -0.34281843097E+03  0.42195173197E+02 -0.83935349300E+03  0.90764486197E+03  0.00000000000E+00 0. -1.
    9900018    1    1    2    0    0 -0.75940418002E+02  0.11945604462E+03  0.15781680775E+03  0.23077698517E+03  0.91187600000E+02 0.  0.
<mgrwt>
<rscale>  0 0.18483020E+04</rscale>
<asrwt>0</asrwt>
<pdfrwt beam="1">  1        2 0.21786182E+00 0.22063828E+04</pdfrwt>
<pdfrwt beam="2">  1       -2 0.32309051E+00 0.22063828E+04</pdfrwt>
<totfact> 0.28730993E-01</totfact>
</mgrwt>
</event>
<event>
11    1  0.2094954E-014  0.4592246E+04  0.7818608E-02  0.7894683E-01
          2   -1    0    0  501    0  0.00000000000E+00  0.00000000000E+00  0.30431303439E+04  0.30431303439E+04  0.00000000000E+00 0. -1.
         -2   -1    0    0    0  501 -0.00000000000E+00 -0.00000000000E+00 -0.17324862350E+04  0.17324862350E+04  0.00000000000E+00 0.  1.
    9900016    2    1    2    0    0  0.19763002593E+03 -0.17650101405E+03  0.30396659897E+03  0.78493460902E+03  0.67343627169E+03 0.  0.
         23    2    3    3    0    0 -0.84442943569E+02 -0.36444618341E+03  0.16040336922E+03  0.41683279193E+03  0.89825966433E+02 0.  0.
        -15    1    1    2    0    0  0.56209354520E+02 -0.84754347598E+03 -0.27331628842E+03  0.89229548286E+03  0.00000000000E+00 0.  1.
        -15    1    4    4    0    0 -0.92254659387E+02 -0.20204983524E+03  0.89832146176E+02  0.23959313969E+03  0.00000000000E+00 0.  1.
         15    1    1    2    0    0 -0.76918599807E+02  0.49424444395E+03 -0.75310293583E+03  0.90407857696E+03  0.00000000000E+00 0. -1.
         15    1    4    4    0    0  0.78117158175E+01 -0.16239634817E+03  0.70571223040E+02  0.17723965223E+03  0.00000000000E+00 0. -1.
        -16    1    3    3    0    0  0.28207296950E+03  0.18794516936E+03  0.14356322975E+03  0.36810181709E+03  0.00000000000E+00 0.  1.
         16    1    1    2    0    0 -0.21236263577E+03  0.52909406056E+03  0.20159055731E+04  0.20949734351E+04  0.00000000000E+00 0. -1.
    9900018    1    1    2    0    0  0.35441855127E+02  0.70598552380E+00  0.17191160981E+02  0.99334474982E+02  0.91187600000E+02 0.  0.
<mgrwt>
<rscale>  0 0.45922463E+04</rscale>
<asrwt>0</asrwt>
<pdfrwt beam="1">  1        2 0.46817390E+00 0.45922463E+04</pdfrwt>
<pdfrwt beam="2">  1       -2 0.26653634E+00 0.45922463E+04</pdfrwt>
<totfact> 0.62558093E-02</totfact>
</mgrwt>
</event>
<event>
11    1  0.2094954E-014  0.2635339E+04  0.7818608E-02  0.8356296E-01
         -2   -1    0    0    0  501 -0.00000000000E+00  0.00000000000E+00  0.82416194864E+03  0.82416194864E+03  0.00000000000E+00 0.  1.
          2   -1    0    0  501    0  0.00000000000E+00 -0.00000000000E+00 -0.21066885943E+04  0.21066885943E+04  0.00000000000E+00 0. -1.
    9900016    2    1    2    0    0  0.65921796671E+03 -0.15421495768E+03 -0.14736757688E+03  0.10190284997E+04  0.74722908112E+03 0.  0.
         23    2    3    3    0    0  0.12893200432E+03 -0.30633974916E+03 -0.21682984474E+03  0.40752854948E+03  0.92719110325E+02 0.  0.
        -15    1    4    4    0    0  0.87412420790E+02 -0.26234554005E+03 -0.14061217741E+03  0.31022233661E+03  0.00000000000E+00 0.  1.
        -15    1    1    2    0    0 -0.24958111497E+02  0.28159249387E+03 -0.40549331944E+03  0.49430969244E+03  0.00000000000E+00 0.  1.
         15    1    1    2    0    0 -0.48441336739E+03  0.38497863841E+03 -0.61319867846E+03  0.87113574247E+03  0.00000000000E+00 0. -1.
         15    1    4    4    0    0  0.41519583526E+02 -0.43994209114E+02 -0.76217667328E+02  0.97306212878E+02  0.00000000000E+00 0. -1.
        -16    1    1    2    0    0 -0.14984648783E+03 -0.51235617460E+03 -0.11646707091E+03  0.54637660837E+03  0.00000000000E+00 0.  1.
         16    1    3    3    0    0  0.40334343699E+03  0.18536085907E+03  0.81249079769E+02  0.45127152492E+03  0.00000000000E+00 0. -1.
    9900018    1    3    3    0    0  0.12694252540E+03 -0.33236067583E+02 -0.11786811908E+02  0.16022842530E+03  0.91187600000E+02 0.  0.
<mgrwt>
<rscale>  0 0.26353387E+04</rscale>
<asrwt>0</asrwt>
<pdfrwt beam="1">  1        2 0.32410593E+00 0.26353387E+04</pdfrwt>
<pdfrwt beam="2">  1       -2 0.12679415E+00 0.26353387E+04</pdfrwt>
<totfact> 0.23767143E+00</totfact>
</mgrwt>
</event>
<event>
11    1  0.2094954E-014  0.1528623E+04  0.7818608E-02  0.8974428E-01
          2   -1    0    0  501    0  0.00000000000E+00  0.00000000000E+00  0.34901751325E+04  0.34901751325E+04  0.00000000000E+00 0. -1.
         -2   -1    0    0    0  501 -0.00000000000E+00 -0.00000000000E+00 -0.56331656347E+03  0.56331656347E+03  0.00000000000E+00 0.  1.
    9900016    2    1    2    0    0 -0.22570493803E+03  0.13040854396E+03  0.18022790020E+04  0.19723405839E+04  0.75760720049E+03 0.  0.
         23    2    3    3    0    0 -0.31584062399E+03  0.22776742209E+03  0.14965957978E+04  0.15490978107E+04  0.90949142963E+02 0.  0.
        -15    1    1    2    0    0  0.46141676816E+03  0.48740067326E+03  0.78534751609E+03  0.10330709420E+04  0.00000000000E+00 0.  1.
        -15    1    4    4    0    0 -0.21800916756E+03  0.12398369553E+03  0.10809144913E+04  0.11096288079E+04  0.00000000000E+00 0. -1.
         15    1    1    2    0    0 -0.19316618785E+03 -0.16276150853E+03  0.50278095306E+03  0.56266612795E+03  0.00000000000E+00 0. -1.
         15    1    4    4    0    0 -0.97831456438E+02  0.10378372656E+03  0.41568130659E+03  0.43946900279E+03  0.00000000000E+00 0.  1.
        -16    1    1    2    0    0 -0.42545642283E+02 -0.45504770869E+03 -0.16354890217E+03  0.48541404210E+03  0.00000000000E+00 0.  1.
         16    1    3    3    0    0  0.72553494229E+02 -0.13026152024E+03  0.64019037853E+02  0.16226678769E+03  0.00000000000E+00 0. -1.
    9900018    1    3    3    0    0  0.17582191739E+02  0.32902642114E+02  0.24166416632E+03  0.26097598549E+03  0.91187600000E+02 0.  0.
<mgrwt>
<rscale>  0 0.13718801E+04</rscale>
<asrwt>0</asrwt>
<pdfrwt beam="1">  1        2 0.53695001E+00 0.15286227E+04</pdfrwt>
<pdfrwt beam="2">  1       -2 0.86664089E-01 0.15286227E+04</pdfrwt>
<totfact> 0.91551709E-01</totfact>
</mgrwt>
</event>
