<event>
11    1  0.3804470E-017  0.2972828E+04  0.7818608E-02  0.8806154E-01
          1   -1    0    0  501    0  0.00000000000E+00  0.00000000000E+00  0.25721465050E+04  0.25721465050E+04  0.00000000000E+00 0. -1.
         -1   -1    0    0    0  501 -0.00000000000E+00 -0.00000000000E+00 -0.13816438492E+04  0.13816438492E+04  0.00000000000E+00 0.  1.
         23    2    1    2    0    0  0.66147920015E+02 -0.23670805244E+03 -0.47685188033E+03  0.54530385865E+03  0.97787182520E+02 0.  0.
    9900016    2    1    2    0    0  0.48387218659E+03  0.13306602179E+03  0.14914501543E+04  0.26663077219E+04  0.21524252476E+04 0.  0.
        -15    1    3    3    0    0  0.77708692709E+02 -0.11443229502E+03 -0.20890466987E+03  0.25054850261E+03  0.00000000000E+00 0. -1.
        -15    1    4    4    0    0 -0.39164991863E+03  0.58597073351E+02  0.11323451508E+03  0.41188023887E+03  0.00000000000E+00 0.  1.
         15    1    3    3    0    0 -0.11560772693E+02 -0.12227575742E+03 -0.26794721046E+03  0.29475535603E+03  0.00000000000E+00 0.  1.
         15    1    4    4    0    0  0.12875444441E+04  0.34176408960E+02  0.13058343517E+04  0.18341597740E+04  0.00000000000E+00 0. -1.
        -16    1    1    2    0    0 -0.58137575008E+03  0.76915810451E+02  0.60683335305E+02  0.58957295720E+03  0.00000000000E+00 0.  1.
         16    1    4    4    0    0 -0.41202233891E+03  0.40292539474E+02  0.72381287494E+02  0.42026770906E+03  0.00000000000E+00 0. -1.
    9900018    1    1    2    0    0  0.31355643477E+02  0.26726220205E+02  0.11522104658E+03  0.15260581638E+03  0.91187600000E+02 0.  0.
<mgrwt>
<rscale>  0 0.16236420E+04</rscale>
<asrwt>0</asrwt>
<pdfrwt beam="1">  1        1 0.39571485E+00 0.29728285E+04</pdfrwt>
<pdfrwt beam="2">  1       -1 0.21256059E+00 0.29728285E+04</pdfrwt>
<totfact> 0.12406374E-01</totfact>
</mgrwt>
</event>
<event>
11    1  0.3804470E-017  0.2855946E+04  0.7818608E-02  0.9045905E-01
          2   -1    0    0  501    0  0.00000000000E+00  0.00000000000E+00  0.35231696975E+04  0.35231696975E+04  0.00000000000E+00 0. -1.
         -2   -1    0    0    0  501 -0.00000000000E+00 -0.00000000000E+00 -0.62770887584E+03  0.62770887584E+03  0.00000000000E+00 0.  1.
         23    2    1    2    0    0  0.25406550750E+02 -0.64738865100E+02  0.15242839407E+03  0.19099819299E+03  0.91702131537E+02 0.  0.
    9900016    2    1    2    0    0 -0.89459317933E+01 -0.33137229759E+03  0.26000652060E+04  0.33893464555E+04  0.21488235597E+04 0.  0.
        -15    1    4    4    0    0  0.27741228247E+03 -0.48739751428E+02  0.18895701132E+03  0.33917236025E+03  0.00000000000E+00 0.  1.
        -15    1    3    3    0    0  0.23942923460E+02 -0.88198930097E+02  0.11661539389E+03  0.14816026777E+03  0.00000000000E+00 0.  1.
         15    1    4    4    0    0 -0.97359186362E+03 -0.12943588777E+03  0.20166603424E+04  0.22431125033E+04  0.00000000000E+00 0. -1.
         15    1    3    3    0    0  0.14636272901E+01  0.23460064997E+02  0.35813000182E+02  0.42837925212E+02  0.00000000000E+00 0. -1.
        -16    1    1    2    0    0  0.65218295911E+01  0.43955201455E+03  0.73227836076E+02  0.44565774282E+03  0.00000000000E+00 0.  1.
         16    1    4    4    0    0  0.68723364936E+03 -0.15319665839E+03  0.39444785224E+03  0.80706159188E+03  0.00000000000E+00 0. -1.
    9900018    1    1    2    0    0 -0.22982448548E+02 -0.43440851867E+02  0.69739385471E+02  0.12487618200E+03  0.91187600000E+02 0.  0.
<mgrwt>
<rscale>  0 0.12795952E+04</rscale>
<asrwt>0</asrwt>
<pdfrwt beam="1">  1        2 0.54202609E+00 0.28559457E+04</pdfrwt>
<pdfrwt beam="2">  1       -2 0.96570599E-01 0.28559457E+04</pdfrwt>
<totfact> 0.60609709E-01</totfact>
</mgrwt>
</event>
<event>
12    1  0.3804470E-017  0.2715208E+04  0.7818608E-02  0.8804159E-01
          2   -1    0    0  501    0  0.00000000000E+00  0.00000000000E+00  0.12605771153E+04  0.12605771153E+04  0.00000000000E+00 0. -1.
         -2   -1    0    0    0  501 -0.00000000000E+00 -0.00000000000E+00 -0.20546840234E+04  0.20546840234E+04  0.00000000000E+00 0.  1.
         23    2    1    2    0    0 -0.68517820581E+02  0.32922261830E+03  0.22388021498E+03  0.41549361788E+03  0.97110100924E+02 0.  0.
    9900016    2    1    2    0    0 -0.25400864903E+03 -0.54959901360E+02 -0.72283633971E+03  0.22787833940E+04  0.21454184669E+04 0.  0.
         24    2    4    4    0    0  0.88350209540E+03 -0.62961934894E+01 -0.71783472977E+03  0.11402212015E+04  0.64823563689E+02 0.  0.
        -15    1    3    3    0    0 -0.27422034380E+02  0.19991199049E+03  0.18646140561E+03  0.27474465908E+03  0.00000000000E+00 0.  1.
        -15    1    5    5    0    0  0.60578131056E+03 -0.72250918647E+01 -0.53006174429E+03  0.80497742263E+03  0.00000000000E+00 0.  1.
         15    1    3    3    0    0 -0.41095786201E+02  0.12931062781E+03  0.37418809367E+02  0.14074895880E+03  0.00000000000E+00 0. -1.
         15    1    4    4    0    0 -0.11375107444E+04 -0.48663707870E+02 -0.50016099404E+01  0.11385621925E+04  0.00000000000E+00 0. -1.
        -16    1    1    2    0    0  0.28882930878E+03 -0.30383549742E+03 -0.30568383153E+03  0.51882654516E+03  0.00000000000E+00 0.  1.
         16    1    5    5    0    0  0.27772078484E+03  0.92889837529E+00 -0.18777298548E+03  0.33524377886E+03  0.00000000000E+00 0. -1.
    9900018    1    1    2    0    0  0.33697160834E+02  0.29572780481E+02  0.10533048244E+02  0.10215758167E+03  0.91187600000E+02 0.  0.
<mgrwt>
<rscale>  0 0.16269526E+04</rscale>
<asrwt>0</asrwt>
<pdfrwt beam="1">  1        2 0.19393494E+00 0.27152079E+04</pdfrwt>
<pdfrwt beam="2">  1       -2 0.31610523E+00 0.27152079E+04</pdfrwt>
<totfact> 0.38043561E-01</totfact>
</mgrwt>
</event>
<event>
11    1  0.3804470E-017  0.2904629E+04  0.7818608E-02  0.8271502E-01
          2   -1    0    0  501    0  0.00000000000E+00  0.00000000000E+00  0.19457005608E+04  0.19457005608E+04  0.00000000000E+00 0. -1.
         -2   -1    0    0    0  501 -0.00000000000E+00 -0.00000000000E+00 -0.10840398034E+04  0.10840398034E+04  0.00000000000E+00 0.  1.
         23    2    1    2    0    0 -0.80444464011E+02 -0.38127973735E+03  0.26492647001E+03  0.47981369303E+03  0.90496384492E+02 0.  0.
    9900016    2    1    2    0    0  0.63553472235E+02  0.53606680078E+03  0.61603966944E+03  0.23930284928E+04  0.22484825626E+04 0.  0.
        -15    1    3    3    0    0  0.39789895490E+01 -0.18762620298E+03  0.14258097779E+03  0.23568784362E+03  0.00000000000E+00 0.  1.
        -15    1    4    4    0    0 -0.28809932867E+03 -0.36144055571E+03  0.88713508639E+03  0.10003245273E+04  0.00000000000E+00 0.  1.
         15    1    3    3    0    0 -0.84423453560E+02 -0.19365353437E+03  0.12234549221E+03  0.24412584941E+03  0.00000000000E+00 0. -1.
         15    1    4    4    0    0  0.36985740698E+03  0.91717737535E+03 -0.45454468540E+03  0.10884023660E+04  0.00000000000E+00 0. -1.
        -16    1    1    2    0    0  0.16890991776E+02 -0.15478706343E+03 -0.19305382020E+02  0.15689817839E+03  0.00000000000E+00 0.  1.
         16    1    4    4    0    0 -0.40456137736E+02 -0.67600215639E+02  0.18263909523E+03  0.19890582531E+03  0.00000000000E+00 0. -1.
    9900018    1    4    4    0    0  0.22251531662E+02  0.47930196783E+02  0.81017321833E+00  0.10539577411E+03  0.91187600000E+02 0.  0.
<mgrwt>
<rscale>  0 0.29046286E+04</rscale>
<asrwt>0</asrwt>
<pdfrwt beam="1">  1        2 0.29933855E+00 0.29046286E+04</pdfrwt>
<pdfrwt beam="2">  1       -2 0.16677535E+00 0.29046286E+04</pdfrwt>
<totfact> 0.13890716E+00</totfact>
</mgrwt>
</event>
