<event>
11    1  0.4069411E-011  0.3193797E+04  0.7818608E-02  0.8311325E-01
         -1   -1    0    0    0  501 -0.00000000000E+00  0.00000000000E+00  0.20535060595E+04  0.20535060595E+04  0.00000000000E+00 0.  1.
          1   -1    0    0  501    0  0.00000000000E+00 -0.00000000000E+00 -0.35060869577E+04  0.35060869577E+04  0.00000000000E+00 0. -1.
    9900016    2    1    2    0    0  0.71985401384E+03 -0.11073866349E+02 -0.71419699065E+03  0.21146001104E+04  0.18555710317E+04 0.  0.
         24    2    3    3    0    0  0.49693203046E+02 -0.36489689327E+03  0.53464877358E+03  0.65380512496E+03  0.77412358089E+02 0.  0.
        -15    1    4    4    0    0  0.41303659437E+02 -0.32132566561E+03  0.41693772038E+03  0.52800874836E+03  0.00000000000E+00 0.  1.
        -15    1    1    2    0    0 -0.55403541880E+02  0.59564728080E+03 -0.13222324727E+03  0.61265669236E+03  0.00000000000E+00 0.  1.
         15    1    3    3    0    0  0.67016081079E+03  0.35382302692E+03 -0.12488457642E+04  0.14607949855E+04  0.00000000000E+00 0. -1.
         15    1    1    2    0    0 -0.83720244596E+03 -0.68152593513E+03 -0.13806221408E+04  0.17525704070E+04  0.00000000000E+00 0. -1.
        -16    1    1    2    0    0  0.55665847078E+02 -0.15920924253E+03  0.76520847357E+03  0.78357531704E+03  0.00000000000E+00 0.  1.
         16    1    4    4    0    0  0.83895436087E+01 -0.43571227663E+02  0.11771105320E+03  0.12579637660E+03  0.00000000000E+00 0. -1.
    9900018    1    1    2    0    0  0.11708612692E+03  0.25616176322E+03  0.92530069134E+01  0.29619049037E+03  0.91187600000E+02 0.  0.
<mgrwt>
<rscale>  0 0.27741937E+04</rscale>
<asrwt>0</asrwt>
<pdfrwt beam="1">  1        1 0.53939799E+00 0.31937974E+04</pdfrwt>
<pdfrwt beam="2">  1       -1 0.31592401E+00 0.31937974E+04</pdfrwt>
<totfact> 0.50802868E-03</totfact>
</mgrwt>
</event>
<event>
11    1  0.4069411E-011  0.3902419E+04  0.7818608E-02  0.8166026E-01
         -1   -1    0    0    0  501 -0.00000000000E+00  0.00000000000E+00  0.26899642261E+04  0.26899642261E+04  0.00000000000E+00 0.  1.
          1   -1    0    0  501    0  0.00000000000E+00 -0.00000000000E+00 -0.32039182928E+04  0.32039182928E+04  0.00000000000E+00 0. -1.
    9900016    2    1    2    0    0 -0.54596029569E+02  0.30670862361E+03 -0.31689208068E+03  0.18952669297E+04  0.18424345952E+04 0.  0.
         24    2    3    3    0    0 -0.27024477542E+03 -0.35233500220E+03  0.59686419252E+03  0.74818654491E+03  0.79774991427E+02 0.  0.
        -15    1    4    4    0    0 -0.18744204691E+03 -0.25948096725E+03  0.36836955830E+03  0.48801744313E+03  0.00000000000E+00 0.  1.
        -15    1    1    2    0    0  0.21090748249E+03  0.61932054552E+03  0.39906960603E+03  0.76635269604E+03  0.00000000000E+00 0.  1.
         15    1    3    3    0    0  0.21564874585E+03  0.65904362580E+03 -0.91375627320E+03  0.11470803848E+04  0.00000000000E+00 0. -1.
         15    1    1    2    0    0  0.78881971547E+03 -0.64976022124E+03 -0.66073970218E+03  0.12169641912E+04  0.00000000000E+00 0. -1.
        -16    1    1    2    0    0 -0.70271607548E+03 -0.94991507639E+03  0.36038202899E+03  0.12353233350E+04  0.00000000000E+00 0.  1.
         16    1    4    4    0    0 -0.82802728514E+02 -0.92854034944E+02  0.22849463422E+03  0.26016910179E+03  0.00000000000E+00 0. -1.
    9900018    1    1    2    0    0 -0.24241509291E+03  0.67364612851E+03 -0.29577391882E+03  0.77997536703E+03  0.91187600000E+02 0.  0.
<mgrwt>
<rscale>  0 0.32877227E+04</rscale>
<asrwt>0</asrwt>
<pdfrwt beam="1">  1        1 0.49291050E+00 0.39024193E+04</pdfrwt>
<pdfrwt beam="2">  1       -1 0.41384065E+00 0.39024193E+04</pdfrwt>
<totfact> 0.18066123E-03</totfact>
</mgrwt>
</event>
<event>
11    1  0.4069411E-011  0.3618906E+04  0.7818608E-02  0.8305795E-01
         -2   -1    0    0    0  501 -0.00000000000E+00  0.00000000000E+00  0.23192194437E+04  0.23192194437E+04  0.00000000000E+00 0.  1.
          2   -1    0    0  501    0  0.00000000000E+00 -0.00000000000E+00 -0.37300815642E+04  0.37300815642E+04  0.00000000000E+00 0. -1.
    9900016    2    1    2    0    0 -0.78315603752E+03 -0.62238564605E+03  0.26011224552E+03  0.21231236697E+04  0.18545345683E+04 0.  0.
         24    2    3    3    0    0 -0.22706094966E+03 -0.79735603116E+03 -0.64022689220E+03  0.10505254479E+04  0.79874450990E+02 0.  0.
        -15    1    1    2    0    0  0.32505182354E+03 -0.69145701453E+02 -0.35085588393E+03  0.48325942029E+03  0.00000000000E+00 0.  1.
        -15    1    4    4    0    0 -0.65059181061E+02 -0.34785425408E+03 -0.30048351431E+03  0.46424737102E+03  0.00000000000E+00 0.  1.
         15    1    1    2    0    0 -0.61996617701E+03  0.68988613232E+03 -0.16563150374E+04  0.18983362292E+04  0.00000000000E+00 0. -1.
         15    1    3    3    0    0 -0.55609508787E+03  0.17497038511E+03  0.90033913772E+03  0.10725982218E+04  0.00000000000E+00 0. -1.
        -16    1    1    2    0    0  0.12639513041E+04 -0.11624853039E+03  0.28128630013E+03  0.13000802293E+04  0.00000000000E+00 0.  1.
         16    1    4    4    0    0 -0.16200176860E+03 -0.44950177708E+03 -0.33974337789E+03  0.58627807689E+03  0.00000000000E+00 0. -1.
    9900018    1    1    2    0    0 -0.18588091312E+03  0.11789374558E+03  0.54910255175E+02  0.24450145935E+03  0.91187600000E+02 0.  0.
<mgrwt>
<rscale>  0 0.27918773E+04</rscale>
<asrwt>0</asrwt>
<pdfrwt beam="1">  1        2 0.57385870E+00 0.36189057E+04</pdfrwt>
<pdfrwt beam="2">  1       -2 0.35680299E+00 0.36189057E+04</pdfrwt>
<totfact> 0.59450414E-03</totfact>
</mgrwt>
</event>
<event>
11    1  0.4069411E-011  0.3620892E+04  0.7818608E-02  0.8310304E-01
          2   -1    0    0  501    0  0.00000000000E+00  0.00000000000E+00  0.19555771897E+04  0.19555771897E+04  0.00000000000E+00 0. -1.
         -2   -1    0    0    0  501 -0.00000000000E+00 -0.00000000000E+00 -0.30390247875E+04  0.30390247875E+04  0.00000000000E+00 0.  1.
    9900016    2    1    2    0    0 -0.72700561849E+03  0.85002132092E+03 -0.58170994316E+03  0.22095856944E+04  0.18146098941E+04 0.  0.
        -24    2    3    3    0    0 -0.24740211697E+03 -0.48904600186E+03  0.19726652714E+03  0.58788129632E+03  0.79476640731E+02 0.  0.
        -15    1    3    3    0    0 -0.47960350152E+03  0.13390673228E+04 -0.77897647030E+03  0.16217043981E+04  0.00000000000E+00 0.  1.
        -15    1    1    2    0    0 -0.68255637845E+03  0.71166416163E+02 -0.32724086099E+03  0.76028576842E+03  0.00000000000E+00 0.  1.
         15    1    4    4    0    0 -0.14091530841E+03 -0.19152328232E+03  0.82676982081E+02  0.25174148482E+03  0.00000000000E+00 0. -1.
         15    1    1    2    0    0  0.43958031143E+03 -0.24793651892E+03  0.97814314812E+02  0.51407295960E+03  0.00000000000E+00 0. -1.
        -16    1    4    4    0    0 -0.10648680856E+03 -0.29752271953E+03  0.11458954506E+03  0.33613981149E+03  0.00000000000E+00 0.  1.
         16    1    1    2    0    0  0.10714980781E+04 -0.52583694065E+03 -0.27376546426E+02  0.11938852938E+04  0.00000000000E+00 0. -1.
    9900018    1    1    2    0    0 -0.10151639258E+03 -0.14741427752E+03 -0.24493456212E+03  0.31677226093E+03  0.91187600000E+02 0.  0.
<mgrwt>
<rscale>  0 0.27774478E+04</rscale>
<asrwt>0</asrwt>
<pdfrwt beam="1">  1        2 0.30085803E+00 0.36208919E+04</pdfrwt>
<pdfrwt beam="2">  1       -2 0.46754227E+00 0.36208919E+04</pdfrwt>
<totfact> 0.14711693E-02</totfact>
</mgrwt>
</event>
<event>
11    1  0.4069411E-011  0.3719054E+04  0.7818608E-02  0.8191652E-01
         -2   -1    0    0    0  501 -0.00000000000E+00  0.00000000000E+00  0.28417160443E+04  0.28417160443E+04  0.00000000000E+00 0. -1.
          2   -1    0    0  501    0  0.00000000000E+00 -0.00000000000E+00 -0.29043975905E+04  0.29043975905E+04  0.00000000000E+00 0.  1.
    9900016    2    1    2    0    0  0.39764075378E+02  0.20496624669E+03 -0.58196429070E+03  0.19418265977E+04  0.18407649920E+04 0.  0.
        -24    2    3    3    0    0  0.31603347911E+03  0.94772469806E+03 -0.83224924247E+02  0.10054741768E+04  0.77412330244E+02 0.  0.
        -15    1    3    3    0    0 -0.27626940373E+03 -0.74275845138E+03 -0.49873936645E+03  0.93635242093E+03  0.00000000000E+00 0.  1.
        -15    1    1    2    0    0 -0.11789539101E+04  0.10112606953E+04  0.14546738824E+02  0.15533164917E+04  0.00000000000E+00 0.  1.
         15    1    1    2    0    0 -0.28162237090E+03 -0.33285031831E+03  0.16423720491E+03  0.46591238841E+03  0.00000000000E+00 0. -1.
         15    1    4    4    0    0  0.10153568428E+02  0.96129325565E+02 -0.17422779656E+02  0.98221664801E+02  0.00000000000E+00 0. -1.
        -16    1    4    4    0    0  0.30587991068E+03  0.85159537250E+03 -0.65802144591E+02  0.90725251196E+03  0.00000000000E+00 0.  1.
         16    1    1    2    0    0  0.10482675121E+04 -0.60113334450E+03  0.46183217749E+03  0.12936440913E+04  0.00000000000E+00 0. -1.
    9900018    1    1    2    0    0  0.37254469351E+03 -0.28224327914E+03 -0.12133337672E+03  0.49141406572E+03  0.91187600000E+02 0.  0.
<mgrwt>
<rscale>  0 0.31892864E+04</rscale>
<asrwt>0</asrwt>
<pdfrwt beam="1">  1        2 0.44683040E+00 0.37190542E+04</pdfrwt>
<pdfrwt beam="2">  1       -2 0.43718708E+00 0.37190542E+04</pdfrwt>
<totfact> 0.63943513E-03</totfact>
</mgrwt>
</event>
<event>
11    1  0.4069411E-011  0.4296711E+04  0.7818608E-02  0.8332393E-01
         -1   -1    0    0    0  501 -0.00000000000E+00  0.00000000000E+00  0.19985161543E+04  0.19985161543E+04  0.00000000000E+00 0.  1.
          1   -1    0    0  501    0  0.00000000000E+00 -0.00000000000E+00 -0.31826157624E+04  0.31826157624E+04  0.00000000000E+00 0. -1.
    9900016    2    1    2    0    0 -0.10845171141E+04 -0.53954348007E+03 -0.16629554103E+04  0.27600645801E+04  0.18399052291E+04 0.  0.
        -24    2    3    3    0    0  0.80681423203E+02  0.52131196677E+03 -0.80519626051E+03  0.96594845524E+03  0.80247999967E+02 0.  0.
        -15    1    1    2    0    0 -0.21165241986E+03  0.75256942133E+02  0.67813852261E+02  0.23464669768E+03  0.00000000000E+00 0.  1.
        -15    1    3    3    0    0 -0.11651985373E+04 -0.10608554468E+04 -0.85775914983E+03  0.17941161249E+04  0.00000000000E+00 0.  1.
         15    1    4    4    0    0  0.56898345060E+02  0.42031729824E+03 -0.69796454586E+03  0.81673653044E+03  0.00000000000E+00 0. -1.
         15    1    1    2    0    0  0.23654849238E+03  0.38418315252E+03  0.57180545564E+02  0.45477631724E+03  0.00000000000E+00 0. -1.
        -16    1    4    4    0    0  0.23783078143E+02  0.10099466853E+03 -0.10723171464E+03  0.14921192480E+03  0.00000000000E+00 0.  1.
         16    1    1    2    0    0  0.11614990351E+04  0.48775047525E+03  0.32338887326E+03  0.13006002068E+04  0.00000000000E+00 0. -1.
    9900018    1    1    2    0    0 -0.10187799354E+03 -0.40764708983E+03  0.30472531228E+02  0.43104411487E+03  0.91187600000E+02 0.  0.
<mgrwt>
<rscale>  0 0.27080650E+04</rscale>
<asrwt>0</asrwt>
<pdfrwt beam="1">  1        1 0.48963319E+00 0.42967106E+04</pdfrwt>
<pdfrwt beam="2">  1       -1 0.30746403E+00 0.42967106E+04</pdfrwt>
<totfact> 0.96354696E-03</totfact>
</mgrwt>
</event>
<event>
11    1  0.4069411E-011  0.3557383E+04  0.7818608E-02  0.8214923E-01
          2   -1    0    0  501    0  0.00000000000E+00  0.00000000000E+00  0.34138070273E+04  0.34138070273E+04  0.00000000000E+00 0. -1.
         -2   -1    0    0    0  501 -0.00000000000E+00 -0.00000000000E+00 -0.33442786426E+04  0.33442786426E+04  0.00000000000E+00 0.  1.
    9900016    2    1    2    0    0 -0.85648363089E+03  0.58368855418E+03 -0.25768441568E+03  0.21225753772E+04  0.18343032561E+04 0.  0.
         24    2    3    3    0    0 -0.13379438133E+04  0.51595846716E+03  0.20550929614E+03  0.14510549482E+04  0.83783080319E+02 0.  0.
        -15    1    4    4    0    0 -0.89728882694E+03  0.38437421587E+03  0.15556418155E+03  0.98846901385E+03  0.00000000000E+00 0.  1.
        -15    1    1    2    0    0  0.92223445635E+03 -0.13932054439E+03  0.10616846638E+03  0.93872165727E+03  0.00000000000E+00 0.  1.
         15    1    1    2    0    0  0.54328867917E+03 -0.79805022342E+01  0.17543563713E+04  0.18365708684E+04  0.00000000000E+00 0. -1.
         15    1    3    3    0    0  0.48146018237E+03  0.67730087016E+02 -0.46319371182E+03  0.67152042900E+03  0.00000000000E+00 0. -1.
        -16    1    1    2    0    0 -0.54331311955E+03 -0.34731392838E+02 -0.47436895034E+03  0.72209508832E+03  0.00000000000E+00 0.  1.
         16    1    4    4    0    0 -0.44065498632E+03  0.13158425129E+03  0.49945114592E+02  0.46258593432E+03  0.00000000000E+00 0. -1.
    9900018    1    1    2    0    0 -0.65726385086E+02 -0.40165611471E+03 -0.10589430869E+04  0.11381226787E+04  0.91187600000E+02 0.  0.
<mgrwt>
<rscale>  0 0.31029702E+04</rscale>
<asrwt>0</asrwt>
<pdfrwt beam="1">  1        2 0.52520108E+00 0.35573829E+04</pdfrwt>
<pdfrwt beam="2">  1       -2 0.51450441E+00 0.35573829E+04</pdfrwt>
<totfact> 0.94313111E-04</totfact>
</mgrwt>
</event>
