<event>
11    1  0.2192151E-010  0.2262689E+04  0.7818608E-02  0.8492779E-01
         -2   -1    0    0    0  501 -0.00000000000E+00  0.00000000000E+00  0.18291493108E+04  0.18291493108E+04  0.00000000000E+00 0.  1.
          2   -1    0    0  501    0  0.00000000000E+00 -0.00000000000E+00 -0.69974610220E+03  0.69974610220E+03  0.00000000000E+00 0. -1.
    9900016    2    1    2    0    0 -0.11070375564E+03  0.10342472654E+03  0.13260849784E+04  0.22806300023E+04  0.18492754911E+04 0.  0.
        -24    2    3    3    0    0 -0.35488068204E+03 -0.39444127939E+03  0.27590337764E+03  0.60149312491E+03  0.64397858280E+02 0.  0.
        -15    1    3    3    0    0 -0.84735903763E+02  0.38746819843E+03  0.10130507452E+04  0.10879262799E+04  0.00000000000E+00 0.  1.
        -15    1    3    3    0    0  0.11440300814E+03  0.19584456781E+03 -0.18373129510E+02  0.22755376266E+03  0.00000000000E+00 0.  1.
         15    1    3    3    0    0  0.21053337436E+03 -0.12401526543E+03 -0.10547080473E+02  0.24457172504E+03  0.00000000000E+00 0. -1.
         15    1    4    4    0    0 -0.29953376866E+03 -0.33968693933E+03  0.20876814056E+03  0.49869011604E+03  0.00000000000E+00 0. -1.
        -16    1    4    4    0    0 -0.55346913375E+02 -0.54754340057E+02  0.67135237078E+02  0.10280300887E+03  0.00000000000E+00 0.  1.
         16    1    1    2    0    0  0.11070375564E+03 -0.10342472654E+03 -0.19668176980E+03  0.24826541069E+03  0.00000000000E+00 0. -1.
    9900018    1    3    3    0    0  0.39764476577E+01  0.38568505126E+02  0.66051065547E+02  0.11908510980E+03  0.91187600000E+02 0.  0.
<mgrwt>
<rscale>  0 0.22626888E+04</rscale>
<asrwt>0</asrwt>
<pdfrwt beam="1">  1        2 0.10765325E+00 0.22626888E+04</pdfrwt>
<pdfrwt beam="2">  1       -2 0.28140758E+00 0.22626888E+04</pdfrwt>
<totfact> 0.15393510E+00</totfact>
</mgrwt>
</event>
<event>
11    1  0.2192152E-010  0.2147509E+04  0.7818608E-02  0.8540599E-01
         -2   -1    0    0    0  501 -0.00000000000E+00  0.00000000000E+00  0.42427901693E+03  0.42427901693E+03  0.00000000000E+00 0.  1.
          2   -1    0    0  501    0  0.00000000000E+00 -0.00000000000E+00 -0.27174297818E+04  0.27174297818E+04  0.00000000000E+00 0. -1.
    9900016    2    1    2    0    0 -0.86401997436E+02  0.33854531723E+02 -0.23684468947E+04  0.30222059048E+04  0.18749870409E+04 0.  0.
         24    2    3    3    0    0 -0.51654456643E+02 -0.32557030705E+03 -0.14254551624E+04  0.14644582472E+04  0.63650060050E+02 0.  0.
        -15    1    3    3    0    0  0.31207550020E+03  0.23333842483E+02 -0.29189216263E+02  0.31430494170E+03  0.00000000000E+00 0.  1.
        -15    1    4    4    0    0 -0.23489345082E+01 -0.21072945638E+03 -0.88906691904E+03  0.91370258170E+03  0.00000000000E+00 0.  1.
         15    1    3    3    0    0 -0.25160639827E+03  0.12096808181E+03 -0.46335278021E+03  0.54095735081E+03  0.00000000000E+00 0. -1.
         15    1    3    3    0    0 -0.78001252165E+02  0.26358029333E+03 -0.38645855380E+02  0.27758290385E+03  0.00000000000E+00 0. -1.
        -16    1    1    2    0    0  0.86401997436E+02 -0.33854531723E+02  0.75296129834E+02  0.11950289389E+03  0.00000000000E+00 0.  1.
         16    1    4    4    0    0 -0.49305522135E+02 -0.11484085067E+03 -0.53638824336E+03  0.55075566553E+03  0.00000000000E+00 0. -1.
    9900018    1    3    3    0    0 -0.17215390559E+02 -0.48457378848E+02 -0.41180388040E+03  0.42490246122E+03  0.91187600000E+02 0.  0.
<mgrwt>
<rscale>  0 0.21475087E+04</rscale>
<asrwt>0</asrwt>
<pdfrwt beam="1">  1        2 0.41806614E+00 0.21475087E+04</pdfrwt>
<pdfrwt beam="2">  1       -2 0.65273692E-01 0.21475087E+04</pdfrwt>
<totfact> 0.51523852E+00</totfact>
</mgrwt>
</event>
<event>
11    1  0.2192151E-010  0.2406778E+04  0.7818608E-02  0.8436970E-01
          1   -1    0    0  501    0  0.00000000000E+00  0.00000000000E+00  0.13869129490E+04  0.13869129490E+04  0.00000000000E+00 0. -1.
         -1   -1    0    0    0  501 -0.00000000000E+00 -0.00000000000E+00 -0.10441496820E+04  0.10441496820E+04  0.00000000000E+00 0.  1.
    9900016    2    1    2    0    0 -0.28438380660E+03  0.27773065351E+02  0.67793080481E+03  0.19906278788E+04  0.18496928619E+04 0.  0.
         24    2    3    3    0    0 -0.30381381235E+02 -0.34322800697E+03  0.25193765065E+03  0.43165320870E+03  0.64213858880E+02 0.  0.
        -15    1    3    3    0    0 -0.21998930748E+03  0.21070488534E+02 -0.28386223955E+03  0.35974578793E+03  0.00000000000E+00 0.  1.
        -15    1    4    4    0    0  0.91926655086E+01 -0.64535467865E+02  0.74108286068E+02  0.98698377776E+02  0.00000000000E+00 0.  1.
         15    1    3    3    0    0 -0.29087032776E+03  0.36760728008E+03  0.16091755483E+03  0.49561589905E+03  0.00000000000E+00 0. -1.
         15    1    3    3    0    0  0.12193651996E+03 -0.14208970539E+03  0.10503041424E+03  0.21468438974E+03  0.00000000000E+00 0. -1.
        -16    1    1    2    0    0  0.28438380660E+03 -0.27773065351E+02 -0.33516753778E+03  0.44043475226E+03  0.00000000000E+00 0.  1.
         16    1    4    4    0    0 -0.39574046743E+02 -0.27869253911E+03  0.17782936458E+03  0.33295483093E+03  0.00000000000E+00 0. -1.
    9900018    1    3    3    0    0  0.13492068992E+03  0.12441300911E+03  0.44390742463E+03  0.48892859339E+03  0.91187600000E+02 0.  0.
<mgrwt>
<rscale>  0 0.24067777E+04</rscale>
<asrwt>0</asrwt>
<pdfrwt beam="1">  1        1 0.21337122E+00 0.24067777E+04</pdfrwt>
<pdfrwt beam="2">  1       -1 0.16063841E+00 0.24067777E+04</pdfrwt>
<totfact> 0.20313155E+00</totfact>
</mgrwt>
</event>
<event>
11    1  0.2192151E-010  0.2709183E+04  0.7818608E-02  0.8332032E-01
          2   -1    0    0  501    0  0.00000000000E+00  0.00000000000E+00  0.10855205112E+04  0.10855205112E+04  0.00000000000E+00 0.  1.
         -2   -1    0    0    0  501 -0.00000000000E+00 -0.00000000000E+00 -0.16903573487E+04  0.16903573487E+04  0.00000000000E+00 0. -1.
    9900016    2    1    2    0    0  0.54798070844E+03 -0.34019741938E+03 -0.93290685164E+02  0.19526545566E+04  0.18406899589E+04 0.  0.
        -24    2    3    3    0    0  0.50405864583E+03 -0.62544178140E+03 -0.16296920205E+03  0.82158107895E+03  0.56426661432E+02 0.  0.
        -15    1    3    3    0    0  0.12042943604E+03 -0.21868062061E+03  0.16262276888E+03  0.29794400120E+03  0.00000000000E+00 0.  1.
        -15    1    3    3    0    0 -0.11221395004E+03  0.48018018712E+03  0.65284745174E+02  0.49742042644E+03  0.00000000000E+00 0.  1.
         15    1    4    4    0    0  0.41327574656E+03 -0.47598092791E+03 -0.13014508885E+03  0.64365552167E+03  0.00000000000E+00 0. -1.
         15    1    3    3    0    0 -0.96290080605E+02  0.67701899798E+02 -0.11336041572E+03  0.16341943187E+03  0.00000000000E+00 0. -1.
        -16    1    4    4    0    0  0.90782899268E+02 -0.14946085349E+03 -0.32824113203E+02  0.17792555728E+03  0.00000000000E+00 0.  1.
         16    1    1    2    0    0 -0.54798070844E+03  0.34019741938E+03 -0.51154615236E+03  0.82322330322E+03  0.00000000000E+00 0. -1.
    9900018    1    3    3    0    0  0.13199665722E+03 -0.43957104295E+02 -0.44868581447E+02  0.17228961818E+03  0.91187600000E+02 0.  0.
<mgrwt>
<rscale>  0 0.27091826E+04</rscale>
<asrwt>0</asrwt>
<pdfrwt beam="1">  1        2 0.16700316E+00 0.27091826E+04</pdfrwt>
<pdfrwt beam="2">  1       -2 0.26005498E+00 0.27091826E+04</pdfrwt>
<totfact> 0.10869144E+00</totfact>
</mgrwt>
</event>
<event>
11    1  0.2192151E-010  0.2670023E+04  0.7818608E-02  0.8344798E-01
         -2   -1    0    0    0  501 -0.00000000000E+00  0.00000000000E+00  0.85320662173E+03  0.85320662173E+03  0.00000000000E+00 0.  1.
          2   -1    0    0  501    0  0.00000000000E+00 -0.00000000000E+00 -0.20888906131E+04  0.20888906131E+04  0.00000000000E+00 0. -1.
    9900016    2    1    2    0    0 -0.23225963906E+03 -0.50323029110E+03 -0.13637718143E+04  0.23732459746E+04  0.18615148747E+04 0.  0.
        -24    2    3    3    0    0  0.35950334413E+03 -0.35801489895E+03 -0.10397503885E+04  0.11605554610E+04  0.91601229331E+02 0.  0.
        -15    1    3    3    0    0 -0.65673649091E+02 -0.12870123387E+03  0.21316591990E+03  0.25752037821E+03  0.00000000000E+00 0.  1.
        -15    1    3    3    0    0 -0.29597346035E+03 -0.10420676138E+03 -0.19173732000E+03  0.36772617290E+03  0.00000000000E+00 0.  1.
         15    1    4    4    0    0  0.79690103182E+02 -0.91282323338E+02 -0.34260414758E+03  0.36340139934E+03  0.00000000000E+00 0. -1.
         15    1    3    3    0    0 -0.20876935895E+01  0.18252748449E+03 -0.24532729553E+03  0.30578770903E+03  0.00000000000E+00 0. -1.
        -16    1    4    4    0    0  0.27981324095E+03 -0.26673257561E+03 -0.69714624095E+03  0.79715406163E+03  0.00000000000E+00 0.  1.
         16    1    1    2    0    0  0.23225963906E+03  0.50323029110E+03  0.12808782295E+03  0.56885126018E+03  0.00000000000E+00 0. -1.
    9900018    1    3    3    0    0 -0.22802818015E+03 -0.94834881394E+02 -0.10012273012E+03  0.28165625353E+03  0.91187600000E+02 0.  0.
<mgrwt>
<rscale>  0 0.26700227E+04</rscale>
<asrwt>0</asrwt>
<pdfrwt beam="1">  1        2 0.32136778E+00 0.26700227E+04</pdfrwt>
<pdfrwt beam="2">  1       -2 0.13126256E+00 0.26700227E+04</pdfrwt>
<totfact> 0.22214400E+00</totfact>
</mgrwt>
</event>
<event>
11    1  0.2192151E-010  0.2254062E+04  0.7818608E-02  0.8496257E-01
         -2   -1    0    0    0  501 -0.00000000000E+00  0.00000000000E+00  0.55734435921E+03  0.55734435921E+03  0.00000000000E+00 0. -1.
          2   -1    0    0  501    0  0.00000000000E+00 -0.00000000000E+00 -0.22790201978E+04  0.22790201978E+04  0.00000000000E+00 0.  1.
    9900016    2    1    2    0    0 -0.22072235489E+03 -0.86155917786E+02 -0.17983473236E+04  0.25873269761E+04  0.18450112695E+04 0.  0.
        -24    2    3    3    0    0 -0.67735400412E+03 -0.21335573323E+03 -0.93667141618E+03  0.11770895269E+04  0.62107139209E+02 0.  0.
        -15    1    3    3    0    0  0.20041252378E+02  0.46308129563E+02 -0.73269003193E+02  0.88963146804E+02  0.00000000000E+00 0.  1.
        -15    1    3    3    0    0  0.20712081789E+03 -0.19774562090E+03  0.17302485586E+02  0.28688279801E+03  0.00000000000E+00 0.  1.
         15    1    4    4    0    0 -0.35439321077E+03 -0.79320149221E+02 -0.47093734437E+03  0.59470010613E+03  0.00000000000E+00 0. -1.
         15    1    3    3    0    0  0.36104759245E+03  0.43763712930E+02 -0.42734245988E+03  0.56115256802E+03  0.00000000000E+00 0. -1.
        -16    1    4    4    0    0 -0.32296079335E+03 -0.13403558401E+03 -0.46573407181E+03  0.58238942081E+03  0.00000000000E+00 0.  1.
         16    1    1    2    0    0  0.22072235489E+03  0.86155917786E+02  0.76671485028E+02  0.24903758097E+03  0.00000000000E+00 0. -1.
    9900018    1    3    3    0    0 -0.13157801348E+03  0.23487359385E+03 -0.37836692998E+03  0.47323893628E+03  0.91187600000E+02 0.  0.
<mgrwt>
<rscale>  0 0.22540622E+04</rscale>
<asrwt>0</asrwt>
<pdfrwt beam="1">  1        2 0.35061851E+00 0.22540622E+04</pdfrwt>
<pdfrwt beam="2">  1       -2 0.85745283E-01 0.22540622E+04</pdfrwt>
<totfact> 0.50077580E+00</totfact>
</mgrwt>
</event>
<event>
10    1  0.2192151E-010  0.3536763E+04  0.7818608E-02  0.8105132E-01
         -2   -1    0    0    0  501 -0.00000000000E+00  0.00000000000E+00  0.12244856959E+04  0.12244856959E+04  0.00000000000E+00 0.  1.
          2   -1    0    0  501    0  0.00000000000E+00 -0.00000000000E+00 -0.25538664785E+04  0.25538664785E+04  0.00000000000E+00 0. -1.
    9900016    2    1    2    0    0  0.88941147497E+03  0.35059201920E+03  0.82895191819E+02  0.20729223272E+04  0.18374351216E+04 0.  0.
        -15    1    3    3    0    0  0.29139306301E+03  0.16105219738E+03 -0.63415618173E+03  0.71624143295E+03  0.00000000000E+00 0.  1.
        -15    1    3    3    0    0  0.74172803423E+02  0.18925684213E+03  0.65895390306E+01  0.20337939691E+03  0.00000000000E+00 0.  1.
         15    1    3    3    0    0  0.51144914385E+02 -0.44743083300E+02  0.89382620781E+02  0.11228089182E+03  0.00000000000E+00 0. -1.
         15    1    3    3    0    0  0.49434253169E+03 -0.45207660990E+02  0.20008984425E+03  0.53521417865E+03  0.00000000000E+00 0. -1.
        -16    1    3    3    0    0  0.23681677033E+02  0.62165600164E+00  0.35351082657E+03  0.35430370135E+03  0.00000000000E+00 0.  1.
         16    1    1    2    0    0 -0.88941147497E+03 -0.35059201920E+03 -0.14122759744E+04  0.17054298472E+04  0.00000000000E+00 0. -1.
    9900018    1    3    3    0    0 -0.45323514574E+02  0.89612067976E+02  0.67478542919E+02  0.15150272555E+03  0.91187600000E+02 0.  0.
<mgrwt>
<rscale>  0 0.35367629E+04</rscale>
<asrwt>0</asrwt>
<pdfrwt beam="1">  1        2 0.39290253E+00 0.35367629E+04</pdfrwt>
<pdfrwt beam="2">  1       -2 0.18838242E+00 0.35367629E+04</pdfrwt>
<totfact> 0.42163606E-01</totfact>
</mgrwt>
</event>
<event>
11    1  0.2192151E-010  0.2311037E+04  0.7818608E-02  0.8473582E-01
          2   -1    0    0  501    0  0.00000000000E+00  0.00000000000E+00  0.40689708713E+04  0.40689708713E+04  0.00000000000E+00 0.  1.
         -2   -1    0    0    0  501 -0.00000000000E+00 -0.00000000000E+00 -0.32814747748E+03  0.32814747748E+03  0.00000000000E+00 0. -1.
    9900016    2    1    2    0    0  0.28648795781E+03  0.22720709689E+03  0.34549818895E+04  0.39330022206E+04  0.18433415841E+04 0.  0.
         24    2    3    3    0    0 -0.14916837714E+03  0.40363298315E+03  0.42079240508E+03  0.60403106385E+03  0.51151618634E+02 0.  0.
        -15    1    4    4    0    0 -0.84695726345E+02  0.18590495645E+03  0.17057157930E+03  0.26613658629E+03  0.00000000000E+00 0.  1.
        -15    1    3    3    0    0  0.28131632656E+03  0.15348753986E+03  0.11867297124E+04  0.12292374509E+04  0.00000000000E+00 0.  1.
         15    1    3    3    0    0  0.13064624058E+03 -0.56446352711E+03  0.10042006451E+04  0.11593560494E+04  0.00000000000E+00 0. -1.
         15    1    3    3    0    0  0.11336025255E+03  0.25153130191E+03  0.46459241863E+03  0.54033754094E+03  0.00000000000E+00 0. -1.
        -16    1    1    2    0    0 -0.28648795781E+03 -0.22720709689E+03  0.28584150436E+03  0.46411612820E+03  0.00000000000E+00 0.  1.
         16    1    4    4    0    0 -0.64472650798E+02  0.21772802670E+03  0.25022082578E+03  0.33789447756E+03  0.00000000000E+00 0. -1.
    9900018    1    3    3    0    0 -0.89666484743E+02 -0.16981200933E+02  0.37866670826E+03  0.40004011550E+03  0.91187600000E+02 0.  0.
<mgrwt>
<rscale>  0 0.23110366E+04</rscale>
<asrwt>0</asrwt>
<pdfrwt beam="1">  1        2 0.62599548E+00 0.23110366E+04</pdfrwt>
<pdfrwt beam="2">  1       -2 0.50484230E-01 0.23110366E+04</pdfrwt>
<totfact> 0.10157189E+00</totfact>
</mgrwt>
</event>
<event>
11    1  0.2192151E-010  0.2387748E+04  0.7818608E-02  0.8444105E-01
         -2   -1    0    0    0  501 -0.00000000000E+00  0.00000000000E+00  0.44401950240E+03  0.44401950240E+03  0.00000000000E+00 0. -1.
          2   -1    0    0  501    0  0.00000000000E+00 -0.00000000000E+00 -0.32100722436E+04  0.32100722436E+04  0.00000000000E+00 0.  1.
    9900016    2    1    2    0    0  0.32785541458E+03  0.34555412884E+03 -0.21779885734E+04  0.28973115307E+04  0.18503737599E+04 0.  0.
         24    2    3    3    0    0 -0.21841528932E+03  0.12651760090E+03  0.41214684084E+02  0.27566613720E+03  0.10286509160E+03 0.  0.
        -15    1    4    4    0    0 -0.93994272067E+02  0.85384978584E+02  0.64724846652E+02  0.14253007936E+03  0.00000000000E+00 0.  1.
        -15    1    3    3    0    0 -0.12257592656E+03  0.15940348492E+03 -0.26240676394E+03  0.33059285917E+03  0.00000000000E+00 0.  1.
         15    1    3    3    0    0  0.21645497973E+03 -0.24513064422E+03 -0.42226239118E+03  0.53408549689E+03  0.00000000000E+00 0. -1.
         15    1    3    3    0    0  0.54574149204E+03  0.16002808503E+03 -0.70988447473E+03  0.90960361235E+03  0.00000000000E+00 0. -1.
        -16    1    1    2    0    0 -0.32785541458E+03 -0.34555412884E+03 -0.58806416780E+03  0.75678021530E+03  0.00000000000E+00 0.  1.
         16    1    4    4    0    0 -0.12442101725E+03  0.41132622315E+02 -0.23510162568E+02  0.13313605784E+03  0.00000000000E+00 0. -1.
    9900018    1    3    3    0    0 -0.93349841311E+02  0.14473560221E+03 -0.82464962760E+03  0.84736342505E+03  0.91187600000E+02 0.  0.
<mgrwt>
<rscale>  0 0.23877476E+04</rscale>
<asrwt>0</asrwt>
<pdfrwt beam="1">  1        2 0.49385727E+00 0.23877476E+04</pdfrwt>
<pdfrwt beam="2">  1       -2 0.68310692E-01 0.23877476E+04</pdfrwt>
<totfact> 0.22564552E+00</totfact>
</mgrwt>
</event>
<event>
11    1  0.2192151E-010  0.2964041E+04  0.7818608E-02  0.8254074E-01
         -2   -1    0    0    0  501 -0.00000000000E+00  0.00000000000E+00  0.24294220301E+04  0.24294220301E+04  0.00000000000E+00 0.  1.
          2   -1    0    0  501    0  0.00000000000E+00 -0.00000000000E+00 -0.90407689161E+03  0.90407689161E+03  0.00000000000E+00 0. -1.
    9900016    2    1    2    0    0 -0.24059662075E+03  0.23348587880E+03  0.11254797499E+03  0.18814664790E+04  0.18479303762E+04 0.  0.
         24    2    3    3    0    0 -0.31433174513E+03  0.59480150666E+03 -0.48575745106E+03  0.83513801807E+03  0.94350037886E+02 0.  0.
        -15    1    4    4    0    0 -0.11375743075E+03  0.21267700341E+03 -0.11982271838E+03  0.26931346916E+03  0.00000000000E+00 0.  1.
        -15    1    3    3    0    0 -0.15048954228E+02  0.25404114639E+02  0.83303011587E+02  0.88381173354E+02  0.00000000000E+00 0.  1.
         15    1    3    3    0    0  0.30957492087E+03 -0.12663143045E+03  0.43188609335E+03  0.54625795046E+03  0.00000000000E+00 0. -1.
         15    1    3    3    0    0 -0.18028560993E+03 -0.24157121657E+03  0.55257048222E+02  0.30645210915E+03  0.00000000000E+00 0. -1.
        -16    1    1    2    0    0  0.24059662075E+03 -0.23348587880E+03  0.14127971635E+04  0.14520324427E+04  0.00000000000E+00 0.  1.
         16    1    4    4    0    0 -0.20057431437E+03  0.38212450325E+03 -0.36593473268E+03  0.56582454891E+03  0.00000000000E+00 0. -1.
    9900018    1    3    3    0    0 -0.40505232333E+02 -0.18517095484E+02  0.27859272887E+02  0.10523722797E+03  0.91187600000E+02 0.  0.
<mgrwt>
<rscale>  0 0.29640407E+04</rscale>
<asrwt>0</asrwt>
<pdfrwt beam="1">  1        2 0.13908875E+00 0.29640407E+04</pdfrwt>
<pdfrwt beam="2">  1       -2 0.37375723E+00 0.29640407E+04</pdfrwt>
<totfact> 0.27463190E-01</totfact>
</mgrwt>
</event>
<event>
11    1  0.2192151E-010  0.2179841E+04  0.7818608E-02  0.8526866E-01
          2   -1    0    0  501    0  0.00000000000E+00  0.00000000000E+00  0.11493119521E+04  0.11493119521E+04  0.00000000000E+00 0. -1.
         -2   -1    0    0    0  501 -0.00000000000E+00 -0.00000000000E+00 -0.10335979780E+04  0.10335979780E+04  0.00000000000E+00 0.  1.
    9900016    2    1    2    0    0 -0.16549047901E+03  0.11785567450E+03 -0.13189908702E+03  0.18626143062E+04  0.18467965849E+04 0.  0.
        -24    2    3    3    0    0 -0.23163218026E+03  0.13130036862E+03  0.10885525263E+03  0.29539571993E+03  0.67200532711E+02 0.  0.
        -15    1    3    3    0    0 -0.59696118600E+02  0.17779220556E+02 -0.57756983453E+01  0.62554663702E+02  0.00000000000E+00 0.  1.
        -15    1    3    3    0    0 -0.27423642793E+02 -0.62421956834E+03 -0.33153144958E+03  0.70732964574E+03  0.00000000000E+00 0.  1.
         15    1    3    3    0    0  0.23898804168E+03  0.42868004089E+03 -0.11242093017E+03  0.50350802085E+03  0.00000000000E+00 0. -1.
         15    1    4    4    0    0 -0.10796269805E+03  0.31184982939E+02  0.67136104872E+02  0.13090341442E+03  0.00000000000E+00 0. -1.
        -16    1    4    4    0    0 -0.12366948221E+03  0.10011538569E+03  0.41719147754E+02  0.16449230551E+03  0.00000000000E+00 0.  1.
         16    1    1    2    0    0  0.16549047901E+03 -0.11785567450E+03  0.24761306110E+03  0.32029562389E+03  0.00000000000E+00 0. -1.
    9900018    1    3    3    0    0 -0.85726579040E+02  0.16431561277E+03  0.20897373845E+03  0.29382625599E+03  0.91187600000E+02 0.  0.
<mgrwt>
<rscale>  0 0.21798408E+04</rscale>
<asrwt>0</asrwt>
<pdfrwt beam="1">  1        2 0.17681722E+00 0.21798408E+04</pdfrwt>
<pdfrwt beam="2">  1       -2 0.15901507E+00 0.21798408E+04</pdfrwt>
<totfact> 0.47662021E+00</totfact>
</mgrwt>
</event>
<event>
11    1  0.2192151E-010  0.2339763E+04  0.7818608E-02  0.8462406E-01
         -2   -1    0    0    0  501 -0.00000000000E+00  0.00000000000E+00  0.48124798981E+03  0.48124798981E+03  0.00000000000E+00 0. -1.
          2   -1    0    0  501    0  0.00000000000E+00 -0.00000000000E+00 -0.28439024997E+04  0.28439024997E+04  0.00000000000E+00 0.  1.
    9900016    2    1    2    0    0 -0.13097546849E+03  0.40220752353E+03 -0.17038028386E+04  0.25422003059E+04  0.18387258678E+04 0.  0.
         24    2    3    3    0    0 -0.19885915750E+02 -0.13924788096E+03 -0.42489623880E+03  0.45804056930E+03  0.97359783138E+02 0.  0.
        -15    1    3    3    0    0 -0.19276807184E+03 -0.17446200937E+03 -0.58916204397E+03  0.64397859925E+03  0.00000000000E+00 0.  1.
        -15    1    4    4    0    0  0.35474733039E+02 -0.33196321190E+02 -0.16357043673E+03  0.17063335019E+03  0.00000000000E+00 0.  1.
         15    1    3    3    0    0 -0.17941468338E+03  0.35951653896E+03 -0.75765101930E+03  0.85759946213E+03  0.00000000000E+00 0. -1.
         15    1    3    3    0    0  0.28794494814E+03  0.38322212871E+03  0.65343505708E+02  0.48377811736E+03  0.00000000000E+00 0. -1.
        -16    1    1    2    0    0  0.13097546849E+03 -0.40220752353E+03 -0.65885167127E+03  0.78295018364E+03  0.00000000000E+00 0.  1.
         16    1    4    4    0    0 -0.55360648789E+02 -0.10605155977E+03 -0.26132580207E+03  0.28740721911E+03  0.00000000000E+00 0. -1.
    9900018    1    3    3    0    0 -0.26851745659E+02 -0.26821253807E+02  0.25629577142E+01  0.98803557865E+02  0.91187600000E+02 0.  0.
<mgrwt>
<rscale>  0 0.23397627E+04</rscale>
<asrwt>0</asrwt>
<pdfrwt beam="1">  1        2 0.43752346E+00 0.23397627E+04</pdfrwt>
<pdfrwt beam="2">  1       -2 0.74038153E-01 0.23397627E+04</pdfrwt>
<totfact> 0.32301272E+00</totfact>
</mgrwt>
</event>
