<event>
11    1  0.2398161E-017  0.1369924E+04  0.7818608E-02  0.8975881E-01
          2   -1    0    0  501    0  0.00000000000E+00  0.00000000000E+00  0.10704835889E+04  0.10704835889E+04  0.00000000000E+00 0.  1.
         -2   -1    0    0    0  501 -0.00000000000E+00 -0.00000000000E+00 -0.43828131189E+03  0.43828131189E+03  0.00000000000E+00 0. -1.
    9900016    2    1    2    0    0  0.40712116441E+03  0.19240297756E+02  0.68733143854E+03  0.10974778282E+04  0.75227338482E+03 0.  0.
         24    2    3    3    0    0  0.22511186051E+03  0.95881816683E+01  0.72733131435E+03  0.76559605319E+03  0.79744547522E+02 0.  0.
        -15    1    4    4    0    0  0.50593146955E+02 -0.81620241285E+01  0.12264105389E+03  0.13291769354E+03  0.00000000000E+00 0.  1.
        -15    1    4    4    0    0  0.70845016439E+02  0.17519767436E+02  0.16339985320E+03  0.17895661661E+03  0.00000000000E+00 0.  1.
         15    1    4    4    0    0  0.23941044509E+02  0.75702405327E+01  0.91375077237E+02  0.94762265137E+02  0.00000000000E+00 0. -1.
         15    1    3    3    0    0  0.14247758312E+03  0.81222461430E+00 -0.13341904981E+03  0.19519519526E+03  0.00000000000E+00 0. -1.
        -16    1    1    2    0    0 -0.40712116441E+03 -0.19240297756E+02 -0.55129161559E+02  0.41128707252E+03  0.00000000000E+00 0.  1.
         16    1    4    4    0    0  0.79732652607E+02 -0.73398021719E+01  0.34991533002E+03  0.35895947790E+03  0.00000000000E+00 0. -1.
    9900018    1    3    3    0    0  0.39531720781E+02  0.88398914732E+01  0.93419174009E+02  0.13668657979E+03  0.91187600000E+02 0.  0.
<mgrwt>
<rscale>  0 0.13699240E+04</rscale>
<asrwt>0</asrwt>
<pdfrwt beam="1">  1        2 0.16468978E+00 0.13699240E+04</pdfrwt>
<pdfrwt beam="2">  1       -2 0.67427895E-01 0.13699240E+04</pdfrwt>
<totfact> 0.44714096E+01</totfact>
</mgrwt>
</event>
<event>
11    1  0.2398161E-017  0.1144492E+04  0.7818608E-02  0.9162880E-01
          1   -1    0    0  501    0  0.00000000000E+00  0.00000000000E+00  0.12574611222E+04  0.12574611222E+04  0.00000000000E+00 0. -1.
         -1   -1    0    0    0  501 -0.00000000000E+00 -0.00000000000E+00 -0.26041782826E+03  0.26041782826E+03  0.00000000000E+00 0.  1.
    9900016    2    1    2    0    0  0.27084997064E+03  0.72949077597E+02  0.50827640819E+03  0.95434160199E+03  0.75745739922E+03 0.  0.
        -24    2    3    3    0    0  0.11217375706E+03 -0.23388698611E+03  0.46268684561E+03  0.53650376367E+03  0.80443130753E+02 0.  0.
        -15    1    3    3    0    0  0.15604595381E+03  0.27545030603E+03  0.16232496416E+02  0.31699637968E+03  0.00000000000E+00 0.  1.
        -15    1    4    4    0    0  0.48705838484E+02 -0.99204277851E+02  0.16458911096E+03  0.19825065673E+03  0.00000000000E+00 0.  1.
         15    1    4    4    0    0  0.13260121873E+02 -0.73902766701E+01  0.22469233462E+02  0.27116664133E+02  0.00000000000E+00 0. -1.
         15    1    4    4    0    0  0.28078331351E+01 -0.51379581149E+02  0.70012864007E+02  0.86888125843E+02  0.00000000000E+00 0. -1.
        -16    1    4    4    0    0  0.47399963568E+02 -0.75912850440E+02  0.20561563718E+03  0.22424831697E+03  0.00000000000E+00 0.  1.
         16    1    1    2    0    0 -0.27084997064E+03 -0.72949077597E+02  0.48876688570E+03  0.56353734843E+03  0.00000000000E+00 0. -1.
    9900018    1    3    3    0    0  0.26302597652E+01  0.31385757676E+02  0.29357066165E+02  0.10084145863E+03  0.91187600000E+02 0.  0.
<mgrwt>
<rscale>  0 0.11444917E+04</rscale>
<asrwt>0</asrwt>
<pdfrwt beam="1">  1        1 0.19345555E+00 0.11444917E+04</pdfrwt>
<pdfrwt beam="2">  1       -1 0.40064282E-01 0.11444917E+04</pdfrwt>
<totfact> 0.58527753E+01</totfact>
</mgrwt>
</event>
<event>
11    1  0.2398161E-017  0.1257694E+04  0.7818608E-02  0.9063803E-01
         -1   -1    0    0    0  501 -0.00000000000E+00  0.00000000000E+00  0.55181216997E+03  0.55181216997E+03  0.00000000000E+00 0.  1.
          1   -1    0    0  501    0  0.00000000000E+00 -0.00000000000E+00 -0.71663668927E+03  0.71663668927E+03  0.00000000000E+00 0. -1.
    9900016    2    1    2    0    0 -0.22788865171E+03  0.25557141016E+03  0.71845395680E+01  0.74729677681E+03  0.66419189377E+03 0.  0.
         24    2    3    3    0    0  0.12652119084E+03  0.17616682917E+03  0.22571555460E+03  0.32342506448E+03  0.81325871148E+02 0.  0.
        -15    1    4    4    0    0  0.21060085740E+02  0.52080104845E+02  0.81716905863E+02  0.99164092473E+02  0.00000000000E+00 0.  1.
        -15    1    4    4    0    0  0.51215509776E+02  0.39614494093E+02  0.80015827474E+02  0.10293138117E+03  0.00000000000E+00 0.  1.
         15    1    3    3    0    0 -0.35440984256E+03  0.79404580996E+02 -0.21853101503E+03  0.42387171233E+03  0.00000000000E+00 0. -1.
         15    1    4    4    0    0  0.22488798946E+02  0.56336260588E+02  0.37872247744E+02  0.71511030508E+02  0.00000000000E+00 0. -1.
        -16    1    1    2    0    0  0.25521941377E+03 -0.29372924561E+03 -0.14309288778E+03  0.41459545756E+03  0.00000000000E+00 0.  1.
         16    1    4    4    0    0  0.31756796382E+02  0.28135969641E+02  0.26110573515E+02  0.49818560330E+02  0.00000000000E+00 0. -1.
    9900018    1    1    2    0    0 -0.27330762056E+02  0.38157835449E+02 -0.28916171090E+02  0.10655662488E+03  0.91187600000E+02 0.  0.
<mgrwt>
<rscale>  0 0.12576945E+04</rscale>
<asrwt>0</asrwt>
<pdfrwt beam="1">  1        1 0.11025180E+00 0.12576945E+04</pdfrwt>
<pdfrwt beam="2">  1       -1 0.84894180E-01 0.12576945E+04</pdfrwt>
<totfact> 0.35578520E+01</totfact>
</mgrwt>
</event>
<event>
11    1  0.2398161E-017  0.1544571E+04  0.7818608E-02  0.8855343E-01
         -2   -1    0    0    0  501 -0.00000000000E+00  0.00000000000E+00  0.20063283165E+03  0.20063283165E+03  0.00000000000E+00 0. -1.
          2   -1    0    0  501    0  0.00000000000E+00 -0.00000000000E+00 -0.29727187798E+04  0.29727187798E+04  0.00000000000E+00 0.  1.
    9900016    2    1    2    0    0 -0.14831198967E+03  0.54513891660E+03 -0.20550822849E+04  0.22605169398E+04  0.75326008306E+03 0.  0.
        -24    2    3    3    0    0 -0.33240307682E+03  0.35281625645E+02 -0.69180343668E+03  0.77237662785E+03  0.78975069812E+02 0.  0.
        -15    1    4    4    0    0 -0.60229510175E+02  0.83862835334E+01 -0.10559556319E+03  0.12185379195E+03  0.00000000000E+00 0.  1.
        -15    1    3    3    0    0  0.20528439870E+03  0.40924887684E+03 -0.10037387936E+04  0.11032306619E+04  0.00000000000E+00 0.  1.
         15    1    4    4    0    0 -0.36964244556E+02 -0.11193193111E+02 -0.56784178364E+02  0.68673763987E+02  0.00000000000E+00 0. -1.
         15    1    4    4    0    0 -0.15482658047E+02  0.12913995318E+02 -0.41261158470E+02  0.45923492611E+02  0.00000000000E+00 0. -1.
        -16    1    4    4    0    0 -0.21972666404E+03  0.25174539905E+02 -0.48816253665E+03  0.53592557930E+03  0.00000000000E+00 0.  1.
         16    1    1    2    0    0  0.14831198967E+03 -0.54513891660E+03 -0.71700366327E+03  0.91283467168E+03  0.00000000000E+00 0. -1.
    9900018    1    3    3    0    0 -0.21193311554E+02  0.10060841412E+03 -0.35954005465E+03  0.38490965010E+03  0.91187600000E+02 0.  0.
<mgrwt>
<rscale>  0 0.15445711E+04</rscale>
<asrwt>0</asrwt>
<pdfrwt beam="1">  1        2 0.45734132E+00 0.15445711E+04</pdfrwt>
<pdfrwt beam="2">  1       -2 0.30866592E-01 0.15445711E+04</pdfrwt>
<totfact> 0.17062845E+01</totfact>
</mgrwt>
</event>
