<event>
12    1  0.1376745E-011  0.1822822E+04  0.7818608E-02  0.9117428E-01
          1   -1    0    0  501    0  0.00000000000E+00  0.00000000000E+00  0.17969289148E+04  0.17969289148E+04  0.00000000000E+00 0. -1.
         -1   -1    0    0    0  501 -0.00000000000E+00 -0.00000000000E+00 -0.67625662287E+03  0.67625662287E+03  0.00000000000E+00 0.  1.
         23    2    1    2    0    0 -0.19940208844E+03  0.25192990650E+03  0.59122957220E+01  0.33651291271E+03  0.99880501181E+02 0.  0.
    9900016    2    1    2    0    0 -0.33227410850E+03 -0.18184104632E+03  0.69867077717E+03  0.10660682278E+04  0.71055496769E+03 0.  0.
         23    2    4    4    0    0 -0.60942020287E+02  0.26110254953E+03  0.31095549194E+03  0.41788362938E+03  0.77749202796E+02 0.  0.
        -15    1    5    5    0    0 -0.13277243909E+01  0.82349205913E+02  0.14515584416E+03  0.16689330022E+03  0.00000000000E+00 0. -1.
        -15    1    3    3    0    0 -0.17708426859E+03  0.15259969823E+03  0.15366621273E+02  0.23426830587E+03  0.00000000000E+00 0.  1.
         15    1    3    3    0    0 -0.22317819849E+02  0.99330208269E+02 -0.94543255514E+01  0.10224460685E+03  0.00000000000E+00 0. -1.
         15    1    5    5    0    0 -0.59614295896E+02  0.17875334361E+03  0.16579964778E+03  0.25099032916E+03  0.00000000000E+00 0.  1.
        -16    1    1    2    0    0  0.67817158113E+03 -0.14074070327E+01  0.75101696946E+02  0.68231879582E+03  0.00000000000E+00 0.  1.
         16    1    4    4    0    0 -0.27133208821E+03 -0.44294359585E+03  0.38771528523E+03  0.64818459840E+03  0.00000000000E+00 0. -1.
    9900018    1    1    2    0    0 -0.14649538420E+03 -0.68681453146E+02  0.34098752207E+03  0.38828560133E+03  0.91187600000E+02 0.  0.
<mgrwt>
<rscale>  0 0.11947908E+04</rscale>
<asrwt>0</asrwt>
<pdfrwt beam="1">  1        1 0.27645060E+00 0.18228220E+04</pdfrwt>
<pdfrwt beam="2">  1       -1 0.10403948E+00 0.18228220E+04</pdfrwt>
<totfact> 0.33231508E+00</totfact>
</mgrwt>
</event>
<event>
11    1  0.1376745E-011  0.1378390E+04  0.7818608E-02  0.9347044E-01
          2   -1    0    0  501    0  0.00000000000E+00  0.00000000000E+00  0.15030530673E+04  0.15030530673E+04  0.00000000000E+00 0. -1.
         -2   -1    0    0    0  501 -0.00000000000E+00 -0.00000000000E+00 -0.61046363345E+03  0.61046363345E+03  0.00000000000E+00 0.  1.
         23    2    1    2    0    0 -0.28592952050E+03 -0.14082926800E+03  0.62741880579E+03  0.70985207045E+03  0.92989411473E+02 0.  0.
    9900016    2    1    2    0    0 -0.12899173829E+03  0.10051281705E+03 -0.19524849745E+03  0.75483158523E+03  0.71056811874E+03 0.  0.
        -15    1    4    4    0    0 -0.12976523089E+03  0.78146763228E+02  0.30766644218E+02  0.15457204840E+03  0.00000000000E+00 0.  1.
        -15    1    3    3    0    0 -0.23532851829E+03 -0.75017808216E+02  0.43384304940E+03  0.49922637609E+03  0.00000000000E+00 0.  1.
         15    1    4    4    0    0  0.34845965747E+02  0.15246808581E+03  0.14025607737E+03  0.21007742801E+03  0.00000000000E+00 0. -1.
         15    1    3    3    0    0 -0.50601002211E+02 -0.65811459788E+02  0.19357575639E+03  0.21062569437E+03  0.00000000000E+00 0. -1.
        -16    1    4    4    0    0 -0.34072473145E+02 -0.13010203199E+03 -0.36627121903E+03  0.39018210882E+03  0.00000000000E+00 0.  1.
         16    1    1    2    0    0  0.28187513377E+03 -0.88686756540E+01  0.33938221500E+03  0.44126243020E+03  0.00000000000E+00 0. -1.
    9900018    1    1    2    0    0  0.13304612501E+03  0.49185126606E+02  0.12103691053E+03  0.20757061489E+03  0.91187600000E+02 0.  0.
<mgrwt>
<rscale>  0 0.96564905E+03</rscale>
<asrwt>0</asrwt>
<pdfrwt beam="1">  1        2 0.23123893E+00 0.13783900E+04</pdfrwt>
<pdfrwt beam="2">  1       -2 0.93917483E-01 0.13783900E+04</pdfrwt>
<totfact> 0.11685365E+01</totfact>
</mgrwt>
</event>
<event>
12    1  0.1376745E-011  0.2149416E+04  0.7818608E-02  0.9252916E-01
         -2   -1    0    0    0  501 -0.00000000000E+00  0.00000000000E+00  0.91172009855E+03  0.91172009855E+03  0.00000000000E+00 0.  1.
          2   -1    0    0  501    0  0.00000000000E+00 -0.00000000000E+00 -0.15506010826E+04  0.15506010826E+04  0.00000000000E+00 0. -1.
         23    2    1    2    0    0  0.65816794727E+02 -0.51046804504E+02  0.13019585977E+03  0.17945667528E+03  0.91192706305E+02 0.  0.
    9900016    2    1    2    0    0  0.43216632536E+03 -0.29789985851E+03 -0.63412587622E+02  0.88368250958E+03  0.70806889706E+03 0.  0.
         23    2    4    4    0    0 -0.92922932473E+02 -0.22701093565E+03 -0.20125428388E+03  0.33619342173E+03  0.11114897099E+03 0.  0.
        -15    1    5    5    0    0 -0.75796107023E+02 -0.48623734914E+02 -0.64543220074E+02  0.11079325203E+03  0.00000000000E+00 0. -1.
        -15    1    3    3    0    0  0.15229846538E+02  0.18763970532E+02  0.70677357377E+02  0.74694870383E+02  0.00000000000E+00 0. -1.
         15    1    5    5    0    0 -0.17126825450E+02 -0.17838720074E+03 -0.13671106381E+03  0.22540016971E+03  0.00000000000E+00 0.  1.
         15    1    3    3    0    0  0.50586948188E+02 -0.69810775037E+02  0.59518502392E+02  0.10476180490E+03  0.00000000000E+00 0.  1.
        -16    1    1    2    0    0 -0.72468230664E+03 -0.33247614106E+02 -0.57906749302E+03  0.92821819142E+03  0.00000000000E+00 0.  1.
         16    1    4    4    0    0  0.52508925784E+03 -0.70888922857E+02  0.13784169626E+03  0.54748908784E+03  0.00000000000E+00 0. -1.
    9900018    1    1    2    0    0  0.22669918655E+03  0.38219427712E+03 -0.12659676315E+03  0.47096380485E+03  0.91187600000E+02 0.  0.
<mgrwt>
<rscale>  0 0.10523555E+04</rscale>
<asrwt>0</asrwt>
<pdfrwt beam="1">  1        2 0.23855401E+00 0.21494165E+04</pdfrwt>
<pdfrwt beam="2">  1       -2 0.14026463E+00 0.21494165E+04</pdfrwt>
<totfact> 0.38707742E+00</totfact>
</mgrwt>
</event>
<event>
12    1  0.1376745E-011  0.1895856E+04  0.7818608E-02  0.8656922E-01
          1   -1    0    0  501    0  0.00000000000E+00  0.00000000000E+00  0.78239450797E+03  0.78239450797E+03  0.00000000000E+00 0.  1.
         -1   -1    0    0    0  501 -0.00000000000E+00 -0.00000000000E+00 -0.11484840347E+04  0.11484840347E+04  0.00000000000E+00 0. -1.
         23    2    1    2    0    0  0.59130610778E+03 -0.34405505303E+02 -0.11702761657E+03  0.61037190112E+03  0.89619990803E+02 0.  0.
    9900016    2    1    2    0    0 -0.62365945986E+03  0.22686345671E+03 -0.30021067987E+03  0.10202403292E+04  0.71438485922E+03 0.  0.
         23    2    4    4    0    0 -0.24500012054E+03 -0.77644826515E+02 -0.43443872084E+03  0.51613185196E+03  0.10770936958E+03 0.  0.
        -15    1    5    5    0    0 -0.58675740479E+02 -0.70284615220E+02 -0.15983352543E+03  0.18419968922E+03  0.00000000000E+00 0. -1.
        -15    1    3    3    0    0  0.45097657957E+02 -0.13474060438E+02  0.12348196831E+02  0.48660322881E+02  0.00000000000E+00 0.  1.
         15    1    5    5    0    0 -0.18632438006E+03 -0.73602112948E+01 -0.27460519540E+03  0.33193216273E+03  0.00000000000E+00 0.  1.
         15    1    3    3    0    0  0.54620844982E+03 -0.20931444865E+02 -0.12937581340E+03  0.56171157824E+03  0.00000000000E+00 0. -1.
        -16    1    4    4    0    0 -0.37865933932E+03  0.30450828322E+03  0.13422804097E+03  0.50410847720E+03  0.00000000000E+00 0.  1.
         16    1    1    2    0    0  0.63520182045E+02 -0.13439354294E+03 -0.41707074964E+02  0.15438885326E+03  0.00000000000E+00 0. -1.
    9900018    1    1    2    0    0 -0.31166829962E+02 -0.58064408471E+02  0.92855844620E+02  0.14587745917E+03  0.91187600000E+02 0.  0.
<mgrwt>
<rscale>  0 0.18958561E+04</rscale>
<asrwt>0</asrwt>
<pdfrwt beam="1">  1        1 0.12036839E+00 0.18958561E+04</pdfrwt>
<pdfrwt beam="2">  1       -1 0.17668985E+00 0.18958561E+04</pdfrwt>
<totfact> 0.47148940E+00</totfact>
</mgrwt>
</event>
<event>
12    1  0.1376745E-011  0.1186493E+04  0.7818608E-02  0.9632982E-01
          1   -1    0    0  501    0  0.00000000000E+00  0.00000000000E+00  0.69239292868E+03  0.69239292868E+03  0.00000000000E+00 0. -1.
         -1   -1    0    0    0  501 -0.00000000000E+00 -0.00000000000E+00 -0.76093389337E+03  0.76093389337E+03  0.00000000000E+00 0.  1.
         23    2    1    2    0    0 -0.56331077488E+01 -0.16725464044E+03  0.15501154372E+03  0.24595770186E+03  0.91982420975E+02 0.  0.
    9900016    2    1    2    0    0 -0.18476912264E+01  0.25352962897E+03  0.29917039974E+02  0.75738099099E+03  0.71305697494E+03 0.  0.
         23    2    4    4    0    0  0.82172138361E+02  0.48888507944E+03  0.16642509458E+02  0.50712565540E+03  0.10553945244E+03 0.  0.
        -15    1    5    5    0    0  0.45666209631E+02  0.26843561996E+03 -0.43444169665E+02  0.27573625196E+03  0.00000000000E+00 0.  1.
        -15    1    3    3    0    0  0.23805700213E+02 -0.45368817303E+01  0.30539911641E+02  0.38986931932E+02  0.00000000000E+00 0.  1.
         15    1    3    3    0    0 -0.29438807962E+02 -0.16271775871E+03  0.12447163208E+03  0.20697076993E+03  0.00000000000E+00 0. -1.
         15    1    5    5    0    0  0.36505928731E+02  0.22044945948E+03  0.60086679123E+02  0.23138940344E+03  0.00000000000E+00 0. -1.
        -16    1    4    4    0    0 -0.84019829588E+02 -0.23535545047E+03  0.13274530516E+02  0.25025533559E+03  0.00000000000E+00 0.  1.
         16    1    1    2    0    0  0.38253737465E+02  0.12386053891E+03 -0.40789396525E+02  0.13589906695E+03  0.00000000000E+00 0. -1.
    9900018    1    1    2    0    0 -0.30772938490E+02 -0.21013552744E+03 -0.21268015185E+03  0.31408906225E+03  0.91187600000E+02 0.  0.
<mgrwt>
<rscale>  0 0.75151158E+03</rscale>
<asrwt>0</asrwt>
<pdfrwt beam="1">  1        1 0.10652199E+00 0.11864925E+04</pdfrwt>
<pdfrwt beam="2">  1       -1 0.11706675E+00 0.11864925E+04</pdfrwt>
<totfact> 0.17996204E+01</totfact>
</mgrwt>
</event>
<event>
12    1  0.1376745E-011  0.1078275E+04  0.7818608E-02  0.9814331E-01
          2   -1    0    0  501    0  0.00000000000E+00  0.00000000000E+00  0.51962468702E+03  0.51962468702E+03  0.00000000000E+00 0. -1.
         -2   -1    0    0    0  501 -0.00000000000E+00 -0.00000000000E+00 -0.73375769519E+03  0.73375769519E+03  0.00000000000E+00 0.  1.
         23    2    1    2    0    0 -0.66045391899E+02  0.82518279072E+02 -0.95575188100E+02  0.16860941256E+03  0.90129114343E+02 0.  0.
    9900016    2    1    2    0    0  0.12166631222E+03 -0.15485271618E+02  0.14509427502E+03  0.72659495328E+03  0.70131689864E+03 0.  0.
         23    2    4    4    0    0  0.17915188652E+03  0.31274296628E+03  0.41966225213E+02  0.37777729022E+03  0.10512352517E+03 0.  0.
        -15    1    3    3    0    0 -0.12271719739E+02  0.35754930254E+02  0.11920798436E+02  0.39637300339E+02  0.00000000000E+00 0. -1.
        -15    1    5    5    0    0  0.10951047828E+03  0.17951923332E+03 -0.27681595165E+02  0.21209896439E+03  0.00000000000E+00 0. -1.
         15    1    5    5    0    0  0.69641408247E+02  0.13322373296E+03  0.69647820378E+02  0.16567832583E+03  0.00000000000E+00 0.  1.
         15    1    3    3    0    0 -0.53773672160E+02  0.46763348818E+02 -0.10749598654E+03  0.12897211222E+03  0.00000000000E+00 0.  1.
        -16    1    1    2    0    0 -0.11317774676E+02  0.14942360664E+02 -0.21983963891E+03  0.22063733365E+03  0.00000000000E+00 0.  1.
         16    1    4    4    0    0 -0.57485574301E+02 -0.32822823790E+03  0.10312804981E+03  0.34881766306E+03  0.00000000000E+00 0. -1.
    9900018    1    1    2    0    0 -0.44303145648E+02 -0.81975368118E+02 -0.43812456176E+02  0.13754068272E+03  0.91187600000E+02 0.  0.
<mgrwt>
<rscale>  0 0.64599078E+03</rscale>
<asrwt>0</asrwt>
<pdfrwt beam="1">  1        2 0.79942259E-01 0.10782748E+04</pdfrwt>
<pdfrwt beam="2">  1       -2 0.11288580E+00 0.10782748E+04</pdfrwt>
<totfact> 0.36025386E+01</totfact>
</mgrwt>
</event>
<event>
12    1  0.1376745E-011  0.1136407E+04  0.7818608E-02  0.9782969E-01
         -1   -1    0    0    0  501 -0.00000000000E+00  0.00000000000E+00  0.49759281666E+03  0.49759281666E+03  0.00000000000E+00 0.  1.
          1   -1    0    0  501    0  0.00000000000E+00 -0.00000000000E+00 -0.10762885506E+04  0.10762885506E+04  0.00000000000E+00 0. -1.
         23    2    1    2    0    0 -0.92628216519E+02  0.20769839384E+02  0.16855557678E+03  0.21380603952E+03  0.91053101817E+02 0.  0.
    9900016    2    1    2    0    0  0.28027708787E+03 -0.62896095841E+00 -0.38951290043E+03  0.85350476430E+03  0.70582890384E+03 0.  0.
         23    2    4    4    0    0 -0.13450284388E+03  0.11750983332E+03 -0.36241177088E+03  0.42137788742E+03  0.11965557403E+03 0.  0.
        -15    1    5    5    0    0 -0.94941917224E+02  0.13839250735E+03 -0.30963089359E+03  0.35218992604E+03  0.00000000000E+00 0. -1.
        -15    1    3    3    0    0 -0.82622917295E+02  0.52420504336E+02  0.13360547072E+03  0.16560458189E+03  0.00000000000E+00 0.  1.
         15    1    5    5    0    0 -0.39560926657E+02 -0.20882674032E+02 -0.52780877287E+02  0.69187961379E+02  0.00000000000E+00 0.  1.
         15    1    3    3    0    0 -0.10005299224E+02 -0.31650664952E+02  0.34950106062E+02  0.48201457636E+02  0.00000000000E+00 0. -1.
        -16    1    4    4    0    0  0.41477993175E+03 -0.11813879428E+03 -0.27101129548E+02  0.43212687688E+03  0.00000000000E+00 0.  1.
         16    1    1    2    0    0 -0.23492185822E+03 -0.56632250991E+02 -0.19410297743E+03  0.30995395976E+03  0.00000000000E+00 0. -1.
    9900018    1    1    2    0    0  0.47272986875E+02  0.36491372566E+02 -0.16363543283E+03  0.19661660365E+03  0.91187600000E+02 0.  0.
<mgrwt>
<rscale>  0 0.66284583E+03</rscale>
<asrwt>0</asrwt>
<pdfrwt beam="1">  1        1 0.16558285E+00 0.11364068E+04</pdfrwt>
<pdfrwt beam="2">  1       -1 0.76552742E-01 0.11364068E+04</pdfrwt>
<totfact> 0.22448124E+01</totfact>
</mgrwt>
</event>
<event>
12    1  0.1376745E-011  0.2035203E+04  0.7818608E-02  0.9126631E-01
          3   -1    0    0  501    0  0.00000000000E+00  0.00000000000E+00  0.66821844653E+03  0.66821844653E+03  0.00000000000E+00 0. -1.
         -3   -1    0    0    0  501 -0.00000000000E+00 -0.00000000000E+00 -0.20233292114E+04  0.20233292114E+04  0.00000000000E+00 0.  1.
         23    2    1    2    0    0 -0.14459622895E+03 -0.15375336355E+03  0.21618113270E+02  0.23442840571E+03  0.99705407847E+02 0.  0.
    9900016    2    1    2    0    0  0.36755222839E+02  0.32629126871E+03 -0.53766943332E+03  0.94731057982E+03  0.70745457570E+03 0.  0.
         23    2    4    4    0    0 -0.96586633733E+01 -0.13967098274E+03  0.79509675503E+02  0.17259442472E+03  0.62175346783E+02 0.  0.
        -15    1    5    5    0    0  0.65504835506E+01 -0.10948476237E+03  0.83846513393E+02  0.13805817554E+03  0.00000000000E+00 0. -1.
        -15    1    3    3    0    0 -0.36305514813E+02 -0.75558347253E+02  0.50370391904E+02  0.97797395804E+02  0.00000000000E+00 0.  1.
         15    1    5    5    0    0 -0.16209146924E+02 -0.30186220375E+02 -0.43368378900E+01  0.34536249179E+02  0.00000000000E+00 0.  1.
         15    1    3    3    0    0 -0.10829071414E+03 -0.78195016298E+02 -0.28752278633E+02  0.13663100991E+03  0.00000000000E+00 0. -1.
        -16    1    1    2    0    0  0.11949834348E+03 -0.66529903750E+03 -0.73367427561E+03  0.99758739271E+03  0.00000000000E+00 0.  1.
         16    1    4    4    0    0  0.46413886213E+02  0.46596225146E+03 -0.61717910882E+03  0.77471615510E+03  0.00000000000E+00 0. -1.
    9900018    1    1    2    0    0 -0.11657337372E+02  0.49276113234E+03 -0.10538516919E+03  0.51222127966E+03  0.91187600000E+02 0.  0.
<mgrwt>
<rscale>  0 0.11843902E+04</rscale>
<asrwt>0</asrwt>
<pdfrwt beam="1">  1        3 0.10280284E+00 0.20352033E+04</pdfrwt>
<pdfrwt beam="2">  1       -3 0.31128142E+00 0.20352033E+04</pdfrwt>
<totfact> 0.64440644E-02</totfact>
</mgrwt>
</event>
<event>
11    1  0.1376745E-011  0.2759189E+04  0.7818608E-02  0.8814251E-01
          1   -1    0    0  501    0  0.00000000000E+00  0.00000000000E+00  0.16327015966E+04  0.16327015966E+04  0.00000000000E+00 0. -1.
         -1   -1    0    0    0  501 -0.00000000000E+00 -0.00000000000E+00 -0.14542039081E+04  0.14542039081E+04  0.00000000000E+00 0.  1.
         23    2    1    2    0    0  0.29438082702E+03  0.84872017183E+02 -0.19023786793E+02  0.32065585672E+03  0.92708917424E+02 0.  0.
    9900016    2    1    2    0    0 -0.41086116069E+03 -0.28011873505E+03 -0.62123326313E+03  0.10641979544E+04  0.70662091659E+03 0.  0.
        -15    1    3    3    0    0  0.13699436972E+03 -0.37851072646E+01  0.11207862840E+02  0.13750418380E+03  0.00000000000E+00 0. -1.
        -15    1    4    4    0    0  0.17231923113E+02  0.56549749496E+02  0.62027334333E+01  0.59441460651E+02  0.00000000000E+00 0.  1.
         15    1    4    4    0    0 -0.11012709863E+03 -0.65729910655E+02  0.10220274030E+03  0.16399328990E+03  0.00000000000E+00 0. -1.
         15    1    3    3    0    0  0.15738645730E+03  0.88657124448E+02 -0.30231649634E+02  0.18315167293E+03  0.00000000000E+00 0.  1.
        -16    1    4    4    0    0 -0.31796598517E+03 -0.27093857389E+03 -0.72963873686E+03  0.84076320381E+03  0.00000000000E+00 0.  1.
         16    1    1    2    0    0  0.46412540406E+03  0.38674297396E+03  0.10662471515E+04  0.12255062247E+04  0.00000000000E+00 0. -1.
    9900018    1    1    2    0    0 -0.34764507039E+03 -0.19149625610E+03 -0.24749241310E+03  0.47654546898E+03  0.91187600000E+02 0.  0.
<mgrwt>
<rscale>  0 0.16102913E+04</rscale>
<asrwt>0</asrwt>
<pdfrwt beam="1">  1        1 0.25118486E+00 0.27591887E+04</pdfrwt>
<pdfrwt beam="2">  1       -1 0.22372368E+00 0.27591887E+04</pdfrwt>
<totfact> 0.47331697E-01</totfact>
</mgrwt>
</event>
<event>
12    1  0.1376745E-011  0.1994800E+04  0.7818608E-02  0.8609056E-01
         -2   -1    0    0    0  501 -0.00000000000E+00  0.00000000000E+00  0.87470971354E+03  0.87470971354E+03  0.00000000000E+00 0. -1.
          2   -1    0    0  501    0  0.00000000000E+00 -0.00000000000E+00 -0.11372988317E+04  0.11372988317E+04  0.00000000000E+00 0.  1.
         23    2    1    2    0    0  0.43688029336E+02  0.63659406105E+03  0.20538078294E+03  0.67624377730E+03  0.89239777387E+02 0.  0.
    9900016    2    1    2    0    0  0.83955396957E+02 -0.54625925768E+03 -0.30133438092E+03  0.95192014811E+03  0.71407413758E+03 0.  0.
         23    2    4    4    0    0 -0.14252659625E+03  0.53998807296E+02 -0.25691527775E+03  0.30882070436E+03  0.78326660047E+02 0.  0.
        -15    1    5    5    0    0 -0.13157694841E+03  0.54301505002E+02 -0.26086803691E+03  0.29717550283E+03  0.00000000000E+00 0.  1.
        -15    1    3    3    0    0  0.10534788875E+02  0.39262758651E+02 -0.73221764210E+01  0.41305692841E+02  0.00000000000E+00 0.  1.
         15    1    3    3    0    0  0.33153240461E+02  0.59733130240E+03  0.21270295936E+03  0.63493808446E+03  0.00000000000E+00 0. -1.
         15    1    5    5    0    0 -0.10949647841E+02 -0.30269770528E+00  0.39527591652E+01  0.11645201534E+02  0.00000000000E+00 0. -1.
        -16    1    4    4    0    0  0.22648199321E+03 -0.60025806498E+03 -0.44419103178E+02  0.64309944375E+03  0.00000000000E+00 0.  1.
         16    1    1    2    0    0  0.82565953826E+02 -0.60663397263E+02 -0.10049702652E+03  0.14351598113E+03  0.00000000000E+00 0. -1.
    9900018    1    1    2    0    0 -0.21020938012E+03 -0.29671406106E+02 -0.66138493613E+02  0.24032863866E+03  0.91187600000E+02 0.  0.
<mgrwt>
<rscale>  0 0.19947996E+04</rscale>
<asrwt>0</asrwt>
<pdfrwt beam="1">  1        2 0.17496905E+00 0.19947996E+04</pdfrwt>
<pdfrwt beam="2">  1       -2 0.13457073E+00 0.19947996E+04</pdfrwt>
<totfact> 0.76408948E+00</totfact>
</mgrwt>
</event>
<event>
12    1  0.1376746E-011  0.4343186E+04  0.7818608E-02  0.8671602E-01
         -1   -1    0    0    0  501 -0.00000000000E+00  0.00000000000E+00  0.15811204537E+04  0.15811204537E+04  0.00000000000E+00 0.  1.
          1   -1    0    0  501    0  0.00000000000E+00 -0.00000000000E+00 -0.31907533221E+04  0.31907533221E+04  0.00000000000E+00 0. -1.
         23    2    1    2    0    0 -0.11641087602E+03  0.16698831280E+02 -0.37288867922E+02  0.15283340320E+03  0.90206687333E+02 0.  0.
    9900016    2    1    2    0    0 -0.95519012449E+03  0.74389425374E+03 -0.25367555065E+03  0.14263799821E+04  0.71024061684E+03 0.  0.
         23    2    4    4    0    0  0.99075036666E+02  0.14622328368E+03 -0.43330032675E+02  0.19636743936E+03  0.74064619957E+02 0.  0.
        -15    1    3    3    0    0 -0.10411776383E+03  0.37544246995E+02 -0.54270455928E+02  0.12326946748E+03  0.00000000000E+00 0.  1.
        -15    1    5    5    0    0  0.63713726999E+02  0.31242494074E+02 -0.11054273004E+02  0.71817333533E+02  0.00000000000E+00 0.  1.
         15    1    3    3    0    0 -0.12293112197E+02 -0.20845415715E+02  0.16981588006E+02  0.29563935716E+02  0.00000000000E+00 0. -1.
         15    1    5    5    0    0  0.35361309667E+02  0.11498078961E+03 -0.32275759671E+02  0.12455010583E+03  0.00000000000E+00 0. -1.
        -16    1    4    4    0    0 -0.10542651612E+04  0.59767097006E+03 -0.21034551798E+03  0.12300125428E+04  0.00000000000E+00 0.  1.
         16    1    1    2    0    0  0.15053920358E+04 -0.14067307050E+04 -0.12410235426E+04  0.24052517314E+04  0.00000000000E+00 0. -1.
    9900018    1    1    2    0    0 -0.43379103529E+03  0.64613762001E+03 -0.77644907153E+02  0.78740865902E+03  0.91187600000E+02 0.  0.
<mgrwt>
<rscale>  0 0.18667199E+04</rscale>
<asrwt>0</asrwt>
<pdfrwt beam="1">  1        1 0.49088512E+00 0.43431864E+04</pdfrwt>
<pdfrwt beam="2">  1       -1 0.24324930E+00 0.43431864E+04</pdfrwt>
<totfact> 0.25225473E-02</totfact>
</mgrwt>
</event>
<event>
12    1  0.1376745E-011  0.1238773E+04  0.7818608E-02  0.9449780E-01
         -1   -1    0    0    0  501 -0.00000000000E+00  0.00000000000E+00  0.98826405678E+03  0.98826405678E+03  0.00000000000E+00 0.  1.
          1   -1    0    0  501    0  0.00000000000E+00 -0.00000000000E+00 -0.87470571884E+03  0.87470571884E+03  0.00000000000E+00 0. -1.
         23    2    1    2    0    0  0.30332837629E+03 -0.33998732333E+00 -0.40999489045E+03  0.51810339475E+03  0.91252934205E+02 0.  0.
    9900016    2    1    2    0    0 -0.13561559223E+03  0.23966904568E+03  0.15440582374E+03  0.74910077514E+03  0.67932170038E+03 0.  0.
         23    2    4    4    0    0 -0.34339160133E+03 -0.93522272819E+01 -0.65258829799E+02  0.35739294479E+03  0.73930684420E+02 0.  0.
        -15    1    5    5    0    0 -0.14158670566E+03  0.11671455471E+02  0.64064894127E+01  0.14221132584E+03  0.00000000000E+00 0.  1.
        -15    1    3    3    0    0  0.19676118176E+03  0.43505850407E+02 -0.25892544839E+03  0.32810076119E+03  0.00000000000E+00 0. -1.
         15    1    5    5    0    0 -0.20180489568E+03 -0.21023682753E+02 -0.71665319212E+02  0.21518161895E+03  0.00000000000E+00 0. -1.
         15    1    3    3    0    0  0.10656719453E+03 -0.43845837731E+02 -0.15106944206E+03  0.19000263357E+03  0.00000000000E+00 0.  1.
        -16    1    4    4    0    0  0.20777600910E+03  0.24902127296E+03  0.21966465354E+03  0.39170783035E+03  0.00000000000E+00 0.  1.
         16    1    1    2    0    0 -0.67474322187E+02 -0.25601290048E+03  0.80936120578E+02  0.27685022120E+03  0.00000000000E+00 0. -1.
    9900018    1    1    2    0    0 -0.10023846187E+03  0.16683842120E+02  0.28821128408E+03  0.31891538453E+03  0.91187600000E+02 0.  0.
<mgrwt>
<rscale>  0 0.88089760E+03</rscale>
<asrwt>0</asrwt>
<pdfrwt beam="1">  1        1 0.13457011E+00 0.12387726E+04</pdfrwt>
<pdfrwt beam="2">  1       -1 0.15204062E+00 0.12387726E+04</pdfrwt>
<totfact> 0.62927532E+00</totfact>
</mgrwt>
</event>
<event>
12    1  0.1376745E-011  0.4965047E+04  0.7818608E-02  0.8686518E-01
         -1   -1    0    0    0  501 -0.00000000000E+00  0.00000000000E+00  0.37933465340E+04  0.37933465340E+04  0.00000000000E+00 0.  1.
          1   -1    0    0  501    0  0.00000000000E+00 -0.00000000000E+00 -0.16932555893E+04  0.16932555893E+04  0.00000000000E+00 0. -1.
         23    2    1    2    0    0 -0.13993201594E+02  0.21539116958E+01 -0.59299853812E+01  0.93364337890E+02  0.92093896848E+02 0.  0.
    9900016    2    1    2    0    0 -0.32328424161E+03  0.38910730850E+03  0.78388261004E+03  0.11627866152E+04  0.69403426991E+03 0.  0.
         23    2    4    4    0    0 -0.92183849128E+02  0.29747481571E+03 -0.19984423824E+02  0.32135562383E+03  0.76687233287E+02 0.  0.
        -15    1    5    5    0    0 -0.28038123639E+02  0.96267322158E+02  0.29369648993E+02  0.10448018939E+03  0.00000000000E+00 0. -1.
        -15    1    3    3    0    0 -0.13588232411E+02 -0.37940398715E+02  0.20625417955E+02  0.45271644332E+02  0.00000000000E+00 0.  1.
         15    1    5    5    0    0 -0.64145725490E+02  0.20120749355E+03 -0.49354072818E+02  0.21687543444E+03  0.00000000000E+00 0.  1.
         15    1    3    3    0    0 -0.40496918333E+00  0.40094310411E+02 -0.26555403336E+02  0.48092693558E+02  0.00000000000E+00 0. -1.
        -16    1    4    4    0    0 -0.23110039248E+03  0.91632492791E+02  0.80386703387E+03  0.84143099140E+03  0.00000000000E+00 0.  1.
         16    1    1    2    0    0  0.14408962529E+04 -0.12378779963E+04 -0.47304631582E+03  0.19576252865E+04  0.00000000000E+00 0. -1.
    9900018    1    1    2    0    0 -0.11036188097E+04  0.84661677610E+03  0.17951846359E+04  0.22728258838E+04  0.91187600000E+02 0.  0.
<mgrwt>
<rscale>  0 0.18376734E+04</rscale>
<asrwt>0</asrwt>
<pdfrwt beam="1">  1        1 0.26050086E+00 0.49650468E+04</pdfrwt>
<pdfrwt beam="2">  1       -1 0.58359177E+00 0.49650468E+04</pdfrwt>
<totfact> 0.18123317E-03</totfact>
</mgrwt>
</event>
<event>
12    1  0.1376745E-011  0.2254109E+04  0.7818608E-02  0.8968042E-01
          1   -1    0    0  501    0  0.00000000000E+00  0.00000000000E+00  0.10508780892E+04  0.10508780892E+04  0.00000000000E+00 0. -1.
         -1   -1    0    0    0  501 -0.00000000000E+00 -0.00000000000E+00 -0.15935131924E+04  0.15935131924E+04  0.00000000000E+00 0.  1.
         23    2    1    2    0    0 -0.29292050284E+03  0.81652683978E+02  0.30387899754E+02  0.31858783152E+03  0.90028885127E+02 0.  0.
    9900016    2    1    2    0    0 -0.44554041227E+03  0.25645164433E+03 -0.53256388420E+03  0.10238174363E+04  0.70732181314E+03 0.  0.
         23    2    4    4    0    0 -0.37840534576E+02  0.99155685157E+02 -0.57104166461E+03  0.58513560558E+03  0.70931926862E+02 0.  0.
        -15    1    5    5    0    0 -0.53965161120E+01  0.94282724892E+02 -0.40247724601E+03  0.41340813751E+03  0.00000000000E+00 0.  1.
        -15    1    3    3    0    0 -0.20983170689E+03  0.98716532007E+02  0.14973974853E+02  0.23237581378E+03  0.00000000000E+00 0. -1.
         15    1    3    3    0    0 -0.83088795948E+02 -0.17063848028E+02  0.15413924901E+02  0.86212017738E+02  0.00000000000E+00 0.  1.
         15    1    5    5    0    0 -0.32444018464E+02  0.48729602651E+01 -0.16856441859E+03  0.17172746807E+03  0.00000000000E+00 0. -1.
        -16    1    4    4    0    0 -0.40769987770E+03  0.15729595917E+03  0.38477780411E+02  0.43868183075E+03  0.00000000000E+00 0.  1.
         16    1    1    2    0    0  0.26995997011E+03 -0.43236444411E+02  0.46983731398E+03  0.54359440505E+03  0.00000000000E+00 0. -1.
    9900018    1    1    2    0    0  0.46850094500E+03 -0.29486788389E+03 -0.51029643274E+03  0.75839160865E+03  0.91187600000E+02 0.  0.
<mgrwt>
<rscale>  0 0.13805187E+04</rscale>
<asrwt>0</asrwt>
<pdfrwt beam="1">  1        1 0.16167355E+00 0.22541088E+04</pdfrwt>
<pdfrwt beam="2">  1       -1 0.24515587E+00 0.22541088E+04</pdfrwt>
<totfact> 0.93105630E-01</totfact>
</mgrwt>
</event>
<event>
12    1  0.1376745E-011  0.1592694E+04  0.7818608E-02  0.9244389E-01
          2   -1    0    0  501    0  0.00000000000E+00  0.00000000000E+00  0.91124769558E+03  0.91124769558E+03  0.00000000000E+00 0. -1.
         -2   -1    0    0    0  501 -0.00000000000E+00 -0.00000000000E+00 -0.10023437155E+04  0.10023437155E+04  0.00000000000E+00 0.  1.
         23    2    1    2    0    0 -0.13974809145E+03 -0.26634019331E+03  0.38472000159E+02  0.31563625067E+03  0.87632872297E+02 0.  0.
    9900016    2    1    2    0    0 -0.79193090985E+02  0.12234835157E+03  0.42890266304E+03  0.84090011928E+03  0.70845949175E+03 0.  0.
         23    2    4    4    0    0 -0.32246701213E+03  0.42691322758E+02 -0.78122628817E+01  0.33469129925E+03  0.78420095605E+02 0.  0.
        -15    1    3    3    0    0 -0.10588515363E+03 -0.23495233402E+03  0.35321824791E+01  0.25773385757E+03  0.00000000000E+00 0.  1.
        -15    1    5    5    0    0 -0.17130398417E+03 -0.13122092173E+02 -0.20652581254E+02  0.17304269244E+03  0.00000000000E+00 0.  1.
         15    1    3    3    0    0 -0.33862937816E+02 -0.31387859288E+02  0.34939817680E+02  0.57902393108E+02  0.00000000000E+00 0. -1.
         15    1    5    5    0    0 -0.15116302796E+03  0.55813414930E+02  0.12840318373E+02  0.16164860681E+03  0.00000000000E+00 0. -1.
        -16    1    1    2    0    0  0.22321271836E+03  0.73256037843E+02 -0.59190920611E+03  0.63682562212E+03  0.00000000000E+00 0.  1.
         16    1    4    4    0    0  0.24327392114E+03  0.79657028814E+02  0.43671492593E+03  0.50620882003E+03  0.00000000000E+00 0. -1.
    9900018    1    1    2    0    0 -0.42715359311E+01  0.70735803896E+02  0.33438523013E+02  0.12022941897E+03  0.91187600000E+02 0.  0.
<mgrwt>
<rscale>  0 0.10606774E+04</rscale>
<asrwt>0</asrwt>
<pdfrwt beam="1">  1        2 0.14019195E+00 0.15926936E+04</pdfrwt>
<pdfrwt beam="2">  1       -2 0.15420673E+00 0.15926936E+04</pdfrwt>
<totfact> 0.76247190E+00</totfact>
</mgrwt>
</event>
<event>
12    1  0.1376745E-011  0.1248526E+04  0.7818608E-02  0.9557378E-01
          2   -1    0    0  501    0  0.00000000000E+00  0.00000000000E+00  0.85028580804E+03  0.85028580804E+03  0.00000000000E+00 0. -1.
         -2   -1    0    0    0  501 -0.00000000000E+00 -0.00000000000E+00 -0.66901349748E+03  0.66901349748E+03  0.00000000000E+00 0.  1.
         23    2    1    2    0    0  0.13720024178E+03 -0.13177473848E+03  0.16784212901E+03  0.27070103799E+03  0.94443547434E+02 0.  0.
    9900016    2    1    2    0    0 -0.25061419010E+03 -0.17228481936E+02  0.27598136514E+03  0.80327259045E+03  0.71132049583E+03 0.  0.
         23    2    4    4    0    0  0.10312991010E+03  0.20796563390E+03 -0.64188843333E+02  0.26330680545E+03  0.10641796346E+03 0.  0.
        -15    1    3    3    0    0  0.60064255734E+02 -0.10684005607E+03  0.13736102677E+03  0.18409390015E+03  0.00000000000E+00 0. -1.
        -15    1    5    5    0    0  0.22574864015E+02  0.79231257433E+02  0.26360948206E+02  0.86499226759E+02  0.00000000000E+00 0.  1.
         15    1    5    5    0    0  0.80555046089E+02  0.12873437646E+03 -0.90549791538E+02  0.17680757869E+03  0.00000000000E+00 0. -1.
         15    1    3    3    0    0  0.77135986051E+02 -0.24934682417E+02  0.30481102234E+02  0.86607137839E+02  0.00000000000E+00 0.  1.
        -16    1    1    2    0    0 -0.41809434937E+02  0.10169358471E+03  0.15171097942E+02  0.11099448740E+03  0.00000000000E+00 0.  1.
         16    1    4    4    0    0 -0.35374410021E+03 -0.22519411583E+03  0.34017020848E+03  0.53996578500E+03  0.00000000000E+00 0. -1.
    9900018    1    1    2    0    0  0.15522338325E+03  0.47309635711E+02 -0.27772228153E+03  0.33433118968E+03  0.91187600000E+02 0.  0.
<mgrwt>
<rscale>  0 0.80182572E+03</rscale>
<asrwt>0</asrwt>
<pdfrwt beam="1">  1        2 0.13081320E+00 0.12485260E+04</pdfrwt>
<pdfrwt beam="2">  1       -2 0.10292515E+00 0.12485260E+04</pdfrwt>
<totfact> 0.23943179E+01</totfact>
</mgrwt>
</event>
<event>
12    1  0.1376745E-011  0.9671515E+03  0.7818608E-02  0.9672410E-01
         -2   -1    0    0    0  501 -0.00000000000E+00  0.00000000000E+00  0.11134973812E+04  0.11134973812E+04  0.00000000000E+00 0.  1.
          2   -1    0    0  501    0  0.00000000000E+00 -0.00000000000E+00 -0.41120056905E+03  0.41120056905E+03  0.00000000000E+00 0. -1.
         23    2    1    2    0    0  0.18281194174E+03  0.23259008733E+03 -0.32309316749E+02  0.31019057806E+03  0.87498274274E+02 0.  0.
    9900016    2    1    2    0    0 -0.16494411286E+03 -0.22081115925E+03  0.66985319531E+03  0.10214547244E+04  0.72020991544E+03 0.  0.
         23    2    4    4    0    0 -0.16467869606E+03 -0.36883274642E+03  0.74544758703E+03  0.85524710492E+03  0.11224454413E+03 0.  0.
        -15    1    3    3    0    0  0.54701427198E+02  0.38745622668E+02  0.23845052202E+02  0.71148126665E+02  0.00000000000E+00 0. -1.
        -15    1    5    5    0    0 -0.23563801562E+02 -0.17415687561E+03  0.36646622752E+03  0.40642756548E+03  0.00000000000E+00 0.  1.
         15    1    3    3    0    0  0.12811051455E+03  0.19384446466E+03 -0.56154368951E+02  0.23904245140E+03  0.00000000000E+00 0.  1.
         15    1    5    5    0    0 -0.14111489450E+03 -0.19467587081E+03  0.37898135952E+03  0.44881953944E+03  0.00000000000E+00 0. -1.
        -16    1    1    2    0    0 -0.39599803779E+02 -0.37755949776E+02  0.77583383861E+02  0.94935966073E+02  0.00000000000E+00 0.  1.
         16    1    4    4    0    0 -0.26541680022E+00  0.14802158717E+03 -0.75594391719E+02  0.16620761948E+03  0.00000000000E+00 0. -1.
    9900018    1    1    2    0    0  0.21731974898E+02  0.25977021700E+02 -0.12830450241E+02  0.98116681745E+02  0.91187600000E+02 0.  0.
<mgrwt>
<rscale>  0 0.72683501E+03</rscale>
<asrwt>0</asrwt>
<pdfrwt beam="1">  1        2 0.63261627E-01 0.96715148E+03</pdfrwt>
<pdfrwt beam="2">  1       -2 0.17130729E+00 0.96715148E+03</pdfrwt>
<totfact> 0.16041694E+01</totfact>
</mgrwt>
</event>
<event>
12    1  0.1376745E-011  0.1997423E+04  0.7818608E-02  0.9173661E-01
          2   -1    0    0  501    0  0.00000000000E+00  0.00000000000E+00  0.95707807937E+03  0.95707807937E+03  0.00000000000E+00 0. -1.
         -2   -1    0    0    0  501 -0.00000000000E+00 -0.00000000000E+00 -0.12755367704E+04  0.12755367704E+04  0.00000000000E+00 0.  1.
         23    2    1    2    0    0  0.61555155281E+02 -0.17195772578E+03 -0.77152587385E+02  0.22066913375E+03  0.96870265056E+02 0.  0.
    9900016    2    1    2    0    0 -0.76213461558E+02 -0.19640735770E+03 -0.52916805259E+03  0.91014639408E+03  0.70990371804E+03 0.  0.
         23    2    4    4    0    0 -0.20680843146E+03  0.17386522930E+03 -0.55370416255E+02  0.29480824717E+03  0.10414976870E+03 0.  0.
        -15    1    3    3    0    0  0.33863976243E+02 -0.17409278416E+03 -0.56773489137E+02  0.18622109293E+03  0.00000000000E+00 0.  1.
        -15    1    5    5    0    0 -0.52169557720E+02  0.11093515137E+03 -0.25099729960E+02  0.12513299727E+03  0.00000000000E+00 0.  1.
         15    1    3    3    0    0  0.27691179039E+02  0.21350583787E+01 -0.20379098247E+02  0.34448040818E+02  0.00000000000E+00 0. -1.
         15    1    5    5    0    0 -0.15463887374E+03  0.62930077930E+02 -0.30270686296E+02  0.16967524990E+03  0.00000000000E+00 0. -1.
        -16    1    4    4    0    0  0.13059496990E+03 -0.37027258699E+03 -0.47379763634E+03  0.61533814691E+03  0.00000000000E+00 0.  1.
         16    1    1    2    0    0 -0.43455933583E+02  0.43985469800E+03  0.61072436351E+03  0.75388647799E+03  0.00000000000E+00 0. -1.
    9900018    1    1    2    0    0  0.58114239860E+02 -0.71489614516E+02 -0.32286241452E+03  0.34791284392E+03  0.91187600000E+02 0.  0.
<mgrwt>
<rscale>  0 0.11329474E+04</rscale>
<asrwt>0</asrwt>
<pdfrwt beam="1">  1        2 0.14724278E+00 0.19974226E+04</pdfrwt>
<pdfrwt beam="2">  1       -2 0.19623643E+00 0.19974226E+04</pdfrwt>
<totfact> 0.34901285E+00</totfact>
</mgrwt>
</event>
<event>
12    1  0.1376745E-011  0.2094284E+04  0.7818608E-02  0.9197426E-01
         -2   -1    0    0    0  501 -0.00000000000E+00  0.00000000000E+00  0.10931597291E+04  0.10931597291E+04  0.00000000000E+00 0. -1.
          2   -1    0    0  501    0  0.00000000000E+00 -0.00000000000E+00 -0.15236008895E+04  0.15236008895E+04  0.00000000000E+00 0.  1.
         23    2    1    2    0    0 -0.13319546322E+03 -0.24968179456E+02  0.34619614082E+03  0.38311135491E+03  0.92510004525E+02 0.  0.
    9900016    2    1    2    0    0  0.31367659577E+03  0.22823199729E+03 -0.68848510975E+03  0.10643357960E+04  0.71296289454E+03 0.  0.
         23    2    4    4    0    0  0.65000510943E+02  0.37077768708E+03 -0.67171442601E+03  0.77721156388E+03  0.10562379114E+03 0.  0.
        -15    1    3    3    0    0 -0.13763862311E+03 -0.20913886311E+01  0.26476586734E+03  0.29841201213E+03  0.00000000000E+00 0. -1.
        -15    1    5    5    0    0  0.15836241478E+02  0.14391271294E+03 -0.16286063110E+03  0.21791108428E+03  0.00000000000E+00 0.  1.
         15    1    3    3    0    0  0.44431598889E+01 -0.22876790824E+02  0.81430273484E+02  0.84699342783E+02  0.00000000000E+00 0.  1.
         15    1    5    5    0    0  0.49164269466E+02  0.22686497414E+03 -0.50885379491E+03  0.55930047960E+03  0.00000000000E+00 0. -1.
        -16    1    1    2    0    0 -0.49236652540E+03 -0.48862959381E+03  0.94084032717E+02  0.70002534275E+03  0.00000000000E+00 0.  1.
         16    1    4    4    0    0  0.24867608483E+03 -0.14254568979E+03 -0.16770683741E+02  0.28712423213E+03  0.00000000000E+00 0. -1.
    9900018    1    1    2    0    0  0.31188539284E+03  0.28536577597E+03 -0.18223622428E+03  0.46928812493E+03  0.91187600000E+02 0.  0.
<mgrwt>
<rscale>  0 0.11080035E+04</rscale>
<asrwt>0</asrwt>
<pdfrwt beam="1">  1        2 0.23440014E+00 0.20942835E+04</pdfrwt>
<pdfrwt beam="2">  1       -2 0.16817842E+00 0.20942835E+04</pdfrwt>
<totfact> 0.24552208E+00</totfact>
</mgrwt>
</event>
<event>
12    1  0.1376745E-011  0.1440717E+04  0.7818608E-02  0.9327096E-01
         -2   -1    0    0    0  501 -0.00000000000E+00  0.00000000000E+00  0.40038554483E+03  0.40038554483E+03  0.00000000000E+00 0.  1.
          2   -1    0    0  501    0  0.00000000000E+00 -0.00000000000E+00 -0.24228922520E+04  0.24228922520E+04  0.00000000000E+00 0. -1.
         23    2    1    2    0    0  0.29908595960E+03  0.79666131402E+01 -0.10233010949E+04  0.10699727393E+04  0.90446967812E+02 0.  0.
    9900016    2    1    2    0    0 -0.21012382631E+02 -0.84412254071E+02 -0.34968267678E+03  0.79354226095E+03  0.70701088862E+03 0.  0.
         23    2    4    4    0    0  0.18145713581E+02 -0.18926873075E+03 -0.53737699008E+03  0.57500761279E+03  0.75550022773E+02 0.  0.
        -15    1    5    5    0    0  0.46338222258E+02 -0.91748585996E+02 -0.25488225031E+03  0.27482721008E+03  0.00000000000E+00 0. -1.
        -15    1    3    3    0    0  0.12129185827E+03  0.33111581020E+02 -0.31257284125E+03  0.33691226271E+03  0.00000000000E+00 0. -1.
         15    1    3    3    0    0  0.17779410133E+03 -0.25144967880E+02 -0.71072825364E+03  0.73306047663E+03  0.00000000000E+00 0.  1.
         15    1    5    5    0    0 -0.28192508676E+02 -0.97520144757E+02 -0.28249473977E+03  0.30018040272E+03  0.00000000000E+00 0.  1.
        -16    1    4    4    0    0 -0.39158096213E+02  0.10485647668E+03  0.18769431330E+03  0.21853464816E+03  0.00000000000E+00 0.  1.
         16    1    1    2    0    0 -0.16494885111E+03 -0.26206591118E+03 -0.16429076363E+03  0.35053975566E+03  0.00000000000E+00 0. -1.
    9900018    1    1    2    0    0 -0.11312472585E+03  0.33851155211E+03 -0.48523217189E+03  0.60922304089E+03  0.91187600000E+02 0.  0.
<mgrwt>
<rscale>  0 0.98326143E+03</rscale>
<asrwt>0</asrwt>
<pdfrwt beam="1">  1        2 0.37275265E+00 0.14407174E+04</pdfrwt>
<pdfrwt beam="2">  1       -2 0.61597776E-01 0.14407174E+04</pdfrwt>
<totfact> 0.91337832E+00</totfact>
</mgrwt>
</event>
<event>
12    1  0.1376745E-011  0.1692064E+04  0.7818608E-02  0.8765903E-01
          2   -1    0    0  501    0  0.00000000000E+00  0.00000000000E+00  0.24094727362E+04  0.24094727362E+04  0.00000000000E+00 0.  1.
         -2   -1    0    0    0  501 -0.00000000000E+00 -0.00000000000E+00 -0.29706520111E+03  0.29706520111E+03  0.00000000000E+00 0. -1.
         23    2    1    2    0    0 -0.11858439474E+03  0.12716216999E+02  0.18707573991E+03  0.23956631023E+03  0.90392055431E+02 0.  0.
    9900016    2    1    2    0    0 -0.45990694376E+03 -0.51064775230E+02  0.74148487521E+03  0.11219268677E+04  0.70341884263E+03 0.  0.
         23    2    4    4    0    0 -0.10164481425E+03  0.29588329497E+03  0.42249251347E+03  0.52991264180E+03  0.66549917291E+02 0.  0.
        -15    1    3    3    0    0 -0.77869737230E+02  0.40559956502E+02  0.16193032608E+03  0.18420161930E+03  0.00000000000E+00 0. -1.
        -15    1    5    5    0    0 -0.87687500485E+01  0.65390642224E+02  0.13245835851E+03  0.14797987636E+03  0.00000000000E+00 0.  1.
         15    1    3    3    0    0 -0.40714657511E+02 -0.27843739502E+02  0.25145413831E+02  0.55364690936E+02  0.00000000000E+00 0.  1.
         15    1    5    5    0    0 -0.92876064205E+02  0.23049265274E+03  0.29003415496E+03  0.38193276543E+03  0.00000000000E+00 0. -1.
        -16    1    1    2    0    0 -0.28852639702E+01 -0.40193584662E+02  0.42817081400E+02  0.58797546341E+02  0.00000000000E+00 0.  1.
         16    1    4    4    0    0 -0.35826212950E+03 -0.34694807020E+03  0.31899236174E+03  0.59201422592E+03  0.00000000000E+00 0. -1.
    9900018    1    1    2    0    0  0.58137660247E+03  0.78542142892E+02  0.11410298386E+04  0.12862472130E+04  0.91187600000E+02 0.  0.
<mgrwt>
<rscale>  0 0.16920644E+04</rscale>
<asrwt>0</asrwt>
<pdfrwt beam="1">  1        2 0.37068810E+00 0.16920644E+04</pdfrwt>
<pdfrwt beam="2">  1       -2 0.45702340E-01 0.16920644E+04</pdfrwt>
<totfact> 0.16992469E+01</totfact>
</mgrwt>
</event>
<event>
12    1  0.1376745E-011  0.1517179E+04  0.7818608E-02  0.9245815E-01
         -1   -1    0    0    0  501 -0.00000000000E+00  0.00000000000E+00  0.33872101164E+03  0.33872101164E+03  0.00000000000E+00 0.  1.
          1   -1    0    0  501    0  0.00000000000E+00 -0.00000000000E+00 -0.26331734330E+04  0.26331734330E+04  0.00000000000E+00 0. -1.
         23    2    1    2    0    0 -0.24738807453E+03 -0.24518074753E+03 -0.32155487450E+03  0.48308841930E+03  0.93072150354E+02 0.  0.
    9900016    2    1    2    0    0  0.46682636727E+03 -0.22091747468E+03 -0.95293931061E+03  0.12961563154E+04  0.71077174712E+03 0.  0.
         23    2    4    4    0    0  0.52822003465E+03 -0.10903589863E+03 -0.10147942317E+04  0.11543370617E+04  0.10854255903E+03 0.  0.
        -15    1    3    3    0    0 -0.21267189193E+03 -0.19025282218E+03 -0.30140965963E+03  0.41505813193E+03  0.00000000000E+00 0.  1.
        -15    1    5    5    0    0  0.14416942331E+03 -0.76742437629E+02 -0.34131410290E+03  0.37837751148E+03  0.00000000000E+00 0. -1.
         15    1    5    5    0    0  0.38405061134E+03 -0.32293460999E+02 -0.67348012883E+03  0.77595955025E+03  0.00000000000E+00 0.  1.
         15    1    3    3    0    0 -0.34716182601E+02 -0.54927925351E+02 -0.20145214867E+02  0.68030287371E+02  0.00000000000E+00 0. -1.
        -16    1    1    2    0    0 -0.19684657219E+03  0.38924329383E+03 -0.96581627224E+03  0.10597452460E+04  0.00000000000E+00 0.  1.
         16    1    4    4    0    0 -0.61393667377E+02 -0.11188157606E+03  0.61854921115E+02  0.14181925370E+03  0.00000000000E+00 0. -1.
    9900018    1    1    2    0    0 -0.22591720552E+02  0.76854928383E+02 -0.54141963996E+02  0.13290446386E+03  0.91187600000E+02 0.  0.
<mgrwt>
<rscale>  0 0.10592800E+04</rscale>
<asrwt>0</asrwt>
<pdfrwt beam="1">  1        1 0.40510360E+00 0.15171785E+04</pdfrwt>
<pdfrwt beam="2">  1       -1 0.52110926E-01 0.15171785E+04</pdfrwt>
<totfact> 0.39140067E+00</totfact>
</mgrwt>
</event>
