<event>
12    1  0.3715390E-011  0.5544176E+04  0.7818608E-02  0.7749640E-01
         -2   -1    0    0    0  501 -0.00000000000E+00  0.00000000000E+00  0.33407551131E+04  0.33407551131E+04  0.00000000000E+00 0.  1.
          2   -1    0    0  501    0  0.00000000000E+00 -0.00000000000E+00 -0.23002203269E+04  0.23002203269E+04  0.00000000000E+00 0. -1.
    9900016    2    1    2    0    0 -0.48725538982E+03 -0.78354753011E+03 -0.92567896311E+03  0.25054171897E+04  0.21374913344E+04 0.  0.
         24    2    3    3    0    0  0.53508418860E+03 -0.36301375235E+03  0.41124947778E+03  0.77065365310E+03  0.81773142165E+02 0.  0.
    9900016    2    1    2    0    0  0.48725538982E+03  0.78354753011E+03  0.19662137493E+04  0.31355582503E+04  0.22614960726E+04 0.  0.
        -15    1    5    5    0    0 -0.34889539076E+02 -0.90885548591E+02  0.39971361573E+02  0.10523864607E+03  0.00000000000E+00 0.  1.
        -15    1    4    4    0    0  0.40488614418E+03 -0.25492710344E+03  0.26468821404E+03  0.54679106473E+03  0.00000000000E+00 0.  1.
         15    1    5    5    0    0 -0.58817928864E+03 -0.34568994778E+03  0.55743356047E+03  0.88101565816E+03  0.00000000000E+00 0. -1.
         15    1    3    3    0    0 -0.10223395784E+04 -0.42053377777E+03 -0.13369284409E+04  0.17347635366E+04  0.00000000000E+00 0. -1.
        -16    1    5    5    0    0  0.43083129090E+03  0.41022975199E+03  0.52883460241E+03  0.79597115987E+03  0.00000000000E+00 0.  1.
         16    1    4    4    0    0  0.13019804442E+03 -0.10808664890E+03  0.14656126374E+03  0.22386258837E+03  0.00000000000E+00 0. -1.
    9900018    1    5    5    0    0  0.67949292663E+03  0.80989327450E+03  0.83997422481E+03  0.13533327862E+04  0.91187600000E+02 0.  0.
<mgrwt>
<rscale>  0 0.55441763E+04</rscale>
<asrwt>0</asrwt>
<pdfrwt beam="1">  1        2 0.35388005E+00 0.55441763E+04</pdfrwt>
<pdfrwt beam="2">  1       -2 0.51396232E+00 0.55441763E+04</pdfrwt>
<totfact> 0.43350315E-03</totfact>
</mgrwt>
</event>
<event>
13    1  0.3715390E-011  0.5272964E+04  0.7818608E-02  0.7787726E-01
          2   -1    0    0  501    0  0.00000000000E+00  0.00000000000E+00  0.33453428273E+04  0.33453428273E+04  0.00000000000E+00 0.  1.
         -2   -1    0    0    0  501 -0.00000000000E+00 -0.00000000000E+00 -0.20778253848E+04  0.20778253848E+04  0.00000000000E+00 0. -1.
    9900016    2    1    2    0    0 -0.11111209870E+04 -0.63578360771E+03  0.14435373684E+04  0.28691359084E+04  0.21235183265E+04 0.  0.
        -24    2    3    3    0    0  0.17841379656E+03 -0.10762032606E+02  0.14227315668E+04  0.14359629220E+04  0.76662233892E+02 0.  0.
    9900016    2    1    2    0    0  0.11111209870E+04  0.63578360771E+03 -0.17601992595E+03  0.25540323037E+04  0.22030177826E+04 0.  0.
         23    2    5    5    0    0  0.15292941975E+03 -0.55562202065E+03 -0.69489075805E+03  0.90575441904E+03  0.73584405604E+02 0.  0.
        -15    1    3    3    0    0 -0.12895347836E+04 -0.62502157510E+03  0.20805801596E+02  0.14331729863E+04  0.00000000000E+00 0.  1.
        -15    1    6    6    0    0  0.28081376042E+02 -0.56359147305E+02 -0.10947199180E+03  0.12628948552E+03  0.00000000000E+00 0. -1.
         15    1    4    4    0    0  0.76281624270E+02  0.23729729663E+02  0.42661489099E+03  0.43403024259E+03  0.00000000000E+00 0. -1.
         15    1    6    6    0    0  0.12484804371E+03 -0.49926287334E+03 -0.58541876625E+03  0.77946493352E+03  0.00000000000E+00 0.  1.
        -16    1    4    4    0    0  0.10213217229E+03 -0.34491762269E+02  0.99611667582E+03  0.10019326794E+04  0.00000000000E+00 0.  1.
         16    1    5    5    0    0  0.58412988715E+03  0.60511338322E+03  0.14504342453E+03  0.85346794118E+03  0.00000000000E+00 0. -1.
    9900018    1    5    5    0    0  0.37406168012E+03  0.58629224513E+03  0.37382740757E+03  0.79480994349E+03  0.91187600000E+02 0.  0.
<mgrwt>
<rscale>  0 0.52729643E+04</rscale>
<asrwt>0</asrwt>
<pdfrwt beam="1">  1        2 0.51466813E+00 0.52729643E+04</pdfrwt>
<pdfrwt beam="2">  1       -2 0.31966544E+00 0.52729643E+04</pdfrwt>
<totfact> 0.17775044E-02</totfact>
</mgrwt>
</event>
<event>
13    1  0.3715390E-011  0.5766042E+04  0.7818608E-02  0.7720106E-01
          2   -1    0    0  501    0  0.00000000000E+00  0.00000000000E+00  0.34910806635E+04  0.34910806635E+04  0.00000000000E+00 0. -1.
         -2   -1    0    0    0  501 -0.00000000000E+00 -0.00000000000E+00 -0.23808698920E+04  0.23808698920E+04  0.00000000000E+00 0.  1.
    9900016    2    1    2    0    0 -0.48721295707E+03  0.17200367407E+04  0.35804809867E+03  0.29194078190E+04  0.22800966466E+04 0.  0.
         24    2    3    3    0    0 -0.13825850440E+03  0.21473864552E+04  0.70723463857E+03  0.22664696686E+04  0.79497942442E+02 0.  0.
    9900016    2    1    2    0    0  0.48721295707E+03 -0.17200367407E+04  0.75216267282E+03  0.29525427366E+04  0.22261754356E+04 0.  0.
         23    2    5    5    0    0  0.33279230326E+03 -0.24051409556E+02  0.58767513233E+03  0.67934951900E+03  0.69458767601E+02 0.  0.
        -15    1    4    4    0    0 -0.79304553099E+02  0.66417442918E+03  0.22477464514E+03  0.70564901021E+03  0.00000000000E+00 0.  1.
        -15    1    6    6    0    0  0.24004279321E+03 -0.46641738274E+02  0.44323085448E+03  0.50621100807E+03  0.00000000000E+00 0. -1.
         15    1    6    6    0    0  0.92749510047E+02  0.22590328719E+02  0.14444427785E+03  0.17313851094E+03  0.00000000000E+00 0.  1.
         15    1    3    3    0    0 -0.34895445267E+03 -0.42734971453E+03 -0.34918653989E+03  0.65293815036E+03  0.00000000000E+00 0. -1.
        -16    1    5    5    0    0 -0.37950904282E+03 -0.15914031303E+04 -0.14187474800E+03  0.16421691389E+04  0.00000000000E+00 0.  1.
         16    1    4    4    0    0 -0.58953951298E+02  0.14832120260E+04  0.48245999343E+03  0.15608206584E+04  0.00000000000E+00 0. -1.
    9900018    1    5    5    0    0  0.53392969663E+03 -0.10458220083E+03  0.30636228849E+03  0.63102407868E+03  0.91187600000E+02 0.  0.
<mgrwt>
<rscale>  0 0.57660416E+04</rscale>
<asrwt>0</asrwt>
<pdfrwt beam="1">  1        2 0.53708933E+00 0.57660416E+04</pdfrwt>
<pdfrwt beam="2">  1       -2 0.36628768E+00 0.57660416E+04</pdfrwt>
<totfact> 0.69192986E-03</totfact>
</mgrwt>
</event>
<event>
12    1  0.3715390E-011  0.4341885E+04  0.7818608E-02  0.8457040E-01
         -2   -1    0    0    0  501 -0.00000000000E+00  0.00000000000E+00  0.18489381178E+04  0.18489381178E+04  0.00000000000E+00 0.  1.
          2   -1    0    0  501    0  0.00000000000E+00 -0.00000000000E+00 -0.37224286271E+04  0.37224286271E+04  0.00000000000E+00 0. -1.
        -24    2    1    2    0    0 -0.25154330428E+03  0.26735383684E+03 -0.10986687524E+04  0.11608885217E+04  0.76400420843E+02 0.  0.
    9900016    2    1    2    0    0  0.56992130559E+03  0.89527531800E+03 -0.16228724197E+04  0.29366189931E+04  0.22053770722E+04 0.  0.
         23    2    4    4    0    0 -0.22774247458E+03 -0.94790119243E+02 -0.54022666492E+03  0.59832681992E+03  0.72789645680E+02 0.  0.
        -15    1    5    5    0    0 -0.14159532192E+03 -0.40760407626E+02 -0.24295677631E+03  0.28414545777E+03  0.00000000000E+00 0.  1.
        -15    1    1    2    0    0 -0.31837800131E+03 -0.11626291548E+04  0.84805066276E+03  0.14738592301E+04  0.00000000000E+00 0.  1.
         15    1    5    5    0    0 -0.86147152662E+02 -0.54029711617E+02 -0.29726988861E+03  0.31418136215E+03  0.00000000000E+00 0. -1.
         15    1    3    3    0    0 -0.19962602456E+03  0.18645733524E+03 -0.89341956163E+03  0.93424589946E+03  0.00000000000E+00 0. -1.
        -16    1    3    3    0    0 -0.51917279725E+02  0.80896501596E+02 -0.20524919077E+03  0.22664262224E+03  0.00000000000E+00 0.  1.
         16    1    4    4    0    0  0.62692836286E+03  0.57229659621E+02  0.26902684148E+03  0.68460926632E+03  0.00000000000E+00 0. -1.
    9900018    1    4    4    0    0  0.17073541731E+03  0.93283577762E+03 -0.13516725962E+04  0.16536829069E+04  0.91187600000E+02 0.  0.
<mgrwt>
<rscale>  0 0.23537091E+04</rscale>
<asrwt>0</asrwt>
<pdfrwt beam="1">  1        2 0.57268132E+00 0.43418855E+04</pdfrwt>
<pdfrwt beam="2">  1       -2 0.28445202E+00 0.43418855E+04</pdfrwt>
<totfact> 0.16492979E-02</totfact>
</mgrwt>
</event>
<event>
13    1  0.3715390E-011  0.4595495E+04  0.7818608E-02  0.7894128E-01
         -2   -1    0    0    0  501 -0.00000000000E+00  0.00000000000E+00  0.25463836983E+04  0.25463836983E+04  0.00000000000E+00 0.  1.
          2   -1    0    0  501    0  0.00000000000E+00 -0.00000000000E+00 -0.20733886787E+04  0.20733886787E+04  0.00000000000E+00 0. -1.
    9900016    2    1    2    0    0  0.20267578668E+03 -0.17887929024E+03  0.94533222142E+03  0.23486901725E+04  0.21329831792E+04 0.  0.
        -24    2    3    3    0    0 -0.95672015141E+03 -0.88562982741E+02  0.59995479241E+03  0.11355778343E+04  0.80214804366E+02 0.  0.
    9900016    2    1    2    0    0 -0.20267578668E+03  0.17887929024E+03 -0.47233720182E+03  0.22710822045E+04  0.22049119421E+04 0.  0.
         23    2    5    5    0    0  0.24972898516E+03  0.46086567514E+03 -0.69437050751E+03  0.87696598180E+03  0.11025967066E+03 0.  0.
        -15    1    3    3    0    0  0.11593959381E+04 -0.90316307503E+02  0.34537742902E+03  0.12131123382E+04  0.00000000000E+00 0.  1.
        -15    1    6    6    0    0  0.11811756173E+03  0.11516586936E+03 -0.23630772163E+03  0.28819485623E+03  0.00000000000E+00 0. -1.
         15    1    6    6    0    0  0.13161142343E+03  0.34569980578E+03 -0.45806278588E+03  0.58877112557E+03  0.00000000000E+00 0.  1.
         15    1    4    4    0    0 -0.41691335133E+03 -0.78215945430E+02  0.27028192142E+03  0.50297792564E+03  0.00000000000E+00 0. -1.
        -16    1    4    4    0    0 -0.53980680009E+03 -0.10347037311E+02  0.32967287099E+03  0.63259990868E+03  0.00000000000E+00 0.  1.
         16    1    5    5    0    0  0.24260478012E+01 -0.53165297652E+03  0.55686697888E+03  0.76991012808E+03  0.00000000000E+00 0. -1.
    9900018    1    5    5    0    0 -0.45483081964E+03  0.24966659162E+03 -0.33483367319E+03  0.62420609462E+03  0.91187600000E+02 0.  0.
<mgrwt>
<rscale>  0 0.45954948E+04</rscale>
<asrwt>0</asrwt>
<pdfrwt beam="1">  1        2 0.31898288E+00 0.45954948E+04</pdfrwt>
<pdfrwt beam="2">  1       -2 0.39175134E+00 0.45954948E+04</pdfrwt>
<totfact> 0.38418272E-02</totfact>
</mgrwt>
</event>
<event>
13    1  0.3715390E-011  0.5776598E+04  0.7818608E-02  0.7718735E-01
          1   -1    0    0  501    0  0.00000000000E+00  0.00000000000E+00  0.40287522817E+04  0.40287522817E+04  0.00000000000E+00 0. -1.
         -1   -1    0    0    0  501 -0.00000000000E+00 -0.00000000000E+00 -0.20706833005E+04  0.20706833005E+04  0.00000000000E+00 0.  1.
    9900016    2    1    2    0    0  0.41525858482E+03  0.16354612823E+04  0.15257262853E+04  0.32488309260E+04  0.23194586416E+04 0.  0.
        -24    2    3    3    0    0 -0.33251082540E+03 -0.30544599904E+03 -0.24296092327E+03  0.51853156384E+03  0.77358032098E+02 0.  0.
    9900016    2    1    2    0    0 -0.41525858482E+03 -0.16354612823E+04  0.43234269592E+03  0.28506046561E+04  0.22565135499E+04 0.  0.
         23    2    5    5    0    0  0.52808268323E+03  0.28371179519E+03  0.31784203064E+03  0.68696959486E+03  0.10742422799E+03 0.  0.
        -15    1    6    6    0    0  0.13175128792E+03  0.29279496941E+02  0.42903795451E+02  0.14162071343E+03  0.00000000000E+00 0. -1.
        -15    1    3    3    0    0  0.74776941022E+03  0.19409072813E+04  0.17686872085E+04  0.27302993622E+04  0.00000000000E+00 0.  1.
         15    1    4    4    0    0 -0.73681726828E+02 -0.11435072503E+03 -0.63338432860E+02  0.15005613037E+03  0.00000000000E+00 0. -1.
         15    1    6    6    0    0  0.39633139532E+03  0.25443229825E+03  0.27493823519E+03  0.54534888143E+03  0.00000000000E+00 0.  1.
        -16    1    4    4    0    0 -0.25882909857E+03 -0.19109527401E+03 -0.17962249041E+03  0.36847543347E+03  0.00000000000E+00 0.  1.
         16    1    5    5    0    0 -0.75232518849E+03 -0.12994272248E+04  0.14172589854E+03  0.15081745695E+04  0.00000000000E+00 0. -1.
    9900018    1    5    5    0    0 -0.19101607957E+03 -0.61974585269E+03 -0.27225233266E+02  0.65546049180E+03  0.91187600000E+02 0.  0.
<mgrwt>
<rscale>  0 0.57765976E+04</rscale>
<asrwt>0</asrwt>
<pdfrwt beam="1">  1        1 0.61980804E+00 0.57765976E+04</pdfrwt>
<pdfrwt beam="2">  1       -1 0.31856666E+00 0.57765976E+04</pdfrwt>
<totfact> 0.15317424E-03</totfact>
</mgrwt>
</event>
