<event>
12    1  0.1399853E-008  0.4674952E+04  0.7818608E-02  0.7880704E-01
         -2   -1    0    0    0  501 -0.00000000000E+00  0.00000000000E+00  0.20980712272E+04  0.20980712272E+04  0.00000000000E+00 0.  1.
          2   -1    0    0  501    0  0.00000000000E+00 -0.00000000000E+00 -0.26041987192E+04  0.26041987192E+04  0.00000000000E+00 0. -1.
    9900016    2    1    2    0    0 -0.25830409033E+03 -0.29242195960E+03  0.67631092919E+02  0.18888054407E+04  0.18468298304E+04 0.  0.
    9900016    2    1    2    0    0  0.87770718145E+03  0.48179024266E+03 -0.49790721152E+03  0.21549896427E+04  0.18421663971E+04 0.  0.
         24    2    4    4    0    0  0.51243612161E+03  0.62305986511E+02  0.67701202912E+03  0.85505687123E+03  0.79398682431E+02 0.  0.
        -15    1    3    3    0    0  0.12847016629E+03  0.34908789778E+03 -0.12063747277E+03  0.39105030858E+03  0.00000000000E+00 0.  1.
        -15    1    5    5    0    0  0.10682866923E+03 -0.17460985103E+02  0.15839902825E+03  0.19185281526E+03  0.00000000000E+00 0.  1.
         15    1    3    3    0    0 -0.31120456401E+02  0.37079211183E+03 -0.10276216273E+03  0.38602504464E+03  0.00000000000E+00 0. -1.
         15    1    4    4    0    0  0.36527105984E+03  0.41948425615E+03 -0.11749192406E+04  0.12999327715E+04  0.00000000000E+00 0. -1.
        -16    1    3    3    0    0 -0.35565380022E+03 -0.10123019692E+04  0.29103072842E+03  0.11117300875E+04  0.00000000000E+00 0.  1.
         16    1    5    5    0    0  0.40560745238E+03  0.79766971614E+02  0.51861300087E+03  0.66320405597E+03  0.00000000000E+00 0. -1.
    9900018    1    1    2    0    0 -0.61940309112E+03 -0.18936828306E+03 -0.75851373379E+02  0.65847486297E+03  0.91187600000E+02 0.  0.
<mgrwt>
<rscale>  0 0.46749522E+04</rscale>
<asrwt>0</asrwt>
<pdfrwt beam="1">  1        2 0.40064596E+00 0.46749522E+04</pdfrwt>
<pdfrwt beam="2">  1       -2 0.32278019E+00 0.46749522E+04</pdfrwt>
<totfact> 0.52026129E-02</totfact>
</mgrwt>
</event>
<event>
13    1  0.1399853E-008  0.7029405E+04  0.7818608E-02  0.7574410E-01
         -2   -1    0    0    0  501 -0.00000000000E+00  0.00000000000E+00  0.52556718555E+04  0.52556718555E+04  0.00000000000E+00 0.  1.
          2   -1    0    0  501    0  0.00000000000E+00 -0.00000000000E+00 -0.23504387943E+04  0.23504387943E+04  0.00000000000E+00 0. -1.
    9900016    2    1    2    0    0  0.16422796104E+04 -0.33329969346E+02 -0.97562075801E+03  0.26522336196E+04  0.18396505385E+04 0.  0.
         23    2    3    3    0    0  0.21695075072E+03 -0.30146834832E+03 -0.11292127739E+04  0.11937923092E+04  0.10985351869E+03 0.  0.
    9900016    2    1    2    0    0 -0.13494226807E+04 -0.80207459251E+02  0.19721354251E+04  0.30173396524E+04  0.18405557953E+04 0.  0.
         24    2    5    5    0    0  0.41046029457E+03 -0.12440423086E+03  0.10047702350E+03  0.44785592734E+03  0.80778916399E+02 0.  0.
        -15    1    6    6    0    0  0.23795607050E+03 -0.76080873898E+02  0.17521542768E+02  0.25043640974E+03  0.00000000000E+00 0.  1.
        -15    1    4    4    0    0  0.19430250561E+03 -0.23388294873E+03 -0.77571419532E+03  0.83317897850E+03  0.00000000000E+00 0.  1.
         15    1    5    5    0    0 -0.17598829752E+04  0.44196771610E+02  0.18716584016E+04  0.25694837251E+04  0.00000000000E+00 0. -1.
         15    1    4    4    0    0  0.22648245104E+02 -0.67585399587E+02 -0.35349857855E+03  0.36061333071E+03  0.00000000000E+00 0. -1.
        -16    1    3    3    0    0  0.14253288597E+04  0.26813837897E+03  0.15359201587E+03  0.14584413104E+04  0.00000000000E+00 0.  1.
         16    1    6    6    0    0  0.17250422407E+03 -0.48323356963E+02  0.82955480733E+02  0.19741951761E+03  0.00000000000E+00 0. -1.
    9900018    1    1    2    0    0 -0.29285692972E+03  0.11353742860E+03  0.19087183942E+04  0.19365373778E+04  0.91187600000E+02 0.  0.
<mgrwt>
<rscale>  0 0.70294054E+04</rscale>
<asrwt>0</asrwt>
<pdfrwt beam="1">  1        2 0.36160597E+00 0.70294054E+04</pdfrwt>
<pdfrwt beam="2">  1       -2 0.80856490E+00 0.70294054E+04</pdfrwt>
<totfact> 0.18295343E-04</totfact>
</mgrwt>
</event>
<event>
13    1  0.1399853E-008  0.4831464E+04  0.7818608E-02  0.7855045E-01
          2   -1    0    0  501    0  0.00000000000E+00  0.00000000000E+00  0.25716587933E+04  0.25716587933E+04  0.00000000000E+00 0. -1.
         -2   -1    0    0    0  501 -0.00000000000E+00 -0.00000000000E+00 -0.22692597587E+04  0.22692597587E+04  0.00000000000E+00 0.  1.
    9900016    2    1    2    0    0 -0.48224638236E+02 -0.98089190343E+03  0.86047952590E+03  0.22173994493E+04  0.17921943983E+04 0.  0.
         23    2    3    3    0    0  0.19868470868E+03  0.11504082508E+03  0.10507300976E+04  0.10780013402E+04  0.73096828684E+02 0.  0.
    9900016    2    1    2    0    0 -0.39683339705E+03  0.69853777605E+03 -0.34719219946E+03  0.20485499227E+04  0.18521831963E+04 0.  0.
        -24    2    5    5    0    0  0.12749804329E+03 -0.35818843844E+03 -0.71427626359E+03  0.81309678241E+03  0.79881714785E+02 0.  0.
        -15    1    5    5    0    0 -0.52433144034E+03  0.10567262145E+04  0.36708406412E+03  0.12354531403E+04  0.00000000000E+00 0.  1.
        -15    1    4    4    0    0  0.12983719139E+03  0.33315478532E+02  0.57498103139E+03  0.59039885149E+03  0.00000000000E+00 0. -1.
         15    1    6    6    0    0  0.42041836578E+01 -0.10082892320E+03 -0.15035613924E+03  0.18108317294E+03  0.00000000000E+00 0. -1.
         15    1    4    4    0    0  0.68847517285E+02  0.81725346552E+02  0.47574906626E+03  0.48760248866E+03  0.00000000000E+00 0.  1.
        -16    1    6    6    0    0  0.12329385963E+03 -0.25735951524E+03 -0.56392012434E+03  0.63201360946E+03  0.00000000000E+00 0.  1.
         16    1    3    3    0    0 -0.24690934691E+03 -0.10959327285E+04 -0.19025057175E+03  0.11393981091E+04  0.00000000000E+00 0. -1.
    9900018    1    1    2    0    0  0.44505803529E+03  0.28235412738E+03 -0.21088829184E+03  0.57496918009E+03  0.91187600000E+02 0.  0.
<mgrwt>
<rscale>  0 0.48314643E+04</rscale>
<asrwt>0</asrwt>
<pdfrwt beam="1">  1        2 0.39563981E+00 0.48314643E+04</pdfrwt>
<pdfrwt beam="2">  1       -2 0.34911689E+00 0.48314643E+04</pdfrwt>
<totfact> 0.36766621E-02</totfact>
</mgrwt>
</event>
<event>
13    1  0.1399853E-008  0.4324809E+04  0.7818608E-02  0.7942047E-01
         -2   -1    0    0    0  501 -0.00000000000E+00  0.00000000000E+00  0.23167263320E+04  0.23167263320E+04  0.00000000000E+00 0.  1.
          2   -1    0    0  501    0  0.00000000000E+00 -0.00000000000E+00 -0.20183619923E+04  0.20183619923E+04  0.00000000000E+00 0. -1.
    9900016    2    1    2    0    0 -0.52401715058E+03 -0.11362684469E+03 -0.28280362356E+03  0.19464359304E+04  0.18496296677E+04 0.  0.
         23    2    3    3    0    0  0.39986168984E+03  0.34485854619E+02 -0.78208642142E+03  0.88588286912E+03  0.10977541648E+03 0.  0.
    9900016    2    1    2    0    0  0.28359268419E+03 -0.23846925941E+03  0.52067750983E+03  0.19484821270E+04  0.18407023474E+04 0.  0.
        -24    2    5    5    0    0 -0.60383153150E+02 -0.99495720651E+03  0.49716644184E+03  0.11171301191E+04  0.84966252495E+02 0.  0.
        -15    1    4    4    0    0  0.12396919515E+03  0.61775794388E+02 -0.24387539283E+03  0.28046357579E+03  0.00000000000E+00 0.  1.
        -15    1    5    5    0    0  0.34397583734E+03  0.75648794710E+03  0.23511067996E+02  0.83135200794E+03  0.00000000000E+00 0.  1.
         15    1    6    6    0    0  0.81914526814E+01 -0.29736652092E+03  0.11646266697E+03  0.31946439623E+03  0.00000000000E+00 0. -1.
         15    1    4    4    0    0  0.27589249469E+03 -0.27289939770E+02 -0.53821102859E+03  0.60541929333E+03  0.00000000000E+00 0. -1.
        -16    1    6    6    0    0 -0.68574605832E+02 -0.69759068559E+03  0.38070377487E+03  0.79766572284E+03  0.00000000000E+00 0.  1.
         16    1    3    3    0    0 -0.92387884042E+03 -0.14811269931E+03  0.49928279786E+03  0.10605530612E+04  0.00000000000E+00 0. -1.
    9900018    1    1    2    0    0  0.24042446639E+03  0.35209610410E+03  0.60490453433E+02  0.44017026696E+03  0.91187600000E+02 0.  0.
<mgrwt>
<rscale>  0 0.43248086E+04</rscale>
<asrwt>0</asrwt>
<pdfrwt beam="1">  1        2 0.31051723E+00 0.43248086E+04</pdfrwt>
<pdfrwt beam="2">  1       -2 0.35641943E+00 0.43248086E+04</pdfrwt>
<totfact> 0.71055233E-02</totfact>
</mgrwt>
</event>
<event>
13    1  0.1399853E-008  0.4929827E+04  0.7818608E-02  0.7839424E-01
         -1   -1    0    0    0  501 -0.00000000000E+00  0.00000000000E+00  0.16450185755E+04  0.16450185755E+04  0.00000000000E+00 0. -1.
          1   -1    0    0  501    0  0.00000000000E+00 -0.00000000000E+00 -0.36934522759E+04  0.36934522759E+04  0.00000000000E+00 0.  1.
    9900016    2    1    2    0    0  0.10193706772E+04 -0.87037811659E+03 -0.17119727535E+04  0.28503193317E+04  0.18430395928E+04 0.  0.
         23    2    3    3    0    0 -0.28653277070E+03  0.15795403814E+02 -0.11298569166E+04  0.11681938396E+04  0.75826588355E+02 0.  0.
    9900016    2    1    2    0    0 -0.70208685376E+03  0.72279087763E+03 -0.20809224326E+03  0.21044267222E+04  0.18357442209E+04 0.  0.
         24    2    5    5    0    0 -0.44709505093E+03 -0.56295400558E+03 -0.31624745296E+03  0.78918595582E+03  0.77400415929E+02 0.  0.
        -15    1    6    6    0    0 -0.11678641306E+03 -0.20350058438E+03 -0.92995076622E+02  0.25238787291E+03  0.00000000000E+00 0.  1.
        -15    1    4    4    0    0 -0.21294871781E+03 -0.20100910248E+02 -0.85925334092E+03  0.88547586465E+03  0.00000000000E+00 0. -1.
         15    1    4    4    0    0 -0.73584052898E+02  0.35896314063E+02 -0.27060357565E+03  0.28271797495E+03  0.00000000000E+00 0.  1.
         15    1    5    5    0    0 -0.25499180283E+03  0.12857448832E+04  0.10815520971E+03  0.13152407664E+04  0.00000000000E+00 0. -1.
        -16    1    3    3    0    0  0.13059034480E+04 -0.88617352040E+03 -0.58211583692E+03  0.16821254921E+04  0.00000000000E+00 0.  1.
         16    1    6    6    0    0 -0.33030863788E+03 -0.35945342121E+03 -0.22325237634E+03  0.53679808291E+03  0.00000000000E+00 0. -1.
    9900018    1    1    2    0    0 -0.31728382349E+03  0.14758723896E+03 -0.12836870369E+03  0.38372479752E+03  0.91187600000E+02 0.  0.
<mgrwt>
<rscale>  0 0.49298266E+04</rscale>
<asrwt>0</asrwt>
<pdfrwt beam="1">  1        1 0.56822342E+00 0.49298266E+04</pdfrwt>
<pdfrwt beam="2">  1       -1 0.25307978E+00 0.49298266E+04</pdfrwt>
<totfact> 0.84250413E-03</totfact>
</mgrwt>
</event>
<event>
12    1  0.1399853E-008  0.4658877E+04  0.7818608E-02  0.7883398E-01
         -1   -1    0    0    0  501 -0.00000000000E+00  0.00000000000E+00  0.32824237061E+04  0.32824237061E+04  0.00000000000E+00 0.  1.
          1   -1    0    0  501    0  0.00000000000E+00 -0.00000000000E+00 -0.16531330801E+04  0.16531330801E+04  0.00000000000E+00 0. -1.
    9900016    2    1    2    0    0  0.68104575907E+03 -0.52285186596E+03  0.11313801202E+03  0.20373903293E+04  0.18441696626E+04 0.  0.
    9900016    2    1    2    0    0 -0.19565635025E+03  0.55780255354E+03  0.10400084163E+04  0.22112509569E+04  0.18597279888E+04 0.  0.
        -24    2    4    4    0    0  0.57012273559E+03 -0.15578938663E+01  0.11205759903E+04  0.12595194546E+04  0.75208683136E+02 0.  0.
        -15    1    3    3    0    0 -0.20256685624E+03 -0.11185954583E+02  0.34138213136E+03  0.39711486555E+03  0.00000000000E+00 0. -1.
        -15    1    4    4    0    0 -0.76577908584E+03  0.55936044741E+03 -0.80567573991E+02  0.95173150227E+03  0.00000000000E+00 0.  1.
         15    1    3    3    0    0 -0.15037338333E+03 -0.14403999547E+03  0.34439977155E+03  0.40245605643E+03  0.00000000000E+00 0.  1.
         15    1    5    5    0    0  0.55865190560E+02 -0.14682382143E+02  0.15582169784E+03  0.16618331258E+03  0.00000000000E+00 0. -1.
        -16    1    5    5    0    0  0.51425754503E+03  0.13124488277E+02  0.96475429242E+03  0.10933361421E+04  0.00000000000E+00 0.  1.
         16    1    3    3    0    0  0.10339859986E+04 -0.36762591590E+03 -0.57264389089E+03  0.12378194074E+04  0.00000000000E+00 0. -1.
    9900018    1    1    2    0    0 -0.48538940882E+03 -0.34950687579E+02  0.47614419769E+03  0.68691550000E+03  0.91187600000E+02 0.  0.
<mgrwt>
<rscale>  0 0.46588768E+04</rscale>
<asrwt>0</asrwt>
<pdfrwt beam="1">  1        1 0.25432817E+00 0.46588768E+04</pdfrwt>
<pdfrwt beam="2">  1       -1 0.50498826E+00 0.46588768E+04</pdfrwt>
<totfact> 0.52922729E-03</totfact>
</mgrwt>
</event>
<event>
13    1  0.1399853E-008  0.4558084E+04  0.7818608E-02  0.7900546E-01
         -2   -1    0    0    0  501 -0.00000000000E+00  0.00000000000E+00  0.23820611665E+04  0.23820611665E+04  0.00000000000E+00 0.  1.
          2   -1    0    0  501    0  0.00000000000E+00 -0.00000000000E+00 -0.21804778925E+04  0.21804778925E+04  0.00000000000E+00 0. -1.
    9900016    2    1    2    0    0 -0.38129791967E+03  0.95927260085E+03  0.46475291487E+03  0.21711439048E+04  0.18526409682E+04 0.  0.
         23    2    3    3    0    0  0.15518051215E+03  0.39528204504E+03 -0.66643283260E+03  0.79801767237E+03  0.11122319260E+03 0.  0.
    9900016    2    1    2    0    0  0.10067642952E+03 -0.60280572693E+03 -0.14834452370E+03  0.19146173875E+04  0.18083813633E+04 0.  0.
         24    2    5    5    0    0 -0.29207037845E+03 -0.14370345660E+03  0.75602074947E+03  0.82700463607E+03  0.80084362085E+02 0.  0.
        -15    1    4    4    0    0  0.12576616444E+03  0.20023659216E+03 -0.30123714510E+03  0.38295644471E+03  0.00000000000E+00 0. -1.
        -15    1    6    6    0    0 -0.25742983089E+02 -0.35786804727E+02  0.14930887721E+03  0.15568088317E+03  0.00000000000E+00 0.  1.
         15    1    5    5    0    0  0.39274680797E+03 -0.45910227033E+03 -0.90436527317E+03  0.10876127515E+04  0.00000000000E+00 0. -1.
         15    1    4    4    0    0  0.29414347712E+02  0.19504545288E+03 -0.36519568750E+03  0.41506122766E+03  0.00000000000E+00 0.  1.
        -16    1    3    3    0    0 -0.53647843182E+03  0.56399055581E+03  0.11311857475E+04  0.13731262324E+04  0.00000000000E+00 0.  1.
         16    1    6    6    0    0 -0.26632739536E+03 -0.10791665187E+03  0.60671187227E+03  0.67132375291E+03  0.00000000000E+00 0. -1.
    9900018    1    1    2    0    0  0.28062149015E+03 -0.35646687391E+03 -0.11482511711E+03  0.47677776673E+03  0.91187600000E+02 0.  0.
<mgrwt>
<rscale>  0 0.45580837E+04</rscale>
<asrwt>0</asrwt>
<pdfrwt beam="1">  1        2 0.33545814E+00 0.45580837E+04</pdfrwt>
<pdfrwt beam="2">  1       -2 0.36647095E+00 0.45580837E+04</pdfrwt>
<totfact> 0.48845841E-02</totfact>
</mgrwt>
</event>
<event>
12    1  0.1399853E-008  0.5509591E+04  0.7818608E-02  0.7754371E-01
          2   -1    0    0  501    0  0.00000000000E+00  0.00000000000E+00  0.43012393614E+04  0.43012393614E+04  0.00000000000E+00 0. -1.
         -2   -1    0    0    0  501 -0.00000000000E+00 -0.00000000000E+00 -0.17643514854E+04  0.17643514854E+04  0.00000000000E+00 0.  1.
    9900016    2    1    2    0    0 -0.13542765127E+04  0.67777230824E+02  0.21152026738E+04  0.31209316417E+04  0.18513436566E+04 0.  0.
    9900016    2    1    2    0    0  0.33919175896E+03 -0.75216385293E+02  0.45998649220E+03  0.19247403036E+04  0.18363902389E+04 0.  0.
        -24    2    4    4    0    0  0.14349552599E+03 -0.95158450421E+03  0.31136704325E+03  0.10145722773E+04  0.79394179156E+02 0.  0.
        -15    1    4    4    0    0  0.19569623298E+03  0.87636811892E+03  0.14861944896E+03  0.91016802628E+03  0.00000000000E+00 0.  1.
        -15    1    3    3    0    0  0.17472732584E+03  0.25325663265E+03  0.23307937433E+03  0.38599812838E+03  0.00000000000E+00 0.  1.
         15    1    3    3    0    0 -0.17884406571E+03  0.29360527034E+03 -0.30628573015E+02  0.34514832188E+03  0.00000000000E+00 0. -1.
         15    1    5    5    0    0  0.13198381627E+03 -0.64254085158E+03  0.19795949195E+03  0.68517620665E+03  0.00000000000E+00 0. -1.
        -16    1    5    5    0    0  0.11511709722E+02 -0.30904365263E+03  0.11340755129E+03  0.32939607069E+03  0.00000000000E+00 0.  1.
         16    1    3    3    0    0 -0.13501597728E+04 -0.47908467217E+03  0.19127518725E+04  0.23897851914E+04  0.00000000000E+00 0. -1.
    9900018    1    1    2    0    0  0.10150847538E+04  0.74391544694E+01 -0.38301290086E+02  0.10199189014E+04  0.91187600000E+02 0.  0.
<mgrwt>
<rscale>  0 0.55095909E+04</rscale>
<asrwt>0</asrwt>
<pdfrwt beam="1">  1        2 0.66172913E+00 0.55095909E+04</pdfrwt>
<pdfrwt beam="2">  1       -2 0.27143869E+00 0.55095909E+04</pdfrwt>
<totfact> 0.62324202E-03</totfact>
</mgrwt>
</event>
<event>
13    1  0.1399853E-008  0.5402142E+04  0.7818608E-02  0.7769300E-01
         -2   -1    0    0    0  501 -0.00000000000E+00  0.00000000000E+00  0.23719187181E+04  0.23719187181E+04  0.00000000000E+00 0.  1.
          2   -1    0    0  501    0  0.00000000000E+00 -0.00000000000E+00 -0.30758998630E+04  0.30758998630E+04  0.00000000000E+00 0. -1.
    9900016    2    1    2    0    0  0.11031070266E+04 -0.53026700893E+03  0.36667916890E+03  0.22374228515E+04  0.18367305711E+04 0.  0.
         23    2    3    3    0    0 -0.47049385388E+03 -0.11239492507E+02 -0.14487258155E+03  0.50326758539E+03  0.10392018517E+03 0.  0.
    9900016    2    1    2    0    0 -0.12561580270E+04  0.75563396869E+03 -0.14255686138E+04  0.27537887267E+04  0.18445028585E+04 0.  0.
         24    2    5    5    0    0 -0.73731947482E+03 -0.38849562402E+02  0.28685133124E+03  0.79604012362E+03  0.79037305964E+02 0.  0.
        -15    1    6    6    0    0 -0.32207601153E+03 -0.38251174821E+02  0.90599917296E+02  0.33675577885E+03  0.00000000000E+00 0.  1.
        -15    1    4    4    0    0 -0.19146921996E+03  0.45878272473E+02 -0.67435056213E+02  0.20811719027E+03  0.00000000000E+00 0.  1.
         15    1    5    5    0    0 -0.51883855219E+03  0.79448353109E+03 -0.17124199451E+04  0.19577486030E+04  0.00000000000E+00 0. -1.
         15    1    4    4    0    0 -0.27902463392E+03 -0.57117764980E+02 -0.77437525335E+02  0.29515039512E+03  0.00000000000E+00 0. -1.
        -16    1    3    3    0    0  0.15736008804E+04 -0.51902751643E+03  0.51155175045E+03  0.17341552661E+04  0.00000000000E+00 0.  1.
         16    1    6    6    0    0 -0.41524346329E+03 -0.59838758078E+00  0.19625141395E+03  0.45928434477E+03  0.00000000000E+00 0. -1.
    9900018    1    1    2    0    0  0.15305100046E+03 -0.22536695976E+03  0.35490829999E+03  0.45660700289E+03  0.91187600000E+02 0.  0.
<mgrwt>
<rscale>  0 0.54021420E+04</rscale>
<asrwt>0</asrwt>
<pdfrwt beam="1">  1        2 0.47321537E+00 0.54021420E+04</pdfrwt>
<pdfrwt beam="2">  1       -2 0.36491057E+00 0.54021420E+04</pdfrwt>
<totfact> 0.13753394E-02</totfact>
</mgrwt>
</event>
<event>
13    1  0.1399853E-008  0.4512019E+04  0.7818608E-02  0.7908536E-01
          2   -1    0    0  501    0  0.00000000000E+00  0.00000000000E+00  0.31395283722E+04  0.31395283722E+04  0.00000000000E+00 0. -1.
         -2   -1    0    0    0  501 -0.00000000000E+00 -0.00000000000E+00 -0.16211284858E+04  0.16211284858E+04  0.00000000000E+00 0.  1.
    9900016    2    1    2    0    0  0.25816616096E+03  0.57625910857E+03  0.14815735669E+04  0.24265284344E+04  0.18150084523E+04 0.  0.
         23    2    3    3    0    0 -0.38667989159E+03  0.11022663089E+02  0.15178806449E+04  0.15682529107E+04  0.76241077235E+02 0.  0.
    9900016    2    1    2    0    0 -0.47441197342E+03 -0.42246659870E+03 -0.20603391219E+03  0.19630345568E+04  0.18459441894E+04 0.  0.
        -24    2    5    5    0    0 -0.15903243634E+03 -0.11406706744E+04 -0.97771929042E+01  0.11544567642E+04  0.79081753619E+02 0.  0.
        -15    1    5    5    0    0 -0.31537953708E+03  0.71820407567E+03 -0.19625671929E+03  0.80857779254E+03  0.00000000000E+00 0.  1.
        -15    1    4    4    0    0 -0.36878190795E+03  0.26394355096E+02  0.14497733458E+04  0.14961749603E+04  0.00000000000E+00 0. -1.
         15    1    6    6    0    0 -0.10525502651E+03 -0.96068059433E+03 -0.14673078732E+02  0.96654080315E+03  0.00000000000E+00 0. -1.
         15    1    4    4    0    0 -0.17897983641E+02 -0.15371692008E+02  0.68107299138E+02  0.72077950370E+02  0.00000000000E+00 0.  1.
        -16    1    6    6    0    0 -0.53777409831E+02 -0.17999008005E+03  0.48958858276E+01  0.18791596106E+03  0.00000000000E+00 0.  1.
         16    1    3    3    0    0  0.64484605255E+03  0.56523644548E+03 -0.36307078016E+02  0.85827552377E+03  0.00000000000E+00 0. -1.
    9900018    1    1    2    0    0  0.21624581246E+03 -0.15379250987E+03  0.24286023161E+03  0.37109386682E+03  0.91187600000E+02 0.  0.
<mgrwt>
<rscale>  0 0.45120190E+04</rscale>
<asrwt>0</asrwt>
<pdfrwt beam="1">  1        2 0.48300437E+00 0.45120190E+04</pdfrwt>
<pdfrwt beam="2">  1       -2 0.24940438E+00 0.45120190E+04</pdfrwt>
<totfact> 0.69573674E-02</totfact>
</mgrwt>
</event>
<event>
12    1  0.1399853E-008  0.5662304E+04  0.7818608E-02  0.7733743E-01
          2   -1    0    0  501    0  0.00000000000E+00  0.00000000000E+00  0.20119313138E+04  0.20119313138E+04  0.00000000000E+00 0. -1.
         -2   -1    0    0    0  501 -0.00000000000E+00 -0.00000000000E+00 -0.39839444451E+04  0.39839444451E+04  0.00000000000E+00 0.  1.
    9900016    2    1    2    0    0 -0.10945807509E+04 -0.13673958460E+04 -0.62777506737E+03  0.26187413149E+04  0.18427767415E+04 0.  0.
    9900016    2    1    2    0    0  0.30176577755E+03  0.53251996996E+03 -0.86423239610E+03  0.21264170779E+04  0.18439392213E+04 0.  0.
        -24    2    4    4    0    0  0.72051500791E+03  0.99297828295E+03 -0.25527610670E+03  0.12556699629E+04  0.79958851718E+02 0.  0.
        -15    1    3    3    0    0 -0.89462388107E+03 -0.22875916759E+03 -0.54280513523E+03  0.10711302723E+04  0.00000000000E+00 0.  1.
        -15    1    4    4    0    0 -0.41874923036E+03 -0.46045831299E+03 -0.60895628940E+03  0.87074711503E+03  0.00000000000E+00 0.  1.
         15    1    3    3    0    0 -0.44064361605E+03 -0.68125148447E+02 -0.61714538510E+02  0.45012944413E+03  0.00000000000E+00 0. -1.
         15    1    5    5    0    0  0.59536226223E+03  0.76509429171E+03 -0.20359848929E+03  0.99059469176E+03  0.00000000000E+00 0. -1.
        -16    1    5    5    0    0  0.12515274568E+03  0.22788399124E+03 -0.51677617416E+02  0.26507527112E+03  0.00000000000E+00 0.  1.
         16    1    3    3    0    0  0.24068674621E+03 -0.10705115300E+04 -0.23255393627E+02  0.10974815985E+04  0.00000000000E+00 0. -1.
    9900018    1    1    2    0    0  0.79281497336E+03  0.83487587608E+03 -0.48000566777E+03  0.12507173661E+04  0.91187600000E+02 0.  0.
<mgrwt>
<rscale>  0 0.56623043E+04</rscale>
<asrwt>0</asrwt>
<pdfrwt beam="1">  1        2 0.30952790E+00 0.56623043E+04</pdfrwt>
<pdfrwt beam="2">  1       -2 0.61291452E+00 0.56623043E+04</pdfrwt>
<totfact> 0.20968343E-03</totfact>
</mgrwt>
</event>
<event>
13    1  0.1399853E-008  0.4808958E+04  0.7818608E-02  0.7858673E-01
          2   -1    0    0  501    0  0.00000000000E+00  0.00000000000E+00  0.39921276206E+04  0.39921276206E+04  0.00000000000E+00 0. -1.
         -2   -1    0    0    0  501 -0.00000000000E+00 -0.00000000000E+00 -0.14482298148E+04  0.14482298148E+04  0.00000000000E+00 0.  1.
    9900016    2    1    2    0    0 -0.14996642967E+03 -0.11540190302E+04  0.36755192131E+03  0.22110278607E+04  0.18437190496E+04 0.  0.
         23    2    3    3    0    0 -0.98381777545E+00  0.85388478628E+02 -0.60917662968E+03  0.62599617212E+03  0.11611580933E+03 0.  0.
    9900016    2    1    2    0    0  0.46174882686E+02  0.82885984164E+03  0.17370293529E+04  0.26655784094E+04  0.18436096460E+04 0.  0.
         24    2    5    5    0    0  0.43189432841E+03 -0.28571563268E+03  0.13106004094E+04  0.14114254591E+04  0.79260708719E+02 0.  0.
        -15    1    4    4    0    0 -0.33730437426E+02 -0.50416148201E+01 -0.65184127111E+02  0.73567185050E+02  0.00000000000E+00 0.  1.
        -15    1    6    6    0    0  0.21185461095E+03 -0.11307225693E+03  0.69358485237E+03  0.73398069383E+03  0.00000000000E+00 0.  1.
         15    1    4    4    0    0  0.32746619650E+02  0.90430093448E+02 -0.54399250257E+03  0.55242898707E+03  0.00000000000E+00 0. -1.
         15    1    5    5    0    0 -0.38571944572E+03  0.11145754743E+04  0.42642894355E+03  0.12541529503E+04  0.00000000000E+00 0. -1.
        -16    1    3    3    0    0 -0.14898261189E+03 -0.12394075088E+04  0.97672855099E+03  0.15850316886E+04  0.00000000000E+00 0.  1.
         16    1    6    6    0    0  0.22003971746E+03 -0.17264337575E+03  0.61701555699E+03  0.67744476529E+03  0.00000000000E+00 0. -1.
    9900018    1    1    2    0    0  0.10379154698E+03  0.32515918856E+03  0.43931653150E+03  0.56375116530E+03  0.91187600000E+02 0.  0.
<mgrwt>
<rscale>  0 0.48089576E+04</rscale>
<asrwt>0</asrwt>
<pdfrwt beam="1">  1        2 0.61417347E+00 0.48089576E+04</pdfrwt>
<pdfrwt beam="2">  1       -2 0.22280459E+00 0.48089576E+04</pdfrwt>
<totfact> 0.24238896E-02</totfact>
</mgrwt>
</event>
<event>
13    1  0.1399853E-008  0.4955145E+04  0.7818608E-02  0.7835464E-01
          2   -1    0    0  501    0  0.00000000000E+00  0.00000000000E+00  0.29410764844E+04  0.29410764844E+04  0.00000000000E+00 0. -1.
         -2   -1    0    0    0  501 -0.00000000000E+00 -0.00000000000E+00 -0.20871149368E+04  0.20871149368E+04  0.00000000000E+00 0.  1.
    9900016    2    1    2    0    0 -0.69617660367E+03 -0.34812001136E+01 -0.70733234164E+03  0.20915472404E+04  0.18410803445E+04 0.  0.
         23    2    3    3    0    0  0.36477091556E+03  0.22829028133E+03 -0.88637115727E+03  0.99091898541E+03  0.10532014910E+03 0.  0.
    9900016    2    1    2    0    0  0.17897695991E+03  0.26297562792E+03  0.10348310902E+04  0.21490458778E+04  0.18564304099E+04 0.  0.
        -24    2    5    5    0    0  0.68185976442E+03  0.92822491703E+02  0.13601316021E+04  0.15264194828E+04  0.80310081512E+02 0.  0.
        -15    1    5    5    0    0 -0.50288280451E+03  0.17015313622E+03 -0.32530051185E+03  0.62262639507E+03  0.00000000000E+00 0.  1.
        -15    1    4    4    0    0  0.23227232165E+03  0.97990623648E+02 -0.58276286668E+03  0.63495287424E+03  0.00000000000E+00 0.  1.
         15    1    4    4    0    0  0.13249859391E+03  0.13029965769E+03 -0.30360829059E+03  0.35596611116E+03  0.00000000000E+00 0. -1.
         15    1    6    6    0    0  0.64545448114E+03  0.78889422773E+02  0.12405119955E+04  0.14006088102E+04  0.00000000000E+00 0. -1.
        -16    1    6    6    0    0  0.36405283281E+02  0.13933068930E+02  0.11961960654E+03  0.12581067256E+03  0.00000000000E+00 0.  1.
         16    1    3    3    0    0 -0.10609475192E+04 -0.23177148145E+03  0.17903881563E+03  0.11006282550E+04  0.00000000000E+00 0. -1.
    9900018    1    1    2    0    0  0.51719964376E+03 -0.25949442780E+03  0.52646279908E+03  0.78759830293E+03  0.91187600000E+02 0.  0.
<mgrwt>
<rscale>  0 0.49551447E+04</rscale>
<asrwt>0</asrwt>
<pdfrwt beam="1">  1        2 0.45247331E+00 0.49551447E+04</pdfrwt>
<pdfrwt beam="2">  1       -2 0.32109460E+00 0.49551447E+04</pdfrwt>
<totfact> 0.32625471E-02</totfact>
</mgrwt>
</event>
<event>
13    1  0.1399853E-008  0.5924176E+04  0.7818608E-02  0.7699875E-01
         -2   -1    0    0    0  501 -0.00000000000E+00  0.00000000000E+00  0.45926116577E+04  0.45926116577E+04  0.00000000000E+00 0.  1.
          2   -1    0    0  501    0  0.00000000000E+00 -0.00000000000E+00 -0.19104522052E+04  0.19104522052E+04  0.00000000000E+00 0. -1.
    9900016    2    1    2    0    0  0.90674558066E+03  0.17222815934E+03  0.21039989993E+04  0.29532341792E+04  0.18555134711E+04 0.  0.
         23    2    3    3    0    0 -0.41421838023E+02  0.10310572824E+03 -0.32208967578E+03  0.34752782133E+03  0.68463621686E+02 0.  0.
    9900016    2    1    2    0    0  0.63587094375E+03 -0.19329321728E+03  0.37999161614E+03  0.19917232867E+04  0.18387152845E+04 0.  0.
         24    2    5    5    0    0  0.93959645666E+03  0.13837436752E+03  0.89536804677E+03  0.13077163867E+04  0.80307171697E+02 0.  0.
        -15    1    4    4    0    0 -0.66159163252E+01  0.65954177474E+02 -0.25402508770E+03  0.26253089162E+03  0.00000000000E+00 0.  1.
        -15    1    6    6    0    0  0.68711152997E+03  0.11926557283E+03  0.69786807563E+03  0.98659332172E+03  0.00000000000E+00 0.  1.
         15    1    4    4    0    0 -0.34805921697E+02  0.37151550767E+02 -0.68064588082E+02  0.84996929711E+02  0.00000000000E+00 0. -1.
         15    1    5    5    0    0 -0.30372551291E+03 -0.33166758479E+03 -0.51537643063E+03  0.68400690000E+03  0.00000000000E+00 0. -1.
        -16    1    3    3    0    0  0.94816741868E+03  0.69122431096E+02  0.24260886750E+04  0.26057063579E+04  0.00000000000E+00 0.  1.
         16    1    6    6    0    0  0.25248492669E+03  0.19108794682E+02  0.19749997114E+03  0.32112306495E+03  0.00000000000E+00 0. -1.
    9900018    1    1    2    0    0 -0.15426165244E+04  0.21065057938E+02  0.19816883704E+03  0.15581063970E+04  0.91187600000E+02 0.  0.
<mgrwt>
<rscale>  0 0.59241759E+04</rscale>
<asrwt>0</asrwt>
<pdfrwt beam="1">  1        2 0.29391572E+00 0.59241759E+04</pdfrwt>
<pdfrwt beam="2">  1       -2 0.70655564E+00 0.59241759E+04</pdfrwt>
<totfact> 0.11113913E-03</totfact>
</mgrwt>
</event>
<event>
13    1  0.1560985E-008  0.5896150E+04  0.7818608E-02  0.7703413E-01
          2   -1    0    0  501    0  0.00000000000E+00  0.00000000000E+00  0.39802224903E+04  0.39802224903E+04  0.00000000000E+00 0. -1.
         -2   -1    0    0    0  501 -0.00000000000E+00 -0.00000000000E+00 -0.21835830760E+04  0.21835830760E+04  0.00000000000E+00 0.  1.
    9900016    2    1    2    0    0 -0.17925670027E+04  0.64092737142E+02  0.73870300870E+03  0.26748840317E+04  0.18417160774E+04 0.  0.
         23    2    3    3    0    0  0.23522386389E+03  0.41520134168E+03  0.42564072161E-01  0.48837258570E+03  0.10385258961E+03 0.  0.
    9900016    2    1    2    0    0  0.73807372620E+03 -0.65805080399E+03  0.83300810817E+03  0.22545592811E+04  0.18469843956E+04 0.  0.
         24    2    5    5    0    0  0.99987709732E+01 -0.23504852238E+03  0.12780101307E+04  0.13021670979E+04  0.83555211539E+02 0.  0.
        -15    1    4    4    0    0  0.13753610051E+03  0.13960235345E+03  0.43865508227E+00  0.19597241758E+03  0.00000000000E+00 0.  1.
        -15    1    6    6    0    0 -0.19475545000E+02 -0.20454526542E+03  0.99475802344E+03  0.10157566577E+04  0.00000000000E+00 0.  1.
         15    1    5    5    0    0  0.72807495523E+03 -0.42300228161E+03 -0.44500202249E+03  0.95239218324E+03  0.00000000000E+00 0. -1.
         15    1    4    4    0    0  0.97687763381E+02  0.27559898823E+03 -0.39609101011E+00  0.29240016812E+03  0.00000000000E+00 0. -1.
        -16    1    3    3    0    0 -0.20277908666E+04 -0.35110860454E+03  0.73866044462E+03  0.21865114460E+04  0.00000000000E+00 0.  1.
         16    1    6    6    0    0  0.29474315973E+02 -0.30503256961E+02  0.28325210722E+03  0.28641044016E+03  0.00000000000E+00 0. -1.
    9900018    1    1    2    0    0  0.10544932765E+04  0.59395806684E+03  0.22492829746E+03  0.12343622535E+04  0.91187600000E+02 0.  0.
<mgrwt>
<rscale>  0 0.58961501E+04</rscale>
<asrwt>0</asrwt>
<pdfrwt beam="1">  1        2 0.61234192E+00 0.58961501E+04</pdfrwt>
<pdfrwt beam="2">  1       -2 0.33593586E+00 0.58961501E+04</pdfrwt>
<totfact> 0.45676274E-03</totfact>
</mgrwt>
</event>
<event>
12    1  0.1399853E-008  0.5966539E+04  0.7818608E-02  0.7694564E-01
         -2   -1    0    0    0  501 -0.00000000000E+00  0.00000000000E+00  0.29981334619E+04  0.29981334619E+04  0.00000000000E+00 0.  1.
          2   -1    0    0  501    0  0.00000000000E+00 -0.00000000000E+00 -0.29684793883E+04  0.29684793883E+04  0.00000000000E+00 0. -1.
    9900016    2    1    2    0    0  0.45666154516E+03  0.70103124866E+03 -0.82023128583E+02  0.20218523502E+04  0.18387970399E+04 0.  0.
    9900016    2    1    2    0    0 -0.17580986524E+04 -0.57596252056E+03 -0.13808941310E+03  0.26105643857E+04  0.18366638313E+04 0.  0.
        -24    2    4    4    0    0 -0.95997729489E+03 -0.11744077826E+04 -0.41647503075E+03  0.15748844230E+04  0.77585102753E+02 0.  0.
        -15    1    3    3    0    0 -0.45579985226E+02  0.59964664481E+02  0.85456033763E+02  0.11391237749E+03  0.00000000000E+00 0. -1.
        -15    1    4    4    0    0 -0.79812135752E+03  0.59844526200E+03  0.27838561765E+03  0.10356799627E+04  0.00000000000E+00 0.  1.
         15    1    5    5    0    0 -0.50352989888E+03 -0.61200170148E+03 -0.17747738279E+03  0.81214940934E+03  0.00000000000E+00 0. -1.
         15    1    3    3    0    0 -0.36578994808E+03  0.17207384548E+02  0.52072925242E+03  0.63659825206E+03  0.00000000000E+00 0.  1.
        -16    1    5    5    0    0 -0.45644739601E+03 -0.56240608107E+03 -0.23899764796E+03  0.76273501367E+03  0.00000000000E+00 0.  1.
         16    1    3    3    0    0  0.86803147847E+03  0.62385919963E+03 -0.68820841476E+03  0.12713417207E+04  0.00000000000E+00 0. -1.
    9900018    1    1    2    0    0  0.13014371073E+04 -0.12506872810E+03  0.24976661531E+03  0.13341961143E+04  0.91187600000E+02 0.  0.
<mgrwt>
<rscale>  0 0.59665392E+04</rscale>
<asrwt>0</asrwt>
<pdfrwt beam="1">  1        2 0.45668913E+00 0.59665392E+04</pdfrwt>
<pdfrwt beam="2">  1       -2 0.46125130E+00 0.59665392E+04</pdfrwt>
<totfact> 0.36174757E-03</totfact>
</mgrwt>
</event>
<event>
13    1  0.1399853E-008  0.4573241E+04  0.7818608E-02  0.7897939E-01
          2   -1    0    0  501    0  0.00000000000E+00  0.00000000000E+00  0.24672568589E+04  0.24672568589E+04  0.00000000000E+00 0. -1.
         -2   -1    0    0    0  501 -0.00000000000E+00 -0.00000000000E+00 -0.21192087209E+04  0.21192087209E+04  0.00000000000E+00 0.  1.
    9900016    2    1    2    0    0 -0.11221108851E+03 -0.47236453670E+02 -0.89992777237E+03  0.20548323708E+04  0.18432697756E+04 0.  0.
         23    2    3    3    0    0 -0.23122027428E+03 -0.44161804532E+03 -0.13507856483E+04  0.14441173388E+04  0.11119220925E+03 0.  0.
    9900016    2    1    2    0    0 -0.20559176386E+03 -0.28107931863E+02  0.95842093886E+03  0.20857266164E+04  0.18408223144E+04 0.  0.
        -24    2    5    5    0    0  0.36126965574E+03  0.11755998884E+03  0.13345983569E+04  0.13899820785E+04  0.81001784258E+02 0.  0.
        -15    1    5    5    0    0 -0.56686141961E+03 -0.14566792071E+03 -0.37617741807E+03  0.69574453791E+03  0.00000000000E+00 0.  1.
        -15    1    4    4    0    0 -0.15834991933E+03 -0.37469445220E+03 -0.99791102737E+03  0.10776349326E+04  0.00000000000E+00 0. -1.
         15    1    4    4    0    0 -0.72870354948E+02 -0.66923593117E+02 -0.35287462088E+03  0.36648240614E+03  0.00000000000E+00 0.  1.
         15    1    6    6    0    0  0.12415861490E+03  0.30756123740E+02  0.59097010064E+03  0.60465441423E+03  0.00000000000E+00 0. -1.
        -16    1    6    6    0    0  0.23711104085E+03  0.86803865103E+02  0.74362825629E+03  0.78532766426E+03  0.00000000000E+00 0.  1.
         16    1    3    3    0    0  0.11900918577E+03  0.39438159165E+03  0.45085787588E+03  0.61071503205E+03  0.00000000000E+00 0. -1.
    9900018    1    1    2    0    0  0.31780285237E+03  0.75344385532E+02  0.28955497147E+03  0.44590659258E+03  0.91187600000E+02 0.  0.
<mgrwt>
<rscale>  0 0.45732405E+04</rscale>
<asrwt>0</asrwt>
<pdfrwt beam="1">  1        2 0.37957798E+00 0.45732405E+04</pdfrwt>
<pdfrwt beam="2">  1       -2 0.32603211E+00 0.45732405E+04</pdfrwt>
<totfact> 0.60180822E-02</totfact>
</mgrwt>
</event>
<event>
13    1  0.1399853E-008  0.5945857E+04  0.7818608E-02  0.7697151E-01
          2   -1    0    0  501    0  0.00000000000E+00  0.00000000000E+00  0.36777611989E+04  0.36777611989E+04  0.00000000000E+00 0.  1.
         -2   -1    0    0    0  501 -0.00000000000E+00 -0.00000000000E+00 -0.24031746387E+04  0.24031746387E+04  0.00000000000E+00 0. -1.
    9900016    2    1    2    0    0  0.41719232695E+03  0.84010657802E+03  0.16339045263E+04  0.26424951751E+04  0.18529188458E+04 0.  0.
         23    2    3    3    0    0 -0.74086360772E+02 -0.36501439937E+03  0.12154316760E+04  0.12754579241E+04  0.10389637424E+03 0.  0.
    9900016    2    1    2    0    0 -0.94658778171E+01  0.30378697456E+03 -0.93056939937E+03  0.20933099271E+04  0.18503002229E+04 0.  0.
         24    2    5    5    0    0 -0.32454909332E+03 -0.33162355604E+03 -0.12348174206E+04  0.13215646106E+04  0.80328456675E+02 0.  0.
        -15    1    4    4    0    0 -0.89492231765E+01 -0.63720401223E+02  0.10603087320E+03  0.12402791702E+03  0.00000000000E+00 0. -1.
        -15    1    6    6    0    0 -0.19182513561E+03 -0.14913595451E+03 -0.57503443783E+03  0.62426198048E+03  0.00000000000E+00 0.  1.
         15    1    5    5    0    0  0.31508321550E+03  0.63541053060E+03  0.30424802119E+03  0.77174531647E+03  0.00000000000E+00 0. -1.
         15    1    4    4    0    0 -0.65137137596E+02 -0.30129399815E+03  0.11094008027E+04  0.11514300071E+04  0.00000000000E+00 0.  1.
        -16    1    3    3    0    0  0.49127868772E+03  0.12051209774E+04  0.41847285034E+03  0.13670372510E+04  0.00000000000E+00 0.  1.
         16    1    6    6    0    0 -0.13272395771E+03 -0.18248760152E+03 -0.65978298273E+03  0.69730263011E+03  0.00000000000E+00 0. -1.
    9900018    1    1    2    0    0 -0.40772644913E+03 -0.11438935526E+04  0.57125143334E+03  0.13451307355E+04  0.91187600000E+02 0.  0.
<mgrwt>
<rscale>  0 0.59458565E+04</rscale>
<asrwt>0</asrwt>
<pdfrwt beam="1">  1        2 0.56580941E+00 0.59458565E+04</pdfrwt>
<pdfrwt beam="2">  1       -2 0.36971918E+00 0.59458565E+04</pdfrwt>
<totfact> 0.47636602E-03</totfact>
</mgrwt>
</event>
<event>
13    1  0.1399853E-008  0.5119939E+04  0.7818608E-02  0.7810267E-01
          1   -1    0    0  501    0  0.00000000000E+00  0.00000000000E+00  0.18484470570E+04  0.18484470570E+04  0.00000000000E+00 0. -1.
         -1   -1    0    0    0  501 -0.00000000000E+00 -0.00000000000E+00 -0.35453785981E+04  0.35453785981E+04  0.00000000000E+00 0.  1.
    9900016    2    1    2    0    0 -0.65378836369E+03  0.80298683461E+03  0.71474932471E+02  0.21200026604E+04  0.18485333465E+04 0.  0.
         23    2    3    3    0    0  0.24984750233E+03  0.18094557158E+03  0.76114776456E+03  0.82418564916E+03  0.69072356862E+02 0.  0.
    9900016    2    1    2    0    0  0.27864113353E+03 -0.60059266922E+03 -0.64898025571E+03  0.20725199197E+04  0.18535940790E+04 0.  0.
         24    2    5    5    0    0  0.52151751530E+02 -0.30017166738E+03 -0.12907270664E+04  0.13286185905E+04  0.80175831190E+02 0.  0.
        -15    1    4    4    0    0  0.18837453381E+03  0.99490327091E+02  0.48239982548E+03  0.52734512589E+03  0.00000000000E+00 0. -1.
        -15    1    6    6    0    0  0.29803005822E+01 -0.10489152554E+03 -0.30541635923E+03  0.32294003593E+03  0.00000000000E+00 0.  1.
         15    1    5    5    0    0  0.22648938200E+03 -0.30042100185E+03  0.64174681072E+03  0.74390132920E+03  0.00000000000E+00 0. -1.
         15    1    4    4    0    0  0.61472968527E+02  0.81455244486E+02  0.27874793908E+03  0.29684052327E+03  0.00000000000E+00 0.  1.
        -16    1    3    3    0    0 -0.90363586602E+03  0.62204126303E+03 -0.68967283209E+03  0.12958170112E+04  0.00000000000E+00 0.  1.
         16    1    6    6    0    0  0.49171450948E+02 -0.19528014184E+03 -0.98531070720E+03  0.10056785546E+04  0.00000000000E+00 0. -1.
    9900018    1    1    2    0    0  0.37514723016E+03 -0.20239416539E+03 -0.11194262178E+04  0.12013030750E+04  0.91187600000E+02 0.  0.
<mgrwt>
<rscale>  0 0.51199393E+04</rscale>
<asrwt>0</asrwt>
<pdfrwt beam="1">  1        1 0.28437648E+00 0.51199393E+04</pdfrwt>
<pdfrwt beam="2">  1       -1 0.54544285E+00 0.51199393E+04</pdfrwt>
<totfact> 0.21686750E-03</totfact>
</mgrwt>
</event>
<event>
13    1  0.1399853E-008  0.4662881E+04  0.7818608E-02  0.7882726E-01
          2   -1    0    0  501    0  0.00000000000E+00  0.00000000000E+00  0.49560024836E+04  0.49560024836E+04  0.00000000000E+00 0. -1.
         -2   -1    0    0    0  501 -0.00000000000E+00 -0.00000000000E+00 -0.10967739914E+04  0.10967739914E+04  0.00000000000E+00 0.  1.
    9900016    2    1    2    0    0 -0.60499934680E+03 -0.89126566577E+03  0.12307484654E+04  0.24387033631E+04  0.18089095089E+04 0.  0.
         23    2    3    3    0    0 -0.31668700224E+03 -0.10721988023E+03  0.15160586589E+04  0.15559498820E+04  0.10372761417E+03 0.  0.
    9900016    2    1    2    0    0  0.20740121211E+03  0.91710739984E+03  0.21791426530E+04  0.30066430124E+04  0.18458435081E+04 0.  0.
         24    2    5    5    0    0 -0.69404988725E+03  0.26401236539E+03  0.26526571296E+03  0.79258064875E+03  0.80065043800E+02 0.  0.
        -15    1    6    6    0    0 -0.33409587113E+03  0.11391296234E+03  0.16646180297E+03  0.39026368771E+03  0.00000000000E+00 0.  1.
        -15    1    4    4    0    0 -0.13165089454E+03 -0.38717818625E+01  0.44315103750E+03  0.46230919390E+03  0.00000000000E+00 0.  1.
         15    1    4    4    0    0 -0.18503610769E+03 -0.10334809837E+03  0.10729076214E+04  0.10936406881E+04  0.00000000000E+00 0. -1.
         15    1    5    5    0    0  0.90145109936E+03  0.65309503445E+03  0.19138769401E+04  0.22140623637E+04  0.00000000000E+00 0. -1.
        -16    1    3    3    0    0 -0.28831234456E+03 -0.78404578553E+03 -0.28531019350E+03  0.88275348108E+03  0.00000000000E+00 0.  1.
         16    1    6    6    0    0 -0.35995401612E+03  0.15009940305E+03  0.98803909986E+02  0.40231696105E+03  0.00000000000E+00 0. -1.
    9900018    1    1    2    0    0  0.39759813469E+03 -0.25841734079E+02  0.44933737371E+03  0.60743009946E+03  0.91187600000E+02 0.  0.
<mgrwt>
<rscale>  0 0.46628809E+04</rscale>
<asrwt>0</asrwt>
<pdfrwt beam="1">  1        2 0.76246191E+00 0.46628809E+04</pdfrwt>
<pdfrwt beam="2">  1       -2 0.16873446E+00 0.46628809E+04</pdfrwt>
<totfact> 0.62449691E-03</totfact>
</mgrwt>
</event>
<event>
12    1  0.1399853E-008  0.6168857E+04  0.7818608E-02  0.7669811E-01
         -2   -1    0    0    0  501 -0.00000000000E+00  0.00000000000E+00  0.27587852952E+04  0.27587852952E+04  0.00000000000E+00 0.  1.
          2   -1    0    0  501    0  0.00000000000E+00 -0.00000000000E+00 -0.34485100367E+04  0.34485100367E+04  0.00000000000E+00 0. -1.
    9900016    2    1    2    0    0  0.73737926809E+03  0.48453069901E+02 -0.24875726710E+04  0.31880857099E+04  0.18519710623E+04 0.  0.
    9900016    2    1    2    0    0 -0.81130766426E+03  0.24101308519E+03  0.12185778064E+04  0.23610872043E+04  0.18367072393E+04 0.  0.
         24    2    4    4    0    0  0.56765285713E+03 -0.94049443907E+02  0.20052637266E+03  0.61459708421E+03  0.80272571157E+02 0.  0.
        -15    1    5    5    0    0  0.24726715396E+03 -0.23675895484E+02  0.12461788285E+03  0.27790503806E+03  0.00000000000E+00 0.  1.
        -15    1    3    3    0    0  0.58286298108E+03  0.16578738883E+03 -0.21165685695E+04  0.22016078720E+04  0.00000000000E+00 0. -1.
         15    1    4    4    0    0 -0.13789605214E+04  0.33506252910E+03  0.10180514337E+04  0.17464901201E+04  0.00000000000E+00 0. -1.
         15    1    3    3    0    0  0.15871575657E+03  0.14441385019E+03 -0.60090867990E+03  0.63807310952E+03  0.00000000000E+00 0.  1.
        -16    1    3    3    0    0 -0.41994695637E+01 -0.26174816912E+03  0.22990457841E+03  0.34840472838E+03  0.00000000000E+00 0.  1.
         16    1    5    5    0    0  0.32038570317E+03 -0.70373548422E+02  0.75908489809E+02  0.33669204615E+03  0.00000000000E+00 0. -1.
    9900018    1    1    2    0    0  0.73928396175E+02 -0.28946615509E+03  0.57927012312E+03  0.65812241767E+03  0.91187600000E+02 0.  0.
<mgrwt>
<rscale>  0 0.61688569E+04</rscale>
<asrwt>0</asrwt>
<pdfrwt beam="1">  1        2 0.53054000E+00 0.61688569E+04</pdfrwt>
<pdfrwt beam="2">  1       -2 0.42442851E+00 0.61688569E+04</pdfrwt>
<totfact> 0.30094360E-03</totfact>
</mgrwt>
</event>
<event>
13    1  0.1399853E-008  0.5254019E+04  0.7818608E-02  0.7790474E-01
          2   -1    0    0  501    0  0.00000000000E+00  0.00000000000E+00  0.42427195012E+04  0.42427195012E+04  0.00000000000E+00 0. -1.
         -2   -1    0    0    0  501 -0.00000000000E+00 -0.00000000000E+00 -0.16265930014E+04  0.16265930014E+04  0.00000000000E+00 0.  1.
    9900016    2    1    2    0    0  0.15263935600E+04  0.66587705221E+03  0.14580682195E+04  0.28834064063E+04  0.18479177533E+04 0.  0.
         23    2    3    3    0    0 -0.25702813913E+03  0.53463063634E+03  0.45799518485E+02  0.60473980889E+03  0.10825552616E+03 0.  0.
    9900016    2    1    2    0    0 -0.14720247592E+04 -0.83907045040E+03  0.12014022348E+04  0.27781904338E+04  0.18450145377E+04 0.  0.
        -24    2    5    5    0    0 -0.14186407000E+04 -0.10170739249E+04  0.19898957847E+03  0.17586973106E+04  0.80240722565E+02 0.  0.
        -15    1    4    4    0    0 -0.71299575128E+02  0.61555539263E+02  0.16834878115E+02  0.95687653062E+02  0.00000000000E+00 0. -1.
        -15    1    5    5    0    0 -0.53384059171E+02  0.17800347446E+03  0.10024126563E+04  0.10194931232E+04  0.00000000000E+00 0.  1.
         15    1    4    4    0    0 -0.18572856400E+03  0.47307509708E+03  0.28964640371E+02  0.50905215583E+03  0.00000000000E+00 0.  1.
         15    1    6    6    0    0 -0.99944157014E+03 -0.76024148555E+03  0.14932642126E+03  0.12645746117E+04  0.00000000000E+00 0. -1.
        -16    1    6    6    0    0 -0.41919912986E+03 -0.25683243931E+03  0.49663157206E+02  0.49412269887E+03  0.00000000000E+00 0.  1.
         16    1    3    3    0    0  0.17834216991E+04  0.13124641587E+03  0.14122687010E+04  0.22786665974E+04  0.00000000000E+00 0. -1.
    9900018    1    1    2    0    0 -0.54368800784E+02  0.17319339819E+03 -0.43343954380E+02  0.20771566251E+03  0.91187600000E+02 0.  0.
<mgrwt>
<rscale>  0 0.52540186E+04</rscale>
<asrwt>0</asrwt>
<pdfrwt beam="1">  1        2 0.65272607E+00 0.52540186E+04</pdfrwt>
<pdfrwt beam="2">  1       -2 0.25024508E+00 0.52540186E+04</pdfrwt>
<totfact> 0.96797304E-03</totfact>
</mgrwt>
</event>
<event>
12    1  0.1399853E-008  0.5829734E+04  0.7818608E-02  0.7711879E-01
         -2   -1    0    0    0  501 -0.00000000000E+00  0.00000000000E+00  0.50806454568E+04  0.50806454568E+04  0.00000000000E+00 0.  1.
          2   -1    0    0  501    0  0.00000000000E+00 -0.00000000000E+00 -0.16723170397E+04  0.16723170397E+04  0.00000000000E+00 0. -1.
    9900016    2    1    2    0    0  0.51110846822E+03  0.12439616618E+04  0.17565833072E+04  0.28738439588E+04  0.18343177757E+04 0.  0.
    9900016    2    1    2    0    0 -0.84111898446E+03 -0.18701816255E+04  0.10606528811E+04  0.29524235580E+04  0.18403151559E+04 0.  0.
         24    2    4    4    0    0  0.33220176366E+03 -0.63581565078E+03  0.10191943922E+04  0.12488802671E+04  0.79530868185E+02 0.  0.
        -15    1    5    5    0    0  0.17181983974E+03 -0.26391140434E+03  0.40196218811E+03  0.51063185108E+03  0.00000000000E+00 0.  1.
        -15    1    3    3    0    0 -0.37949254103E+03  0.31357857487E+02  0.46172721908E+02  0.38357505677E+03  0.00000000000E+00 0. -1.
         15    1    4    4    0    0 -0.11733207481E+04 -0.12343659747E+04  0.41458488872E+02  0.17035432909E+04  0.00000000000E+00 0. -1.
         15    1    3    3    0    0 -0.21095107539E+03  0.69231019593E+02  0.22377748045E+03  0.31522952120E+03  0.00000000000E+00 0.  1.
        -16    1    3    3    0    0  0.11015520846E+04  0.11433727847E+04  0.14866331049E+04  0.21750393809E+04  0.00000000000E+00 0.  1.
         16    1    5    5    0    0  0.16038192391E+03 -0.37190424644E+03  0.61723220407E+03  0.73824841604E+03  0.00000000000E+00 0. -1.
    9900018    1    1    2    0    0  0.33001051624E+03  0.62621996376E+03  0.59109222883E+03  0.92669497961E+03  0.91187600000E+02 0.  0.
<mgrwt>
<rscale>  0 0.58297341E+04</rscale>
<asrwt>0</asrwt>
<pdfrwt beam="1">  1        2 0.25727955E+00 0.58297341E+04</pdfrwt>
<pdfrwt beam="2">  1       -2 0.78163776E+00 0.58297341E+04</pdfrwt>
<totfact> 0.69737209E-04</totfact>
</mgrwt>
</event>
<event>
12    1  0.1399853E-008  0.6785372E+04  0.7818608E-02  0.7599984E-01
         -2   -1    0    0    0  501 -0.00000000000E+00  0.00000000000E+00  0.35715278224E+04  0.35715278224E+04  0.00000000000E+00 0.  1.
          2   -1    0    0  501    0  0.00000000000E+00 -0.00000000000E+00 -0.32227995818E+04  0.32227995818E+04  0.00000000000E+00 0. -1.
    9900016    2    1    2    0    0 -0.77594736131E+03  0.50973881128E+03 -0.23486932460E+04  0.31271489178E+04  0.18441183332E+04 0.  0.
    9900016    2    1    2    0    0  0.50164820244E+03 -0.54440575407E+03  0.16426140580E+04  0.25729318436E+04  0.18367821820E+04 0.  0.
        -24    2    4    4    0    0  0.35042323313E+02  0.25424738626E+03 -0.31149519231E+03  0.41096263769E+03  0.77403726647E+02 0.  0.
        -15    1    3    3    0    0 -0.64622304436E+03  0.37061636850E+03 -0.26481721095E+03  0.79062561993E+03  0.00000000000E+00 0. -1.
        -15    1    4    4    0    0  0.46660587913E+03 -0.79865314034E+03  0.19541092504E+04  0.21619692059E+04  0.00000000000E+00 0.  1.
         15    1    3    3    0    0 -0.21692759211E+03  0.35168087526E+03 -0.23889512236E+03  0.47729225610E+03  0.00000000000E+00 0.  1.
         15    1    5    5    0    0  0.23722187062E+02  0.84401641584E+02 -0.56257361413E+02  0.10416942917E+03  0.00000000000E+00 0. -1.
        -16    1    5    5    0    0  0.11320136251E+02  0.16984574468E+03 -0.25523783089E+03  0.30679320851E+03  0.00000000000E+00 0.  1.
         16    1    3    3    0    0  0.87203275164E+02 -0.21255843248E+03 -0.18449809127E+04  0.18592310418E+04  0.00000000000E+00 0. -1.
    9900018    1    1    2    0    0  0.27429915886E+03  0.34666942787E+02  0.10548074286E+04  0.10942466428E+04  0.91187600000E+02 0.  0.
<mgrwt>
<rscale>  0 0.67853720E+04</rscale>
<asrwt>0</asrwt>
<pdfrwt beam="1">  1        2 0.49581532E+00 0.67853720E+04</pdfrwt>
<pdfrwt beam="2">  1       -2 0.54946582E+00 0.67853720E+04</pdfrwt>
<totfact> 0.69742391E-04</totfact>
</mgrwt>
</event>
<event>
12    1  0.1399853E-008  0.4827798E+04  0.7818608E-02  0.7855634E-01
         -2   -1    0    0    0  501 -0.00000000000E+00  0.00000000000E+00  0.23229846267E+04  0.23229846267E+04  0.00000000000E+00 0.  1.
          2   -1    0    0  501    0  0.00000000000E+00 -0.00000000000E+00 -0.25083714776E+04  0.25083714776E+04  0.00000000000E+00 0. -1.
    9900016    2    1    2    0    0  0.80586914863E+03  0.54570471911E+03  0.30109636835E+03  0.21025621137E+04  0.18392633562E+04 0.  0.
    9900016    2    1    2    0    0 -0.59659936193E+03 -0.98704034689E+03 -0.27801130061E+03  0.21899557040E+04  0.18407705607E+04 0.  0.
         24    2    4    4    0    0  0.13429558326E+02 -0.46789153151E+03  0.74915213479E+03  0.88737538051E+03  0.84281116412E+02 0.  0.
        -15    1    5    5    0    0  0.46731940813E+02 -0.34988694002E+03  0.55450181521E+03  0.65732564849E+03  0.00000000000E+00 0.  1.
        -15    1    3    3    0    0  0.21653284062E+03 -0.35996146081E+03 -0.26079274237E+03  0.49444067269E+03  0.00000000000E+00 0. -1.
         15    1    3    3    0    0  0.33836616607E+02 -0.20334543286E+03 -0.67898727738E+02  0.21703575493E+03  0.00000000000E+00 0.  1.
         15    1    4    4    0    0 -0.61002892026E+03 -0.51914881538E+03 -0.10271634354E+04  0.13025803235E+04  0.00000000000E+00 0. -1.
        -16    1    3    3    0    0  0.55549969139E+03  0.11090116128E+04  0.62978783846E+03  0.13910856860E+04  0.00000000000E+00 0.  1.
         16    1    5    5    0    0 -0.33302382487E+02 -0.11800459149E+03  0.19465031958E+03  0.23004973203E+03  0.00000000000E+00 0. -1.
    9900018    1    1    2    0    0 -0.20926978669E+03  0.44133562778E+03 -0.20847191863E+03  0.53883828670E+03  0.91187600000E+02 0.  0.
<mgrwt>
<rscale>  0 0.48277980E+04</rscale>
<asrwt>0</asrwt>
<pdfrwt beam="1">  1        2 0.38590331E+00 0.48277980E+04</pdfrwt>
<pdfrwt beam="2">  1       -2 0.35738225E+00 0.48277980E+04</pdfrwt>
<totfact> 0.35501489E-02</totfact>
</mgrwt>
</event>
<event>
12    1  0.1399853E-008  0.6147491E+04  0.7818608E-02  0.7672379E-01
         -2   -1    0    0    0  501 -0.00000000000E+00  0.00000000000E+00  0.38328466424E+04  0.38328466424E+04  0.00000000000E+00 0.  1.
          2   -1    0    0  501    0  0.00000000000E+00 -0.00000000000E+00 -0.24649856347E+04  0.24649856347E+04  0.00000000000E+00 0. -1.
    9900016    2    1    2    0    0  0.64139318288E+03 -0.99711541771E+03 -0.89546194283E+03  0.23553406767E+04  0.18276086127E+04 0.  0.
    9900016    2    1    2    0    0  0.26532733401E+03  0.64287479737E+03  0.70180824920E+03  0.21001366254E+04  0.18532005901E+04 0.  0.
        -24    2    4    4    0    0  0.43248868466E+03  0.87040430936E+03 -0.33072591384E+03  0.10296977463E+04  0.79042359191E+02 0.  0.
        -15    1    4    4    0    0 -0.16716135066E+03 -0.22752951198E+03  0.10325341630E+04  0.10704388791E+04  0.00000000000E+00 0.  1.
        -15    1    3    3    0    0 -0.44601544302E+01  0.82901083168E+02  0.68218394113E+02  0.10745339391E+03  0.00000000000E+00 0.  1.
         15    1    3    3    0    0 -0.23875645404E+03 -0.47348383579E+02  0.30360994976E+03  0.38913431533E+03  0.00000000000E+00 0. -1.
         15    1    5    5    0    0  0.30511477224E+02  0.10685708981E+03 -0.53707223976E+02  0.12342549896E+03  0.00000000000E+00 0. -1.
        -16    1    5    5    0    0  0.40197720744E+03  0.76354721955E+03 -0.27701868986E+03  0.90627224735E+03  0.00000000000E+00 0.  1.
         16    1    3    3    0    0  0.88460979136E+03 -0.10326681173E+04 -0.12672902867E+04  0.18587529675E+04  0.00000000000E+00 0. -1.
    9900018    1    1    2    0    0 -0.90672051689E+03  0.35424062033E+03  0.15615147013E+04  0.18423549749E+04  0.91187600000E+02 0.  0.
<mgrwt>
<rscale>  0 0.61474912E+04</rscale>
<asrwt>0</asrwt>
<pdfrwt beam="1">  1        2 0.37922856E+00 0.61474912E+04</pdfrwt>
<pdfrwt beam="2">  1       -2 0.58966871E+00 0.61474912E+04</pdfrwt>
<totfact> 0.13869106E-03</totfact>
</mgrwt>
</event>
<event>
13    1  0.1399853E-008  0.5230244E+04  0.7818608E-02  0.7793939E-01
         -2   -1    0    0    0  501 -0.00000000000E+00  0.00000000000E+00  0.18519823641E+04  0.18519823641E+04  0.00000000000E+00 0.  1.
          2   -1    0    0  501    0  0.00000000000E+00 -0.00000000000E+00 -0.36927251711E+04  0.36927251711E+04  0.00000000000E+00 0. -1.
    9900016    2    1    2    0    0  0.78742415169E+03 -0.72241401662E+03 -0.23342254418E+04  0.31595815000E+04  0.18418545098E+04 0.  0.
         23    2    3    3    0    0  0.31150548653E+03 -0.19915073339E+03  0.26435330827E+03  0.46645793058E+03  0.10489826813E+03 0.  0.
    9900016    2    1    2    0    0 -0.76019521203E+03  0.68834001712E+03  0.25642834126E+03  0.21274200612E+04  0.18461993075E+04 0.  0.
        -24    2    5    5    0    0 -0.23921784283E+03  0.85603955621E+03 -0.62534894505E+03  0.10895993940E+04  0.78336697559E+02 0.  0.
        -15    1    5    5    0    0 -0.52097736920E+03 -0.16769953909E+03  0.88177728631E+03  0.10378206672E+04  0.00000000000E+00 0.  1.
        -15    1    4    4    0    0  0.32093513364E+02 -0.50209106438E+02  0.10230717570E+02  0.60461686640E+02  0.00000000000E+00 0.  1.
         15    1    4    4    0    0  0.27941197316E+03 -0.14894162695E+03  0.25412259070E+03  0.40599624394E+03  0.00000000000E+00 0. -1.
         15    1    6    6    0    0 -0.18614884476E+03  0.75954892542E+03 -0.55427138693E+03  0.95853155028E+03  0.00000000000E+00 0. -1.
        -16    1    6    6    0    0 -0.53068998074E+02  0.96490630789E+02 -0.71077558118E+02  0.13106784371E+03  0.00000000000E+00 0.  1.
         16    1    3    3    0    0  0.47591866516E+03 -0.52326328323E+03 -0.25985787501E+04  0.26931235694E+04  0.00000000000E+00 0. -1.
    9900018    1    1    2    0    0 -0.27228939663E+02  0.34073999505E+02  0.23705429355E+03  0.25770597409E+03  0.91187600000E+02 0.  0.
<mgrwt>
<rscale>  0 0.52302435E+04</rscale>
<asrwt>0</asrwt>
<pdfrwt beam="1">  1        2 0.56811156E+00 0.52302435E+04</pdfrwt>
<pdfrwt beam="2">  1       -2 0.28492036E+00 0.52302435E+04</pdfrwt>
<totfact> 0.16554025E-02</totfact>
</mgrwt>
</event>
<event>
12    1  0.1399853E-008  0.4906850E+04  0.7818608E-02  0.7843039E-01
         -1   -1    0    0    0  501 -0.00000000000E+00  0.00000000000E+00  0.26989668999E+04  0.26989668999E+04  0.00000000000E+00 0.  1.
          1   -1    0    0  501    0  0.00000000000E+00 -0.00000000000E+00 -0.22302217392E+04  0.22302217392E+04  0.00000000000E+00 0. -1.
    9900016    2    1    2    0    0 -0.32883762161E+03  0.12173062155E+04  0.97088623986E+03  0.24188423393E+04  0.18215953360E+04 0.  0.
    9900016    2    1    2    0    0  0.23720259255E+03 -0.80863478667E+03 -0.37469181957E+03  0.20631686981E+04  0.18455665334E+04 0.  0.
         24    2    4    4    0    0  0.32274722257E+03  0.56284350282E+03 -0.15235441863E+03  0.67115415001E+03  0.79230334200E+02 0.  0.
        -15    1    3    3    0    0  0.26941132430E+03  0.76289383387E+02  0.19829633194E+03  0.34310926385E+03  0.00000000000E+00 0.  1.
        -15    1    5    5    0    0  0.21862614560E+03  0.44643511475E+03 -0.12538758299E+03  0.51266338780E+03  0.00000000000E+00 0.  1.
         15    1    4    4    0    0 -0.85544630018E+02 -0.13714782895E+04 -0.22233740095E+03  0.13920145481E+04  0.00000000000E+00 0. -1.
         15    1    3    3    0    0  0.28523892902E+03  0.42284401062E+02  0.58659312741E+03  0.65363653075E+03  0.00000000000E+00 0. -1.
        -16    1    3    3    0    0 -0.88348787493E+03  0.10987324311E+04  0.18599678050E+03  0.14220965447E+04  0.00000000000E+00 0.  1.
         16    1    5    5    0    0  0.10412107696E+03  0.11640838807E+03 -0.26966835642E+02  0.15849076221E+03  0.00000000000E+00 0. -1.
    9900018    1    1    2    0    0  0.91635029060E+02 -0.40867142884E+03 -0.12744925954E+03  0.44717760169E+03  0.91187600000E+02 0.  0.
<mgrwt>
<rscale>  0 0.49068502E+04</rscale>
<asrwt>0</asrwt>
<pdfrwt beam="1">  1        1 0.34311103E+00 0.49068502E+04</pdfrwt>
<pdfrwt beam="2">  1       -1 0.41522568E+00 0.49068502E+04</pdfrwt>
<totfact> 0.85031244E-03</totfact>
</mgrwt>
</event>
<event>
13    1  0.1399853E-008  0.5767062E+04  0.7818608E-02  0.7719974E-01
         -2   -1    0    0    0  501 -0.00000000000E+00  0.00000000000E+00  0.24764931727E+04  0.24764931727E+04  0.00000000000E+00 0.  1.
          2   -1    0    0  501    0  0.00000000000E+00 -0.00000000000E+00 -0.33574700424E+04  0.33574700424E+04  0.00000000000E+00 0. -1.
    9900016    2    1    2    0    0  0.10352755106E+04  0.64719832628E+03  0.93339512840E+03  0.23958993066E+04  0.18380549407E+04 0.  0.
         23    2    3    3    0    0 -0.48472475968E+03  0.99357529840E+01 -0.83333097790E+01  0.49764830624E+03  0.11192667608E+03 0.  0.
    9900016    2    1    2    0    0 -0.23921290296E+03 -0.63038407195E+03 -0.73511707186E+03  0.20937779386E+04  0.18408970790E+04 0.  0.
         24    2    5    5    0    0 -0.14891725777E+03 -0.32838271014E+02  0.60219456791E+03  0.62625733918E+03  0.79405639310E+02 0.  0.
        -15    1    4    4    0    0 -0.39711417901E+03 -0.28067515420E+02 -0.31599661452E+02  0.39935697715E+03  0.00000000000E+00 0.  1.
        -15    1    6    6    0    0 -0.21961064872E+02 -0.30931238954E+02  0.22733067195E+03  0.23047399924E+03  0.00000000000E+00 0.  1.
         15    1    4    4    0    0 -0.87610580662E+02  0.38003268404E+02  0.23266351673E+02  0.98291329086E+02  0.00000000000E+00 0. -1.
         15    1    5    5    0    0 -0.90295645195E+02 -0.59754580094E+03 -0.13373116398E+04  0.14675205994E+04  0.00000000000E+00 0. -1.
        -16    1    3    3    0    0  0.15200002703E+04  0.63726257330E+03  0.94172843818E+03  0.18982510004E+04  0.00000000000E+00 0.  1.
         16    1    6    6    0    0 -0.12695619290E+03 -0.19070320603E+01  0.37486389596E+03  0.39578333995E+03  0.00000000000E+00 0. -1.
    9900018    1    1    2    0    0 -0.79606260768E+03 -0.16814254333E+02 -0.10792549263E+04  0.13442859699E+04  0.91187600000E+02 0.  0.
<mgrwt>
<rscale>  0 0.57670622E+04</rscale>
<asrwt>0</asrwt>
<pdfrwt beam="1">  1        2 0.51653386E+00 0.57670622E+04</pdfrwt>
<pdfrwt beam="2">  1       -2 0.38099895E+00 0.57670622E+04</pdfrwt>
<totfact> 0.68830932E-03</totfact>
</mgrwt>
</event>
<event>
12    1  0.1399853E-008  0.5228504E+04  0.7818608E-02  0.7794194E-01
         -1   -1    0    0    0  501 -0.00000000000E+00  0.00000000000E+00  0.28708271533E+04  0.28708271533E+04  0.00000000000E+00 0.  1.
          1   -1    0    0  501    0  0.00000000000E+00 -0.00000000000E+00 -0.23806078616E+04  0.23806078616E+04  0.00000000000E+00 0. -1.
    9900016    2    1    2    0    0  0.23611009202E+02 -0.11738972483E+04 -0.57722155215E+03  0.22472866781E+04  0.18271618603E+04 0.  0.
    9900016    2    1    2    0    0 -0.41563718436E+03  0.42212726665E+03  0.83684066913E+03  0.21207830409E+04  0.18564678027E+04 0.  0.
        -24    2    4    4    0    0 -0.40575019377E+03 -0.67421935572E+03  0.61589462747E+03  0.10023507352E+04  0.78586543962E+02 0.  0.
        -15    1    3    3    0    0  0.21346075284E+03  0.12083039730E+03  0.43140629806E+02  0.24905138396E+03  0.00000000000E+00 0.  1.
        -15    1    4    4    0    0 -0.98869905885E+01  0.10963466224E+04  0.22094604166E+03  0.11184323056E+04  0.00000000000E+00 0.  1.
         15    1    3    3    0    0  0.43455736865E+03  0.17888234111E+02 -0.54137870536E+02  0.43828187801E+03  0.00000000000E+00 0. -1.
         15    1    5    5    0    0 -0.19187012830E+03 -0.24693403704E+03  0.23087520730E+03  0.38870802170E+03  0.00000000000E+00 0. -1.
        -16    1    5    5    0    0 -0.21388006547E+03 -0.42728531868E+03  0.38501942016E+03  0.61364271353E+03  0.00000000000E+00 0.  1.
         16    1    3    3    0    0 -0.62440711228E+03 -0.13126158797E+04 -0.56622431142E+03  0.15599534161E+04  0.00000000000E+00 0. -1.
    9900018    1    1    2    0    0  0.39202617516E+03  0.75176998164E+03  0.23060017471E+03  0.88336529606E+03  0.91187600000E+02 0.  0.
<mgrwt>
<rscale>  0 0.52285041E+04</rscale>
<asrwt>0</asrwt>
<pdfrwt beam="1">  1        1 0.36624736E+00 0.52285041E+04</pdfrwt>
<pdfrwt beam="2">  1       -1 0.44166572E+00 0.52285041E+04</pdfrwt>
<totfact> 0.43012206E-03</totfact>
</mgrwt>
</event>
<event>
13    1  0.1399853E-008  0.4547537E+04  0.7818608E-02  0.7902367E-01
         -2   -1    0    0    0  501 -0.00000000000E+00  0.00000000000E+00  0.16114875246E+04  0.16114875246E+04  0.00000000000E+00 0.  1.
          2   -1    0    0  501    0  0.00000000000E+00 -0.00000000000E+00 -0.32082300260E+04  0.32082300260E+04  0.00000000000E+00 0. -1.
    9900016    2    1    2    0    0  0.93075266542E+03  0.24025934515E+03 -0.10761596478E+04  0.23341506916E+04  0.18346974645E+04 0.  0.
         23    2    3    3    0    0  0.32444275065E+02  0.80408064920E+03  0.14954268705E+02  0.81251275638E+03  0.11115317229E+03 0.  0.
    9900016    2    1    2    0    0 -0.52090796089E+03 -0.35700256111E+02 -0.23624159047E+03  0.19387741789E+04  0.18521381200E+04 0.  0.
        -24    2    5    5    0    0 -0.77959222339E+01  0.46348281124E+03  0.64817866679E+03  0.80093988060E+03  0.80573044646E+02 0.  0.
        -15    1    4    4    0    0 -0.21328397411E+02  0.55730485798E+02 -0.15372072088E+02  0.61620517555E+02  0.00000000000E+00 0.  1.
        -15    1    5    5    0    0 -0.51311203865E+03 -0.49918306735E+03 -0.88442025727E+03  0.11378342983E+04  0.00000000000E+00 0.  1.
         15    1    4    4    0    0  0.53772672476E+02  0.74835016341E+03  0.30326340793E+02  0.75089223882E+03  0.00000000000E+00 0. -1.
         15    1    6    6    0    0  0.49968094573E+01  0.11789670366E+03  0.11058217275E+03  0.16171894685E+03  0.00000000000E+00 0. -1.
        -16    1    6    6    0    0 -0.12792731691E+02  0.34558610758E+03  0.53759649404E+03  0.63922093375E+03  0.00000000000E+00 0.  1.
         16    1    3    3    0    0  0.89830839036E+03 -0.56382130405E+03 -0.10911139165E+04  0.15216379352E+04  0.00000000000E+00 0. -1.
    9900018    1    1    2    0    0 -0.40984470454E+03 -0.20455908904E+03 -0.28434126314E+03  0.54679268015E+03  0.91187600000E+02 0.  0.
<mgrwt>
<rscale>  0 0.45475368E+04</rscale>
<asrwt>0</asrwt>
<pdfrwt beam="1">  1        2 0.49357384E+00 0.45475368E+04</pdfrwt>
<pdfrwt beam="2">  1       -2 0.24792116E+00 0.45475368E+04</pdfrwt>
<totfact> 0.63920620E-02</totfact>
</mgrwt>
</event>
<event>
13    1  0.1399853E-008  0.4442331E+04  0.7818608E-02  0.7920811E-01
          1   -1    0    0  501    0  0.00000000000E+00  0.00000000000E+00  0.20720231209E+04  0.20720231209E+04  0.00000000000E+00 0. -1.
         -1   -1    0    0    0  501 -0.00000000000E+00 -0.00000000000E+00 -0.23810434059E+04  0.23810434059E+04  0.00000000000E+00 0.  1.
    9900016    2    1    2    0    0  0.31146581022E+03 -0.21405468366E+03 -0.10008183302E+04  0.21232629234E+04  0.18340604552E+04 0.  0.
         23    2    3    3    0    0  0.60950224133E+02 -0.37079712908E+03 -0.14972114519E+04  0.15455671693E+04  0.77008456508E+02 0.  0.
    9900016    2    1    2    0    0 -0.18123111444E+03  0.12875444594E+03  0.27040053888E+03  0.18714061305E+04  0.18383748338E+04 0.  0.
        -24    2    5    5    0    0  0.37581087896E+03  0.54992157111E+03  0.76354010583E+03  0.10165001928E+04  0.81434622243E+02 0.  0.
        -15    1    5    5    0    0 -0.55704199340E+03 -0.42116712518E+03 -0.49313956695E+03  0.85490593765E+03  0.00000000000E+00 0.  1.
        -15    1    4    4    0    0 -0.48054780871E+01 -0.13052243452E+03 -0.41563610604E+03  0.43567484570E+03  0.00000000000E+00 0. -1.
         15    1    6    6    0    0  0.16351237202E+03  0.25899691736E+03  0.41046184690E+03  0.51214707533E+03  0.00000000000E+00 0. -1.
         15    1    4    4    0    0  0.65755702220E+02 -0.24027469456E+03 -0.10815753458E+04  0.11098923236E+04  0.00000000000E+00 0.  1.
        -16    1    6    6    0    0  0.21229850693E+03  0.29092465375E+03  0.35307825893E+03  0.50435311751E+03  0.00000000000E+00 0.  1.
         16    1    3    3    0    0  0.25051558609E+03  0.15674244542E+03  0.49639312167E+03  0.57769575410E+03  0.00000000000E+00 0. -1.
    9900018    1    1    2    0    0 -0.13023469578E+03  0.85300237720E+02  0.42139750631E+03  0.45839747300E+03  0.91187600000E+02 0.  0.
<mgrwt>
<rscale>  0 0.44423314E+04</rscale>
<asrwt>0</asrwt>
<pdfrwt beam="1">  1        1 0.31877279E+00 0.44423314E+04</pdfrwt>
<pdfrwt beam="2">  1       -1 0.36631437E+00 0.44423314E+04</pdfrwt>
<totfact> 0.24308699E-02</totfact>
</mgrwt>
</event>
<event>
12    1  0.1399853E-008  0.4337145E+04  0.7818608E-02  0.7939785E-01
          3   -1    0    0  501    0  0.00000000000E+00  0.00000000000E+00  0.22645023213E+04  0.22645023213E+04  0.00000000000E+00 0. -1.
         -3   -1    0    0    0  501 -0.00000000000E+00 -0.00000000000E+00 -0.20767068539E+04  0.20767068539E+04  0.00000000000E+00 0.  1.
    9900016    2    1    2    0    0  0.59957213583E+03 -0.19696009934E+03 -0.95452651011E+02  0.19415078416E+04  0.18335925021E+04 0.  0.
    9900016    2    1    2    0    0 -0.47282155078E+03  0.47856382546E+03  0.49232113004E+03  0.20157832799E+04  0.18353251981E+04 0.  0.
        -24    2    4    4    0    0 -0.63974023301E+03 -0.17795144778E+03  0.97616553359E+03  0.11833293429E+04  0.80217836100E+02 0.  0.
        -15    1    4    4    0    0  0.16691868223E+03  0.65651527324E+03 -0.48384440355E+03  0.83245393705E+03  0.00000000000E+00 0.  1.
        -15    1    3    3    0    0 -0.41068382019E+02  0.53306162755E+02 -0.38450655622E+03  0.39035042047E+03  0.00000000000E+00 0.  1.
         15    1    3    3    0    0 -0.17311190006E+03  0.10416214730E+03 -0.38623709077E+03  0.43588596348E+03  0.00000000000E+00 0. -1.
         15    1    5    5    0    0 -0.16768537085E+03 -0.82535693628E+02  0.25576675377E+03  0.31677619331E+03  0.00000000000E+00 0. -1.
        -16    1    5    5    0    0 -0.47205486217E+03 -0.95415754150E+02  0.72039877982E+03  0.86655314956E+03  0.00000000000E+00 0.  1.
         16    1    3    3    0    0  0.81375241791E+03 -0.35442840939E+03  0.67529099598E+03  0.11152714577E+04  0.00000000000E+00 0. -1.
    9900018    1    1    2    0    0 -0.12675058504E+03 -0.28160372612E+03 -0.20907301159E+03  0.38391805369E+03  0.91187600000E+02 0.  0.
<mgrwt>
<rscale>  0 0.43371454E+04</rscale>
<asrwt>0</asrwt>
<pdfrwt beam="1">  1        3 0.34838497E+00 0.43371454E+04</pdfrwt>
<pdfrwt beam="2">  1       -3 0.31949336E+00 0.43371454E+04</pdfrwt>
<totfact> 0.12268095E-03</totfact>
</mgrwt>
</event>
