<event>
12    1  0.1789950E-010  0.2959985E+04  0.7818608E-02  0.8255251E-01
         -2   -1    0    0    0  501 -0.00000000000E+00  0.00000000000E+00  0.23770643743E+04  0.23770643743E+04  0.00000000000E+00 0.  1.
          2   -1    0    0  501    0  0.00000000000E+00 -0.00000000000E+00 -0.92146338233E+03  0.92146338233E+03  0.00000000000E+00 0. -1.
    9900016    2    1    2    0    0  0.36135832452E+03 -0.36903842576E+03  0.10341007575E+04  0.24884668372E+04  0.22037090608E+04 0.  0.
        -24    2    3    3    0    0 -0.32929306154E+03  0.42674364945E+03  0.36909576304E+02  0.54468118303E+03  0.69073957501E+02 0.  0.
         23    2    3    3    0    0  0.13666040495E+03  0.19721041731E+03 -0.17490183513E+03  0.31076938470E+03  0.91754801301E+02 0.  0.
        -15    1    3    3    0    0  0.55399098111E+03 -0.99299249252E+03  0.11720930164E+04  0.16330162695E+04  0.00000000000E+00 0.  1.
        -15    1    5    5    0    0  0.74653140149E+02  0.16328187636E+03 -0.91712674100E+02  0.20160673866E+03  0.00000000000E+00 0. -1.
         15    1    4    4    0    0 -0.22600772835E+03  0.32246332969E+03  0.51727931484E+02  0.39716227309E+03  0.00000000000E+00 0. -1.
         15    1    5    5    0    0  0.62007264803E+02  0.33928540948E+02 -0.83189161027E+02  0.10916264605E+03  0.00000000000E+00 0.  1.
        -16    1    4    4    0    0 -0.10328533319E+03  0.10428031976E+03 -0.14818355180E+02  0.14751890995E+03  0.00000000000E+00 0.  1.
         16    1    1    2    0    0 -0.97520505419E+02  0.39741906505E+03  0.27978640259E+03  0.49571422546E+03  0.00000000000E+00 0. -1.
    9900018    1    1    2    0    0 -0.26383781910E+03 -0.28380639292E+02  0.14171383184E+03  0.31434669396E+03  0.91187600000E+02 0.  0.
<mgrwt>
<rscale>  0 0.29599850E+04</rscale>
<asrwt>0</asrwt>
<pdfrwt beam="1">  1        2 0.14176360E+00 0.29599850E+04</pdfrwt>
<pdfrwt beam="2">  1       -2 0.36570221E+00 0.29599850E+04</pdfrwt>
<totfact> 0.30116787E-01</totfact>
</mgrwt>
</event>
<event>
12    1  0.1789950E-010  0.3191414E+04  0.7818608E-02  0.8191088E-01
         -1   -1    0    0    0  501 -0.00000000000E+00  0.00000000000E+00  0.62798871559E+03  0.62798871559E+03  0.00000000000E+00 0.  1.
          1   -1    0    0  501    0  0.00000000000E+00 -0.00000000000E+00 -0.40546593098E+04  0.40546593098E+04  0.00000000000E+00 0. -1.
    9900016    2    1    2    0    0 -0.32127790900E+03  0.38552338306E+03 -0.20565246091E+04  0.30663738042E+04  0.22184469941E+04 0.  0.
         24    2    3    3    0    0  0.65022517118E+03  0.74116089683E+03 -0.15834487634E+04  0.18663135352E+04  0.60860309870E+02 0.  0.
         23    2    3    3    0    0 -0.35701634736E+03  0.34073012406E+02 -0.21058795238E+03  0.42651768242E+03  0.94596010888E+02 0.  0.
        -15    1    5    5    0    0 -0.24351593307E+03  0.70597430540E+01 -0.92704615310E+02  0.26066069004E+03  0.00000000000E+00 0.  1.
        -15    1    4    4    0    0  0.23897743039E+03  0.22885722665E+03 -0.52964385349E+03  0.62450656840E+03  0.00000000000E+00 0.  1.
         15    1    3    3    0    0 -0.61448673282E+03 -0.38971052618E+03 -0.26248789332E+03  0.77354258653E+03  0.00000000000E+00 0. -1.
         15    1    5    5    0    0 -0.11350041429E+03  0.27013269352E+02 -0.11788333706E+03  0.16585699238E+03  0.00000000000E+00 0. -1.
        -16    1    1    2    0    0  0.21151371916E+03 -0.56273772107E+03 -0.11601076413E+04  0.13066221855E+04  0.00000000000E+00 0.  1.
         16    1    4    4    0    0  0.41124774079E+03  0.51230367017E+03 -0.10538049099E+04  0.12418069668E+04  0.00000000000E+00 0. -1.
    9900018    1    1    2    0    0  0.10976418984E+03  0.17721433802E+03 -0.21003834380E+03  0.30965203573E+03  0.91187600000E+02 0.  0.
<mgrwt>
<rscale>  0 0.31914137E+04</rscale>
<asrwt>0</asrwt>
<pdfrwt beam="1">  1        1 0.62379371E+00 0.31914137E+04</pdfrwt>
<pdfrwt beam="2">  1       -1 0.96613653E-01 0.31914137E+04</pdfrwt>
<totfact> 0.73944346E-02</totfact>
</mgrwt>
</event>
<event>
12    1  0.1789950E-010  0.3098387E+04  0.7818608E-02  0.8216181E-01
         -1   -1    0    0    0  501 -0.00000000000E+00  0.00000000000E+00  0.14523922021E+04  0.14523922021E+04  0.00000000000E+00 0.  1.
          1   -1    0    0  501    0  0.00000000000E+00 -0.00000000000E+00 -0.16524463213E+04  0.16524463213E+04  0.00000000000E+00 0. -1.
    9900016    2    1    2    0    0  0.55824723565E+02  0.14739985090E+03 -0.17340151334E+01  0.22055055874E+04  0.21998656262E+04 0.  0.
         24    2    3    3    0    0  0.13539744298E+03  0.45140764115E+03  0.43839231612E+03  0.65256459523E+03  0.10747744908E+03 0.  0.
         23    2    3    3    0    0  0.38544407336E+03  0.20827152984E+03  0.30064755773E+03  0.53932534807E+03  0.92405158232E+02 0.  0.
        -15    1    5    5    0    0  0.35599288690E+02  0.51367604154E+02  0.60037253890E+02  0.86662633046E+02  0.00000000000E+00 0. -1.
        -15    1    4    4    0    0  0.43331903899E+02  0.19444041986E+03  0.11750174344E+03  0.23128205828E+03  0.00000000000E+00 0.  1.
         15    1    5    5    0    0  0.34984478467E+03  0.15690392569E+03  0.24061030384E+03  0.45266271502E+03  0.00000000000E+00 0.  1.
         15    1    3    3    0    0 -0.46501679277E+03 -0.51227932010E+03 -0.74077388899E+03  0.10136156441E+04  0.00000000000E+00 0. -1.
        -16    1    1    2    0    0 -0.52739468998E+02  0.70947970737E+02  0.31869759432E+03  0.33073134531E+03  0.00000000000E+00 0.  1.
         16    1    4    4    0    0  0.92065539083E+02  0.25696722129E+03  0.32089057268E+03  0.42128253695E+03  0.00000000000E+00 0. -1.
    9900018    1    1    2    0    0 -0.30852545675E+01 -0.21834782163E+03 -0.51701769844E+03  0.56860159066E+03  0.91187600000E+02 0.  0.
<mgrwt>
<rscale>  0 0.30983868E+04</rscale>
<asrwt>0</asrwt>
<pdfrwt beam="1">  1        1 0.25422251E+00 0.30983868E+04</pdfrwt>
<pdfrwt beam="2">  1       -1 0.22344495E+00 0.30983868E+04</pdfrwt>
<totfact> 0.45242390E-01</totfact>
</mgrwt>
</event>
<event>
12    1  0.1789950E-010  0.3294009E+04  0.7818608E-02  0.8164421E-01
         -1   -1    0    0    0  501 -0.00000000000E+00  0.00000000000E+00  0.14211900956E+04  0.14211900956E+04  0.00000000000E+00 0.  1.
          1   -1    0    0  501    0  0.00000000000E+00 -0.00000000000E+00 -0.19086987228E+04  0.19086987228E+04  0.00000000000E+00 0. -1.
    9900016    2    1    2    0    0  0.21575531470E+03 -0.55473843453E+03  0.23084093123E+03  0.22614505733E+04  0.21694667717E+04 0.  0.
        -24    2    3    3    0    0  0.36149902307E+03 -0.91459200067E+03  0.44552537059E+03  0.10834712004E+04  0.90867568354E+02 0.  0.
         23    2    3    3    0    0  0.41528880850E+03  0.75163754895E+02  0.14221597619E+03  0.45466500121E+03  0.91545043162E+02 0.  0.
        -15    1    3    3    0    0 -0.56103251686E+03  0.28468981125E+03 -0.35690041555E+03  0.72331437164E+03  0.00000000000E+00 0.  1.
        -15    1    5    5    0    0  0.91737540378E+02  0.56082389372E+02  0.41666572369E+02  0.11531311272E+03  0.00000000000E+00 0. -1.
         15    1    4    4    0    0  0.16068522095E+03 -0.30996657727E+03  0.18538996265E+03  0.39530805394E+03  0.00000000000E+00 0. -1.
         15    1    5    5    0    0  0.32355126812E+03  0.19081365522E+02  0.10054940382E+03  0.33935188849E+03  0.00000000000E+00 0.  1.
        -16    1    4    4    0    0  0.20081380212E+03 -0.60462542340E+03  0.26013540794E+03  0.68816314651E+03  0.00000000000E+00 0.  1.
         16    1    1    2    0    0 -0.27236207442E+03  0.46492237848E+03 -0.75140931264E+03  0.92463499432E+03  0.00000000000E+00 0. -1.
    9900018    1    1    2    0    0  0.56606759720E+02  0.89816056046E+02  0.33059754218E+02  0.14380325070E+03  0.91187600000E+02 0.  0.
<mgrwt>
<rscale>  0 0.32940089E+04</rscale>
<asrwt>0</asrwt>
<pdfrwt beam="1">  1        1 0.29364596E+00 0.32940089E+04</pdfrwt>
<pdfrwt beam="2">  1       -1 0.21864463E+00 0.32940089E+04</pdfrwt>
<totfact> 0.32062827E-01</totfact>
</mgrwt>
</event>
<event>
12    1  0.1789950E-010  0.3066180E+04  0.7818608E-02  0.8225081E-01
         -2   -1    0    0    0  501 -0.00000000000E+00  0.00000000000E+00  0.93917557852E+03  0.93917557852E+03  0.00000000000E+00 0.  1.
          2   -1    0    0  501    0  0.00000000000E+00 -0.00000000000E+00 -0.25025830823E+04  0.25025830823E+04  0.00000000000E+00 0. -1.
    9900016    2    1    2    0    0 -0.26310943216E+03  0.23378396623E+03 -0.16016850828E+04  0.27407185366E+04  0.21959648167E+04 0.  0.
         24    2    3    3    0    0 -0.25664865749E+03 -0.35803579694E+03 -0.79522611801E+03  0.91393111726E+03  0.93953941095E+02 0.  0.
         23    2    3    3    0    0 -0.26724544178E+03 -0.40069183266E+03  0.45131813889E+02  0.49326022998E+03  0.96409039724E+02 0.  0.
        -15    1    5    5    0    0 -0.21697092581E+03 -0.32220027359E+03  0.74513875468E+02  0.39552713761E+03  0.00000000000E+00 0. -1.
        -15    1    4    4    0    0 -0.11864123231E+03 -0.89881541747E+02 -0.26200284619E+03  0.30133025895E+03  0.00000000000E+00 0.  1.
         15    1    3    3    0    0  0.26078466711E+03  0.99251159584E+03 -0.85159077865E+03  0.13335271894E+04  0.00000000000E+00 0. -1.
         15    1    5    5    0    0 -0.50274515964E+02 -0.78491559072E+02 -0.29382061579E+02  0.97733092366E+02  0.00000000000E+00 0.  1.
        -16    1    1    2    0    0  0.24323771642E+03 -0.19113881023E+03  0.29321249542E+03  0.42623021823E+03  0.00000000000E+00 0.  1.
         16    1    4    4    0    0 -0.13800742518E+03 -0.26815425519E+03 -0.53322327182E+03  0.61260085830E+03  0.00000000000E+00 0. -1.
    9900018    1    1    2    0    0  0.19871715743E+02 -0.42645156008E+02 -0.25493491640E+03  0.27480990596E+03  0.91187600000E+02 0.  0.
<mgrwt>
<rscale>  0 0.30661800E+04</rscale>
<asrwt>0</asrwt>
<pdfrwt beam="1">  1        2 0.38501278E+00 0.30661800E+04</pdfrwt>
<pdfrwt beam="2">  1       -2 0.14448855E+00 0.30661800E+04</pdfrwt>
<totfact> 0.97662589E-01</totfact>
</mgrwt>
</event>
<event>
12    1  0.1789950E-010  0.3389697E+04  0.7818608E-02  0.8140440E-01
          2   -1    0    0  501    0  0.00000000000E+00  0.00000000000E+00  0.24383723886E+04  0.24383723886E+04  0.00000000000E+00 0. -1.
         -2   -1    0    0    0  501 -0.00000000000E+00 -0.00000000000E+00 -0.11780448949E+04  0.11780448949E+04  0.00000000000E+00 0.  1.
    9900016    2    1    2    0    0 -0.28348057976E+03  0.28162194372E+03  0.16289176336E+03  0.22405333914E+04  0.21985868173E+04 0.  0.
        -24    2    3    3    0    0  0.59660949749E+03 -0.46073708856E+03  0.53097055590E+03  0.92835717751E+03  0.10814693956E+03 0.  0.
         23    2    3    3    0    0 -0.12746491323E+03 -0.49184363821E+02 -0.76909177021E+02  0.18179338914E+03  0.92018525722E+02 0.  0.
        -15    1    5    5    0    0 -0.23743720547E+02  0.56588714731E+01 -0.58032172928E+02  0.62956494395E+02  0.00000000000E+00 0.  1.
        -15    1    3    3    0    0 -0.75262516402E+03  0.79154339610E+03 -0.29116961552E+03  0.11303828247E+04  0.00000000000E+00 0.  1.
         15    1    5    5    0    0 -0.10372119269E+03 -0.54843235295E+02 -0.18877004093E+02  0.11883689475E+03  0.00000000000E+00 0. -1.
         15    1    4    4    0    0  0.91819238892E+02 -0.11598089080E+03  0.75763390501E+02  0.16619997293E+03  0.00000000000E+00 0. -1.
        -16    1    4    4    0    0  0.50479025860E+03 -0.34475619777E+03  0.45520716540E+03  0.76215720458E+03  0.00000000000E+00 0.  1.
         16    1    1    2    0    0  0.28498791911E+03 -0.11265677883E+03  0.11389364900E+04  0.11794430856E+04  0.00000000000E+00 0. -1.
    9900018    1    1    2    0    0 -0.15073393463E+01 -0.16896516489E+03 -0.41500759625E+02  0.19644080650E+03  0.91187600000E+02 0.  0.
<mgrwt>
<rscale>  0 0.33896974E+04</rscale>
<asrwt>0</asrwt>
<pdfrwt beam="1">  1        2 0.37513421E+00 0.33896974E+04</pdfrwt>
<pdfrwt beam="2">  1       -2 0.18123768E+00 0.33896974E+04</pdfrwt>
<totfact> 0.55698079E-01</totfact>
</mgrwt>
</event>
<event>
12    1  0.1789950E-010  0.3247011E+04  0.7818608E-02  0.8176511E-01
          2   -1    0    0  501    0  0.00000000000E+00  0.00000000000E+00  0.30658479559E+04  0.30658479559E+04  0.00000000000E+00 0. -1.
         -2   -1    0    0    0  501 -0.00000000000E+00 -0.00000000000E+00 -0.85971984438E+03  0.85971984438E+03  0.00000000000E+00 0.  1.
    9900016    2    1    2    0    0 -0.24059897859E+03 -0.15249206820E+03  0.18209466958E+04  0.28680710015E+04  0.21974627873E+04 0.  0.
         24    2    3    3    0    0  0.52750512378E+03 -0.46725582529E+03 -0.33482106462E+02  0.71208863974E+03  0.96744599387E+02 0.  0.
         23    2    3    3    0    0 -0.27429372079E+03 -0.41144917851E+02  0.13008924752E+04  0.13332295780E+04  0.90829103869E+02 0.  0.
        -15    1    4    4    0    0  0.31876297992E+03 -0.22050450781E+03 -0.49459000766E+01  0.38762938132E+03  0.00000000000E+00 0.  1.
        -15    1    5    5    0    0 -0.84271441435E+02  0.21947440469E+02  0.51031744400E+03  0.51769417578E+03  0.00000000000E+00 0.  1.
         15    1    5    5    0    0 -0.19002227936E+03 -0.63092358320E+02  0.79057503120E+03  0.81553540223E+03  0.00000000000E+00 0. -1.
         15    1    3    3    0    0 -0.49381038158E+03  0.35590867494E+03  0.55353632706E+03  0.82275278379E+03  0.00000000000E+00 0. -1.
        -16    1    1    2    0    0  0.22911015664E+03 -0.30445692537E+03 -0.90383524603E+02  0.39160524103E+03  0.00000000000E+00 0.  1.
         16    1    4    4    0    0  0.20874214386E+03 -0.24675131748E+03 -0.28536206386E+02  0.32445925842E+03  0.00000000000E+00 0. -1.
    9900018    1    1    2    0    0  0.11488821950E+02  0.45694899357E+03  0.47556494027E+03  0.66589155766E+03  0.91187600000E+02 0.  0.
<mgrwt>
<rscale>  0 0.32470111E+04</rscale>
<asrwt>0</asrwt>
<pdfrwt beam="1">  1        2 0.47166891E+00 0.32470111E+04</pdfrwt>
<pdfrwt beam="2">  1       -2 0.13226459E+00 0.32470111E+04</pdfrwt>
<totfact> 0.55121758E-01</totfact>
</mgrwt>
</event>
<event>
12    1  0.1789950E-010  0.3596533E+04  0.7818608E-02  0.8091286E-01
         -2   -1    0    0    0  501 -0.00000000000E+00  0.00000000000E+00  0.40700165014E+04  0.40700165014E+04  0.00000000000E+00 0.  1.
          2   -1    0    0  501    0  0.00000000000E+00 -0.00000000000E+00 -0.79453292171E+03  0.79453292171E+03  0.00000000000E+00 0. -1.
    9900016    2    1    2    0    0  0.24323445031E+01 -0.52209976478E+03  0.24584673600E+04  0.33438457189E+04  0.22055947840E+04 0.  0.
        -24    2    3    3    0    0 -0.61500918831E+03 -0.10144003133E+04  0.21184004457E+04  0.24286992444E+04  0.60953049039E+02 0.  0.
         23    2    3    3    0    0  0.12233565692E+03  0.18654459399E+02  0.12019443182E+03  0.19555328763E+03  0.92089006142E+02 0.  0.
        -15    1    5    5    0    0 -0.90664640948E+01  0.10561251200E+02  0.37709454248E+02  0.40196314978E+02  0.00000000000E+00 0.  1.
        -15    1    3    3    0    0  0.49510587589E+03  0.47364608908E+03  0.21987248246E+03  0.71959318687E+03  0.00000000000E+00 0.  1.
         15    1    5    5    0    0  0.13140212101E+03  0.80932081992E+01  0.82484977574E+02  0.15535697265E+03  0.00000000000E+00 0. -1.
         15    1    4    4    0    0 -0.12883303932E+03 -0.16941178070E+03  0.36579879670E+03  0.42321042417E+03  0.00000000000E+00 0. -1.
        -16    1    4    4    0    0 -0.48617614899E+03 -0.84498853256E+03  0.17526016491E+04  0.20054888203E+04  0.00000000000E+00 0.  1.
         16    1    1    2    0    0 -0.44986057198E+03  0.44402725313E+03  0.62295826297E+02  0.63514998679E+03  0.00000000000E+00 0. -1.
    9900018    1    1    2    0    0  0.44742822748E+03  0.78072511646E+02  0.75472039337E+03  0.88555371739E+03  0.91187600000E+02 0.  0.
<mgrwt>
<rscale>  0 0.35965328E+04</rscale>
<asrwt>0</asrwt>
<pdfrwt beam="1">  1        2 0.12223584E+00 0.35965328E+04</pdfrwt>
<pdfrwt beam="2">  1       -2 0.62615637E+00 0.35965328E+04</pdfrwt>
<totfact> 0.11423094E-02</totfact>
</mgrwt>
</event>
<event>
12    1  0.1789950E-010  0.2871198E+04  0.7818608E-02  0.8281499E-01
         -2   -1    0    0    0  501 -0.00000000000E+00  0.00000000000E+00  0.48025386698E+03  0.48025386698E+03  0.00000000000E+00 0.  1.
          2   -1    0    0  501    0  0.00000000000E+00 -0.00000000000E+00 -0.42913638127E+04  0.42913638127E+04  0.00000000000E+00 0. -1.
    9900016    2    1    2    0    0  0.14490097133E+03 -0.92966509826E+02 -0.30633091110E+04  0.38061657481E+04  0.22524200161E+04 0.  0.
         24    2    3    3    0    0  0.75099809688E+03 -0.48788289073E+03 -0.10902361003E+04  0.14125395793E+04  0.68010675147E+02 0.  0.
         23    2    3    3    0    0  0.30040622955E+03  0.27478858549E+01 -0.80237960097E+03  0.86193836746E+03  0.94198044711E+02 0.  0.
        -15    1    5    5    0    0  0.16823652798E+03  0.71564027937E+01 -0.57233245312E+03  0.59658962473E+03  0.00000000000E+00 0.  1.
        -15    1    4    4    0    0  0.62828712765E+03 -0.42584192807E+03 -0.89091948429E+03  0.11703946300E+04  0.00000000000E+00 0.  1.
         15    1    3    3    0    0 -0.90650335511E+03  0.39216849505E+03 -0.11706934097E+04  0.15316878014E+04  0.00000000000E+00 0. -1.
         15    1    5    5    0    0  0.13216970157E+03 -0.44085169388E+01 -0.23004714785E+03  0.26534874273E+03  0.00000000000E+00 0. -1.
        -16    1    1    2    0    0 -0.18826934234E+03  0.71241692824E+02  0.91321236124E+01  0.20150463951E+03  0.00000000000E+00 0.  1.
         16    1    4    4    0    0  0.12271096923E+03 -0.62040962657E+02 -0.19931661605E+03  0.24214494926E+03  0.00000000000E+00 0. -1.
    9900018    1    1    2    0    0  0.43368371013E+02  0.21724817002E+02 -0.75693295833E+03  0.76394729208E+03  0.91187600000E+02 0.  0.
<mgrwt>
<rscale>  0 0.28711977E+04</rscale>
<asrwt>0</asrwt>
<pdfrwt beam="1">  1        2 0.66020980E+00 0.28711977E+04</pdfrwt>
<pdfrwt beam="2">  1       -2 0.73885212E-01 0.28711977E+04</pdfrwt>
<totfact> 0.27589093E-01</totfact>
</mgrwt>
</event>
<event>
12    1  0.1789950E-010  0.2816429E+04  0.7818608E-02  0.8298186E-01
          2   -1    0    0  501    0  0.00000000000E+00  0.00000000000E+00  0.13751331773E+04  0.13751331773E+04  0.00000000000E+00 0. -1.
         -2   -1    0    0    0  501 -0.00000000000E+00 -0.00000000000E+00 -0.14420919834E+04  0.14420919834E+04  0.00000000000E+00 0.  1.
    9900016    2    1    2    0    0 -0.96638629575E+02  0.30846155395E+03 -0.17339166993E+03  0.22196835925E+04  0.21891649149E+04 0.  0.
         24    2    3    3    0    0 -0.65207862194E+03  0.32032074064E+03  0.30823661607E+03  0.79561316072E+03  0.10088896842E+03 0.  0.
         23    2    3    3    0    0 -0.19495087065E+03  0.39002345042E+03  0.11164059040E+01  0.44548035472E+03  0.91254403920E+02 0.  0.
        -15    1    4    4    0    0 -0.35336469186E+03  0.20677769193E+03  0.12924344723E+03  0.42933377224E+03  0.00000000000E+00 0.  1.
        -15    1    5    5    0    0 -0.76844801365E+01  0.73080714792E+02  0.22145032935E+02  0.76747928917E+02  0.00000000000E+00 0. -1.
         15    1    5    5    0    0 -0.18726639051E+03  0.31694273562E+03 -0.21028627031E+02  0.36873242580E+03  0.00000000000E+00 0.  1.
         15    1    3    3    0    0  0.75039086302E+03 -0.40188263711E+03 -0.48274469191E+03  0.97859007704E+03  0.00000000000E+00 0. -1.
        -16    1    1    2    0    0  0.32500495697E+02 -0.34352240284E+03 -0.10092874457E+03  0.35951430424E+03  0.00000000000E+00 0.  1.
         16    1    4    4    0    0 -0.29871393008E+03  0.11354304871E+03  0.17899316884E+03  0.36627938848E+03  0.00000000000E+00 0. -1.
    9900018    1    1    2    0    0  0.64138133878E+02  0.35060848894E+02  0.20736160840E+03  0.23802726393E+03  0.91187600000E+02 0.  0.
<mgrwt>
<rscale>  0 0.28164293E+04</rscale>
<asrwt>0</asrwt>
<pdfrwt beam="1">  1        2 0.21155895E+00 0.28164293E+04</pdfrwt>
<pdfrwt beam="2">  1       -2 0.22186030E+00 0.28164293E+04</pdfrwt>
<totfact> 0.12500728E+00</totfact>
</mgrwt>
</event>
<event>
11    1  0.1789950E-010  0.3104578E+04  0.7818608E-02  0.8214483E-01
          2   -1    0    0  501    0  0.00000000000E+00  0.00000000000E+00  0.23685051054E+04  0.23685051054E+04  0.00000000000E+00 0. -1.
         -2   -1    0    0    0  501 -0.00000000000E+00 -0.00000000000E+00 -0.10173509352E+04  0.10173509352E+04  0.00000000000E+00 0.  1.
    9900016    2    1    2    0    0 -0.34576506683E+03 -0.29013946381E+03  0.62145868230E+03  0.23526033137E+04  0.22236899667E+04 0.  0.
         23    2    3    3    0    0  0.27524457943E+03  0.16640935561E+03  0.94791443940E+02  0.34813231270E+03  0.93589727856E+02 0.  0.
        -15    1    3    3    0    0  0.28186287920E+03 -0.33413662056E+03  0.91470114890E+03  0.10137909822E+04  0.00000000000E+00 0.  1.
        -15    1    4    4    0    0  0.24881200000E+03  0.10917609040E+03  0.81894971194E+02  0.28378445406E+03  0.00000000000E+00 0. -1.
         15    1    3    3    0    0 -0.51057855531E+03 -0.68442232302E+02 -0.23373002141E+03  0.56568942293E+03  0.00000000000E+00 0. -1.
         15    1    4    4    0    0  0.26432579434E+02  0.57233265216E+02  0.12896472746E+02  0.64347858644E+02  0.00000000000E+00 0.  1.
        -16    1    3    3    0    0 -0.39229397016E+03 -0.53969966564E+02 -0.15430388914E+03  0.42499059580E+03  0.00000000000E+00 0.  1.
         16    1    1    2    0    0  0.28938429169E+03  0.38077905090E+03  0.75190003734E+03  0.89111706304E+03  0.00000000000E+00 0. -1.
    9900018    1    1    2    0    0  0.56380775141E+02 -0.90639587092E+02 -0.22204549428E+02  0.14213566394E+03  0.91187600000E+02 0.  0.
<mgrwt>
<rscale>  0 0.31045778E+04</rscale>
<asrwt>0</asrwt>
<pdfrwt beam="1">  1        2 0.36438540E+00 0.31045778E+04</pdfrwt>
<pdfrwt beam="2">  1       -2 0.15651553E+00 0.31045778E+04</pdfrwt>
<totfact> 0.94038504E-01</totfact>
</mgrwt>
</event>
<event>
11    1  0.1789950E-010  0.3347740E+04  0.7818608E-02  0.8150853E-01
         -1   -1    0    0    0  501 -0.00000000000E+00  0.00000000000E+00  0.74987427303E+03  0.74987427303E+03  0.00000000000E+00 0.  1.
          1   -1    0    0  501    0  0.00000000000E+00 -0.00000000000E+00 -0.37364150107E+04  0.37364150107E+04  0.00000000000E+00 0. -1.
    9900016    2    1    2    0    0  0.10227743610E+02 -0.43379551362E+03 -0.16747900007E+04  0.28094423280E+04  0.22135404884E+04 0.  0.
         23    2    3    3    0    0 -0.34427550918E+02  0.60995153820E+02  0.49216018922E+02  0.12534902318E+03  0.91566893810E+02 0.  0.
        -15    1    4    4    0    0 -0.92698292035E+01 -0.21729788260E+02  0.27390617497E+02  0.36171250437E+02  0.00000000000E+00 0.  1.
        -15    1    3    3    0    0  0.40150030771E+03 -0.97881911763E+03 -0.17762431842E+04  0.20674450927E+04  0.00000000000E+00 0.  1.
         15    1    4    4    0    0 -0.25157721714E+02  0.82724942081E+02  0.21825401424E+02  0.89177772743E+02  0.00000000000E+00 0. -1.
         15    1    3    3    0    0 -0.39636595524E+02  0.10683267930E+03 -0.27936095873E+02  0.11732308607E+03  0.00000000000E+00 0. -1.
        -16    1    3    3    0    0 -0.31720841766E+03  0.37719577089E+03  0.80173260452E+02  0.49932512605E+03  0.00000000000E+00 0.  1.
         16    1    1    2    0    0 -0.18464270545E+03  0.25550350388E+03 -0.13693011514E+04  0.14051194300E+04  0.00000000000E+00 0. -1.
    9900018    1    1    2    0    0  0.17441496184E+03  0.17829200974E+03  0.57550414434E+02  0.27172752574E+03  0.91187600000E+02 0.  0.
<mgrwt>
<rscale>  0 0.33477404E+04</rscale>
<asrwt>0</asrwt>
<pdfrwt beam="1">  1        1 0.57483308E+00 0.33477404E+04</pdfrwt>
<pdfrwt beam="2">  1       -1 0.11536527E+00 0.33477404E+04</pdfrwt>
<totfact> 0.90471926E-02</totfact>
</mgrwt>
</event>
