<event>
12    1  0.1789460E-006  0.4029892E+04  0.7818608E-02  0.8434176E-01
         -2   -1    0    0    0  501 -0.00000000000E+00  0.00000000000E+00  0.19219769170E+04  0.19219769170E+04  0.00000000000E+00 0.  1.
          2   -1    0    0  501    0  0.00000000000E+00 -0.00000000000E+00 -0.39961097899E+04  0.39961097899E+04  0.00000000000E+00 0. -1.
        -24    2    1    2    0    0 -0.22348882430E+03  0.46179404286E+03 -0.18061740991E+04  0.18792962544E+04  0.79300332148E+02 0.  0.
    9900016    2    1    2    0    0 -0.86720288022E+03 -0.75790683873E+03  0.13018445083E+03  0.24897491549E+04  0.22035061269E+04 0.  0.
         23    2    4    4    0    0 -0.32568637872E+03  0.11074584058E+03  0.10528982550E+04  0.11116350946E+04  0.93816788630E+02 0.  0.
        -15    1    1    2    0    0  0.95173121631E+03  0.16844337116E+03  0.13526026654E+03  0.97594099058E+03  0.00000000000E+00 0.  1.
        -15    1    5    5    0    0 -0.18668796239E+03  0.14185784007E+02  0.56554386589E+03  0.59572938153E+03  0.00000000000E+00 0.  1.
         15    1    5    5    0    0 -0.13899841633E+03  0.96560056572E+02  0.48735438907E+03  0.51590571310E+03  0.00000000000E+00 0. -1.
         15    1    3    3    0    0 -0.18667321899E+03  0.43547854919E+03 -0.16570928086E+04  0.17234979066E+04  0.00000000000E+00 0. -1.
        -16    1    3    3    0    0 -0.36815605305E+02  0.26315493668E+02 -0.14908129049E+03  0.15579834779E+03  0.00000000000E+00 0.  1.
         16    1    4    4    0    0 -0.54151650149E+03 -0.86865267931E+03 -0.92271380413E+03  0.13781140602E+04  0.00000000000E+00 0. -1.
    9900018    1    1    2    0    0  0.13896048820E+03  0.12766942471E+03 -0.53340349116E+03  0.57310030716E+03  0.91187600000E+02 0.  0.
<mgrwt>
<rscale>  0 0.24142810E+04</rscale>
<asrwt>0</asrwt>
<pdfrwt beam="1">  1        2 0.61478611E+00 0.40298916E+04</pdfrwt>
<pdfrwt beam="2">  1       -2 0.29568876E+00 0.40298916E+04</pdfrwt>
<totfact> 0.87037502E-03</totfact>
</mgrwt>
</event>
<event>
12    1  0.1789460E-006  0.5123057E+04  0.7818608E-02  0.8098758E-01
          2   -1    0    0  501    0  0.00000000000E+00  0.00000000000E+00  0.39621791593E+04  0.39621791593E+04  0.00000000000E+00 0.  1.
         -2   -1    0    0    0  501 -0.00000000000E+00 -0.00000000000E+00 -0.26903430023E+04  0.26903430023E+04  0.00000000000E+00 0. -1.
         24    2    1    2    0    0 -0.20132332229E+03 -0.11803651630E+04  0.92960405346E+03  0.15180473246E+04  0.80690677457E+02 0.  0.
    9900016    2    1    2    0    0  0.63926974767E+03  0.16175170952E+04  0.18254156221E+04  0.33252546773E+04  0.21679827287E+04 0.  0.
         23    2    4    4    0    0  0.42475428866E+03 -0.48415257944E+03  0.58843491109E+03  0.87716285243E+03  0.91318668286E+02 0.  0.
        -15    1    5    5    0    0  0.37962989121E+03 -0.43854835414E+03  0.56241310744E+03  0.80793070040E+03  0.00000000000E+00 0. -1.
        -15    1    3    3    0    0 -0.19816135419E+03 -0.98562802427E+03  0.78132986358E+03  0.12732662252E+04  0.00000000000E+00 0.  1.
         15    1    1    2    0    0  0.92358454302E+02 -0.26452597713E+03 -0.10781378533E+04  0.11139503164E+04  0.00000000000E+00 0. -1.
         15    1    5    5    0    0  0.45124397451E+02 -0.45604225296E+02  0.26021803657E+02  0.69232152037E+02  0.00000000000E+00 0.  1.
        -16    1    4    4    0    0  0.21451545900E+03  0.21016696746E+04  0.12369807110E+04  0.24480918248E+04  0.00000000000E+00 0.  1.
         16    1    3    3    0    0 -0.31619681005E+01 -0.19473713873E+03  0.14827418989E+03  0.24478109941E+03  0.00000000000E+00 0. -1.
    9900018    1    1    2    0    0 -0.53030487968E+03 -0.17262595506E+03 -0.40504566525E+03  0.69526984337E+03  0.91187600000E+02 0.  0.
<mgrwt>
<rscale>  0 0.35641308E+04</rscale>
<asrwt>0</asrwt>
<pdfrwt beam="1">  1        2 0.60956602E+00 0.51230566E+04</pdfrwt>
<pdfrwt beam="2">  1       -2 0.41389892E+00 0.51230566E+04</pdfrwt>
<totfact> 0.15129864E-03</totfact>
</mgrwt>
</event>
<event>
12    1  0.1789460E-006  0.4913632E+04  0.7818608E-02  0.8083143E-01
          1   -1    0    0  501    0  0.00000000000E+00  0.00000000000E+00  0.43078767398E+04  0.43078767398E+04  0.00000000000E+00 0. -1.
         -1   -1    0    0    0  501 -0.00000000000E+00 -0.00000000000E+00 -0.24943571347E+04  0.24943571347E+04  0.00000000000E+00 0.  1.
         24    2    1    2    0    0 -0.11067474346E+04  0.95993394607E+03 -0.22151931788E+03  0.14838537220E+04  0.79924935852E+02 0.  0.
    9900016    2    1    2    0    0  0.18131750261E+04 -0.46933477560E+03  0.13995930990E+04  0.32134840908E+04  0.22044818784E+04 0.  0.
         23    2    4    4    0    0  0.47860675873E+03 -0.39105047599E+03  0.17274766709E+04  0.18369999723E+04  0.91697030772E+02 0.  0.
        -15    1    5    5    0    0  0.42794025126E+03 -0.32248459371E+03  0.15522150708E+04  0.16421025540E+04  0.00000000000E+00 0.  1.
        -15    1    3    3    0    0 -0.89413451363E+03  0.78433184281E+03 -0.21052968232E+03  0.12078806709E+04  0.00000000000E+00 0.  1.
         15    1    5    5    0    0  0.50666507469E+02 -0.68565882276E+02  0.17526160014E+03  0.19489741834E+03  0.00000000000E+00 0. -1.
         15    1    1    2    0    0 -0.90204948567E+03 -0.10372243478E+04  0.64207955923E+03  0.15171663662E+04  0.00000000000E+00 0. -1.
        -16    1    4    4    0    0  0.13345682674E+04 -0.78284299610E+02 -0.32788357188E+03  0.13764841185E+04  0.00000000000E+00 0.  1.
         16    1    3    3    0    0 -0.21261292100E+03  0.17560210325E+03 -0.10989635562E+02  0.27597305110E+03  0.00000000000E+00 0. -1.
    9900018    1    1    2    0    0  0.19562189420E+03  0.54662517736E+03 -0.66337352506E+01  0.58772969540E+03  0.91187600000E+02 0.  0.
<mgrwt>
<rscale>  0 0.36322541E+04</rscale>
<asrwt>0</asrwt>
<pdfrwt beam="1">  1        1 0.66275027E+00 0.49136325E+04</pdfrwt>
<pdfrwt beam="2">  1       -1 0.38374725E+00 0.49136325E+04</pdfrwt>
<totfact> 0.31719458E-04</totfact>
</mgrwt>
</event>
<event>
12    1  0.1789460E-006  0.4206587E+04  0.7818608E-02  0.8356570E-01
          2   -1    0    0  501    0  0.00000000000E+00  0.00000000000E+00  0.30287626070E+04  0.30287626070E+04  0.00000000000E+00 0. -1.
         -2   -1    0    0    0  501 -0.00000000000E+00 -0.00000000000E+00 -0.24863381811E+04  0.24863381811E+04  0.00000000000E+00 0.  1.
         24    2    1    2    0    0 -0.43060752877E+03  0.47655875988E+03  0.10954334705E+04  0.12723198160E+04  0.79322950702E+02 0.  0.
    9900016    2    1    2    0    0 -0.35108673787E+02  0.27537051703E+03 -0.62597943273E+03  0.22852823454E+04  0.21802760393E+04 0.  0.
         23    2    4    4    0    0  0.52228420018E+03  0.79067803288E+03 -0.10488498875E+04  0.14163473229E+04  0.89448952923E+02 0.  0.
        -15    1    5    5    0    0  0.96197184169E+00  0.20268229940E+02 -0.34645204901E+02  0.40149928485E+02  0.00000000000E+00 0.  1.
        -15    1    3    3    0    0 -0.93289313133E+02  0.94942695695E+02  0.16915035867E+03  0.21524138833E+03  0.00000000000E+00 0.  1.
         15    1    1    2    0    0  0.72483712314E+03 -0.12049626690E+04 -0.72625682907E+02  0.14080477188E+04  0.00000000000E+00 0. -1.
         15    1    5    5    0    0  0.52132222834E+03  0.77040980294E+03 -0.10142046826E+04  0.13761973944E+04  0.00000000000E+00 0. -1.
        -16    1    4    4    0    0 -0.55739287397E+03 -0.51530751585E+03  0.42287045473E+03  0.86893502250E+03  0.00000000000E+00 0.  1.
         16    1    3    3    0    0 -0.33731821563E+03  0.38161606419E+03  0.92628311183E+03  0.10570784277E+04  0.00000000000E+00 0. -1.
    9900018    1    1    2    0    0 -0.25912092059E+03  0.45303339204E+03  0.14559607108E+03  0.54945090782E+03  0.91187600000E+02 0.  0.
<mgrwt>
<rscale>  0 0.26345183E+04</rscale>
<asrwt>0</asrwt>
<pdfrwt beam="1">  1        2 0.46596348E+00 0.42065867E+04</pdfrwt>
<pdfrwt beam="2">  1       -2 0.38251357E+00 0.42065867E+04</pdfrwt>
<totfact> 0.11964279E-02</totfact>
</mgrwt>
</event>
<event>
12    1  0.1789460E-006  0.4113598E+04  0.7818608E-02  0.8343241E-01
          2   -1    0    0  501    0  0.00000000000E+00  0.00000000000E+00  0.29214756058E+04  0.29214756058E+04  0.00000000000E+00 0. -1.
         -2   -1    0    0    0  501 -0.00000000000E+00 -0.00000000000E+00 -0.26487886936E+04  0.26487886936E+04  0.00000000000E+00 0.  1.
         24    2    1    2    0    0 -0.66194341551E+03  0.30990345642E+03  0.11492068128E+04  0.13643193349E+04  0.80509076190E+02 0.  0.
    9900016    2    1    2    0    0 -0.32174199739E+03  0.59170761140E+03 -0.61890894396E+03  0.23947316793E+04  0.22131551515E+04 0.  0.
         23    2    4    4    0    0  0.45286053278E+03  0.39083734798E+03 -0.12412999117E+04  0.13809622483E+04  0.91622953981E+02 0.  0.
        -15    1    3    3    0    0 -0.41024941579E+03  0.18349417386E+03  0.63366443386E+03  0.77685604183E+03  0.00000000000E+00 0.  1.
        -15    1    5    5    0    0  0.50966024443E+02  0.21649145602E+02 -0.16797963973E+03  0.17687108446E+03  0.00000000000E+00 0.  1.
         15    1    1    2    0    0  0.10172643415E+04 -0.78797967142E+03  0.22472858657E+03  0.13062318480E+04  0.00000000000E+00 0. -1.
         15    1    5    5    0    0  0.40189450834E+03  0.36918820238E+03 -0.10733202720E+04  0.12040911639E+04  0.00000000000E+00 0. -1.
        -16    1    4    4    0    0 -0.77460253018E+03  0.20087026342E+03  0.62239096776E+03  0.10137694310E+04  0.00000000000E+00 0.  1.
         16    1    3    3    0    0 -0.25169399973E+03  0.12640928256E+03  0.51554237893E+03  0.58746329306E+03  0.00000000000E+00 0. -1.
    9900018    1    1    2    0    0 -0.33578928559E+02 -0.11363139640E+03 -0.48233954319E+03  0.50498143729E+03  0.91187600000E+02 0.  0.
<mgrwt>
<rscale>  0 0.26747611E+04</rscale>
<asrwt>0</asrwt>
<pdfrwt beam="1">  1        2 0.44945778E+00 0.41135977E+04</pdfrwt>
<pdfrwt beam="2">  1       -2 0.40750595E+00 0.41135977E+04</pdfrwt>
<totfact> 0.96227339E-03</totfact>
</mgrwt>
</event>
