<event>
11    1  0.1031407E-009  0.2744950E+04  0.7818608E-02  0.8320566E-01
          2   -1    0    0  501    0  0.00000000000E+00  0.00000000000E+00  0.21692621048E+04  0.21692621048E+04  0.00000000000E+00 0. -1.
         -2   -1    0    0    0  501 -0.00000000000E+00 -0.00000000000E+00 -0.86835433319E+03  0.86835433319E+03  0.00000000000E+00 0.  1.
    9900016    2    1    2    0    0  0.40477572617E+03  0.24110584905E+03  0.91856569555E+03  0.24308538139E+04  0.22007525777E+04 0.  0.
         24    2    3    3    0    0 -0.25092576172E+03 -0.21086982330E+03 -0.31899833300E+02  0.33927942587E+03  0.81627870106E+02 0.  0.
        -15    1    4    4    0    0 -0.12832716781E+03 -0.14277449323E+03  0.11955488245E+02  0.19234175733E+03  0.00000000000E+00 0.  1.
        -15    1    3    3    0    0 -0.14174600204E+03  0.13274662022E+03 -0.95976467871E+02  0.21662196717E+03  0.00000000000E+00 0.  1.
         15    1    3    3    0    0  0.49112741400E+03 -0.27974808521E+03  0.25832067594E+03  0.62144565296E+03  0.00000000000E+00 0. -1.
         15    1    3    3    0    0 -0.78595169288E+02 -0.33530195176E+02 -0.74272288768E+02  0.11321593308E+03  0.00000000000E+00 0. -1.
        -16    1    1    2    0    0 -0.40477572617E+03 -0.24110584905E+03  0.38234207606E+03  0.60676262415E+03  0.00000000000E+00 0.  1.
         16    1    4    4    0    0 -0.12259859391E+03 -0.68095330072E+02 -0.43855321545E+02  0.14693766853E+03  0.00000000000E+00 0. -1.
    9900018    1    3    3    0    0  0.38491524522E+03  0.63250733252E+03  0.86239360955E+03  0.11402908348E+04  0.91187600000E+02 0.  0.
<mgrwt>
<rscale>  0 0.27449504E+04</rscale>
<asrwt>0</asrwt>
<pdfrwt beam="1">  1        2 0.33373263E+00 0.27449504E+04</pdfrwt>
<pdfrwt beam="2">  1       -2 0.13359298E+00 0.27449504E+04</pdfrwt>
<totfact> 0.19031584E+00</totfact>
</mgrwt>
</event>
<event>
11    1  0.1031407E-009  0.2690998E+04  0.7818608E-02  0.8337932E-01
         -1   -1    0    0    0  501 -0.00000000000E+00  0.00000000000E+00  0.82935029883E+03  0.82935029883E+03  0.00000000000E+00 0.  1.
          1   -1    0    0  501    0  0.00000000000E+00 -0.00000000000E+00 -0.21828746835E+04  0.21828746835E+04  0.00000000000E+00 0. -1.
    9900016    2    1    2    0    0 -0.27147747121E+03  0.35993263640E+03 -0.11873938320E+04  0.25317555445E+04  0.21901211165E+04 0.  0.
         24    2    3    3    0    0  0.15059668629E+03  0.74227552067E+03 -0.11292834029E+03  0.76986514190E+03  0.79291967845E+02 0.  0.
        -15    1    4    4    0    0  0.74052193904E+02  0.34862515591E+03 -0.93048788549E+02  0.36834943166E+03  0.00000000000E+00 0.  1.
        -15    1    3    3    0    0  0.16159452158E+03 -0.98250444763E+02 -0.48477655540E+03  0.52035972938E+03  0.00000000000E+00 0.  1.
         15    1    3    3    0    0  0.28298359472E+02 -0.97780939033E+02 -0.55416481690E+03  0.56343637926E+03  0.00000000000E+00 0. -1.
         15    1    3    3    0    0 -0.21037418414E+03 -0.11569590533E+03  0.64215792431E+02  0.24852868619E+03  0.00000000000E+00 0. -1.
        -16    1    1    2    0    0  0.27147747121E+03 -0.35993263640E+03 -0.16613055267E+03  0.48046943779E+03  0.00000000000E+00 0.  1.
         16    1    4    4    0    0  0.76544492382E+02  0.39365036477E+03 -0.19879551740E+02  0.40151571024E+03  0.00000000000E+00 0. -1.
    9900018    1    3    3    0    0 -0.40159285440E+03 -0.70615595150E+02 -0.99739911835E+02  0.42956560778E+03  0.91187600000E+02 0.  0.
<mgrwt>
<rscale>  0 0.26909982E+04</rscale>
<asrwt>0</asrwt>
<pdfrwt beam="1">  1        1 0.33582687E+00 0.26909982E+04</pdfrwt>
<pdfrwt beam="2">  1       -1 0.12759236E+00 0.26909982E+04</pdfrwt>
<totfact> 0.10393355E+00</totfact>
</mgrwt>
</event>
<event>
12    1  0.1031407E-009  0.3041799E+04  0.7818608E-02  0.8231895E-01
         -1   -1    0    0    0  501 -0.00000000000E+00  0.00000000000E+00  0.16701465132E+04  0.16701465132E+04  0.00000000000E+00 0.  1.
          1   -1    0    0  501    0  0.00000000000E+00 -0.00000000000E+00 -0.13849892537E+04  0.13849892537E+04  0.00000000000E+00 0. -1.
    9900016    2    1    2    0    0 -0.32729643457E+03  0.53689376200E+03  0.57400807063E+03  0.23631728641E+04  0.22044779093E+04 0.  0.
         23    2    3    3    0    0 -0.24472160132E+03 -0.12145114947E+03 -0.18035365417E+03  0.34762084548E+03  0.11693488692E+03 0.  0.
        -24    2    3    3    0    0 -0.76760086776E+03  0.20859037467E+03 -0.39957477798E+02  0.80095716968E+03  0.84939690557E+02 0.  0.
        -15    1    4    4    0    0 -0.14252349434E+03 -0.82989169050E+02 -0.39844050806E+02  0.16966937556E+03  0.00000000000E+00 0.  1.
        -15    1    3    3    0    0  0.68216605790E+03  0.46381824760E+03  0.69138677163E+03  0.10763333895E+04  0.00000000000E+00 0.  1.
         15    1    5    5    0    0 -0.53947442320E+03  0.15736901377E+03  0.92234127740E+01  0.56203445724E+03  0.00000000000E+00 0. -1.
         15    1    4    4    0    0 -0.10219810698E+03 -0.38461980423E+02 -0.14050960336E+03  0.17795146992E+03  0.00000000000E+00 0. -1.
        -16    1    5    5    0    0 -0.22812644456E+03  0.51221360895E+02 -0.49180890572E+02  0.23892271244E+03  0.00000000000E+00 0.  1.
         16    1    1    2    0    0  0.32729643457E+03 -0.53689376200E+03 -0.28885081112E+03  0.69196290279E+03  0.00000000000E+00 0. -1.
    9900018    1    3    3    0    0  0.28599766191E+01 -0.14063710799E+02  0.10293243097E+03  0.13826145944E+03  0.91187600000E+02 0.  0.
<mgrwt>
<rscale>  0 0.30417988E+04</rscale>
<asrwt>0</asrwt>
<pdfrwt beam="1">  1        1 0.21307527E+00 0.30417988E+04</pdfrwt>
<pdfrwt beam="2">  1       -1 0.25694562E+00 0.30417988E+04</pdfrwt>
<totfact> 0.41929982E-01</totfact>
</mgrwt>
</event>
<event>
12    1  0.1031407E-009  0.2496972E+04  0.7818608E-02  0.8404065E-01
          2   -1    0    0  501    0  0.00000000000E+00  0.00000000000E+00  0.35031717338E+04  0.35031717338E+04  0.00000000000E+00 0. -1.
         -2   -1    0    0    0  501 -0.00000000000E+00 -0.00000000000E+00 -0.44494440753E+03  0.44494440753E+03  0.00000000000E+00 0.  1.
    9900016    2    1    2    0    0 -0.18740692287E+02 -0.27567500695E+03  0.26604606378E+04  0.34637957294E+04  0.22007912501E+04 0.  0.
         23    2    3    3    0    0 -0.26087789855E+03 -0.26762608235E+03  0.55174370245E+03  0.67461168640E+03  0.10487524170E+03 0.  0.
        -24    2    3    3    0    0 -0.50588305435E+03 -0.11755083289E+03  0.14135248113E+03  0.54418550286E+03  0.80134103913E+02 0.  0.
        -15    1    4    4    0    0 -0.12515791482E+03 -0.10886649216E+03  0.33379522605E+03  0.37274075400E+03  0.00000000000E+00 0.  1.
        -15    1    3    3    0    0  0.24381456778E+03  0.35547549490E+03  0.44293776241E+03  0.61806329150E+03  0.00000000000E+00 0.  1.
         15    1    5    5    0    0 -0.27439772311E+03 -0.89405579816E+02  0.11021714715E+03  0.30892602299E+03  0.00000000000E+00 0. -1.
         15    1    4    4    0    0 -0.13571998373E+03 -0.15875959018E+03  0.21794847640E+03  0.30187093239E+03  0.00000000000E+00 0. -1.
        -16    1    5    5    0    0 -0.23148533124E+03 -0.28145253077E+02  0.31135333975E+02  0.23525947987E+03  0.00000000000E+00 0.  1.
         16    1    1    2    0    0  0.18740692287E+02  0.27567500695E+03  0.39776668840E+03  0.48432041193E+03  0.00000000000E+00 0. -1.
    9900018    1    3    3    0    0  0.50420569283E+03 -0.24597358661E+03  0.15244266918E+04  0.16269352486E+04  0.91187600000E+02 0.  0.
<mgrwt>
<rscale>  0 0.24969715E+04</rscale>
<asrwt>0</asrwt>
<pdfrwt beam="1">  1        2 0.53894948E+00 0.24969715E+04</pdfrwt>
<pdfrwt beam="2">  1       -2 0.68452988E-01 0.24969715E+04</pdfrwt>
<totfact> 0.14102018E+00</totfact>
</mgrwt>
</event>
<event>
11    1  0.1031407E-009  0.2424216E+04  0.7818608E-02  0.8430493E-01
         -2   -1    0    0    0  501 -0.00000000000E+00  0.00000000000E+00  0.44729569723E+03  0.44729569723E+03  0.00000000000E+00 0.  1.
          2   -1    0    0  501    0  0.00000000000E+00 -0.00000000000E+00 -0.32846402634E+04  0.32846402634E+04  0.00000000000E+00 0. -1.
    9900016    2    1    2    0    0  0.74333002670E+02 -0.36219403229E+02 -0.28926082936E+04  0.36324808451E+04  0.21956541416E+04 0.  0.
         24    2    3    3    0    0 -0.35098859814E+03  0.65237652477E+03 -0.66753876813E+03  0.10003720149E+04  0.79674557494E+02 0.  0.
        -15    1    3    3    0    0  0.10782141355E+03 -0.16364911720E+03 -0.56141768637E+03  0.59463964664E+03  0.00000000000E+00 0.  1.
        -15    1    4    4    0    0 -0.48175635090E+02  0.13012585442E+03 -0.15902355092E+03  0.21105004040E+03  0.00000000000E+00 0.  1.
         15    1    3    3    0    0  0.99094993588E+02  0.77127542616E+02  0.42899073300E+02  0.13269817660E+03  0.00000000000E+00 0. -1.
         15    1    3    3    0    0  0.97956930012E+02 -0.54869566325E+03 -0.16384757268E+04  0.17306834484E+04  0.00000000000E+00 0. -1.
        -16    1    1    2    0    0 -0.74333002670E+02  0.36219403229E+02  0.55263727341E+02  0.99455115585E+02  0.00000000000E+00 0.  1.
         16    1    4    4    0    0 -0.30281296305E+03  0.52225067034E+03 -0.50851521721E+03  0.78932197448E+03  0.00000000000E+00 0. -1.
    9900018    1    3    3    0    0  0.12044826366E+03 -0.53378690163E+02 -0.68075185518E+02  0.17408755860E+03  0.91187600000E+02 0.  0.
<mgrwt>
<rscale>  0 0.24242157E+04</rscale>
<asrwt>0</asrwt>
<pdfrwt beam="1">  1        2 0.50532926E+00 0.24242157E+04</pdfrwt>
<pdfrwt beam="2">  1       -2 0.68814724E-01 0.24242157E+04</pdfrwt>
<totfact> 0.19769093E+00</totfact>
</mgrwt>
</event>
<event>
12    1  0.1031407E-009  0.2798915E+04  0.7818608E-02  0.8303605E-01
          2   -1    0    0  501    0  0.00000000000E+00  0.00000000000E+00  0.20723632725E+04  0.20723632725E+04  0.00000000000E+00 0. -1.
         -2   -1    0    0    0  501 -0.00000000000E+00 -0.00000000000E+00 -0.94504736569E+03  0.94504736569E+03  0.00000000000E+00 0.  1.
    9900016    2    1    2    0    0 -0.33082330651E+03 -0.42155703353E+03  0.90152586612E+03  0.24359164120E+04  0.21985871569E+04 0.  0.
         23    2    3    3    0    0 -0.32290118836E+03  0.45078918294E+03  0.66239848991E+02  0.57162873669E+03  0.12204765511E+03 0.  0.
         24    2    3    3    0    0  0.12463942434E+03 -0.11655554348E+03 -0.27083125338E+03  0.33029112338E+03  0.81378606295E+02 0.  0.
        -15    1    5    5    0    0  0.52527726693E+02 -0.10538355694E+02 -0.12566402077E+03  0.13660770523E+03  0.00000000000E+00 0.  1.
        -15    1    4    4    0    0 -0.30323407882E+03  0.39970970048E+03  0.93702009709E+02  0.51039084811E+03  0.00000000000E+00 0.  1.
         15    1    3    3    0    0  0.29508374987E+03 -0.36043584912E+03  0.39859748203E+03  0.61308104966E+03  0.00000000000E+00 0. -1.
         15    1    4    4    0    0 -0.19667109540E+02  0.51079482464E+02 -0.27462160718E+02  0.61237888580E+02  0.00000000000E+00 0. -1.
        -16    1    1    2    0    0  0.33082330651E+03  0.42155703353E+03  0.22579004072E+03  0.58149422623E+03  0.00000000000E+00 0.  1.
         16    1    5    5    0    0  0.72111697646E+02 -0.10601718779E+03 -0.14516723261E+03  0.19368341815E+03  0.00000000000E+00 0. -1.
    9900018    1    3    3    0    0 -0.42764529236E+03 -0.39535482387E+03  0.70751978847E+03  0.92091550226E+03  0.91187600000E+02 0.  0.
<mgrwt>
<rscale>  0 0.27989151E+04</rscale>
<asrwt>0</asrwt>
<pdfrwt beam="1">  1        2 0.31882512E+00 0.27989151E+04</pdfrwt>
<pdfrwt beam="2">  1       -2 0.14539190E+00 0.27989151E+04</pdfrwt>
<totfact> 0.17239685E+00</totfact>
</mgrwt>
</event>
<event>
12    1  0.1031407E-009  0.2522294E+04  0.7818608E-02  0.8395086E-01
         -4   -1    0    0    0  501 -0.00000000000E+00  0.00000000000E+00  0.99452550248E+03  0.99452550248E+03  0.00000000000E+00 0.  1.
          4   -1    0    0  501    0  0.00000000000E+00 -0.00000000000E+00 -0.15992463576E+04  0.15992463576E+04  0.00000000000E+00 0. -1.
    9900016    2    1    2    0    0 -0.16229826497E+03 -0.88630496361E+02 -0.28740881231E+03  0.22265076171E+04  0.22001218720E+04 0.  0.
         23    2    3    3    0    0  0.15343866129E+03 -0.17688579821E+03 -0.36492944040E+03  0.44056323233E+03  0.78041378954E+02 0.  0.
        -24    2    3    3    0    0  0.39524170174E+02 -0.28624410135E+03 -0.86562520551E+02  0.31190534837E+03  0.79334927953E+02 0.  0.
        -15    1    3    3    0    0 -0.15010740229E+03  0.71132533650E+03 -0.36047638281E+03  0.81145498281E+03  0.00000000000E+00 0.  1.
        -15    1    4    4    0    0  0.96815472974E+02 -0.73616084125E+02 -0.13160599569E+03  0.17920017229E+03  0.00000000000E+00 0.  1.
         15    1    4    4    0    0  0.56623188315E+02 -0.10326971408E+03 -0.23332344471E+03  0.26136306004E+03  0.00000000000E+00 0. -1.
         15    1    5    5    0    0  0.63276532250E+02 -0.19658636263E+03 -0.66986999331E+02  0.21711143587E+03  0.00000000000E+00 0. -1.
        -16    1    5    5    0    0 -0.23752362076E+02 -0.89657738726E+02 -0.19575521220E+02  0.94793912508E+02  0.00000000000E+00 0.  1.
         16    1    1    2    0    0  0.16229826497E+03  0.88630496361E+02 -0.31731204281E+03  0.36726424304E+03  0.00000000000E+00 0. -1.
    9900018    1    3    3    0    0 -0.20515369415E+03 -0.33682593330E+03  0.52455953145E+03  0.66258405353E+03  0.91187600000E+02 0.  0.
<mgrwt>
<rscale>  0 0.25222936E+04</rscale>
<asrwt>0</asrwt>
<pdfrwt beam="1">  1        4 0.24603790E+00 0.25222936E+04</pdfrwt>
<pdfrwt beam="2">  1       -4 0.15300392E+00 0.25222936E+04</pdfrwt>
<totfact> 0.33525276E-02</totfact>
</mgrwt>
</event>
<event>
12    1  0.1031407E-009  0.3092366E+04  0.7818608E-02  0.8217836E-01
          2   -1    0    0  501    0  0.00000000000E+00  0.00000000000E+00  0.29938176934E+04  0.29938176934E+04  0.00000000000E+00 0. -1.
         -2   -1    0    0    0  501 -0.00000000000E+00 -0.00000000000E+00 -0.79853952089E+03  0.79853952089E+03  0.00000000000E+00 0.  1.
    9900016    2    1    2    0    0  0.54806190961E+03 -0.32925253275E+03  0.21726815996E+04  0.31525996882E+04  0.21930709914E+04 0.  0.
         23    2    3    3    0    0 -0.64743286494E+02  0.70111651907E+03  0.87463732488E+03  0.11281631979E+04  0.10957045505E+03 0.  0.
         24    2    3    3    0    0  0.31417131638E+03 -0.41267182813E+03  0.52342176150E+03  0.74121051485E+03  0.80131349317E+02 0.  0.
        -15    1    4    4    0    0 -0.47587313287E+02  0.11760257049E+03  0.12573806613E+03  0.17861964686E+03  0.00000000000E+00 0. -1.
        -15    1    5    5    0    0  0.13167796653E+03 -0.11334709364E+03  0.18875836023E+03  0.25654701141E+03  0.00000000000E+00 0.  1.
         15    1    3    3    0    0  0.18907965251E+03 -0.55445410897E+03  0.10432000753E+03  0.59502364484E+03  0.00000000000E+00 0. -1.
         15    1    4    4    0    0 -0.17155973207E+02  0.58351394858E+03  0.74889925875E+03  0.94954355106E+03  0.00000000000E+00 0.  1.
        -16    1    1    2    0    0 -0.54806190961E+03  0.32925253275E+03  0.22596572891E+02  0.63975752609E+03  0.00000000000E+00 0.  1.
         16    1    5    5    0    0  0.18249334985E+03 -0.29932473449E+03  0.33466340127E+03  0.48466350344E+03  0.00000000000E+00 0. -1.
    9900018    1    3    3    0    0  0.10955422721E+03 -0.63243114717E+02  0.67030250570E+03  0.68820233057E+03  0.91187600000E+02 0.  0.
<mgrwt>
<rscale>  0 0.30923659E+04</rscale>
<asrwt>0</asrwt>
<pdfrwt beam="1">  1        2 0.46058733E+00 0.30923659E+04</pdfrwt>
<pdfrwt beam="2">  1       -2 0.12285224E+00 0.30923659E+04</pdfrwt>
<totfact> 0.74689636E-01</totfact>
</mgrwt>
</event>
<event>
12    1  0.1031407E-009  0.3210322E+04  0.7818608E-02  0.8186097E-01
         -2   -1    0    0    0  501 -0.00000000000E+00  0.00000000000E+00  0.93312917467E+03  0.93312917467E+03  0.00000000000E+00 0.  1.
          2   -1    0    0  501    0  0.00000000000E+00 -0.00000000000E+00 -0.27611842828E+04  0.27611842828E+04  0.00000000000E+00 0. -1.
    9900016    2    1    2    0    0 -0.72569743279E+03 -0.26010118608E+02 -0.81846829763E+03  0.24506982364E+04  0.21928789755E+04 0.  0.
         23    2    3    3    0    0  0.15440733034E+03  0.36602051418E+03 -0.10582350262E+03  0.42463674210E+03  0.10632548411E+03 0.  0.
        -24    2    3    3    0    0  0.12874343052E+03 -0.63868272236E+03 -0.64159745090E+02  0.65961504524E+03  0.80529772572E+02 0.  0.
        -15    1    3    3    0    0 -0.80718586370E+03  0.26105683612E+03 -0.74074457980E+03  0.11262336448E+04  0.00000000000E+00 0.  1.
        -15    1    4    4    0    0  0.37655416638E+02  0.21643079378E+03 -0.36958611324E+02  0.22276929288E+03  0.00000000000E+00 0.  1.
         15    1    4    4    0    0  0.11675191370E+03  0.14958972040E+03 -0.68864891296E+02  0.20186744922E+03  0.00000000000E+00 0. -1.
         15    1    5    5    0    0  0.39806365474E+02 -0.30602129443E+03  0.38250125456E+01  0.30862308743E+03  0.00000000000E+00 0. -1.
        -16    1    5    5    0    0  0.88937065048E+02 -0.33266142793E+03 -0.67984757636E+02  0.35099195781E+03  0.00000000000E+00 0.  1.
         16    1    1    2    0    0  0.72569743279E+03  0.26010118608E+02 -0.10095868105E+04  0.12436152211E+04  0.00000000000E+00 0. -1.
    9900018    1    3    3    0    0 -0.20166232995E+03 -0.14404746546E+02  0.92259529886E+02  0.24021280418E+03  0.91187600000E+02 0.  0.
<mgrwt>
<rscale>  0 0.32103219E+04</rscale>
<asrwt>0</asrwt>
<pdfrwt beam="1">  1        2 0.42479758E+00 0.32103219E+04</pdfrwt>
<pdfrwt beam="2">  1       -2 0.14355834E+00 0.32103219E+04</pdfrwt>
<totfact> 0.69042047E-01</totfact>
</mgrwt>
</event>
<event>
12    1  0.1031407E-009  0.4206581E+04  0.7818608E-02  0.7964122E-01
          3   -1    0    0  501    0  0.00000000000E+00  0.00000000000E+00  0.21813058148E+04  0.21813058148E+04  0.00000000000E+00 0. -1.
         -3   -1    0    0    0  501 -0.00000000000E+00 -0.00000000000E+00 -0.20280654420E+04  0.20280654420E+04  0.00000000000E+00 0.  1.
    9900016    2    1    2    0    0 -0.13376567382E+04 -0.26887042760E+03 -0.55820416156E+03  0.26706152068E+04  0.22268760272E+04 0.  0.
         23    2    3    3    0    0  0.29879113513E+03 -0.39649159829E+03  0.10602056910E+03  0.52350123523E+03  0.12779457055E+03 0.  0.
        -24    2    3    3    0    0  0.10369468825E+03 -0.38900385808E+01  0.32377406730E+02  0.13498673780E+03  0.80033756285E+02 0.  0.
        -15    1    3    3    0    0 -0.12968292432E+04  0.14307461161E+03 -0.82236118318E+03  0.15422432837E+04  0.00000000000E+00 0.  1.
        -15    1    4    4    0    0  0.13169511049E+03 -0.82170582615E+02  0.14211109070E+02  0.15587675386E+03  0.00000000000E+00 0.  1.
         15    1    4    4    0    0  0.16709602464E+03 -0.31432101568E+03  0.91809460026E+02  0.36762448137E+03  0.00000000000E+00 0. -1.
         15    1    5    5    0    0  0.25873416619E+02 -0.12524809700E+02 -0.24854902481E+02  0.38000930553E+02  0.00000000000E+00 0. -1.
        -16    1    5    5    0    0  0.77821271632E+02  0.86347711193E+01  0.57232309211E+02  0.96985807252E+02  0.00000000000E+00 0.  1.
         16    1    1    2    0    0  0.13376567382E+04  0.26887042760E+03  0.71144453431E+03  0.15387560500E+04  0.00000000000E+00 0. -1.
    9900018    1    3    3    0    0 -0.44331331840E+03 -0.11563402332E+02  0.12575904579E+03  0.46988395007E+03  0.91187600000E+02 0.  0.
<mgrwt>
<rscale>  0 0.42065810E+04</rscale>
<asrwt>0</asrwt>
<pdfrwt beam="1">  1        3 0.33558551E+00 0.42065810E+04</pdfrwt>
<pdfrwt beam="2">  1       -3 0.31201007E+00 0.42065810E+04</pdfrwt>
<totfact> 0.16027477E-03</totfact>
</mgrwt>
</event>
