<event>
11    1  0.5528201E-014  0.3389616E+04  0.7818608E-02  0.8413371E-01
          2   -1    0    0  501    0  0.00000000000E+00  0.00000000000E+00  0.21017617571E+04  0.21017617571E+04  0.00000000000E+00 0. -1.
         -2   -1    0    0    0  501 -0.00000000000E+00 -0.00000000000E+00 -0.22568908457E+04  0.22568908457E+04  0.00000000000E+00 0.  1.
    9900016    2    1    2    0    0  0.80265783607E+03  0.22745043210E+03 -0.61166842703E+02  0.23505159803E+04  0.21966316692E+04 0.  0.
        -24    2    3    3    0    0  0.24714567449E+03  0.10822198044E+04  0.46145051547E+03  0.12049360641E+04  0.81569914424E+02 0.  0.
        -15    1    3    3    0    0  0.55551216157E+03 -0.85476937226E+03 -0.52261735817E+03  0.11455799162E+04  0.00000000000E+00 0.  1.
        -15    1    1    2    0    0  0.16041755826E+03  0.10396255179E+03  0.15747534397E+03  0.24767012160E+03  0.00000000000E+00 0.  1.
         15    1    1    2    0    0 -0.64172449573E+03 -0.11853095936E+03 -0.30741507168E+03  0.72136256005E+03  0.00000000000E+00 0. -1.
         15    1    4    4    0    0  0.12441418498E+03  0.54922835555E+03  0.27820841373E+03  0.62811670686E+03  0.00000000000E+00 0. -1.
        -16    1    4    4    0    0  0.12273148951E+03  0.53299144881E+03  0.18324210174E+03  0.57681935722E+03  0.00000000000E+00 0.  1.
         16    1    1    2    0    0 -0.60495837739E+03 -0.31000357247E+03 -0.10336659307E+03  0.68757654547E+03  0.00000000000E+00 0. -1.
    9900018    1    1    2    0    0  0.28360747879E+03  0.97121547938E+02  0.15934407494E+03  0.35152739539E+03  0.91187600000E+02 0.  0.
<mgrwt>
<rscale>  0 0.24710523E+04</rscale>
<asrwt>0</asrwt>
<pdfrwt beam="1">  1        2 0.32334796E+00 0.33896159E+04</pdfrwt>
<pdfrwt beam="2">  1       -2 0.34721398E+00 0.33896159E+04</pdfrwt>
<totfact> 0.76249593E-02</totfact>
</mgrwt>
</event>
<event>
12    1  0.5528201E-014  0.3131618E+04  0.7818608E-02  0.8801515E-01
         -1   -1    0    0    0  501 -0.00000000000E+00  0.00000000000E+00  0.28095236048E+04  0.28095236048E+04  0.00000000000E+00 0.  1.
          1   -1    0    0  501    0  0.00000000000E+00 -0.00000000000E+00 -0.10215993317E+04  0.10215993317E+04  0.00000000000E+00 0. -1.
         23    2    1    2    0    0 -0.11286340670E+02 -0.20563859362E+03  0.25709623088E+03  0.34537070177E+03  0.10376818896E+03 0.  0.
    9900016    2    1    2    0    0 -0.25344176226E+03  0.14826068406E+03  0.94241497388E+03  0.23957135541E+04  0.21829071196E+04 0.  0.
        -24    2    4    4    0    0 -0.12124365844E+04  0.23425513234E+03  0.58422483106E+03  0.13684033320E+04  0.79568131952E+02 0.  0.
        -15    1    3    3    0    0  0.44192551276E+02 -0.12569191776E+03  0.14442648353E+03  0.19649541705E+03  0.00000000000E+00 0. -1.
        -15    1    4    4    0    0  0.95899482212E+03 -0.85994448274E+02  0.35819014282E+03  0.10273102221E+04  0.00000000000E+00 0.  1.
         15    1    5    5    0    0 -0.35269615944E+03  0.64035616842E+02  0.13038263799E+03  0.38143777133E+03  0.00000000000E+00 0. -1.
         15    1    3    3    0    0 -0.55478891946E+02 -0.79946675867E+02  0.11266974735E+03  0.14887528472E+03  0.00000000000E+00 0.  1.
        -16    1    5    5    0    0 -0.85974042495E+03  0.17021951549E+03  0.45384219307E+03  0.98696556067E+03  0.00000000000E+00 0.  1.
         16    1    1    2    0    0  0.44737491147E+03  0.44519492401E+02 -0.18113128797E+02  0.44994931053E+03  0.00000000000E+00 0. -1.
    9900018    1    1    2    0    0 -0.18264680853E+03  0.12858417158E+02  0.60652619714E+03  0.64008937014E+03  0.91187600000E+02 0.  0.
<mgrwt>
<rscale>  0 0.16313520E+04</rscale>
<asrwt>0</asrwt>
<pdfrwt beam="1">  1        1 0.15716913E+00 0.31316185E+04</pdfrwt>
<pdfrwt beam="2">  1       -1 0.43223440E+00 0.31316185E+04</pdfrwt>
<totfact> 0.52107575E-02</totfact>
</mgrwt>
</event>
<event>
11    1  0.5528201E-014  0.3035522E+04  0.7818608E-02  0.8576836E-01
         -2   -1    0    0    0  501 -0.00000000000E+00  0.00000000000E+00  0.14646559273E+04  0.14646559273E+04  0.00000000000E+00 0. -1.
          2   -1    0    0  501    0  0.00000000000E+00 -0.00000000000E+00 -0.28978022756E+04  0.28978022756E+04  0.00000000000E+00 0.  1.
    9900016    2    1    2    0    0 -0.39452596164E+02 -0.43155152976E+03  0.56489622321E+02  0.22445033025E+04  0.22015473575E+04 0.  0.
        -24    2    3    3    0    0 -0.78600738152E+03 -0.43737537092E+03 -0.72877544582E+03  0.11609816405E+04  0.87520856690E+02 0.  0.
        -15    1    1    2    0    0  0.75229463814E+02  0.42235926149E+03 -0.77666523269E+03  0.88727431027E+03  0.00000000000E+00 0.  1.
        -15    1    3    3    0    0  0.74655478536E+03  0.58238411590E+01  0.78526506815E+03  0.10835216620E+04  0.00000000000E+00 0.  1.
         15    1    4    4    0    0 -0.40147197736E+03 -0.25844459800E+03 -0.42586219970E+03  0.63979056884E+03  0.00000000000E+00 0. -1.
         15    1    1    2    0    0  0.13326793266E+03  0.17576715842E+03 -0.36398120497E+03  0.42560163701E+03  0.00000000000E+00 0. -1.
        -16    1    4    4    0    0 -0.38453540416E+03 -0.17893077292E+03 -0.30291324612E+03  0.52119107171E+03  0.00000000000E+00 0.  1.
         16    1    1    2    0    0 -0.37799116803E+03 -0.32661684945E+02 -0.38228034420E+03  0.53859295422E+03  0.00000000000E+00 0. -1.
    9900018    1    1    2    0    0  0.20894636772E+03 -0.13391320520E+03  0.33290811254E+02  0.26648599891E+03  0.91187600000E+02 0.  0.
<mgrwt>
<rscale>  0 0.20649630E+04</rscale>
<asrwt>0</asrwt>
<pdfrwt beam="1">  1        2 0.44581573E+00 0.30355223E+04</pdfrwt>
<pdfrwt beam="2">  1       -2 0.22533168E+00 0.30355223E+04</pdfrwt>
<totfact> 0.15207438E-01</totfact>
</mgrwt>
</event>
<event>
11    1  0.5528201E-014  0.3482824E+04  0.7818608E-02  0.8359439E-01
          2   -1    0    0  501    0  0.00000000000E+00  0.00000000000E+00  0.43179459906E+04  0.43179459906E+04  0.00000000000E+00 0. -1.
         -2   -1    0    0    0  501 -0.00000000000E+00 -0.00000000000E+00 -0.12301280474E+04  0.12301280474E+04  0.00000000000E+00 0.  1.
    9900016    2    1    2    0    0 -0.73511454025E+03 -0.27848540582E+02  0.80492269522E+03  0.24488844541E+04  0.21927073666E+04 0.  0.
         24    2    3    3    0    0 -0.20081496802E+03  0.10264044342E+04  0.57491750694E+02  0.10504644940E+04  0.79609282871E+02 0.  0.
        -15    1    4    4    0    0 -0.39094269412E+02  0.23951866810E+03 -0.19390548045E+02  0.24346159373E+03  0.00000000000E+00 0.  1.
        -15    1    1    2    0    0  0.61253775037E+02 -0.56289556874E+02  0.11254881368E+03  0.13995633116E+03  0.00000000000E+00 0. -1.
         15    1    1    2    0    0  0.10264507150E+04 -0.11834963589E+03  0.69283938164E+03  0.12440394348E+04  0.00000000000E+00 0.  1.
         15    1    3    3    0    0 -0.53429957223E+03 -0.10542529748E+04  0.74743094453E+03  0.13984199600E+04  0.00000000000E+00 0. -1.
        -16    1    1    2    0    0 -0.45999445762E+03  0.35545541601E+02  0.14144972246E+04  0.14878376205E+04  0.00000000000E+00 0.  1.
         16    1    4    4    0    0 -0.16172069861E+03  0.78688576611E+03  0.76882298739E+02  0.80700290032E+03  0.00000000000E+00 0. -1.
    9900018    1    1    2    0    0  0.10740450788E+03  0.16694219175E+03  0.63009828108E+02  0.22735619748E+03  0.91187600000E+02 0.  0.
<mgrwt>
<rscale>  0 0.26259527E+04</rscale>
<asrwt>0</asrwt>
<pdfrwt beam="1">  1        2 0.66429938E+00 0.34828239E+04</pdfrwt>
<pdfrwt beam="2">  1       -2 0.18925047E+00 0.34828239E+04</pdfrwt>
<totfact> 0.22735017E-02</totfact>
</mgrwt>
</event>
<event>
12    1  0.5528201E-014  0.3077667E+04  0.7818608E-02  0.8994682E-01
         -1   -1    0    0    0  501 -0.00000000000E+00  0.00000000000E+00  0.11383069848E+04  0.11383069848E+04  0.00000000000E+00 0.  1.
          1   -1    0    0  501    0  0.00000000000E+00 -0.00000000000E+00 -0.22579523180E+04  0.22579523180E+04  0.00000000000E+00 0. -1.
         23    2    1    2    0    0 -0.22801784329E+02 -0.23826464807E+02 -0.11016130683E+03  0.15726365278E+03  0.10727870791E+03 0.  0.
    9900016    2    1    2    0    0  0.19775932600E+02  0.10158423803E+03 -0.12502523241E+04  0.25532987907E+04  0.22238465316E+04 0.  0.
         24    2    4    4    0    0  0.10822986436E+04  0.15058773301E+03 -0.32310701285E+03  0.11422869970E+04  0.79839980944E+02 0.  0.
        -15    1    5    5    0    0  0.95303832830E+03  0.15317941633E+03 -0.30109643015E+03  0.10111404695E+04  0.00000000000E+00 0.  1.
        -15    1    3    3    0    0 -0.46424508204E+02 -0.44527432430E+02 -0.29628056228E+02  0.70821952223E+02  0.00000000000E+00 0.  1.
         15    1    4    4    0    0 -0.10625227110E+04 -0.49003494981E+02 -0.92714531127E+03  0.14110117937E+04  0.00000000000E+00 0. -1.
         15    1    3    3    0    0  0.23622723875E+02  0.20700967623E+02 -0.80533250598E+02  0.86441700560E+02  0.00000000000E+00 0. -1.
        -16    1    1    2    0    0 -0.13246505760E+03 -0.79376639934E+02  0.41744483925E+03  0.44509306473E+03  0.00000000000E+00 0.  1.
         16    1    5    5    0    0  0.12926031528E+03 -0.25916833272E+01 -0.22010582695E+02  0.13114652751E+03  0.00000000000E+00 0. -1.
    9900018    1    1    2    0    0  0.13549090933E+03  0.16188667155E+01 -0.17667654154E+03  0.24060379458E+03  0.91187600000E+02 0.  0.
<mgrwt>
<rscale>  0 0.13449211E+04</rscale>
<asrwt>0</asrwt>
<pdfrwt beam="1">  1        1 0.34737728E+00 0.30776671E+04</pdfrwt>
<pdfrwt beam="2">  1       -1 0.17512415E+00 0.30776671E+04</pdfrwt>
<totfact> 0.37781189E-01</totfact>
</mgrwt>
</event>
<event>
11    1  0.5528201E-014  0.3172034E+04  0.7818608E-02  0.8518822E-01
         -2   -1    0    0    0  501 -0.00000000000E+00  0.00000000000E+00  0.23068272894E+04  0.23068272894E+04  0.00000000000E+00 0.  1.
          2   -1    0    0  501    0  0.00000000000E+00 -0.00000000000E+00 -0.21614860303E+04  0.21614860303E+04  0.00000000000E+00 0. -1.
    9900016    2    1    2    0    0  0.36834687753E+03  0.38602226193E+03  0.26356277871E+01  0.22692416222E+04  0.22056196373E+04 0.  0.
        -24    2    3    3    0    0  0.11342001159E+04 -0.48731034098E+02 -0.51338556057E+03  0.12485460369E+04  0.80733238740E+02 0.  0.
        -15    1    1    2    0    0 -0.28243209690E+03 -0.43416078771E+03  0.60176225151E+03  0.79396554477E+03  0.00000000000E+00 0.  1.
        -15    1    3    3    0    0 -0.76585323833E+03  0.43475329603E+03  0.51602118835E+03  0.10206955853E+04  0.00000000000E+00 0.  1.
         15    1    1    2    0    0  0.79925960987E+02 -0.19284383944E+03  0.34445445340E+03  0.40277261093E+03  0.00000000000E+00 0. -1.
         15    1    4    4    0    0  0.62808178992E+03 -0.67000908583E+02 -0.28123002250E+03  0.69142330170E+03  0.00000000000E+00 0. -1.
        -16    1    4    4    0    0  0.50611832595E+03  0.18269874485E+02 -0.23215553807E+03  0.55712273516E+03  0.00000000000E+00 0.  1.
         16    1    1    2    0    0 -0.69339255604E+02  0.36234529551E+03 -0.70875681563E+03  0.79902332209E+03  0.00000000000E+00 0. -1.
    9900018    1    1    2    0    0 -0.96501486022E+02 -0.12136293030E+03 -0.94754257968E+02  0.20331021974E+03  0.91187600000E+02 0.  0.
<mgrwt>
<rscale>  0 0.21990528E+04</rscale>
<asrwt>0</asrwt>
<pdfrwt beam="1">  1        2 0.33253631E+00 0.31720345E+04</pdfrwt>
<pdfrwt beam="2">  1       -2 0.35489651E+00 0.31720345E+04</pdfrwt>
<totfact> 0.63733297E-02</totfact>
</mgrwt>
</event>
<event>
12    1  0.5528201E-014  0.2720843E+04  0.7818608E-02  0.8809556E-01
          2   -1    0    0  501    0  0.00000000000E+00  0.00000000000E+00  0.14759243864E+04  0.14759243864E+04  0.00000000000E+00 0. -1.
         -2   -1    0    0    0  501 -0.00000000000E+00 -0.00000000000E+00 -0.16161944161E+04  0.16161944161E+04  0.00000000000E+00 0.  1.
         23    2    1    2    0    0 -0.31252906873E+03 -0.78800464409E+02  0.11536646091E+03  0.35929313431E+03  0.10907888919E+03 0.  0.
    9900016    2    1    2    0    0  0.14594951830E+03 -0.13061305407E+03 -0.65613802692E+02  0.22185236897E+04  0.22088868597E+04 0.  0.
        -24    2    4    4    0    0 -0.76739183068E+03  0.43417978466E+03 -0.54776672259E+03  0.10413852915E+04  0.83860811969E+02 0.  0.
        -15    1    3    3    0    0 -0.21830460815E+03 -0.10842905100E+02  0.10549321075E+03  0.24269999598E+03  0.00000000000E+00 0. -1.
        -15    1    4    4    0    0  0.91334134898E+03 -0.56479283873E+03  0.48215291990E+03  0.11771383982E+04  0.00000000000E+00 0.  1.
         15    1    3    3    0    0 -0.94224460576E+02 -0.67957559309E+02  0.98732501628E+01  0.11659313834E+03  0.00000000000E+00 0.  1.
         15    1    5    5    0    0 -0.25584718600E+03  0.12440021931E+03 -0.13614261574E+03  0.31538549264E+03  0.00000000000E+00 0. -1.
        -16    1    5    5    0    0 -0.51154464468E+03  0.30977956535E+03 -0.41162410685E+03  0.72599979886E+03  0.00000000000E+00 0.  1.
         16    1    1    2    0    0  0.52966094709E+02  0.28035011116E+02  0.11559985413E+03  0.13021019665E+03  0.00000000000E+00 0. -1.
    9900018    1    1    2    0    0  0.11361345572E+03  0.18137850736E+03 -0.30562254199E+03  0.38409178176E+03  0.91187600000E+02 0.  0.
<mgrwt>
<rscale>  0 0.16180159E+04</rscale>
<asrwt>0</asrwt>
<pdfrwt beam="1">  1        2 0.22706529E+00 0.27208429E+04</pdfrwt>
<pdfrwt beam="2">  1       -2 0.24864529E+00 0.27208429E+04</pdfrwt>
<totfact> 0.74206168E-01</totfact>
</mgrwt>
</event>
<event>
12    1  0.5528201E-014  0.3118691E+04  0.7818608E-02  0.8553710E-01
         -1   -1    0    0    0  501 -0.00000000000E+00  0.00000000000E+00  0.35939160608E+04  0.35939160608E+04  0.00000000000E+00 0.  1.
          1   -1    0    0  501    0  0.00000000000E+00 -0.00000000000E+00 -0.19636704470E+04  0.19636704470E+04  0.00000000000E+00 0. -1.
         23    2    1    2    0    0 -0.64984271427E+03  0.57569037993E+02 -0.11840968182E+04  0.13567818667E+04  0.11472580937E+03 0.  0.
    9900016    2    1    2    0    0  0.71905798906E+03 -0.44589388970E+02  0.16179174902E+04  0.28319937965E+04  0.22098640802E+04 0.  0.
         24    2    4    4    0    0 -0.33150756621E+02 -0.32489225091E+03  0.19385723402E+04  0.19675823064E+04  0.81630061221E+02 0.  0.
        -15    1    5    5    0    0  0.24908861170E+02 -0.54849166265E+02  0.32358658354E+03  0.32914610654E+03  0.00000000000E+00 0.  1.
        -15    1    3    3    0    0 -0.62058563275E+03  0.46293353966E+02 -0.10636745844E+04  0.12323446043E+04  0.00000000000E+00 0.  1.
         15    1    4    4    0    0  0.75220874568E+03  0.28030286194E+03 -0.32065484991E+03  0.86441149013E+03  0.00000000000E+00 0. -1.
         15    1    3    3    0    0 -0.29257081520E+02  0.11275684027E+02 -0.12042223381E+03  0.12443726236E+03  0.00000000000E+00 0. -1.
        -16    1    1    2    0    0 -0.31187811115E+03  0.11130735659E+03  0.88527136939E+03  0.94517865047E+03  0.00000000000E+00 0.  1.
         16    1    5    5    0    0 -0.58059617791E+02 -0.27004308464E+03  0.16149857566E+04  0.16384361998E+04  0.00000000000E+00 0. -1.
    9900018    1    1    2    0    0  0.24266283636E+03 -0.12428700562E+03  0.31115357238E+03  0.42363219414E+03  0.91187600000E+02 0.  0.
<mgrwt>
<rscale>  0 0.21171866E+04</rscale>
<asrwt>0</asrwt>
<pdfrwt beam="1">  1        1 0.30210315E+00 0.31186914E+04</pdfrwt>
<pdfrwt beam="2">  1       -1 0.55291016E+00 0.31186914E+04</pdfrwt>
<totfact> 0.18107670E-03</totfact>
</mgrwt>
</event>
<event>
12    1  0.5528201E-014  0.3649572E+04  0.7818608E-02  0.8587732E-01
          1   -1    0    0  501    0  0.00000000000E+00  0.00000000000E+00  0.22937793042E+04  0.22937793042E+04  0.00000000000E+00 0. -1.
         -1   -1    0    0    0  501 -0.00000000000E+00 -0.00000000000E+00 -0.18910721221E+04  0.18910721221E+04  0.00000000000E+00 0.  1.
         23    2    1    2    0    0 -0.22234683798E+03  0.25890399623E+03  0.39891649019E+03  0.53527771737E+03  0.10449149702E+03 0.  0.
    9900016    2    1    2    0    0  0.45345477873E+03  0.24436583229E+03  0.79684652826E+03  0.24002117984E+04  0.22047032433E+04 0.  0.
         24    2    4    4    0    0 -0.16892280924E+02 -0.43221508195E+03 -0.62064002388E+03  0.76062153996E+03  0.79094004764E+02 0.  0.
        -15    1    3    3    0    0 -0.20034474035E+03  0.24939030954E+03  0.31870089819E+03  0.45155708829E+03  0.00000000000E+00 0. -1.
        -15    1    5    5    0    0  0.22800014008E+02 -0.31770107796E+03 -0.45029146686E+03  0.55155799396E+03  0.00000000000E+00 0.  1.
         15    1    4    4    0    0  0.47034705966E+03  0.67658091424E+03  0.14174865521E+04  0.16395902584E+04  0.00000000000E+00 0. -1.
         15    1    3    3    0    0 -0.22002097634E+02  0.95136866850E+01  0.80215591995E+02  0.83720629082E+02  0.00000000000E+00 0.  1.
        -16    1    1    2    0    0 -0.13641249747E+03  0.19492595221E+03 -0.10406338351E+03  0.25967996476E+03  0.00000000000E+00 0.  1.
         16    1    5    5    0    0 -0.39692294932E+02 -0.11451400399E+03 -0.17034855702E+03  0.20906354600E+03  0.00000000000E+00 0. -1.
    9900018    1    1    2    0    0 -0.94695443280E+02 -0.69819578073E+03 -0.68899245286E+03  0.98968194572E+03  0.91187600000E+02 0.  0.
<mgrwt>
<rscale>  0 0.20409033E+04</rscale>
<asrwt>0</asrwt>
<pdfrwt beam="1">  1        1 0.35288912E+00 0.36495717E+04</pdfrwt>
<pdfrwt beam="2">  1       -1 0.29093417E+00 0.36495717E+04</pdfrwt>
<totfact> 0.56265315E-02</totfact>
</mgrwt>
</event>
<event>
12    1  0.5528201E-014  0.3852150E+04  0.7818608E-02  0.8632308E-01
          2   -1    0    0  501    0  0.00000000000E+00  0.00000000000E+00  0.28289465334E+04  0.28289465334E+04  0.00000000000E+00 0.  1.
         -2   -1    0    0    0  501 -0.00000000000E+00 -0.00000000000E+00 -0.15031259591E+04  0.15031259591E+04  0.00000000000E+00 0. -1.
         23    2    1    2    0    0 -0.76270459226E+01  0.23947549739E+03  0.19390201802E+03  0.31706330948E+03  0.74326737749E+02 0.  0.
    9900016    2    1    2    0    0  0.51332090220E+03 -0.48577821504E+03  0.28373208432E+03  0.23292797196E+04  0.22012635675E+04 0.  0.
         24    2    4    4    0    0  0.46369279426E+02 -0.93222523523E+03 -0.68828486595E+03  0.11621568848E+04  0.75356279617E+02 0.  0.
        -15    1    3    3    0    0 -0.34410221574E+02  0.68213326374E+02  0.45875472468E+02  0.89116105267E+02  0.00000000000E+00 0. -1.
        -15    1    5    5    0    0  0.66966252343E+02 -0.73041794727E+03 -0.53296682045E+03  0.90666889676E+03  0.00000000000E+00 0.  1.
         15    1    3    3    0    0  0.26783175651E+02  0.17126217102E+03  0.14802654555E+03  0.22794720421E+03  0.00000000000E+00 0.  1.
         15    1    4    4    0    0  0.46695162278E+03  0.44644702018E+03  0.97201695027E+03  0.11671228348E+04  0.00000000000E+00 0. -1.
        -16    1    1    2    0    0 -0.20257656639E+03 -0.41527439597E+03  0.83253720718E+03  0.95215980305E+03  0.00000000000E+00 0.  1.
         16    1    5    5    0    0 -0.20596972917E+02 -0.20180728796E+03 -0.15531804550E+03  0.25548798802E+03  0.00000000000E+00 0. -1.
    9900018    1    1    2    0    0 -0.30311728989E+03  0.66157711362E+03  0.15649264779E+02  0.73356966035E+03  0.91187600000E+02 0.  0.
<mgrwt>
<rscale>  0 0.19459676E+04</rscale>
<asrwt>0</asrwt>
<pdfrwt beam="1">  1        2 0.43522254E+00 0.38521499E+04</pdfrwt>
<pdfrwt beam="2">  1       -2 0.23125015E+00 0.38521499E+04</pdfrwt>
<totfact> 0.14736509E-01</totfact>
</mgrwt>
</event>
<event>
11    1  0.5528201E-014  0.3495646E+04  0.7818608E-02  0.8324434E-01
          2   -1    0    0  501    0  0.00000000000E+00  0.00000000000E+00  0.17449012652E+04  0.17449012652E+04  0.00000000000E+00 0. -1.
         -2   -1    0    0    0  501 -0.00000000000E+00 -0.00000000000E+00 -0.34510155493E+04  0.34510155493E+04  0.00000000000E+00 0.  1.
    9900016    2    1    2    0    0  0.44349163975E+03 -0.37407123212E+03 -0.73454288318E+03  0.23940030559E+04  0.22034253477E+04 0.  0.
        -24    2    3    3    0    0  0.10784222722E+04 -0.21980335036E+03  0.32402466363E+03  0.11500172285E+04  0.78990715973E+02 0.  0.
        -15    1    1    2    0    0 -0.10695688476E+04 -0.31441617041E+02 -0.95338040914E+03  0.14331435028E+04  0.00000000000E+00 0.  1.
        -15    1    3    3    0    0 -0.63493063249E+03 -0.15426788176E+03 -0.10585675468E+04  0.12439858273E+04  0.00000000000E+00 0.  1.
         15    1    1    2    0    0 -0.13417042601E+03  0.13261018409E+03 -0.88472551479E+01  0.18885295355E+03  0.00000000000E+00 0. -1.
         15    1    4    4    0    0  0.59728986253E+03 -0.13584334893E+03  0.14191685623E+03  0.62876783427E+03  0.00000000000E+00 0. -1.
        -16    1    4    4    0    0  0.48113240971E+03 -0.83960001428E+02  0.18210780740E+03  0.52124939428E+03  0.00000000000E+00 0.  1.
         16    1    1    2    0    0  0.29769358161E+03  0.55154380700E+03  0.51696160941E+02  0.62888356047E+03  0.00000000000E+00 0. -1.
    9900018    1    1    2    0    0  0.46255405221E+03 -0.27864114193E+03 -0.61039897498E+02  0.55103374186E+03  0.91187600000E+02 0.  0.
<mgrwt>
<rscale>  0 0.27328186E+04</rscale>
<asrwt>0</asrwt>
<pdfrwt beam="1">  1        2 0.26844635E+00 0.34956458E+04</pdfrwt>
<pdfrwt beam="2">  1       -2 0.53092546E+00 0.34956458E+04</pdfrwt>
<totfact> 0.78756471E-03</totfact>
</mgrwt>
</event>
<event>
12    1  0.5528202E-014  0.4077454E+04  0.7818608E-02  0.8633331E-01
          2   -1    0    0  501    0  0.00000000000E+00  0.00000000000E+00  0.30814648938E+04  0.30814648938E+04  0.00000000000E+00 0. -1.
         -2   -1    0    0    0  501 -0.00000000000E+00 -0.00000000000E+00 -0.15136428232E+04  0.15136428232E+04  0.00000000000E+00 0.  1.
         23    2    1    2    0    0  0.36515491832E+02 -0.16333331927E+03  0.21024387192E+03  0.29759098816E+03  0.12785443375E+03 0.  0.
    9900016    2    1    2    0    0 -0.29873709185E+03  0.22875266657E+03  0.97257196950E+03  0.24376426808E+04  0.22033233922E+04 0.  0.
         24    2    4    4    0    0  0.30439477664E+03  0.42956099494E+03  0.15126042026E+04  0.16035402600E+04  0.78683311171E+02 0.  0.
        -15    1    3    3    0    0 -0.32456797125E+02 -0.98407308169E+02  0.59307720937E+02  0.11939366710E+03  0.00000000000E+00 0. -1.
        -15    1    5    5    0    0  0.27292239225E+03  0.40491838369E+03  0.14416187679E+04  0.15220743088E+04  0.00000000000E+00 0.  1.
         15    1    4    4    0    0 -0.60313186849E+03 -0.20080832837E+03 -0.54003223308E+03  0.83410242075E+03  0.00000000000E+00 0. -1.
         15    1    3    3    0    0  0.68972288957E+02 -0.64926011102E+02  0.15093615098E+03  0.17819732106E+03  0.00000000000E+00 0.  1.
        -16    1    1    2    0    0 -0.26474740033E+02 -0.55973940136E+02 -0.71563729330E+03  0.71831102553E+03  0.00000000000E+00 0.  1.
         16    1    5    5    0    0  0.31472384388E+02  0.24642611247E+02  0.70985434694E+02  0.81465951212E+02  0.00000000000E+00 0. -1.
    9900018    1    1    2    0    0  0.28869634005E+03 -0.94454071650E+01  0.11006435225E+04  0.11415630226E+04  0.91187600000E+02 0.  0.
<mgrwt>
<rscale>  0 0.19438520E+04</rscale>
<asrwt>0</asrwt>
<pdfrwt beam="1">  1        2 0.47407152E+00 0.40774540E+04</pdfrwt>
<pdfrwt beam="2">  1       -2 0.23286813E+00 0.40774540E+04</pdfrwt>
<totfact> 0.98516758E-02</totfact>
</mgrwt>
</event>
<event>
12    1  0.5528201E-014  0.3243566E+04  0.7818608E-02  0.8636181E-01
         -1   -1    0    0    0  501 -0.00000000000E+00  0.00000000000E+00  0.12940367258E+04  0.12940367258E+04  0.00000000000E+00 0.  1.
          1   -1    0    0  501    0  0.00000000000E+00 -0.00000000000E+00 -0.39948312400E+04  0.39948312400E+04  0.00000000000E+00 0. -1.
         23    2    1    2    0    0 -0.55242411814E+02  0.38918518542E+03 -0.19046962850E+04  0.19490336805E+04  0.12785740837E+03 0.  0.
    9900016    2    1    2    0    0 -0.12947784504E+03 -0.52958339181E+03 -0.23604115806E+03  0.22714738417E+04  0.21924084711E+04 0.  0.
         24    2    4    4    0    0 -0.11262174924E+04 -0.48767501974E+02  0.39317646347E+02  0.11310807886E+04  0.83986686366E+02 0.  0.
        -15    1    3    3    0    0  0.89648574468E+01  0.31407997961E+03 -0.14819203150E+04  0.15148644897E+04  0.00000000000E+00 0. -1.
        -15    1    5    5    0    0 -0.97783112924E+03 -0.16638161064E+02  0.46589919070E+02  0.97908179754E+03  0.00000000000E+00 0.  1.
         15    1    4    4    0    0  0.99673964737E+03 -0.48081588984E+03 -0.27535880441E+03  0.11403930532E+04  0.00000000000E+00 0. -1.
         15    1    3    3    0    0 -0.64207269261E+02  0.75105205807E+02 -0.42277597003E+03  0.43416919075E+03  0.00000000000E+00 0.  1.
        -16    1    1    2    0    0  0.52038473136E+03  0.19185276622E+03 -0.38827106397E+03  0.67702449856E+03  0.00000000000E+00 0.  1.
         16    1    5    5    0    0 -0.14838636317E+03 -0.32129340910E+02 -0.72722727231E+01  0.15199899103E+03  0.00000000000E+00 0. -1.
    9900018    1    1    2    0    0 -0.33566447451E+03 -0.51454559830E+02 -0.17178600715E+03  0.39133594496E+03  0.91187600000E+02 0.  0.
<mgrwt>
<rscale>  0 0.19379764E+04</rscale>
<asrwt>0</asrwt>
<pdfrwt beam="1">  1        1 0.61458943E+00 0.32435660E+04</pdfrwt>
<pdfrwt beam="2">  1       -1 0.19908257E+00 0.32435660E+04</pdfrwt>
<totfact> 0.11891985E-02</totfact>
</mgrwt>
</event>
<event>
11    1  0.5528201E-014  0.4831384E+04  0.7818608E-02  0.8517003E-01
          2   -1    0    0  501    0  0.00000000000E+00  0.00000000000E+00  0.25131748834E+04  0.25131748834E+04  0.00000000000E+00 0.  1.
         -2   -1    0    0    0  501 -0.00000000000E+00 -0.00000000000E+00 -0.26721392189E+04  0.26721392189E+04  0.00000000000E+00 0. -1.
    9900016    2    1    2    0    0  0.10045417211E+04 -0.73876562223E+02 -0.10870005449E+04  0.26592244351E+04  0.22080177979E+04 0.  0.
         24    2    3    3    0    0  0.53214247925E+03  0.10606588024E+04 -0.42311892636E+03  0.12624172398E+04  0.80591241530E+02 0.  0.
        -15    1    4    4    0    0  0.25114518345E+03  0.57223565063E+03 -0.19676609854E+03  0.65516749046E+03  0.00000000000E+00 0.  1.
        -15    1    1    2    0    0  0.13519732999E+02 -0.20196999557E+02 -0.12282289331E+03  0.12520449310E+03  0.00000000000E+00 0.  1.
         15    1    3    3    0    0  0.47239924187E+03 -0.11345353646E+04 -0.66388161851E+03  0.13968071953E+04  0.00000000000E+00 0. -1.
         15    1    1    2    0    0 -0.13720991828E+02  0.15980234936E+03 -0.16080212331E+03  0.22711754520E+03  0.00000000000E+00 0. -1.
        -16    1    1    2    0    0 -0.23866834511E+03 -0.52254358624E+03 -0.10204504891E+03  0.58346171296E+03  0.00000000000E+00 0.  1.
         16    1    4    4    0    0  0.28099729580E+03  0.48842315179E+03 -0.22635282781E+03  0.60724974937E+03  0.00000000000E+00 0. -1.
    9900018    1    1    2    0    0 -0.76567211718E+03  0.45681479866E+03  0.13137062749E+04  0.15903059160E+04  0.91187600000E+02 0.  0.
<mgrwt>
<rscale>  0 0.22034263E+04</rscale>
<asrwt>0</asrwt>
<pdfrwt beam="1">  1        2 0.38664229E+00 0.48313841E+04</pdfrwt>
<pdfrwt beam="2">  1       -2 0.41109834E+00 0.48313841E+04</pdfrwt>
<totfact> 0.15647249E-02</totfact>
</mgrwt>
</event>
<event>
12    1  0.5528201E-014  0.3196653E+04  0.7818608E-02  0.8899285E-01
         -2   -1    0    0    0  501 -0.00000000000E+00  0.00000000000E+00  0.91380853741E+03  0.91380853741E+03  0.00000000000E+00 0. -1.
          2   -1    0    0  501    0  0.00000000000E+00 -0.00000000000E+00 -0.32042037135E+04  0.32042037135E+04  0.00000000000E+00 0.  1.
         23    2    1    2    0    0 -0.76550338096E+02  0.30143043026E+02  0.51978392636E+02  0.15502026075E+03  0.12066884700E+03 0.  0.
    9900016    2    1    2    0    0 -0.74790423930E+02 -0.21465431881E+03 -0.12840375854E+04  0.25519604951E+04  0.21936453141E+04 0.  0.
         24    2    4    4    0    0 -0.86001342534E+03 -0.51883334146E+03  0.10432097377E+02  0.10076963340E+04  0.80820448521E+02 0.  0.
        -15    1    5    5    0    0 -0.13131848109E+03 -0.77249502669E+02 -0.27425578998E+02  0.15480371934E+03  0.00000000000E+00 0.  1.
        -15    1    3    3    0    0  0.24933049873E+02  0.36674744024E+02  0.15164376708E+02  0.46868455769E+02  0.00000000000E+00 0.  1.
         15    1    3    3    0    0 -0.10148338797E+03 -0.65317009980E+01  0.36814015928E+02  0.10815180498E+03  0.00000000000E+00 0. -1.
         15    1    4    4    0    0  0.78522300141E+03  0.30417902265E+03 -0.12944696828E+04  0.15442641611E+04  0.00000000000E+00 0. -1.
        -16    1    1    2    0    0  0.36343065476E+03  0.24233149118E+03 -0.10868421213E+04  0.11713377775E+04  0.00000000000E+00 0.  1.
         16    1    5    5    0    0 -0.72869494425E+03 -0.44158383879E+03  0.37857676375E+02  0.85289261464E+03  0.00000000000E+00 0. -1.
    9900018    1    1    2    0    0 -0.21208989273E+03 -0.57820215394E+02  0.28506137987E+02  0.23969371749E+03  0.91187600000E+02 0.  0.
<mgrwt>
<rscale>  0 0.14778974E+04</rscale>
<asrwt>0</asrwt>
<pdfrwt beam="1">  1        2 0.49295443E+00 0.31966532E+04</pdfrwt>
<pdfrwt beam="2">  1       -2 0.14058593E+00 0.31966532E+04</pdfrwt>
<totfact> 0.38247998E-01</totfact>
</mgrwt>
</event>
