<event>
12    1  0.3477228E-011  0.6686499E+04  0.7818608E-02  0.7610660E-01
         -1   -1    0    0    0  501 -0.00000000000E+00  0.00000000000E+00  0.33129876534E+04  0.33129876534E+04  0.00000000000E+00 0.  1.
          1   -1    0    0  501    0  0.00000000000E+00 -0.00000000000E+00 -0.33737878537E+04  0.33737878537E+04  0.00000000000E+00 0. -1.
    9900016    2    1    2    0    0  0.12156340051E+04 -0.21435710345E+02  0.17328523254E+04  0.30089132925E+04  0.21383536882E+04 0.  0.
        -24    2    3    3    0    0 -0.13358361830E+03  0.19574278190E+03 -0.40241234855E+03  0.47377820326E+03  0.79813957948E+02 0.  0.
    9900016    2    1    2    0    0 -0.26692092271E+03 -0.43454361307E+03 -0.15441825695E+04  0.25922637192E+04  0.20187264428E+04 0.  0.
        -15    1    5    5    0    0  0.28596037953E+03  0.25954177580E+03 -0.94122265744E+03  0.10173668772E+04  0.00000000000E+00 0. -1.
        -15    1    3    3    0    0  0.13492176234E+04 -0.21717849224E+03  0.21352646739E+04  0.25351350892E+04  0.00000000000E+00 0.  1.
         15    1    4    4    0    0 -0.72219459555E+01  0.53308817724E+02 -0.51165413968E+02  0.74242077941E+02  0.00000000000E+00 0. -1.
         15    1    5    5    0    0  0.21039640412E+03  0.11426099243E+03 -0.36728392148E+03  0.43842867178E+03  0.00000000000E+00 0.  1.
        -16    1    4    4    0    0 -0.12636167234E+03  0.14243396417E+03 -0.35124693458E+03  0.39953612532E+03  0.00000000000E+00 0.  1.
         16    1    5    5    0    0 -0.76327770636E+03 -0.80834638130E+03 -0.23567599060E+03  0.11364681701E+04  0.00000000000E+00 0. -1.
    9900018    1    1    2    0    0 -0.94871308236E+03  0.45597932341E+03 -0.24946995618E+03  0.10855984955E+04  0.91187600000E+02 0.  0.
<mgrwt>
<rscale>  0 0.66864991E+04</rscale>
<asrwt>0</asrwt>
<pdfrwt beam="1">  1        1 0.51904428E+00 0.66864991E+04</pdfrwt>
<pdfrwt beam="2">  1       -1 0.50969041E+00 0.66864991E+04</pdfrwt>
<totfact> 0.26047412E-04</totfact>
</mgrwt>
</event>
<event>
13    1  0.3477228E-011  0.5096605E+04  0.7818608E-02  0.7813775E-01
         -1   -1    0    0    0  501 -0.00000000000E+00  0.00000000000E+00  0.19098812692E+04  0.19098812692E+04  0.00000000000E+00 0.  1.
          1   -1    0    0  501    0  0.00000000000E+00 -0.00000000000E+00 -0.34001310798E+04  0.34001310798E+04  0.00000000000E+00 0. -1.
    9900016    2    1    2    0    0 -0.93685242518E+03 -0.20962228498E+03 -0.18172525594E+03  0.23315409495E+04  0.21169376848E+04 0.  0.
        -24    2    3    3    0    0 -0.42558605480E+03 -0.45349634476E+03  0.90797384985E+03  0.11034074064E+04  0.79429010426E+02 0.  0.
    9900016    2    1    2    0    0  0.41621229434E+03  0.26756513786E+03 -0.12725623952E+04  0.24455248963E+04  0.20288797874E+04 0.  0.
         23    2    5    5    0    0 -0.37157535856E+03  0.13727071602E+02  0.41363269221E+03  0.56714872986E+03  0.11094592440E+03 0.  0.
        -15    1    3    3    0    0 -0.51126637038E+03  0.24387405978E+03 -0.10896991058E+04  0.12281335431E+04  0.00000000000E+00 0.  1.
        -15    1    6    6    0    0 -0.59460794625E+02  0.40121245006E+02  0.10697656335E+03  0.12879940025E+03  0.00000000000E+00 0. -1.
         15    1    4    4    0    0 -0.17731443979E+03 -0.21810680736E+03  0.47010052666E+03  0.54772757384E+03  0.00000000000E+00 0. -1.
         15    1    6    6    0    0 -0.31211456393E+03 -0.26394173404E+02  0.30665612886E+03  0.43834932961E+03  0.00000000000E+00 0.  1.
        -16    1    4    4    0    0 -0.24827161501E+03 -0.23538953741E+03  0.43787332319E+03  0.55567983255E+03  0.00000000000E+00 0.  1.
         16    1    5    5    0    0  0.78778765289E+03  0.25383806626E+03 -0.16861950874E+04  0.18783761664E+04  0.00000000000E+00 0. -1.
    9900018    1    1    2    0    0  0.52064013085E+03 -0.57942852883E+02 -0.35962159439E+02  0.53294650328E+03  0.91187600000E+02 0.  0.
<mgrwt>
<rscale>  0 0.50966054E+04</rscale>
<asrwt>0</asrwt>
<pdfrwt beam="1">  1        1 0.52309708E+00 0.50966054E+04</pdfrwt>
<pdfrwt beam="2">  1       -1 0.29382789E+00 0.50966054E+04</pdfrwt>
<totfact> 0.77544710E-03</totfact>
</mgrwt>
</event>
<event>
12    1  0.3477228E-011  0.4715083E+04  0.7818608E-02  0.7874027E-01
          2   -1    0    0  501    0  0.00000000000E+00  0.00000000000E+00  0.31345893300E+04  0.31345893300E+04  0.00000000000E+00 0. -1.
         -2   -1    0    0    0  501 -0.00000000000E+00 -0.00000000000E+00 -0.17731194639E+04  0.17731194639E+04  0.00000000000E+00 0.  1.
    9900016    2    1    2    0    0 -0.30447537508E+03 -0.85695039230E+03 -0.56034856596E+02  0.20516645063E+04  0.18382377736E+04 0.  0.
        -24    2    3    3    0    0  0.28175545554E+03 -0.50466883114E+03 -0.83272010501E+03  0.10167689269E+04  0.79495355948E+02 0.  0.
    9900016    2    1    2    0    0  0.85218563554E+02  0.57562778923E+03  0.13066325261E+04  0.24715657072E+04  0.20156237078E+04 0.  0.
        -15    1    3    3    0    0 -0.58623083063E+03 -0.35228156116E+03  0.77668524841E+03  0.10348955794E+04  0.00000000000E+00 0.  1.
        -15    1    5    5    0    0  0.12450401340E+03  0.16925257527E+03  0.67193606651E+03  0.70402113680E+03  0.00000000000E+00 0.  1.
         15    1    4    4    0    0  0.15714493454E+03 -0.20340444809E+03 -0.38537423130E+03  0.46322909894E+03  0.00000000000E+00 0. -1.
         15    1    5    5    0    0  0.33831911740E+03  0.13218250029E+03  0.10696368657E+04  0.11296260722E+04  0.00000000000E+00 0. -1.
        -16    1    4    4    0    0  0.12461052100E+03 -0.30126438305E+03 -0.44734587371E+03  0.55353982799E+03  0.00000000000E+00 0.  1.
         16    1    5    5    0    0 -0.37760456725E+03  0.27419271367E+03 -0.43494040613E+03  0.63791849818E+03  0.00000000000E+00 0. -1.
    9900018    1    1    2    0    0  0.21925681153E+03  0.28132260307E+03  0.11087219665E+03  0.38447858040E+03  0.91187600000E+02 0.  0.
<mgrwt>
<rscale>  0 0.47150828E+04</rscale>
<asrwt>0</asrwt>
<pdfrwt beam="1">  1        2 0.48224451E+00 0.47150828E+04</pdfrwt>
<pdfrwt beam="2">  1       -2 0.27278761E+00 0.47150828E+04</pdfrwt>
<totfact> 0.49581823E-02</totfact>
</mgrwt>
</event>
