<event>
12    1  0.3059931E-005  0.4100103E+04  0.7818608E-02  0.8161598E-01
         -2   -1    0    0    0  501 -0.00000000000E+00  0.00000000000E+00  0.25668515613E+04  0.25668515613E+04  0.00000000000E+00 0.  1.
          2   -1    0    0  501    0  0.00000000000E+00 -0.00000000000E+00 -0.33126673630E+04  0.33126673630E+04  0.00000000000E+00 0. -1.
        -24    2    1    2    0    0  0.14416817768E+04 -0.95517708839E+03 -0.26271286406E+03  0.17510528799E+04  0.79740351970E+02 0.  0.
    9900016    2    1    2    0    0 -0.17895544143E+04  0.56389774775E+03  0.53639696501E+03  0.26810442720E+04  0.18384207932E+04 0.  0.
         24    2    4    4    0    0 -0.20155675482E+04  0.85251171349E+03  0.22750986502E+03  0.22016788598E+04  0.79626001962E+02 0.  0.
        -15    1    5    5    0    0 -0.15689140801E+04  0.68684616587E+03  0.15289635585E+03  0.17194843244E+04  0.00000000000E+00 0.  1.
        -15    1    1    2    0    0 -0.97460824192E+02  0.52467432300E+03 -0.39683486045E+03  0.66502606260E+03  0.00000000000E+00 0.  1.
         15    1    4    4    0    0  0.22601313384E+03 -0.28861396574E+03  0.30888709999E+03  0.47936541222E+03  0.00000000000E+00 0. -1.
         15    1    3    3    0    0  0.80677173762E+03 -0.50797372132E+03 -0.11146967694E+03  0.95986635896E+03  0.00000000000E+00 0. -1.
        -16    1    3    3    0    0  0.63491003914E+03 -0.44720336707E+03 -0.15124318713E+03  0.79118652098E+03  0.00000000000E+00 0.  1.
         16    1    5    5    0    0 -0.44665346810E+03  0.16566554762E+03  0.74613509172E+02  0.48219453542E+03  0.00000000000E+00 0. -1.
    9900018    1    1    2    0    0  0.44533346174E+03 -0.13339498236E+03 -0.62266504220E+03  0.78239570975E+03  0.91187600000E+02 0.  0.
<mgrwt>
<rscale>  0 0.33051031E+04</rscale>
<asrwt>0</asrwt>
<pdfrwt beam="1">  1        2 0.50964113E+00 0.41001029E+04</pdfrwt>
<pdfrwt beam="2">  1       -2 0.39490024E+00 0.41001029E+04</pdfrwt>
<totfact> 0.64755023E-03</totfact>
</mgrwt>
</event>
<event>
12    1  0.3059931E-005  0.4413562E+04  0.7818608E-02  0.8114801E-01
         -2   -1    0    0    0  501 -0.00000000000E+00  0.00000000000E+00  0.26257397962E+04  0.26257397962E+04  0.00000000000E+00 0.  1.
          2   -1    0    0  501    0  0.00000000000E+00 -0.00000000000E+00 -0.37124826582E+04  0.37124826582E+04  0.00000000000E+00 0. -1.
         24    2    1    2    0    0 -0.16652814230E+04 -0.48723294301E+03  0.18058763606E+03  0.17463104055E+04  0.80187151548E+02 0.  0.
    9900016    2    1    2    0    0  0.17003576868E+04 -0.44372857872E+03 -0.15380231394E+04  0.29736327384E+04  0.18408870609E+04 0.  0.
        -24    2    4    4    0    0  0.13507165615E+04 -0.69909400214E+03 -0.18818068402E+04  0.24207786448E+04  0.76187990614E+02 0.  0.
        -15    1    3    3    0    0 -0.14757001346E+04 -0.40482072834E+03  0.15722015563E+03  0.15382746461E+04  0.00000000000E+00 0.  1.
        -15    1    4    4    0    0  0.34964112529E+03  0.25536542343E+03  0.34378370074E+03  0.55285409365E+03  0.00000000000E+00 0.  1.
         15    1    1    2    0    0  0.47085759530E+03  0.10307804271E+02  0.30871648430E+03  0.56313319345E+03  0.00000000000E+00 0. -1.
         15    1    5    5    0    0  0.65894896269E+03 -0.31365624866E+03 -0.85602781689E+03  0.11248900395E+04  0.00000000000E+00 0. -1.
        -16    1    5    5    0    0  0.69176759879E+03 -0.38543775349E+03 -0.10257790233E+04  0.12958886052E+04  0.00000000000E+00 0.  1.
         16    1    3    3    0    0 -0.18958128842E+03 -0.82412214675E+02  0.23367480430E+02  0.20803575940E+03  0.00000000000E+00 0. -1.
    9900018    1    1    2    0    0 -0.50593385905E+03  0.92065371746E+03 -0.38023842933E+02  0.10551461170E+04  0.91187600000E+02 0.  0.
<mgrwt>
<rscale>  0 0.34957364E+04</rscale>
<asrwt>0</asrwt>
<pdfrwt beam="1">  1        2 0.57115118E+00 0.44135620E+04</pdfrwt>
<pdfrwt beam="2">  1       -2 0.40395997E+00 0.44135620E+04</pdfrwt>
<totfact> 0.28690770E-03</totfact>
</mgrwt>
</event>
<event>
12    1  0.3059931E-005  0.3940374E+04  0.7818608E-02  0.8478476E-01
          1   -1    0    0  501    0  0.00000000000E+00  0.00000000000E+00  0.26253179026E+04  0.26253179026E+04  0.00000000000E+00 0. -1.
         -1   -1    0    0    0  501 -0.00000000000E+00 -0.00000000000E+00 -0.19079861618E+04  0.19079861618E+04  0.00000000000E+00 0.  1.
         24    2    1    2    0    0 -0.58663101302E+02  0.44537890251E+03  0.35151594479E+03  0.57598527687E+03  0.79949068072E+02 0.  0.
    9900016    2    1    2    0    0 -0.11276509077E+04 -0.45751048846E+03  0.48367987592E+02  0.22110827226E+04  0.18454362432E+04 0.  0.
        -24    2    4    4    0    0 -0.90147306167E+03 -0.59809620101E+03  0.84223539775E+03  0.13737379755E+04  0.86155752127E+02 0.  0.
        -15    1    3    3    0    0 -0.45873549343E+02  0.94621645597E+02  0.75106997102E+02  0.12922344740E+03  0.00000000000E+00 0.  1.
        -15    1    4    4    0    0 -0.22617784600E+03  0.14058571255E+03 -0.79386741016E+03  0.83734474711E+03  0.00000000000E+00 0.  1.
         15    1    1    2    0    0  0.77061010110E+03  0.41077966601E+03  0.63735877045E+03  0.10811133447E+04  0.00000000000E+00 0. -1.
         15    1    5    5    0    0 -0.18459304641E+03 -0.84034708522E+02  0.17015982904E+03  0.26474665709E+03  0.00000000000E+00 0. -1.
        -16    1    5    5    0    0 -0.71688001525E+03 -0.51406149249E+03  0.67207556871E+03  0.11089913184E+04  0.00000000000E+00 0.  1.
         16    1    3    3    0    0 -0.12789551959E+02  0.35075725691E+03  0.27640894769E+03  0.44676182947E+03  0.00000000000E+00 0. -1.
    9900018    1    1    2    0    0  0.41570390787E+03 -0.39864808006E+03 -0.31991096199E+03  0.66512272007E+03  0.91187600000E+02 0.  0.
<mgrwt>
<rscale>  0 0.22985932E+04</rscale>
<asrwt>0</asrwt>
<pdfrwt beam="1">  1        1 0.40389506E+00 0.39403744E+04</pdfrwt>
<pdfrwt beam="2">  1       -1 0.29353633E+00 0.39403744E+04</pdfrwt>
<totfact> 0.31107889E-02</totfact>
</mgrwt>
</event>
