<event>
12    1  0.1049459E-015  0.2617810E+04  0.7818608E-02  0.8921034E-01
          2   -1    0    0  501    0  0.00000000000E+00  0.00000000000E+00  0.33149571239E+04  0.33149571239E+04  0.00000000000E+00 0. -1.
         -2   -1    0    0    0  501 -0.00000000000E+00 -0.00000000000E+00 -0.67376191777E+03  0.67376191777E+03  0.00000000000E+00 0.  1.
         23    2    1    2    0    0  0.84053499284E+02 -0.21070010479E+03 -0.33505349687E+02  0.24613290290E+03  0.89438652344E+02 0.  0.
    9900016    2    1    2    0    0 -0.81153916366E+02  0.18524285813E+03  0.18424976697E+04  0.28361891762E+04  0.21466882646E+04 0.  0.
        -24    2    4    4    0    0 -0.44574494217E+03 -0.42890345198E+03  0.20081375016E+04  0.21030187592E+04  0.86168159543E+02 0.  0.
        -15    1    4    4    0    0  0.36459102581E+03  0.61414631010E+03 -0.16563983189E+03  0.73317041690E+03  0.00000000000E+00 0.  1.
        -15    1    3    3    0    0  0.45617502492E+02 -0.19004720716E+03 -0.80369497222E+01  0.19561055709E+03  0.00000000000E+00 0. -1.
         15    1    5    5    0    0 -0.40427147585E+03 -0.35285157180E+03  0.17735238800E+04  0.18529238006E+04  0.00000000000E+00 0. -1.
         15    1    3    3    0    0  0.38435996792E+02 -0.20652897629E+02 -0.25468399965E+02  0.50522345815E+02  0.00000000000E+00 0.  1.
        -16    1    5    5    0    0 -0.41473466324E+02 -0.76051880174E+02  0.23461362160E+03  0.25009495862E+03  0.00000000000E+00 0.  1.
         16    1    1    2    0    0  0.23386308400E+02 -0.23509308622E+02  0.79137511004E+03  0.79206954985E+03  0.00000000000E+00 0. -1.
    9900018    1    1    2    0    0 -0.26285891318E+02  0.48966555284E+02  0.40827776049E+02  0.11432741277E+03  0.91187600000E+02 0.  0.
<mgrwt>
<rscale>  0 0.14462074E+04</rscale>
<asrwt>0</asrwt>
<pdfrwt beam="1">  1        2 0.50999339E+00 0.26178098E+04</pdfrwt>
<pdfrwt beam="2">  1       -2 0.10365568E+00 0.26178098E+04</pdfrwt>
<totfact> 0.72179951E-01</totfact>
</mgrwt>
</event>
<event>
12    1  0.1049459E-015  0.2936383E+04  0.7818608E-02  0.8262134E-01
         -2   -1    0    0    0  501 -0.00000000000E+00  0.00000000000E+00  0.11172053293E+04  0.11172053293E+04  0.00000000000E+00 0.  1.
          2   -1    0    0  501    0  0.00000000000E+00 -0.00000000000E+00 -0.19294446084E+04  0.19294446084E+04  0.00000000000E+00 0. -1.
         23    2    1    2    0    0 -0.26924374150E+03 -0.91380177649E+02 -0.23284649532E+03  0.37684343181E+03  0.83372372614E+02 0.  0.
    9900016    2    1    2    0    0  0.33036160362E+03 -0.15753611080E+03 -0.37177427836E+03  0.22176849005E+04  0.21554474682E+04 0.  0.
        -24    2    4    4    0    0  0.10286977351E+04 -0.31910882774E+03  0.41165480118E+03  0.11558279336E+04  0.80181436675E+02 0.  0.
        -15    1    3    3    0    0 -0.10179595962E+03 -0.76108312373E+02 -0.11608766666E+03  0.17213726778E+03  0.00000000000E+00 0. -1.
        -15    1    4    4    0    0 -0.69833613144E+03  0.16157271694E+03 -0.78342907953E+03  0.10618569668E+04  0.00000000000E+00 0.  1.
         15    1    3    3    0    0 -0.16744778187E+03 -0.15271865276E+02 -0.11675882866E+03  0.20470616404E+03  0.00000000000E+00 0.  1.
         15    1    5    5    0    0  0.60621328170E+03 -0.15091146784E+03  0.21939214852E+03  0.66211911984E+03  0.00000000000E+00 0. -1.
        -16    1    5    5    0    0  0.42248445336E+03 -0.16819735990E+03  0.19226265265E+03  0.49370881379E+03  0.00000000000E+00 0.  1.
         16    1    1    2    0    0 -0.12056417539E+03  0.26368189268E+03 -0.16948504100E+03  0.33584079567E+03  0.00000000000E+00 0. -1.
    9900018    1    1    2    0    0  0.59446313265E+02 -0.14765604235E+02 -0.38133464403E+02  0.11628080981E+03  0.91187600000E+02 0.  0.
<mgrwt>
<rscale>  0 0.29363827E+04</rscale>
<asrwt>0</asrwt>
<pdfrwt beam="1">  1        2 0.29683763E+00 0.29363827E+04</pdfrwt>
<pdfrwt beam="2">  1       -2 0.17187775E+00 0.29363827E+04</pdfrwt>
<totfact> 0.13007854E+00</totfact>
</mgrwt>
</event>
<event>
12    1  0.1049459E-015  0.2720892E+04  0.7818608E-02  0.8934794E-01
          2   -1    0    0  501    0  0.00000000000E+00  0.00000000000E+00  0.37340947441E+04  0.37340947441E+04  0.00000000000E+00 0.  1.
         -2   -1    0    0    0  501 -0.00000000000E+00 -0.00000000000E+00 -0.83921474643E+03  0.83921474643E+03  0.00000000000E+00 0. -1.
         23    2    1    2    0    0 -0.16063818327E+03  0.90930182653E+02 -0.30825064263E+03  0.37053645061E+03  0.90586304188E+02 0.  0.
    9900016    2    1    2    0    0 -0.26470146228E+03 -0.21297219028E+03  0.26655273530E+04  0.35064790214E+04  0.22527616474E+04 0.  0.
         24    2    4    4    0    0 -0.10704792743E+04  0.30805622024E+03  0.80955318666E+03  0.13790588743E+04  0.74849885106E+02 0.  0.
        -15    1    3    3    0    0 -0.35034489681E+02  0.67184649572E+02 -0.90432749364E+02  0.11797997611E+03  0.00000000000E+00 0.  1.
        -15    1    5    5    0    0 -0.60146102559E+03  0.18442912559E+03  0.41308196164E+03  0.75259961115E+03  0.00000000000E+00 0.  1.
         15    1    4    4    0    0  0.77525791141E+03 -0.53458741729E+03  0.17085738187E+04  0.19509056947E+04  0.00000000000E+00 0. -1.
         15    1    3    3    0    0 -0.12560369359E+03  0.23745533080E+02 -0.21781789327E+03  0.25255647450E+03  0.00000000000E+00 0. -1.
        -16    1    1    2    0    0  0.42533964555E+03  0.12204200763E+03  0.53760328731E+03  0.69629401852E+03  0.00000000000E+00 0.  1.
         16    1    5    5    0    0 -0.46901824870E+03  0.12362709464E+03  0.39647122502E+03  0.62645926317E+03  0.00000000000E+00 0. -1.
    9900018    1    4    4    0    0  0.30519900608E+02  0.13559006774E+02  0.14740034764E+03  0.17651445231E+03  0.91187600000E+02 0.  0.
<mgrwt>
<rscale>  0 0.14265890E+04</rscale>
<asrwt>0</asrwt>
<pdfrwt beam="1">  1        2 0.57447611E+00 0.27208924E+04</pdfrwt>
<pdfrwt beam="2">  1       -2 0.12910996E+00 0.27208924E+04</pdfrwt>
<totfact> 0.20869025E-01</totfact>
</mgrwt>
</event>
