<event>
11    1  0.3521269E-011  0.3231832E+04  0.7818608E-02  0.8382968E-01
         -1   -1    0    0    0  501 -0.00000000000E+00  0.00000000000E+00  0.18842301887E+04  0.18842301887E+04  0.00000000000E+00 0.  1.
          1   -1    0    0  501    0  0.00000000000E+00 -0.00000000000E+00 -0.33915166227E+04  0.33915166227E+04  0.00000000000E+00 0. -1.
    9900016    2    1    2    0    0  0.46856716707E+03  0.14701600697E+03 -0.10064113938E+04  0.23054274875E+04  0.20151831456E+04 0.  0.
         24    2    3    3    0    0 -0.24841601861E+03  0.15835098559E+03 -0.14368424501E+04  0.14690876854E+04  0.83167589502E+02 0.  0.
        -15    1    4    4    0    0 -0.27787462808E+02  0.55356615519E+02 -0.33281947487E+03  0.33853404677E+03  0.00000000000E+00 0.  1.
        -15    1    1    2    0    0 -0.42516724132E+03  0.30491053872E+03  0.60589414913E+03  0.80052816295E+03  0.00000000000E+00 0.  1.
         15    1    1    2    0    0  0.34466537518E+03  0.50070575437E+03  0.10719196811E+02  0.60796001060E+03  0.00000000000E+00 0. -1.
         15    1    3    3    0    0  0.71698318568E+03 -0.11334978623E+02  0.43043105636E+03  0.83633980209E+03  0.00000000000E+00 0. -1.
        -16    1    1    2    0    0 -0.38459187174E+03 -0.61896869111E+03 -0.87842744827E+03  0.11413447903E+04  0.00000000000E+00 0.  1.
         16    1    4    4    0    0 -0.22062855580E+03  0.10299437008E+03 -0.11040229753E+04  0.11305536386E+04  0.00000000000E+00 0. -1.
    9900018    1    1    2    0    0 -0.34734291869E+01 -0.33366360896E+03 -0.23906093787E+03  0.42048636014E+03  0.91187600000E+02 0.  0.
<mgrwt>
<rscale>  0 0.25569634E+04</rscale>
<asrwt>0</asrwt>
<pdfrwt beam="1">  1        1 0.52177178E+00 0.32318322E+04</pdfrwt>
<pdfrwt beam="2">  1       -1 0.28988157E+00 0.32318322E+04</pdfrwt>
<totfact> 0.92522565E-03</totfact>
</mgrwt>
</event>
<event>
11    1  0.3521269E-011  0.3894152E+04  0.7818608E-02  0.8329292E-01
         -2   -1    0    0    0  501 -0.00000000000E+00  0.00000000000E+00  0.21787614267E+04  0.21787614267E+04  0.00000000000E+00 0.  1.
          2   -1    0    0  501    0  0.00000000000E+00 -0.00000000000E+00 -0.26660120869E+04  0.26660120869E+04  0.00000000000E+00 0. -1.
    9900016    2    1    2    0    0  0.76223173662E+03 -0.80151495138E+03 -0.35611911929E+02  0.23069741271E+04  0.20242129278E+04 0.  0.
        -24    2    3    3    0    0  0.88162400314E+03  0.30857687181E+03 -0.53996323631E+03  0.10818502037E+04  0.79743325511E+02 0.  0.
        -15    1    1    2    0    0  0.46670608366E+03 -0.16558385583E+03  0.16024570281E+02  0.49546883725E+03  0.00000000000E+00 0.  1.
        -15    1    3    3    0    0 -0.11939226652E+03 -0.11100918232E+04  0.50435132438E+03  0.12251239234E+04  0.00000000000E+00 0.  1.
         15    1    4    4    0    0  0.23241819650E+03  0.67780272806E+02 -0.10315258236E+03  0.26315934088E+03  0.00000000000E+00 0. -1.
         15    1    1    2    0    0 -0.40578218386E+03 -0.34738887078E+02 -0.16863978862E+03  0.44080080458E+03  0.00000000000E+00 0. -1.
        -16    1    4    4    0    0  0.64920580664E+03  0.24079659900E+03 -0.43681065395E+03  0.81869086283E+03  0.00000000000E+00 0.  1.
         16    1    1    2    0    0 -0.85938794105E+03  0.93646648387E+03  0.96904982819E+01  0.12710668804E+04  0.00000000000E+00 0. -1.
    9900018    1    1    2    0    0  0.36232304620E+02  0.65371210424E+02 -0.30871402827E+03  0.33046286432E+03  0.91187600000E+02 0.  0.
<mgrwt>
<rscale>  0 0.27176781E+04</rscale>
<asrwt>0</asrwt>
<pdfrwt beam="1">  1        2 0.41015571E+00 0.38941522E+04</pdfrwt>
<pdfrwt beam="2">  1       -2 0.33519407E+00 0.38941522E+04</pdfrwt>
<totfact> 0.41301858E-02</totfact>
</mgrwt>
</event>
<event>
11    1  0.3521269E-011  0.4741888E+04  0.7818608E-02  0.8144073E-01
          2   -1    0    0  501    0  0.00000000000E+00  0.00000000000E+00  0.20433987952E+04  0.20433987952E+04  0.00000000000E+00 0. -1.
         -2   -1    0    0    0  501 -0.00000000000E+00 -0.00000000000E+00 -0.43445235544E+04  0.43445235544E+04  0.00000000000E+00 0.  1.
    9900016    2    1    2    0    0 -0.13736609706E+04  0.40789036159E+03 -0.94311406269E+03  0.26494385204E+04  0.20190941853E+04 0.  0.
        -24    2    3    3    0    0 -0.11726467277E+04 -0.20161996806E+02  0.38713897251E+03  0.12376280923E+04  0.79623217793E+02 0.  0.
        -15    1    3    3    0    0 -0.20101424291E+03  0.42805235840E+03 -0.13302530352E+04  0.14118104282E+04  0.00000000000E+00 0.  1.
        -15    1    1    2    0    0 -0.55150206978E+03  0.54002740477E+03 -0.10414500690E+03  0.77886475934E+03  0.00000000000E+00 0.  1.
         15    1    1    2    0    0  0.15378563493E+03 -0.32982157904E+03 -0.39299836506E+03  0.53561180947E+03  0.00000000000E+00 0. -1.
         15    1    4    4    0    0 -0.19355325135E+03  0.25309783697E+02  0.72164422433E+02  0.20811331078E+03  0.00000000000E+00 0. -1.
        -16    1    4    4    0    0 -0.97909347630E+03 -0.45471780503E+02  0.31497455008E+03  0.10295147815E+04  0.00000000000E+00 0.  1.
         16    1    1    2    0    0  0.10243345056E+04  0.22492060991E+03 -0.74831623948E+03  0.12883429879E+04  0.00000000000E+00 0. -1.
    9900018    1    1    2    0    0  0.74704289977E+03 -0.84301679723E+03 -0.11255108503E+03  0.11356642724E+04  0.91187600000E+02 0.  0.
<mgrwt>
<rscale>  0 0.33749843E+04</rscale>
<asrwt>0</asrwt>
<pdfrwt beam="1">  1        2 0.31436905E+00 0.47418882E+04</pdfrwt>
<pdfrwt beam="2">  1       -2 0.66838823E+00 0.47418882E+04</pdfrwt>
<totfact> 0.13285089E-03</totfact>
</mgrwt>
</event>
<event>
11    1  0.3521269E-011  0.7414017E+04  0.7818608E-02  0.7536182E-01
          2   -1    0    0  501    0  0.00000000000E+00  0.00000000000E+00  0.31521577875E+04  0.31521577875E+04  0.00000000000E+00 0.  1.
         -2   -1    0    0    0  501 -0.00000000000E+00 -0.00000000000E+00 -0.43595256130E+04  0.43595256130E+04  0.00000000000E+00 0. -1.
    9900016    2    1    2    0    0  0.21073920017E+03 -0.55879337049E+03  0.66679195277E+03  0.22117623489E+04  0.20225281552E+04 0.  0.
         24    2    3    3    0    0  0.38008828049E+03 -0.78312778403E+03 -0.50301462429E+03  0.10086611612E+04  0.81347395876E+02 0.  0.
        -15    1    1    2    0    0  0.49707415119E+02 -0.12565065894E+04  0.10369752567E+03  0.12617578267E+04  0.00000000000E+00 0.  1.
        -15    1    4    4    0    0  0.24618883232E+03 -0.58609221882E+03 -0.35293328136E+03  0.72710035842E+03  0.00000000000E+00 0.  1.
         15    1    3    3    0    0 -0.16934908031E+03  0.22433441354E+03  0.11698065771E+04  0.12031011877E+04  0.00000000000E+00 0. -1.
         15    1    1    2    0    0  0.11308472334E+04  0.50700459948E+03 -0.12098874264E+04  0.17319632541E+04  0.00000000000E+00 0. -1.
        -16    1    1    2    0    0 -0.90427646253E+03  0.11782632927E+04 -0.13423693224E+03  0.14913215151E+04  0.00000000000E+00 0.  1.
         16    1    4    4    0    0  0.13389944817E+03 -0.19703556521E+03 -0.15008134293E+03  0.28156080280E+03  0.00000000000E+00 0. -1.
    9900018    1    1    2    0    0 -0.48701738613E+03  0.13003206776E+03 -0.63373294538E+03  0.81487845566E+03  0.91187600000E+02 0.  0.
<mgrwt>
<rscale>  0 0.74140172E+04</rscale>
<asrwt>0</asrwt>
<pdfrwt beam="1">  1        2 0.48494735E+00 0.74140172E+04</pdfrwt>
<pdfrwt beam="2">  1       -2 0.67069625E+00 0.74140172E+04</pdfrwt>
<totfact> 0.24900306E-04</totfact>
</mgrwt>
</event>
<event>
11    1  0.3521269E-011  0.3058372E+04  0.7818608E-02  0.8327900E-01
          2   -1    0    0  501    0  0.00000000000E+00  0.00000000000E+00  0.42293766346E+04  0.42293766346E+04  0.00000000000E+00 0. -1.
         -2   -1    0    0    0  501 -0.00000000000E+00 -0.00000000000E+00 -0.22873232907E+04  0.22873232907E+04  0.00000000000E+00 0.  1.
    9900016    2    1    2    0    0 -0.23971332392E+03 -0.22019863091E+03  0.17990087067E+04  0.27273407569E+04  0.20238590273E+04 0.  0.
        -24    2    3    3    0    0  0.40583472491E+02 -0.70557129638E+03  0.20072089710E+04  0.21294274952E+04  0.78075164672E+02 0.  0.
        -15    1    1    2    0    0  0.12663574317E+04 -0.43042192821E+03 -0.11067953827E+04  0.17360645726E+04  0.00000000000E+00 0.  1.
        -15    1    3    3    0    0 -0.28029679641E+03  0.48537266547E+03 -0.20820026430E+03  0.59791326170E+03  0.00000000000E+00 0.  1.
         15    1    1    2    0    0 -0.44680798680E+03  0.15210112755E+03  0.14221599846E+02  0.47220163487E+03  0.00000000000E+00 0. -1.
         15    1    4    4    0    0  0.54324608165E+02 -0.29199490862E+03  0.81226143485E+03  0.86485884874E+03  0.00000000000E+00 0. -1.
        -16    1    4    4    0    0 -0.13741135675E+02 -0.41357638776E+03  0.11949475362E+04  0.12645686464E+04  0.00000000000E+00 0.  1.
         16    1    1    2    0    0 -0.41188693515E+03  0.34379036361E+03  0.12222728679E+04  0.13348384266E+04  0.00000000000E+00 0. -1.
    9900018    1    1    2    0    0 -0.16794918587E+03  0.15472906796E+03  0.13345552213E+02  0.24625453431E+03  0.91187600000E+02 0.  0.
<mgrwt>
<rscale>  0 0.27220046E+04</rscale>
<asrwt>0</asrwt>
<pdfrwt beam="1">  1        2 0.65067333E+00 0.30583720E+04</pdfrwt>
<pdfrwt beam="2">  1       -2 0.35189589E+00 0.30583720E+04</pdfrwt>
<totfact> 0.26191059E-03</totfact>
</mgrwt>
</event>
<event>
11    1  0.3521269E-011  0.5327280E+04  0.7818608E-02  0.8037593E-01
          2   -1    0    0  501    0  0.00000000000E+00  0.00000000000E+00  0.40168457570E+04  0.40168457570E+04  0.00000000000E+00 0. -1.
         -2   -1    0    0    0  501 -0.00000000000E+00 -0.00000000000E+00 -0.28625278619E+04  0.28625278619E+04  0.00000000000E+00 0.  1.
    9900016    2    1    2    0    0 -0.13474966848E+04 -0.10634413299E+03  0.15536184597E+04  0.28820815319E+04  0.20163351031E+04 0.  0.
         24    2    3    3    0    0 -0.11423751756E+04  0.62523025409E+03  0.18663125159E+03  0.13181346196E+04  0.81937407837E+02 0.  0.
        -15    1    4    4    0    0 -0.10479650844E+04  0.56237329862E+03  0.14893842985E+03  0.11986147008E+04  0.00000000000E+00 0.  1.
        -15    1    1    2    0    0 -0.46379628485E+03 -0.29904845546E+03 -0.15697770493E+03  0.57374120682E+03  0.00000000000E+00 0.  1.
         15    1    1    2    0    0  0.55879030120E+02  0.71083251498E+03  0.59842195078E+03  0.93086742425E+03  0.00000000000E+00 0. -1.
         15    1    3    3    0    0 -0.20512150920E+03 -0.73157438707E+03  0.13669872081E+04  0.15639469123E+04  0.00000000000E+00 0. -1.
        -16    1    1    2    0    0  0.13888111271E+04  0.62619158647E+02 -0.12147015177E+04  0.18461357705E+04  0.00000000000E+00 0.  1.
         16    1    4    4    0    0 -0.94410091237E+02  0.62856955462E+02  0.37692821739E+02  0.11951991879E+03  0.00000000000E+00 0. -1.
    9900018    1    1    2    0    0  0.36660281246E+03 -0.36805908519E+03  0.37395670731E+03  0.64654768550E+03  0.91187600000E+02 0.  0.
<mgrwt>
<rscale>  0 0.38401529E+04</rscale>
<asrwt>0</asrwt>
<pdfrwt beam="1">  1        2 0.61797627E+00 0.53272798E+04</pdfrwt>
<pdfrwt beam="2">  1       -2 0.44038890E+00 0.53272798E+04</pdfrwt>
<totfact> 0.89785113E-04</totfact>
</mgrwt>
</event>
<event>
11    1  0.3521269E-011  0.3665148E+04  0.7818608E-02  0.8239342E-01
         -2   -1    0    0    0  501 -0.00000000000E+00  0.00000000000E+00  0.22382091384E+04  0.22382091384E+04  0.00000000000E+00 0.  1.
          2   -1    0    0  501    0  0.00000000000E+00 -0.00000000000E+00 -0.34724372319E+04  0.34724372319E+04  0.00000000000E+00 0. -1.
    9900016    2    1    2    0    0 -0.49802983589E+03  0.27426993284E+02 -0.29595545451E+03  0.21054275607E+04  0.20239687806E+04 0.  0.
         24    2    3    3    0    0 -0.54749533012E+03  0.87389372710E+03 -0.61119597894E+03  0.12008119767E+04  0.70338439118E+02 0.  0.
        -15    1    1    2    0    0 -0.37312230696E+03  0.36651784576E+03  0.21149671895E+02  0.52345285923E+03  0.00000000000E+00 0.  1.
        -15    1    4    4    0    0 -0.83611792127E+02  0.18547230342E+03 -0.12519478040E+03  0.23888206329E+03  0.00000000000E+00 0.  1.
         15    1    1    2    0    0  0.22572927249E+03 -0.71221923129E+03 -0.10213021800E+04  0.12654122177E+04  0.00000000000E+00 0. -1.
         15    1    3    3    0    0  0.49465494232E+02 -0.84646673381E+03  0.31524052443E+03  0.90461558400E+03  0.00000000000E+00 0. -1.
        -16    1    1    2    0    0  0.38791351340E+03 -0.66022336215E+03 -0.14559873825E+03  0.77946826387E+03  0.00000000000E+00 0.  1.
         16    1    4    4    0    0 -0.46388353799E+03  0.68842142367E+03 -0.48600119854E+03  0.96192991344E+03  0.00000000000E+00 0. -1.
    9900018    1    1    2    0    0  0.25750935696E+03  0.97849775439E+03  0.20747860740E+03  0.10368854687E+04  0.91187600000E+02 0.  0.
<mgrwt>
<rscale>  0 0.30154175E+04</rscale>
<asrwt>0</asrwt>
<pdfrwt beam="1">  1        2 0.53422111E+00 0.36651476E+04</pdfrwt>
<pdfrwt beam="2">  1       -2 0.34433987E+00 0.36651476E+04</pdfrwt>
<totfact> 0.10968552E-02</totfact>
</mgrwt>
</event>
<event>
11    1  0.3521269E-011  0.2816220E+04  0.7818608E-02  0.8330242E-01
         -2   -1    0    0    0  501 -0.00000000000E+00  0.00000000000E+00  0.23274501730E+04  0.23274501730E+04  0.00000000000E+00 0.  1.
          2   -1    0    0  501    0  0.00000000000E+00 -0.00000000000E+00 -0.43561615572E+04  0.43561615572E+04  0.00000000000E+00 0. -1.
    9900016    2    1    2    0    0  0.66254166282E+03  0.39991698906E+03  0.61720553536E+03  0.22415408783E+04  0.20111359435E+04 0.  0.
         24    2    3    3    0    0  0.10516080104E+04  0.95261527236E+03  0.17068314615E+03  0.14314604754E+04  0.81185538024E+02 0.  0.
        -15    1    1    2    0    0 -0.11190548930E+03  0.52375498983E+03 -0.17932699087E+04  0.18715392310E+04  0.00000000000E+00 0.  1.
        -15    1    4    4    0    0  0.72818206879E+03  0.70905855975E+03  0.12225433682E+03  0.10236988275E+04  0.00000000000E+00 0.  1.
         15    1    3    3    0    0 -0.38906634753E+03 -0.55269828330E+03  0.44652238920E+03  0.81008040293E+03  0.00000000000E+00 0. -1.
         15    1    1    2    0    0 -0.55942588339E+03 -0.14450219177E+04 -0.10602598217E+04  0.18775506788E+04  0.00000000000E+00 0. -1.
        -16    1    1    2    0    0  0.27187845993E+02  0.52811493131E+03  0.25642895306E+03  0.58770772295E+03  0.00000000000E+00 0.  1.
         16    1    4    4    0    0  0.32342594156E+03  0.24355671260E+03  0.48428809332E+02  0.40776164791E+03  0.00000000000E+00 0. -1.
    9900018    1    1    2    0    0 -0.18398136127E+02 -0.67649924420E+01 -0.48816142244E+02  0.10527321916E+03  0.91187600000E+02 0.  0.
<mgrwt>
<rscale>  0 0.27147277E+04</rscale>
<asrwt>0</asrwt>
<pdfrwt beam="1">  1        2 0.67017869E+00 0.28162196E+04</pdfrwt>
<pdfrwt beam="2">  1       -2 0.35806926E+00 0.28162196E+04</pdfrwt>
<totfact> 0.18788595E-03</totfact>
</mgrwt>
</event>
<event>
11    1  0.3521269E-011  0.3284062E+04  0.7818608E-02  0.8315747E-01
         -2   -1    0    0    0  501 -0.00000000000E+00  0.00000000000E+00  0.21885195009E+04  0.21885195009E+04  0.00000000000E+00 0. -1.
          2   -1    0    0  501    0  0.00000000000E+00 -0.00000000000E+00 -0.28076258138E+04  0.28076258138E+04  0.00000000000E+00 0.  1.
    9900016    2    1    2    0    0  0.12616973031E+03  0.38478645220E+03 -0.42465303782E+03  0.21099190401E+04  0.20266841734E+04 0.  0.
        -24    2    3    3    0    0  0.43384320963E+03  0.69896185884E+03 -0.10557145481E+04  0.13407585980E+04  0.79578894615E+02 0.  0.
        -15    1    1    2    0    0 -0.81093838265E+02  0.20387349269E+03 -0.48797995922E+03  0.53503743068E+03  0.00000000000E+00 0.  1.
        -15    1    3    3    0    0 -0.30767347932E+03 -0.31417540664E+03  0.63106151024E+03  0.76916044212E+03  0.00000000000E+00 0.  1.
         15    1    4    4    0    0  0.11103010723E+03  0.20100978342E+03 -0.24170396673E+03  0.33339679854E+03  0.00000000000E+00 0. -1.
         15    1    1    2    0    0  0.85831453237E+03 -0.80152788033E+03  0.13945264810E+01  0.11743733325E+04  0.00000000000E+00 0. -1.
        -16    1    4    4    0    0  0.32281310240E+03  0.49795207541E+03 -0.81401058133E+03  0.10073617995E+04  0.00000000000E+00 0.  1.
         16    1    1    2    0    0 -0.80465246590E+03  0.38563556984E+03  0.33621404320E+03  0.95353042240E+03  0.00000000000E+00 0. -1.
    9900018    1    1    2    0    0 -0.98737958515E+02 -0.17276763439E+03 -0.44081885578E+02  0.22328508901E+03  0.91187600000E+02 0.  0.
<mgrwt>
<rscale>  0 0.27601520E+04</rscale>
<asrwt>0</asrwt>
<pdfrwt beam="1">  1        2 0.43194243E+00 0.32840618E+04</pdfrwt>
<pdfrwt beam="2">  1       -2 0.33669531E+00 0.32840618E+04</pdfrwt>
<totfact> 0.34291114E-02</totfact>
</mgrwt>
</event>
<event>
11    1  0.3521269E-011  0.3177967E+04  0.7818608E-02  0.8358015E-01
         -2   -1    0    0    0  501 -0.00000000000E+00  0.00000000000E+00  0.17142753706E+04  0.17142753706E+04  0.00000000000E+00 0. -1.
          2   -1    0    0  501    0  0.00000000000E+00 -0.00000000000E+00 -0.32567771198E+04  0.32567771198E+04  0.00000000000E+00 0.  1.
    9900016    2    1    2    0    0 -0.41354949713E+02  0.76661112099E+02 -0.35611218293E+03  0.20483323651E+04  0.20152574111E+04 0.  0.
         24    2    3    3    0    0 -0.64168855368E+03  0.77151681007E+03  0.12028392820E+03  0.10138382222E+04  0.79983306007E+02 0.  0.
        -15    1    4    4    0    0 -0.41190584593E+03  0.53006536162E+03  0.11088685079E+03  0.68039077535E+03  0.00000000000E+00 0.  1.
        -15    1    1    2    0    0  0.25472433294E+03 -0.30503453125E+03 -0.60254740667E+03  0.72179909139E+03  0.00000000000E+00 0.  1.
         15    1    1    2    0    0 -0.61711467808E+03 -0.90339282702E+02  0.46162198830E+03  0.77594237672E+03  0.00000000000E+00 0. -1.
         15    1    3    3    0    0  0.60033360396E+03 -0.69485569797E+03 -0.47639611113E+03  0.10344941429E+04  0.00000000000E+00 0. -1.
        -16    1    1    2    0    0  0.24477023417E+03  0.32739246532E+03 -0.11453248956E+04  0.12160869255E+04  0.00000000000E+00 0.  1.
         16    1    4    4    0    0 -0.22978270774E+03  0.24145144844E+03  0.93970774094E+01  0.33344744683E+03  0.00000000000E+00 0. -1.
    9900018    1    1    2    0    0  0.15897506069E+03 -0.86797634613E+01  0.99860747748E+02  0.20889173164E+03  0.91187600000E+02 0.  0.
<mgrwt>
<rscale>  0 0.26301982E+04</rscale>
<asrwt>0</asrwt>
<pdfrwt beam="1">  1        2 0.50104263E+00 0.31779668E+04</pdfrwt>
<pdfrwt beam="2">  1       -2 0.26373467E+00 0.31779668E+04</pdfrwt>
<totfact> 0.50722868E-02</totfact>
</mgrwt>
</event>
<event>
11    1  0.3521269E-011  0.2986097E+04  0.7818608E-02  0.8469232E-01
          2   -1    0    0  501    0  0.00000000000E+00  0.00000000000E+00  0.27858881333E+04  0.27858881333E+04  0.00000000000E+00 0. -1.
         -2   -1    0    0    0  501 -0.00000000000E+00 -0.00000000000E+00 -0.15621587098E+04  0.15621587098E+04  0.00000000000E+00 0.  1.
    9900016    2    1    2    0    0 -0.16639956395E+02 -0.41670358758E+03  0.16681465213E+03  0.20641503260E+04  0.20146887283E+04 0.  0.
        -24    2    3    3    0    0  0.52265915519E+03 -0.47055432391E+02 -0.76169925077E+03  0.92853535677E+03  0.81273328582E+02 0.  0.
        -15    1    3    3    0    0 -0.53929911158E+03 -0.36964815519E+03  0.92851390290E+03  0.11356149692E+04  0.00000000000E+00 0.  1.
        -15    1    1    2    0    0 -0.37800007755E+03  0.77435806807E+02 -0.44601115828E+03  0.58975106283E+03  0.00000000000E+00 0.  1.
         15    1    4    4    0    0  0.22352696838E+03  0.97265620716E+01 -0.37045732513E+03  0.43277885964E+03  0.00000000000E+00 0. -1.
         15    1    1    2    0    0  0.13965978889E+03  0.30439847290E+03  0.37730931983E+03  0.50450531193E+03  0.00000000000E+00 0. -1.
        -16    1    4    4    0    0  0.29913218681E+03 -0.56781994462E+02 -0.39124192563E+03  0.49575649714E+03  0.00000000000E+00 0.  1.
         16    1    1    2    0    0  0.15013008133E+03  0.12553717644E+03  0.80724066363E+03  0.83062392995E+03  0.00000000000E+00 0. -1.
    9900018    1    1    2    0    0  0.10485016373E+03 -0.90667868561E+02  0.31837594621E+03  0.35901621237E+03  0.91187600000E+02 0.  0.
<mgrwt>
<rscale>  0 0.23221660E+04</rscale>
<asrwt>0</asrwt>
<pdfrwt beam="1">  1        2 0.42859817E+00 0.29860968E+04</pdfrwt>
<pdfrwt beam="2">  1       -2 0.24033211E+00 0.29860968E+04</pdfrwt>
<totfact> 0.14363851E-01</totfact>
</mgrwt>
</event>
<event>
11    1  0.3521269E-011  0.4873630E+04  0.7818608E-02  0.8096486E-01
         -2   -1    0    0    0  501 -0.00000000000E+00  0.00000000000E+00  0.27252518159E+04  0.27252518159E+04  0.00000000000E+00 0.  1.
          2   -1    0    0  501    0  0.00000000000E+00 -0.00000000000E+00 -0.37098119760E+04  0.37098119760E+04  0.00000000000E+00 0. -1.
    9900016    2    1    2    0    0 -0.58640929211E+03  0.68763765345E+02  0.62270487333E+03  0.22011132978E+04  0.20269519178E+04 0.  0.
        -24    2    3    3    0    0  0.61878007158E+03  0.38073210980E+03  0.61599511773E+03  0.95618331133E+03  0.83611143832E+02 0.  0.
        -15    1    3    3    0    0 -0.12051893637E+04 -0.31196834446E+03  0.67097556033E+01  0.12449299864E+04  0.00000000000E+00 0.  1.
        -15    1    1    2    0    0 -0.26869224501E+03  0.87012853799E+03  0.42524425162E+03  0.10050631168E+04  0.00000000000E+00 0.  1.
         15    1    1    2    0    0  0.15781813510E+02 -0.34346519919E+03 -0.23593823316E+03  0.41699431478E+03  0.00000000000E+00 0. -1.
         15    1    4    4    0    0  0.34044971791E+03  0.20527357557E+03  0.39088731406E+03  0.55752680971E+03  0.00000000000E+00 0. -1.
        -16    1    4    4    0    0  0.27833035366E+03  0.17545853423E+03  0.22510780367E+03  0.39865650161E+03  0.00000000000E+00 0.  1.
         16    1    1    2    0    0  0.12068932537E+04 -0.53065730128E+03 -0.19857994031E+04  0.23836081403E+04  0.00000000000E+00 0. -1.
    9900018    1    1    2    0    0 -0.36757353005E+03 -0.64769802859E+02  0.18922835124E+03  0.42828492229E+03  0.91187600000E+02 0.  0.
<mgrwt>
<rscale>  0 0.35739466E+04</rscale>
<asrwt>0</asrwt>
<pdfrwt beam="1">  1        2 0.57074030E+00 0.48736302E+04</pdfrwt>
<pdfrwt beam="2">  1       -2 0.41926951E+00 0.48736302E+04</pdfrwt>
<totfact> 0.22230799E-03</totfact>
</mgrwt>
</event>
