<event>
11    1  0.1934513E-013  0.3445636E+04  0.7818608E-02  0.8424713E-01
         -2   -1    0    0    0  501 -0.00000000000E+00  0.00000000000E+00  0.17311982580E+04  0.17311982580E+04  0.00000000000E+00 0. -1.
          2   -1    0    0  501    0  0.00000000000E+00 -0.00000000000E+00 -0.27096281329E+04  0.27096281329E+04  0.00000000000E+00 0.  1.
    9900016    2    1    2    0    0 -0.92248228144E+03 -0.80291907335E+02  0.24953807111E+03  0.20813464033E+04  0.18472447731E+04 0.  0.
         24    2    3    3    0    0 -0.73374304926E+03  0.31622870662E+03  0.95707476021E+03  0.12486043896E+04  0.68127584920E+02 0.  0.
        -15    1    4    4    0    0 -0.19069672222E+03  0.10613714487E+03  0.22913883526E+03  0.31644105172E+03  0.00000000000E+00 0.  1.
        -15    1    1    2    0    0  0.23868509882E+03 -0.34712782870E+03 -0.53729656460E+03  0.68275610887E+03  0.00000000000E+00 0.  1.
         15    1    1    2    0    0  0.16840328883E+03  0.10249234464E+03  0.16798983474E+03  0.25900759250E+03  0.00000000000E+00 0. -1.
         15    1    3    3    0    0 -0.18873923219E+03 -0.39652061395E+03 -0.70753668911E+03  0.83274201376E+03  0.00000000000E+00 0. -1.
        -16    1    1    2    0    0  0.25984573684E+03  0.57589726220E+03 -0.83536088584E+03  0.10473801951E+04  0.00000000000E+00 0.  1.
         16    1    4    4    0    0 -0.54304632703E+03  0.21009156174E+03  0.72793592495E+03  0.93216333786E+03  0.00000000000E+00 0. -1.
    9900018    1    1    2    0    0  0.25554815695E+03 -0.25096987080E+03 -0.23300330361E+02  0.37033609108E+03  0.91187600000E+02 0.  0.
<mgrwt>
<rscale>  0 0.24399064E+04</rscale>
<asrwt>0</asrwt>
<pdfrwt beam="1">  1        2 0.41686586E+00 0.34456362E+04</pdfrwt>
<pdfrwt beam="2">  1       -2 0.26633819E+00 0.34456362E+04</pdfrwt>
<totfact> 0.10711280E-01</totfact>
</mgrwt>
</event>
<event>
11    1  0.1934513E-013  0.5344883E+04  0.7818608E-02  0.7777401E-01
          2   -1    0    0  501    0  0.00000000000E+00  0.00000000000E+00  0.15636886430E+04  0.15636886430E+04  0.00000000000E+00 0. -1.
         -2   -1    0    0    0  501 -0.00000000000E+00 -0.00000000000E+00 -0.45673698468E+04  0.45673698468E+04  0.00000000000E+00 0.  1.
    9900016    2    1    2    0    0 -0.42060991397E+03 -0.18349229404E+04 -0.20173998401E+04  0.33196901961E+04  0.18456939036E+04 0.  0.
        -24    2    3    3    0    0 -0.11034931206E+04 -0.13740595706E+04 -0.10621652261E+04  0.20582633502E+04  0.50162540834E+02 0.  0.
        -15    1    3    3    0    0  0.68288320666E+03 -0.46086336984E+03 -0.95523461404E+03  0.12614268459E+04  0.00000000000E+00 0.  1.
        -15    1    1    2    0    0  0.24714948109E+03  0.10173859677E+04 -0.97806227517E+03  0.14327466236E+04  0.00000000000E+00 0. -1.
         15    1    4    4    0    0 -0.36106798856E+03 -0.42032434031E+03 -0.31717900220E+03  0.63847095694E+03  0.00000000000E+00 0. -1.
         15    1    1    2    0    0 -0.32932821853E+03  0.24774853736E+03 -0.18200207259E+03  0.45051211717E+03  0.00000000000E+00 0.  1.
        -16    1    4    4    0    0 -0.74242513207E+03 -0.95373523026E+03 -0.74498622388E+03  0.14197923933E+04  0.00000000000E+00 0.  1.
         16    1    1    2    0    0  0.99882247933E+02  0.14601709917E+03  0.27571570208E+03  0.32759213220E+03  0.00000000000E+00 0. -1.
    9900018    1    1    2    0    0  0.40290640348E+03  0.42377133613E+03 -0.10193271796E+03  0.60051742080E+03  0.91187600000E+02 0.  0.
<mgrwt>
<rscale>  0 0.53448833E+04</rscale>
<asrwt>0</asrwt>
<pdfrwt beam="1">  1        2 0.24056748E+00 0.53448833E+04</pdfrwt>
<pdfrwt beam="2">  1       -2 0.70267228E+00 0.53448833E+04</pdfrwt>
<totfact> 0.18646817E-03</totfact>
</mgrwt>
</event>
<event>
11    1  0.1934513E-013  0.5579853E+04  0.7818608E-02  0.8005782E-01
          2   -1    0    0  501    0  0.00000000000E+00  0.00000000000E+00  0.26261454161E+04  0.26261454161E+04  0.00000000000E+00 0. -1.
         -2   -1    0    0    0  501 -0.00000000000E+00 -0.00000000000E+00 -0.47471872405E+04  0.47471872405E+04  0.00000000000E+00 0.  1.
    9900016    2    1    2    0    0  0.16393050207E+04 -0.92294626265E+03 -0.25865758697E+03  0.26427913169E+04  0.18380129060E+04 0.  0.
        -24    2    3    3    0    0  0.96923741376E+03  0.19070696256E+03  0.52974812758E+03  0.11226605085E+04  0.62795133681E+02 0.  0.
        -15    1    1    2    0    0 -0.95251626403E+03  0.45935555968E+02 -0.85190802310E+03  0.12787277225E+04  0.00000000000E+00 0.  1.
        -15    1    3    3    0    0  0.67006760692E+03 -0.11136532252E+04 -0.78840571455E+03  0.15201308084E+04  0.00000000000E+00 0.  1.
         15    1    4    4    0    0  0.30187119437E+03  0.44286193707E+02  0.19212192328E+03  0.36055279551E+03  0.00000000000E+00 0. -1.
         15    1    1    2    0    0 -0.11048699467E+03 -0.23215868002E+03  0.19867210649E+03  0.32492404435E+03  0.00000000000E+00 0. -1.
        -16    1    4    4    0    0  0.66736621939E+03  0.14642076886E+03  0.33762620430E+03  0.76210771297E+03  0.00000000000E+00 0.  1.
         16    1    1    2    0    0 -0.50544444720E+03  0.19583341093E+04 -0.77186832055E+03  0.21647926638E+04  0.00000000000E+00 0. -1.
    9900018    1    1    2    0    0 -0.70857314779E+02 -0.84916472265E+03 -0.43728000031E+03  0.96209690900E+03  0.91187600000E+02 0.  0.
<mgrwt>
<rscale>  0 0.39938803E+04</rscale>
<asrwt>0</asrwt>
<pdfrwt beam="1">  1        2 0.40402237E+00 0.55798533E+04</pdfrwt>
<pdfrwt beam="2">  1       -2 0.73033650E+00 0.55798533E+04</pdfrwt>
<totfact> 0.34351619E-04</totfact>
</mgrwt>
</event>
<event>
10    1  0.1934513E-013  0.3020537E+04  0.7818608E-02  0.8534333E-01
          2   -1    0    0  501    0  0.00000000000E+00  0.00000000000E+00  0.33882410745E+04  0.33882410745E+04  0.00000000000E+00 0.  1.
         -2   -1    0    0    0  501 -0.00000000000E+00 -0.00000000000E+00 -0.11403995990E+04  0.11403995990E+04  0.00000000000E+00 0. -1.
    9900016    2    1    2    0    0 -0.47250933723E+01 -0.34516332447E+03  0.34716609214E+03  0.19090788929E+04  0.18452365368E+04 0.  0.
        -15    1    1    2    0    0  0.47161133149E+02  0.51825851047E+03  0.62351309693E+03  0.81214816272E+03  0.00000000000E+00 0.  1.
        -15    1    3    3    0    0  0.33961297015E+02  0.10157200916E+03  0.70104267755E+00  0.10710151353E+03  0.00000000000E+00 0.  1.
         15    1    1    2    0    0  0.14185040330E+03 -0.42696350226E+03  0.25836439738E+03  0.51881743514E+03  0.00000000000E+00 0. -1.
         15    1    3    3    0    0 -0.35200684330E+03 -0.10244965373E+04  0.36882041583E+03  0.11443471815E+04  0.00000000000E+00 0. -1.
        -16    1    1    2    0    0  0.18834367139E+03 -0.77079265873E+01  0.70108578266E+03  0.72598486577E+03  0.00000000000E+00 0.  1.
         16    1    3    3    0    0  0.31332045292E+03  0.57776120370E+03 -0.22355366364E+02  0.65763019785E+03  0.00000000000E+00 0. -1.
    9900018    1    1    2    0    0 -0.37263011446E+03  0.26157624284E+03  0.31771210636E+03  0.56261131694E+03  0.91187600000E+02 0.  0.
<mgrwt>
<rscale>  0 0.21621880E+04</rscale>
<asrwt>0</asrwt>
<pdfrwt beam="1">  1        2 0.52126785E+00 0.30205368E+04</pdfrwt>
<pdfrwt beam="2">  1       -2 0.17544609E+00 0.30205368E+04</pdfrwt>
<totfact> 0.15747354E-01</totfact>
</mgrwt>
</event>
<event>
10    1  0.1934513E-013  0.3529894E+04  0.7818608E-02  0.8244162E-01
         -2   -1    0    0    0  501 -0.00000000000E+00  0.00000000000E+00  0.28676546404E+04  0.28676546404E+04  0.00000000000E+00 0. -1.
          2   -1    0    0  501    0  0.00000000000E+00 -0.00000000000E+00 -0.28738897857E+04  0.28738897857E+04  0.00000000000E+00 0.  1.
    9900016    2    1    2    0    0 -0.10559797785E+04 -0.35930299207E+03 -0.14305378953E+02  0.21653547639E+04  0.18558999642E+04 0.  0.
        -15    1    1    2    0    0  0.63080538212E+03  0.64326752830E+03 -0.12824700632E+04  0.15673027806E+04  0.00000000000E+00 0.  1.
        -15    1    3    3    0    0  0.36240948684E+03 -0.60570513850E+03  0.46149437820E+02  0.70735360434E+03  0.00000000000E+00 0.  1.
         15    1    3    3    0    0 -0.19698545957E+03 -0.21635682009E+02  0.44601813166E+02  0.20312728954E+03  0.00000000000E+00 0. -1.
         15    1    1    2    0    0  0.51988641571E+03 -0.23985359867E+03  0.76629311129E+03  0.95656508741E+03  0.00000000000E+00 0. -1.
        -16    1    3    3    0    0 -0.12214038058E+04  0.26803782844E+03 -0.10505662994E+03  0.12548738701E+04  0.00000000000E+00 0.  1.
         16    1    1    2    0    0  0.98009683641E+02  0.40019423056E+03  0.30663856411E+03  0.51360347473E+03  0.00000000000E+00 0. -1.
    9900018    1    1    2    0    0 -0.19272170294E+03 -0.44430516811E+03  0.21760862144E+03  0.53871831945E+03  0.91187600000E+02 0.  0.
<mgrwt>
<rscale>  0 0.29984894E+04</rscale>
<asrwt>0</asrwt>
<pdfrwt beam="1">  1        2 0.44213689E+00 0.35298944E+04</pdfrwt>
<pdfrwt beam="2">  1       -2 0.44117763E+00 0.35298944E+04</pdfrwt>
<totfact> 0.63588408E-03</totfact>
</mgrwt>
</event>
<event>
11    1  0.1934513E-013  0.4419409E+04  0.7818608E-02  0.8044716E-01
          2   -1    0    0  501    0  0.00000000000E+00  0.00000000000E+00  0.50214320151E+04  0.50214320151E+04  0.00000000000E+00 0.  1.
         -2   -1    0    0    0  501 -0.00000000000E+00 -0.00000000000E+00 -0.23900665557E+04  0.23900665557E+04  0.00000000000E+00 0. -1.
    9900016    2    1    2    0    0  0.73510650705E+02 -0.13877238188E+04  0.21869480360E+04  0.31830035200E+04  0.18486720865E+04 0.  0.
        -24    2    3    3    0    0  0.59879408746E+03 -0.15207750814E+04  0.11082429369E+04  0.19758456934E+04  0.66727728755E+02 0.  0.
        -15    1    1    2    0    0 -0.34655076920E+03  0.69590518525E+03  0.16946483299E+04  0.18644608938E+04  0.00000000000E+00 0.  1.
        -15    1    3    3    0    0 -0.52528343676E+03  0.13305126263E+03  0.10787050991E+04  0.12071578266E+04  0.00000000000E+00 0.  1.
         15    1    4    4    0    0  0.50852788071E+03 -0.13110484165E+04  0.92624033709E+03  0.16838556108E+04  0.00000000000E+00 0. -1.
         15    1    1    2    0    0 -0.47274550712E+03  0.82479088304E+03 -0.22615322967E+03  0.97719680645E+03  0.00000000000E+00 0. -1.
        -16    1    4    4    0    0  0.90266206751E+02 -0.20972666486E+03  0.18200259977E+03  0.29199008263E+03  0.00000000000E+00 0.  1.
         16    1    1    2    0    0  0.73961570864E+03 -0.25530745075E+03 -0.85180952114E+03  0.11566299111E+04  0.00000000000E+00 0. -1.
    9900018    1    1    2    0    0  0.61699169760E+01  0.12233520121E+03 -0.17226815568E+03  0.23020743947E+03  0.91187600000E+02 0.  0.
<mgrwt>
<rscale>  0 0.38067118E+04</rscale>
<asrwt>0</asrwt>
<pdfrwt beam="1">  1        2 0.77252800E+00 0.44194092E+04</pdfrwt>
<pdfrwt beam="2">  1       -2 0.36770255E+00 0.44194092E+04</pdfrwt>
<totfact> 0.27056031E-04</totfact>
</mgrwt>
</event>
<event>
11    1  0.1934513E-013  0.3916362E+04  0.7818608E-02  0.8203798E-01
          2   -1    0    0  501    0  0.00000000000E+00  0.00000000000E+00  0.17585676804E+04  0.17585676804E+04  0.00000000000E+00 0. -1.
         -2   -1    0    0    0  501 -0.00000000000E+00 -0.00000000000E+00 -0.46937159660E+04  0.46937159660E+04  0.00000000000E+00 0.  1.
    9900016    2    1    2    0    0  0.44222292409E+03 -0.84622022832E+02 -0.53923799978E+03  0.19742065344E+04  0.18449910077E+04 0.  0.
        -24    2    3    3    0    0  0.98498604553E+03 -0.20817324363E+03  0.22076890042E+03  0.10321517597E+04  0.55360079410E+02 0.  0.
        -15    1    3    3    0    0 -0.54276312144E+03  0.12355122080E+03 -0.76000690020E+03  0.94205477468E+03  0.00000000000E+00 0.  1.
        -15    1    1    2    0    0 -0.67189504348E+02  0.10783289306E+04 -0.18461371502E+04  0.21390488749E+04  0.00000000000E+00 0.  1.
         15    1    4    4    0    0  0.59389683453E+03 -0.14224699611E+03  0.15584429968E+03  0.63026589922E+03  0.00000000000E+00 0. -1.
         15    1    1    2    0    0  0.38420377654E+02  0.11302255933E+03  0.16261860948E+03  0.20173010802E+03  0.00000000000E+00 0. -1.
        -16    1    4    4    0    0  0.39108921100E+03 -0.65926247515E+02  0.64924600736E+02  0.40188586048E+03  0.00000000000E+00 0.  1.
         16    1    1    2    0    0 -0.94372199807E+03 -0.46959083998E+03 -0.21450107720E+02  0.10543182033E+04  0.00000000000E+00 0. -1.
    9900018    1    1    2    0    0  0.53026820068E+03 -0.63713862714E+03 -0.69094163744E+03  0.10829799258E+04  0.91187600000E+02 0.  0.
<mgrwt>
<rscale>  0 0.31438773E+04</rscale>
<asrwt>0</asrwt>
<pdfrwt beam="1">  1        2 0.27054888E+00 0.39163623E+04</pdfrwt>
<pdfrwt beam="2">  1       -2 0.72211014E+00 0.39163623E+04</pdfrwt>
<totfact> 0.12907105E-03</totfact>
</mgrwt>
</event>
<event>
10    1  0.1934513E-013  0.4121071E+04  0.7818608E-02  0.8204558E-01
          2   -1    0    0  501    0  0.00000000000E+00  0.00000000000E+00  0.29771037402E+04  0.29771037402E+04  0.00000000000E+00 0. -1.
         -2   -1    0    0    0  501 -0.00000000000E+00 -0.00000000000E+00 -0.25615269746E+04  0.25615269746E+04  0.00000000000E+00 0.  1.
    9900016    2    1    2    0    0  0.19280939604E+03  0.88655076598E+03  0.12960871930E+03  0.20514117183E+04  0.18353048505E+04 0.  0.
        -15    1    1    2    0    0  0.22861018348E+03 -0.10346221425E+02  0.19240262522E+03  0.29897898000E+03  0.00000000000E+00 0.  1.
        -15    1    3    3    0    0  0.53762340619E+03 -0.18476576909E+03 -0.53051990279E+02  0.57095694232E+03  0.00000000000E+00 0.  1.
         15    1    3    3    0    0 -0.51044149037E+03  0.11652309371E+04  0.11080359834E+03  0.12769460009E+04  0.00000000000E+00 0. -1.
         15    1    1    2    0    0 -0.10641927834E+04  0.32816265949E+03  0.65466018708E+02  0.11155638981E+04  0.00000000000E+00 0. -1.
        -16    1    1    2    0    0  0.95232267526E+03 -0.12800548414E+04  0.32439143519E+03  0.16280935716E+04  0.00000000000E+00 0.  1.
         16    1    3    3    0    0  0.16562748021E+03 -0.93914402030E+02  0.71857111242E+02  0.20350877511E+03  0.00000000000E+00 0. -1.
    9900018    1    1    2    0    0 -0.30954947142E+03  0.75687637324E+02 -0.29629203282E+03  0.44458254667E+03  0.91187600000E+02 0.  0.
<mgrwt>
<rscale>  0 0.31410646E+04</rscale>
<asrwt>0</asrwt>
<pdfrwt beam="1">  1        2 0.45801596E+00 0.41210713E+04</pdfrwt>
<pdfrwt beam="2">  1       -2 0.39408107E+00 0.41210713E+04</pdfrwt>
<totfact> 0.10884933E-02</totfact>
</mgrwt>
</event>
<event>
11    1  0.2102710E-013  0.3301078E+04  0.7818608E-02  0.8371757E-01
         -2   -1    0    0    0  501 -0.00000000000E+00  0.00000000000E+00  0.13494169327E+04  0.13494169327E+04  0.00000000000E+00 0. -1.
          2   -1    0    0  501    0  0.00000000000E+00 -0.00000000000E+00 -0.46543127707E+04  0.46543127707E+04  0.00000000000E+00 0.  1.
    9900016    2    1    2    0    0  0.23581495435E+03 -0.10476226478E+03 -0.19944247999E+04  0.27286788150E+04  0.18442814233E+04 0.  0.
         24    2    3    3    0    0 -0.27540659191E+02 -0.83724007659E+03 -0.35221679206E+03  0.91133815766E+03  0.68928479212E+02 0.  0.
        -15    1    1    2    0    0 -0.12490752476E+04  0.27860122752E+03 -0.11822722005E+04  0.17422902096E+04  0.00000000000E+00 0.  1.
        -15    1    4    4    0    0  0.10689864944E+02 -0.59268809897E+03 -0.25787575997E+03  0.64644672128E+03  0.00000000000E+00 0.  1.
         15    1    1    2    0    0  0.69810499607E+03 -0.30260643332E+03  0.40961815710E+03  0.86412283481E+03  0.00000000000E+00 0. -1.
         15    1    3    3    0    0  0.26335561354E+03  0.73247781181E+03 -0.16422080078E+04  0.18173406574E+04  0.00000000000E+00 0. -1.
        -16    1    1    2    0    0  0.24642092650E+03  0.39749798623E+02 -0.30056632448E+03  0.39069609023E+03  0.00000000000E+00 0.  1.
         16    1    4    4    0    0 -0.38230524135E+02 -0.24455197762E+03 -0.94341032095E+02  0.26489143639E+03  0.00000000000E+00 0. -1.
    9900018    1    1    2    0    0  0.68734370668E+02  0.89017671955E+02 -0.23725067018E+03  0.27794175384E+03  0.91187600000E+02 0.  0.
<mgrwt>
<rscale>  0 0.25895573E+04</rscale>
<asrwt>0</asrwt>
<pdfrwt beam="1">  1        2 0.71604813E+00 0.33010778E+04</pdfrwt>
<pdfrwt beam="2">  1       -2 0.20760260E+00 0.33010778E+04</pdfrwt>
<totfact> 0.80932911E-03</totfact>
</mgrwt>
</event>
<event>
11    1  0.1934513E-013  0.4267772E+04  0.7818608E-02  0.8072427E-01
         -1   -1    0    0    0  501 -0.00000000000E+00  0.00000000000E+00  0.45542167820E+04  0.45542167820E+04  0.00000000000E+00 0.  1.
          1   -1    0    0  501    0  0.00000000000E+00 -0.00000000000E+00 -0.24153667241E+04  0.24153667241E+04  0.00000000000E+00 0. -1.
    9900016    2    1    2    0    0 -0.93861194494E+03  0.72365596777E+03  0.60205190358E+03  0.22727989481E+04  0.18434961950E+04 0.  0.
         24    2    3    3    0    0 -0.14927761055E+04  0.60825038901E+03  0.34922406103E+03  0.16528487223E+04  0.10771451790E+03 0.  0.
        -15    1    1    2    0    0  0.25480949788E+03 -0.13261026112E+04  0.42037683105E+03  0.14142816890E+04  0.00000000000E+00 0.  1.
        -15    1    4    4    0    0 -0.21935467035E+03  0.51635175546E+02  0.61978460531E+02  0.23371776211E+03  0.00000000000E+00 0.  1.
         15    1    1    2    0    0 -0.98763025887E+03 -0.16338908800E+03  0.48812691541E+03  0.11137223208E+04  0.00000000000E+00 0. -1.
         15    1    3    3    0    0  0.55416416053E+03  0.11540557876E+03  0.25282784254E+03  0.61995022574E+03  0.00000000000E+00 0. -1.
        -16    1    1    2    0    0  0.16652866639E+04  0.47069357740E+03  0.37843448244E+03  0.17714245042E+04  0.00000000000E+00 0.  1.
         16    1    4    4    0    0 -0.12734214351E+04  0.55661521346E+03  0.28724560050E+03  0.14191309602E+04  0.00000000000E+00 0. -1.
    9900018    1    1    2    0    0  0.61460420600E+01  0.29514215404E+03  0.24985992545E+03  0.39735604395E+03  0.91187600000E+02 0.  0.
<mgrwt>
<rscale>  0 0.36799184E+04</rscale>
<asrwt>0</asrwt>
<pdfrwt beam="1">  1        1 0.37159488E+00 0.42677718E+04</pdfrwt>
<pdfrwt beam="2">  1       -1 0.70064874E+00 0.42677718E+04</pdfrwt>
<totfact> 0.22238919E-04</totfact>
</mgrwt>
</event>
<event>
11    1  0.1934513E-013  0.2932208E+04  0.7818608E-02  0.8497808E-01
         -2   -1    0    0    0  501 -0.00000000000E+00  0.00000000000E+00  0.22227682302E+04  0.22227682302E+04  0.00000000000E+00 0.  1.
          2   -1    0    0  501    0  0.00000000000E+00 -0.00000000000E+00 -0.47060277032E+04  0.47060277032E+04  0.00000000000E+00 0. -1.
    9900016    2    1    2    0    0 -0.13473072152E+04 -0.27400595966E+03 -0.27198368368E+04  0.35639543832E+04  0.18476856953E+04 0.  0.
         24    2    3    3    0    0 -0.99543422299E+03  0.59383730553E+03 -0.75203002112E+03  0.13846815229E+04  0.90894056955E+02 0.  0.
        -15    1    4    4    0    0 -0.41279181620E+03  0.24324889895E+03 -0.25803182784E+03  0.54419439040E+03  0.00000000000E+00 0.  1.
        -15    1    1    2    0    0  0.12362591825E+03 -0.11270457016E+03  0.66990561197E+02  0.18020383760E+03  0.00000000000E+00 0. -1.
         15    1    1    2    0    0  0.74287142698E+03  0.20223572393E+03  0.15365839700E+04  0.17186761015E+04  0.00000000000E+00 0.  1.
         15    1    3    3    0    0 -0.35187299224E+03 -0.86784326520E+03 -0.19678068157E+04  0.21792728603E+04  0.00000000000E+00 0. -1.
        -16    1    1    2    0    0  0.13168270982E+03  0.73315174170E+02 -0.43594170952E+03  0.46125982366E+03  0.00000000000E+00 0.  1.
         16    1    4    4    0    0 -0.58264240678E+03  0.35058840658E+03 -0.49399819328E+03  0.84048713255E+03  0.00000000000E+00 0. -1.
    9900018    1    1    2    0    0  0.34912716018E+03  0.11115963172E+03 -0.93105545785E+03  0.10047017874E+04  0.91187600000E+02 0.  0.
<mgrwt>
<rscale>  0 0.22502281E+04</rscale>
<asrwt>0</asrwt>
<pdfrwt beam="1">  1        2 0.72400425E+00 0.29322078E+04</pdfrwt>
<pdfrwt beam="2">  1       -2 0.34196435E+00 0.29322078E+04</pdfrwt>
<totfact> 0.10525744E-03</totfact>
</mgrwt>
</event>
<event>
11    1  0.1934513E-013  0.3547236E+04  0.7818608E-02  0.8165844E-01
         -2   -1    0    0    0  501 -0.00000000000E+00  0.00000000000E+00  0.47855377927E+04  0.47855377927E+04  0.00000000000E+00 0. -1.
          2   -1    0    0  501    0  0.00000000000E+00 -0.00000000000E+00 -0.20559461027E+04  0.20559461027E+04  0.00000000000E+00 0.  1.
    9900016    2    1    2    0    0 -0.10350989016E+04 -0.71588407958E+03  0.85428832692E+03  0.23880116747E+04  0.18408887694E+04 0.  0.
        -24    2    3    3    0    0 -0.38181141575E+03 -0.76208625140E+03 -0.42054455056E+03  0.95479220601E+03  0.90636779979E+02 0.  0.
        -15    1    1    2    0    0  0.14656513811E+04  0.10350006479E+04  0.66475480014E+02  0.17954885969E+04  0.00000000000E+00 0.  1.
        -15    1    3    3    0    0 -0.65328748585E+03  0.46202171823E+02  0.12748328775E+04  0.14332194687E+04  0.00000000000E+00 0.  1.
         15    1    4    4    0    0 -0.11107308851E+03 -0.27277166434E+03 -0.10491915929E+03  0.31264939124E+03  0.00000000000E+00 0. -1.
         15    1    1    2    0    0 -0.14743226062E+03 -0.72364630070E+03  0.48007572566E+03  0.88083650149E+03  0.00000000000E+00 0. -1.
        -16    1    4    4    0    0 -0.27073832724E+03 -0.48931458706E+03 -0.31562539127E+03  0.64214281477E+03  0.00000000000E+00 0.  1.
         16    1    1    2    0    0  0.15958843419E+03  0.53904251177E+03  0.11363730073E+04  0.12678244790E+04  0.00000000000E+00 0. -1.
    9900018    1    1    2    0    0 -0.44270865309E+03 -0.13451277935E+03  0.19237915006E+03  0.50932264342E+03  0.91187600000E+02 0.  0.
<mgrwt>
<rscale>  0 0.32884382E+04</rscale>
<asrwt>0</asrwt>
<pdfrwt beam="1">  1        2 0.31629940E+00 0.35472358E+04</pdfrwt>
<pdfrwt beam="2">  1       -2 0.73623658E+00 0.35472358E+04</pdfrwt>
<totfact> 0.78077597E-04</totfact>
</mgrwt>
</event>
<event>
10    1  0.1934513E-013  0.3904885E+04  0.7818608E-02  0.8367853E-01
         -2   -1    0    0    0  501 -0.00000000000E+00  0.00000000000E+00  0.20490126150E+04  0.20490126150E+04  0.00000000000E+00 0.  1.
          2   -1    0    0  501    0  0.00000000000E+00 -0.00000000000E+00 -0.27587375166E+04  0.27587375166E+04  0.00000000000E+00 0. -1.
    9900016    2    1    2    0    0 -0.24184677023E+03  0.56210386753E+03 -0.10066686837E+04  0.21883795522E+04  0.18442268319E+04 0.  0.
        -15    1    3    3    0    0 -0.25187800399E+03  0.32259792830E+03 -0.49405762612E+02  0.41225341917E+03  0.00000000000E+00 0.  1.
        -15    1    1    2    0    0 -0.33304963655E+03 -0.82875219863E+03  0.70361307690E+03  0.11370240231E+04  0.00000000000E+00 0.  1.
         15    1    1    2    0    0  0.33223442875E+03  0.16745440566E+03 -0.45955145882E+02  0.37487673848E+03  0.00000000000E+00 0. -1.
         15    1    3    3    0    0  0.46905629066E+03 -0.65864980373E+02 -0.11076391650E+04  0.12046644841E+04  0.00000000000E+00 0. -1.
        -16    1    1    2    0    0 -0.30587197900E+03 -0.83648612108E+02 -0.41196989020E+03  0.51987878229E+03  0.00000000000E+00 0.  1.
         16    1    3    3    0    0 -0.45902505690E+03  0.30537091960E+03  0.15037624390E+03  0.57146164887E+03  0.00000000000E+00 0. -1.
    9900018    1    1    2    0    0  0.54853395704E+03  0.18284253756E+03  0.51255741279E+02  0.58759103547E+03  0.91187600000E+02 0.  0.
<mgrwt>
<rscale>  0 0.26010262E+04</rscale>
<asrwt>0</asrwt>
<pdfrwt beam="1">  1        2 0.42442115E+00 0.39048846E+04</pdfrwt>
<pdfrwt beam="2">  1       -2 0.31523271E+00 0.39048846E+04</pdfrwt>
<totfact> 0.48416140E-02</totfact>
</mgrwt>
</event>
<event>
10    1  0.1934513E-013  0.3854130E+04  0.7818608E-02  0.8261110E-01
          2   -1    0    0  501    0  0.00000000000E+00  0.00000000000E+00  0.35859603125E+04  0.35859603125E+04  0.00000000000E+00 0. -1.
         -2   -1    0    0    0  501 -0.00000000000E+00 -0.00000000000E+00 -0.18595705879E+04  0.18595705879E+04  0.00000000000E+00 0.  1.
    9900016    2    1    2    0    0 -0.41252856076E+03 -0.13134781087E+03  0.15720680706E+04  0.24729711378E+04  0.18592353721E+04 0.  0.
        -15    1    1    2    0    0 -0.17526500270E+03  0.28597267445E+03 -0.27858138500E+03  0.43601121519E+03  0.00000000000E+00 0.  1.
        -15    1    3    3    0    0  0.22729516631E+02  0.23671409080E+03  0.29060226052E+03  0.37549948806E+03  0.00000000000E+00 0.  1.
         15    1    1    2    0    0  0.50601289106E+03  0.13678489691E+03  0.82748026617E+03  0.97953190088E+03  0.00000000000E+00 0. -1.
         15    1    3    3    0    0 -0.31153194718E+03 -0.98359119807E+03  0.76296679582E+03  0.12832077503E+04  0.00000000000E+00 0. -1.
        -16    1    1    2    0    0 -0.99927995106E+02  0.10139873059E+03 -0.88513043442E+03  0.89650610299E+03  0.00000000000E+00 0.  1.
         16    1    3    3    0    0 -0.12372613021E+03  0.61552929640E+03  0.51849901424E+03  0.81426389936E+03  0.00000000000E+00 0. -1.
    9900018    1    1    2    0    0  0.18170866750E+03 -0.39280849108E+03  0.49055320735E+03  0.66051054355E+03  0.91187600000E+02 0.  0.
<mgrwt>
<rscale>  0 0.29398811E+04</rscale>
<asrwt>0</asrwt>
<pdfrwt beam="1">  1        2 0.55168620E+00 0.38541298E+04</pdfrwt>
<pdfrwt beam="2">  1       -2 0.28608778E+00 0.38541298E+04</pdfrwt>
<totfact> 0.20868818E-02</totfact>
</mgrwt>
</event>
<event>
10    1  0.1934513E-013  0.3375776E+04  0.7818608E-02  0.8388246E-01
          2   -1    0    0  501    0  0.00000000000E+00  0.00000000000E+00  0.20265905956E+04  0.20265905956E+04  0.00000000000E+00 0.  1.
         -2   -1    0    0    0  501 -0.00000000000E+00 -0.00000000000E+00 -0.25719268936E+04  0.25719268936E+04  0.00000000000E+00 0. -1.
    9900016    2    1    2    0    0  0.10000418336E+03  0.30017430425E+03  0.13618341240E+03  0.18809720438E+04  0.18491631778E+04 0.  0.
        -15    1    3    3    0    0  0.54725957140E+03  0.30206109612E+03 -0.13526884932E+03  0.63955578793E+03  0.00000000000E+00 0.  1.
        -15    1    1    2    0    0  0.19440845287E+02 -0.98735197989E+02 -0.45657619695E+03  0.46753439382E+03  0.00000000000E+00 0.  1.
         15    1    3    3    0    0 -0.73967850776E+03 -0.29387129119E+03  0.21414781815E+03  0.82422322137E+03  0.00000000000E+00 0. -1.
         15    1    1    2    0    0  0.42295162448E+03  0.61636934642E+03 -0.10706506908E+03  0.75515705444E+03  0.00000000000E+00 0. -1.
        -16    1    1    2    0    0 -0.18097060141E+03 -0.99080335961E+03  0.12905600614E+03  0.10154295193E+04  0.00000000000E+00 0.  1.
         16    1    3    3    0    0  0.29242311972E+03  0.29198449932E+03  0.57304443578E+02  0.41719303451E+03  0.00000000000E+00 0. -1.
    9900018    1    1    2    0    0 -0.36142605171E+03  0.17299490693E+03 -0.24693445047E+03  0.47942447779E+03  0.91187600000E+02 0.  0.
<mgrwt>
<rscale>  0 0.25417941E+04</rscale>
<asrwt>0</asrwt>
<pdfrwt beam="1">  1        2 0.31178317E+00 0.33757764E+04</pdfrwt>
<pdfrwt beam="2">  1       -2 0.39568106E+00 0.33757764E+04</pdfrwt>
<totfact> 0.40855230E-02</totfact>
</mgrwt>
</event>
<event>
11    1  0.1934513E-013  0.2861638E+04  0.7818608E-02  0.8473129E-01
         -2   -1    0    0    0  501 -0.00000000000E+00  0.00000000000E+00  0.32858154354E+04  0.32858154354E+04  0.00000000000E+00 0. -1.
          2   -1    0    0  501    0  0.00000000000E+00 -0.00000000000E+00 -0.13469174801E+04  0.13469174801E+04  0.00000000000E+00 0.  1.
    9900016    2    1    2    0    0 -0.70908437194E+03  0.25763709847E+03  0.48149650745E+03  0.20333795677E+04  0.18258192842E+04 0.  0.
         24    2    3    3    0    0 -0.63542859676E+03  0.92228580438E+03 -0.12791395325E+03  0.11286341973E+04  0.55430726582E+02 0.  0.
        -15    1    4    4    0    0 -0.33514204267E+03  0.53403439641E+03 -0.66692714852E+02  0.63400381980E+03  0.00000000000E+00 0.  1.
        -15    1    1    2    0    0  0.38051761891E+03 -0.32166700814E+03  0.98193063590E+02  0.50784367690E+03  0.00000000000E+00 0.  1.
         15    1    1    2    0    0 -0.52200565242E+03 -0.33336977431E+02  0.10225864828E+04  0.11486010491E+04  0.00000000000E+00 0. -1.
         15    1    3    3    0    0 -0.73655775187E+02 -0.66464870590E+03  0.60941046070E+03  0.90474537031E+03  0.00000000000E+00 0. -1.
        -16    1    1    2    0    0  0.52044994021E+03  0.74086621201E+02  0.12745218451E+03  0.54092608279E+03  0.00000000000E+00 0.  1.
         16    1    4    4    0    0 -0.30028655409E+03  0.38825140797E+03 -0.61221238398E+02  0.49463037755E+03  0.00000000000E+00 0. -1.
    9900018    1    1    2    0    0  0.33012246525E+03  0.23280265896E+02  0.20916971692E+03  0.40198253906E+03  0.91187600000E+02 0.  0.
<mgrwt>
<rscale>  0 0.23121931E+04</rscale>
<asrwt>0</asrwt>
<pdfrwt beam="1">  1        2 0.20721807E+00 0.28616383E+04</pdfrwt>
<pdfrwt beam="2">  1       -2 0.50551007E+00 0.28616383E+04</pdfrwt>
<totfact> 0.19689288E-02</totfact>
</mgrwt>
</event>
<event>
11    1  0.1934513E-013  0.3523675E+04  0.7818608E-02  0.8475269E-01
         -2   -1    0    0    0  501 -0.00000000000E+00  0.00000000000E+00  0.21195780672E+04  0.21195780672E+04  0.00000000000E+00 0.  1.
          2   -1    0    0  501    0  0.00000000000E+00 -0.00000000000E+00 -0.23611659589E+04  0.23611659589E+04  0.00000000000E+00 0. -1.
    9900016    2    1    2    0    0  0.30506947803E+03 -0.75036112747E+02  0.17728830340E+03  0.18706752586E+04  0.18355644843E+04 0.  0.
         24    2    3    3    0    0  0.35143848737E+03  0.66333151943E+03 -0.46658671625E+03  0.88990419147E+03  0.10348232282E+03 0.  0.
        -15    1    4    4    0    0  0.22802708404E+03  0.52139531047E+03 -0.33501566503E+03  0.66036725892E+03  0.00000000000E+00 0.  1.
        -15    1    1    2    0    0  0.14712751391E+03  0.10152464570E+04  0.11436753128E+03  0.10322072495E+04  0.00000000000E+00 0.  1.
         15    1    1    2    0    0 -0.29443781609E+03 -0.18144602152E+03 -0.63951544660E+03  0.72704627962E+03  0.00000000000E+00 0. -1.
         15    1    3    3    0    0 -0.46369009339E+02 -0.73836763218E+03  0.64387501966E+03  0.98077106718E+03  0.00000000000E+00 0. -1.
        -16    1    1    2    0    0  0.86016034996E+02 -0.18267160163E+03 -0.30025602284E+02  0.20413037283E+03  0.00000000000E+00 0.  1.
         16    1    4    4    0    0  0.12341140332E+03  0.14193620896E+03 -0.13157105122E+03  0.22953693255E+03  0.00000000000E+00 0. -1.
    9900018    1    1    2    0    0 -0.24377521084E+03 -0.57609272108E+03  0.13629732248E+03  0.64668486546E+03  0.91187600000E+02 0.  0.
<mgrwt>
<rscale>  0 0.23067386E+04</rscale>
<asrwt>0</asrwt>
<pdfrwt beam="1">  1        2 0.36325630E+00 0.35236749E+04</pdfrwt>
<pdfrwt beam="2">  1       -2 0.32608893E+00 0.35236749E+04</pdfrwt>
<totfact> 0.72950461E-02</totfact>
</mgrwt>
</event>
<event>
11    1  0.1934513E-013  0.2892240E+04  0.7818608E-02  0.8410164E-01
          2   -1    0    0  501    0  0.00000000000E+00  0.00000000000E+00  0.37092334590E+04  0.37092334590E+04  0.00000000000E+00 0. -1.
         -2   -1    0    0    0  501 -0.00000000000E+00 -0.00000000000E+00 -0.14526688253E+04  0.14526688253E+04  0.00000000000E+00 0.  1.
    9900016    2    1    2    0    0 -0.86760017077E+03 -0.86422360012E+03  0.10620595322E+04  0.24649227622E+04  0.18569494572E+04 0.  0.
        -24    2    3    3    0    0  0.20128855400E+03  0.33838749072E+03 -0.17600685257E+03  0.43474914532E+03  0.54819990479E+02 0.  0.
        -15    1    1    2    0    0  0.39898357698E+03  0.10409066760E+04  0.72521406947E+03  0.13298909915E+04  0.00000000000E+00 0.  1.
        -15    1    3    3    0    0 -0.10688887248E+04 -0.12026110908E+04  0.12380663848E+04  0.20301736169E+04  0.00000000000E+00 0.  1.
         15    1    4    4    0    0  0.30502848264E+02  0.60543897269E+02 -0.53507987571E+02  0.86366034890E+02  0.00000000000E+00 0. -1.
         15    1    1    2    0    0  0.29592335018E+03  0.84371451527E+02  0.78773880105E+03  0.84570774485E+03  0.00000000000E+00 0. -1.
        -16    1    4    4    0    0  0.17078570573E+03  0.27784359346E+03 -0.12249886500E+03  0.34838311043E+03  0.00000000000E+00 0.  1.
         16    1    1    2    0    0  0.59663895453E+02 -0.15126101109E+03 -0.29629398282E+03  0.33797899069E+03  0.00000000000E+00 0. -1.
    9900018    1    1    2    0    0  0.11302934815E+03 -0.10979351629E+03 -0.22153786252E+02  0.18340179498E+03  0.91187600000E+02 0.  0.
<mgrwt>
<rscale>  0 0.24799497E+04</rscale>
<asrwt>0</asrwt>
<pdfrwt beam="1">  1        2 0.57065130E+00 0.28922397E+04</pdfrwt>
<pdfrwt beam="2">  1       -2 0.22348751E+00 0.28922397E+04</pdfrwt>
<totfact> 0.44482739E-02</totfact>
</mgrwt>
</event>
<event>
10    1  0.1934513E-013  0.3293613E+04  0.7818608E-02  0.8289404E-01
         -2   -1    0    0    0  501 -0.00000000000E+00  0.00000000000E+00  0.22934919953E+04  0.22934919953E+04  0.00000000000E+00 0.  1.
          2   -1    0    0  501    0  0.00000000000E+00 -0.00000000000E+00 -0.29359468211E+04  0.29359468211E+04  0.00000000000E+00 0. -1.
    9900016    2    1    2    0    0 -0.17834253057E+03  0.51156137169E+02 -0.37899728953E+03  0.19013183802E+04  0.18539011918E+04 0.  0.
        -15    1    1    2    0    0 -0.68906890553E+03  0.26519154781E+03 -0.20988371821E+03  0.76758953144E+03  0.00000000000E+00 0.  1.
        -15    1    3    3    0    0  0.68893035198E+02 -0.39517144906E+03 -0.87621606386E+03  0.96367075032E+03  0.00000000000E+00 0.  1.
         15    1    1    2    0    0  0.10938799082E+04  0.78109001494E+01 -0.40982702652E+03  0.11681577185E+04  0.00000000000E+00 0. -1.
         15    1    3    3    0    0 -0.23859163612E+03  0.52519164180E+03  0.58345358019E+03  0.82046956657E+03  0.00000000000E+00 0. -1.
        -16    1    1    2    0    0 -0.72251811513E+03 -0.23419175371E+03  0.43308252076E+03  0.87432183662E+03  0.00000000000E+00 0.  1.
         16    1    3    3    0    0 -0.86439296554E+01 -0.78864055568E+02 -0.86234805866E+02  0.11717806332E+03  0.00000000000E+00 0. -1.
    9900018    1    1    2    0    0  0.49604964309E+03 -0.89966831416E+02 -0.76829312311E+02  0.51805134956E+03  0.91187600000E+02 0.  0.
<mgrwt>
<rscale>  0 0.28450933E+04</rscale>
<asrwt>0</asrwt>
<pdfrwt beam="1">  1        2 0.45168412E+00 0.32936130E+04</pdfrwt>
<pdfrwt beam="2">  1       -2 0.35284492E+00 0.32936130E+04</pdfrwt>
<totfact> 0.22509780E-02</totfact>
</mgrwt>
</event>
<event>
11    1  0.1934513E-013  0.3424194E+04  0.7818608E-02  0.8311864E-01
          1   -1    0    0  501    0  0.00000000000E+00  0.00000000000E+00  0.19576352212E+04  0.19576352212E+04  0.00000000000E+00 0. -1.
         -1   -1    0    0    0  501 -0.00000000000E+00 -0.00000000000E+00 -0.31813358560E+04  0.31813358560E+04  0.00000000000E+00 0.  1.
    9900016    2    1    2    0    0  0.33589786600E+03 -0.35865522862E+03 -0.12351463864E+04  0.22744729581E+04  0.18455838350E+04 0.  0.
        -24    2    3    3    0    0  0.63153843579E+03 -0.22687583272E+03  0.27612799027E+03  0.72892470675E+03  0.69073306990E+02 0.  0.
        -15    1    1    2    0    0  0.62253903979E+03 -0.17159593709E+03 -0.35712552675E+03  0.73792863039E+03  0.00000000000E+00 0.  1.
        -15    1    3    3    0    0 -0.29564056979E+03 -0.13177939590E+03 -0.15112743766E+04  0.15455482513E+04  0.00000000000E+00 0.  1.
         15    1    4    4    0    0  0.26928063023E+03 -0.70758194653E+02  0.88815387487E+02  0.29224467999E+03  0.00000000000E+00 0. -1.
         15    1    1    2    0    0  0.26772188040E+03  0.52577484594E+03  0.44002877678E+03  0.73602956344E+03  0.00000000000E+00 0. -1.
        -16    1    4    4    0    0  0.36225780556E+03 -0.15611763807E+03  0.18731260278E+03  0.43668002676E+03  0.00000000000E+00 0.  1.
         16    1    1    2    0    0 -0.11868449096E+04 -0.24836139744E+02  0.98867397489E+02  0.11912146891E+04  0.00000000000E+00 0. -1.
    9900018    1    1    2    0    0 -0.39313876567E+02  0.29312459513E+02 -0.17032489593E+03  0.19932523609E+03  0.91187600000E+02 0.  0.
<mgrwt>
<rscale>  0 0.27724777E+04</rscale>
<asrwt>0</asrwt>
<pdfrwt beam="1">  1        1 0.30117465E+00 0.34241942E+04</pdfrwt>
<pdfrwt beam="2">  1       -1 0.48943628E+00 0.34241942E+04</pdfrwt>
<totfact> 0.43642780E-03</totfact>
</mgrwt>
</event>
<event>
10    1  0.1934513E-013  0.3148759E+04  0.7818608E-02  0.8269095E-01
          2   -1    0    0  501    0  0.00000000000E+00  0.00000000000E+00  0.26845426510E+04  0.26845426510E+04  0.00000000000E+00 0.  1.
         -2   -1    0    0    0  501 -0.00000000000E+00 -0.00000000000E+00 -0.33347964583E+04  0.33347964583E+04  0.00000000000E+00 0. -1.
    9900016    2    1    2    0    0  0.23826333572E+03 -0.15854837768E+02 -0.10926822743E+04  0.21628249397E+04  0.18511716220E+04 0.  0.
        -15    1    1    2    0    0 -0.19983113237E+03 -0.86070853802E+03 -0.31645627145E+03  0.93856072825E+03  0.00000000000E+00 0.  1.
        -15    1    3    3    0    0 -0.31975078396E+02 -0.73398561815E+02 -0.30621138264E+03  0.31650460561E+03  0.00000000000E+00 0.  1.
         15    1    3    3    0    0  0.37291318874E+03  0.39219704271E+03  0.35841870919E+03  0.64911226898E+03  0.00000000000E+00 0. -1.
         15    1    1    2    0    0  0.19867321144E+02  0.12565441235E+04 -0.10660556089E+03  0.12612147281E+04  0.00000000000E+00 0. -1.
        -16    1    1    2    0    0  0.25231519074E+03 -0.58988734890E+03  0.10488852807E+04  0.12295488489E+04  0.00000000000E+00 0.  1.
         16    1    3    3    0    0 -0.10267477463E+03 -0.33465331867E+03 -0.11448896009E+04  0.11972080651E+04  0.00000000000E+00 0. -1.
    9900018    1    1    2    0    0 -0.31061471524E+03  0.20990660120E+03 -0.18339498131E+03  0.42718986425E+03  0.91187600000E+02 0.  0.
<mgrwt>
<rscale>  0 0.29127476E+04</rscale>
<asrwt>0</asrwt>
<pdfrwt beam="1">  1        2 0.41300656E+00 0.31487588E+04</pdfrwt>
<pdfrwt beam="2">  1       -2 0.51304561E+00 0.31487588E+04</pdfrwt>
<totfact> 0.29209034E-03</totfact>
</mgrwt>
</event>
