<event>
11    1  0.1812490E-012  0.1517021E+04  0.7818608E-02  0.9293428E-01
         -1   -1    0    0    0  501 -0.00000000000E+00  0.00000000000E+00  0.29117751753E+03  0.29117751753E+03  0.00000000000E+00 0.  1.
          1   -1    0    0  501    0  0.00000000000E+00 -0.00000000000E+00 -0.28858671234E+04  0.28858671234E+04  0.00000000000E+00 0. -1.
         23    2    1    2    0    0  0.47710609820E+02  0.29193922927E+03 -0.29954584222E+03  0.42585618868E+03  0.64194750360E+02 0.  0.
    9900016    2    1    2    0    0  0.10655882563E+03 -0.72219602635E+02 -0.60927593875E+03  0.95213919515E+03  0.72026482843E+03 0.  0.
        -15    1    3    3    0    0  0.83181297674E+01  0.18656355595E+03 -0.21717256113E+03  0.28642463756E+03  0.00000000000E+00 0. -1.
        -15    1    4    4    0    0 -0.87929866329E+02  0.14453189503E+02 -0.17457750402E+02  0.90803794681E+02  0.00000000000E+00 0. -1.
         15    1    4    4    0    0 -0.24145406970E+02 -0.15708160790E+03  0.60274237179E+02  0.16997239742E+03  0.00000000000E+00 0.  1.
         15    1    3    3    0    0  0.39392480052E+02  0.10537567332E+03 -0.82373281087E+02  0.13943155113E+03  0.00000000000E+00 0.  1.
        -16    1    4    4    0    0  0.21863409893E+03  0.70408815760E+02 -0.65209242552E+03  0.69136300304E+03  0.00000000000E+00 0.  1.
         16    1    1    2    0    0 -0.86661002665E+02 -0.77724803605E+02 -0.15886212120E+04  0.15928806075E+04  0.00000000000E+00 0. -1.
    9900018    1    1    2    0    0 -0.67608432788E+02 -0.14199482303E+03 -0.97246612831E+02  0.20616864954E+03  0.91187600000E+02 0.  0.
<mgrwt>
<rscale>  0 0.10139019E+04</rscale>
<asrwt>0</asrwt>
<pdfrwt beam="1">  1        1 0.44397957E+00 0.15170211E+04</pdfrwt>
<pdfrwt beam="2">  1       -1 0.44796540E-01 0.15170211E+04</pdfrwt>
<totfact> 0.34567064E+00</totfact>
</mgrwt>
</event>
<event>
11    1  0.1812490E-012  0.1114488E+04  0.7818608E-02  0.9634231E-01
         -1   -1    0    0    0  501 -0.00000000000E+00  0.00000000000E+00  0.95096894335E+03  0.95096894335E+03  0.00000000000E+00 0.  1.
          1   -1    0    0  501    0  0.00000000000E+00 -0.00000000000E+00 -0.48942932280E+03  0.48942932280E+03  0.00000000000E+00 0. -1.
         23    2    1    2    0    0  0.61342400783E+02 -0.18492974975E+03  0.17804341300E+03  0.29041800972E+03  0.12116625347E+03 0.  0.
    9900016    2    1    2    0    0 -0.12295914651E+03  0.48760779154E+01  0.13698448181E+03  0.72562891100E+03  0.70187594373E+03 0.  0.
        -15    1    4    4    0    0  0.53899327293E+02 -0.48237242613E+02  0.19984589921E+03  0.21253317974E+03  0.00000000000E+00 0.  1.
        -15    1    3    3    0    0  0.95633956273E+02 -0.10894498894E+03  0.99053685675E+02  0.17557476143E+03  0.00000000000E+00 0.  1.
         15    1    4    4    0    0  0.49297045520E+02  0.51847187934E+00  0.17433403983E+03  0.18117070666E+03  0.00000000000E+00 0. -1.
         15    1    3    3    0    0 -0.34291555490E+02 -0.75984760814E+02  0.78989727329E+02  0.11484324829E+03  0.00000000000E+00 0. -1.
        -16    1    1    2    0    0 -0.78878942417E+02  0.13407386593E+03  0.18974753001E+03  0.24536058002E+03  0.00000000000E+00 0.  1.
         16    1    4    4    0    0 -0.22615551932E+03  0.52594848649E+02 -0.23719545724E+03  0.33192502460E+03  0.00000000000E+00 0. -1.
    9900018    1    1    2    0    0  0.14049568814E+03  0.45979805906E+02 -0.43235804272E+02  0.17899076541E+03  0.91187600000E+02 0.  0.
<mgrwt>
<rscale>  0 0.75071384E+03</rscale>
<asrwt>0</asrwt>
<pdfrwt beam="1">  1        1 0.75296819E-01 0.11144884E+04</pdfrwt>
<pdfrwt beam="2">  1       -1 0.14630291E+00 0.11144884E+04</pdfrwt>
<totfact> 0.16929346E+01</totfact>
</mgrwt>
</event>
<event>
12    1  0.1812490E-012  0.2277165E+04  0.7818608E-02  0.9153519E-01
         -2   -1    0    0    0  501 -0.00000000000E+00  0.00000000000E+00  0.12108220578E+04  0.12108220578E+04  0.00000000000E+00 0.  1.
          2   -1    0    0  501    0  0.00000000000E+00 -0.00000000000E+00 -0.12258388777E+04  0.12258388777E+04  0.00000000000E+00 0. -1.
         23    2    1    2    0    0  0.25979181415E+02  0.12624697504E+03 -0.51844138395E+02  0.15919800795E+03  0.77736571027E+02 0.  0.
    9900016    2    1    2    0    0 -0.23317245572E+02 -0.12318081925E+03 -0.42873639460E+03  0.83949086366E+03  0.71078323414E+03 0.  0.
         23    2    4    4    0    0 -0.16141577713E+03  0.15759850108E+02 -0.57125028311E+03  0.59723908877E+03  0.63751213415E+02 0.  0.
        -15    1    3    3    0    0  0.38864117085E+02  0.24042232091E+02 -0.27538916660E+02  0.53355791171E+02  0.00000000000E+00 0.  1.
        -15    1    5    5    0    0 -0.10771831666E+03  0.10389047181E+02 -0.26456909454E+03  0.28584606667E+03  0.00000000000E+00 0. -1.
         15    1    5    5    0    0 -0.53697460467E+02  0.53708029268E+01 -0.30668118858E+03  0.31139302210E+03  0.00000000000E+00 0.  1.
         15    1    3    3    0    0 -0.12884935671E+02  0.10220474295E+03 -0.24305221736E+02  0.10584221678E+03  0.00000000000E+00 0. -1.
        -16    1    4    4    0    0  0.13809853155E+03 -0.13894066935E+03  0.14251388851E+03  0.24225177489E+03  0.00000000000E+00 0.  1.
         16    1    1    2    0    0 -0.54172426766E+02  0.26488872878E+03  0.88722950608E+03  0.92751112495E+03  0.00000000000E+00 0. -1.
    9900018    1    1    2    0    0  0.51510490923E+02 -0.26795488458E+03 -0.42166579296E+03  0.51046093895E+03  0.91187600000E+02 0.  0.
<mgrwt>
<rscale>  0 0.11546338E+04</rscale>
<asrwt>0</asrwt>
<pdfrwt beam="1">  1        2 0.18859060E+00 0.22771652E+04</pdfrwt>
<pdfrwt beam="2">  1       -2 0.18628032E+00 0.22771652E+04</pdfrwt>
<totfact> 0.27117909E+00</totfact>
</mgrwt>
</event>
<event>
11    1  0.1812490E-012  0.1464657E+04  0.7818608E-02  0.9248226E-01
         -1   -1    0    0    0  501 -0.00000000000E+00  0.00000000000E+00  0.70492930042E+03  0.70492930042E+03  0.00000000000E+00 0.  1.
          1   -1    0    0  501    0  0.00000000000E+00 -0.00000000000E+00 -0.17801642059E+04  0.17801642059E+04  0.00000000000E+00 0. -1.
         23    2    1    2    0    0 -0.33726509049E+03 -0.17102196889E+03  0.28293413058E+03  0.48763402315E+03  0.12140413167E+03 0.  0.
    9900016    2    1    2    0    0  0.60957916426E+03 -0.18265717106E+02 -0.77328371351E+03  0.12199329843E+04  0.71996415929E+03 0.  0.
        -15    1    4    4    0    0  0.28308331443E+03 -0.14008268261E+03 -0.52563624103E+02  0.32019096716E+03  0.00000000000E+00 0.  1.
        -15    1    3    3    0    0 -0.22177430022E+02 -0.30007717794E+01  0.66292079758E+02  0.69967727363E+02  0.00000000000E+00 0. -1.
         15    1    4    4    0    0  0.95684821068E+02 -0.12840320601E+03 -0.91743855864E+02  0.18455325352E+03  0.00000000000E+00 0. -1.
         15    1    3    3    0    0 -0.31508766047E+03 -0.16802119711E+03  0.21664205082E+03  0.41766629579E+03  0.00000000000E+00 0.  1.
        -16    1    1    2    0    0 -0.30856221751E+03  0.19634305342E+03 -0.29028519886E+03  0.46693332863E+03  0.00000000000E+00 0.  1.
         16    1    4    4    0    0  0.23081102877E+03  0.25022017151E+03 -0.62897623354E+03  0.71518876361E+03  0.00000000000E+00 0. -1.
    9900018    1    1    2    0    0  0.36248143742E+02 -0.70553674288E+01 -0.29460012372E+03  0.31059317028E+03  0.91187600000E+02 0.  0.
<mgrwt>
<rscale>  0 0.10569224E+04</rscale>
<asrwt>0</asrwt>
<pdfrwt beam="1">  1        1 0.27387141E+00 0.14646574E+04</pdfrwt>
<pdfrwt beam="2">  1       -1 0.10845066E+00 0.14646574E+04</pdfrwt>
<totfact> 0.31811516E+00</totfact>
</mgrwt>
</event>
<event>
12    1  0.1812490E-012  0.2536227E+04  0.7818608E-02  0.9055917E-01
         -2   -1    0    0    0  501 -0.00000000000E+00  0.00000000000E+00  0.90211639292E+03  0.90211639292E+03  0.00000000000E+00 0.  1.
          2   -1    0    0  501    0  0.00000000000E+00 -0.00000000000E+00 -0.21279886130E+04  0.21279886130E+04  0.00000000000E+00 0. -1.
         23    2    1    2    0    0  0.13561375858E+03 -0.25888300850E+02  0.80265558477E+02  0.17730950768E+03  0.77037692067E+02 0.  0.
    9900016    2    1    2    0    0  0.23754425695E+03  0.69973927100E+03 -0.87012732382E+03  0.13390578878E+04  0.69992295715E+03 0.  0.
         23    2    4    4    0    0 -0.14219376420E+03  0.25428127297E+03 -0.14078807953E+02  0.30201745747E+03  0.78347300051E+02 0.  0.
        -15    1    5    5    0    0 -0.10416264385E+03  0.19172561912E+03 -0.44592146129E+02  0.22270390409E+03  0.00000000000E+00 0.  1.
        -15    1    3    3    0    0  0.39233573250E+02 -0.44868863570E+02  0.35341926067E+02  0.69293144871E+02  0.00000000000E+00 0. -1.
         15    1    3    3    0    0  0.96380185331E+02  0.18980562720E+02  0.44923632410E+02  0.10801636281E+03  0.00000000000E+00 0.  1.
         15    1    5    5    0    0 -0.38031120343E+02  0.62555653844E+02  0.30513338176E+02  0.79313553375E+02  0.00000000000E+00 0. -1.
        -16    1    1    2    0    0 -0.51296357787E+03 -0.92611039977E+03 -0.10272762189E+03  0.10636564620E+04  0.00000000000E+00 0.  1.
         16    1    4    4    0    0  0.37973802114E+03  0.44545799803E+03 -0.85604851587E+03  0.10370404304E+04  0.00000000000E+00 0. -1.
    9900018    1    1    2    0    0  0.13980556235E+03  0.25225942962E+03 -0.33328283283E+03  0.45008114840E+03  0.91187600000E+02 0.  0.
<mgrwt>
<rscale>  0 0.12672873E+04</rscale>
<asrwt>0</asrwt>
<pdfrwt beam="1">  1        2 0.32738286E+00 0.25362268E+04</pdfrwt>
<pdfrwt beam="2">  1       -2 0.13878714E+00 0.25362268E+04</pdfrwt>
<totfact> 0.18372218E+00</totfact>
</mgrwt>
</event>
