<event>
12    1  0.3639560E-015  0.1185585E+04  0.7818608E-02  0.9477028E-01
         -2   -1    0    0    0  501 -0.00000000000E+00  0.00000000000E+00  0.27021086305E+03  0.27021086305E+03  0.00000000000E+00 0.  1.
          2   -1    0    0  501    0  0.00000000000E+00 -0.00000000000E+00 -0.23073460390E+04  0.23073460390E+04  0.00000000000E+00 0. -1.
         23    2    1    2    0    0  0.14485870024E+02 -0.31883646482E+03 -0.79670126221E+03  0.86166432192E+03  0.76589625451E+02 0.  0.
    9900016    2    1    2    0    0  0.59513116230E+02  0.90894554855E+02 -0.43139329618E+03  0.87210345652E+03  0.75010708021E+03 0.  0.
         23    2    4    4    0    0 -0.71822810844E+02 -0.14286347343E+03 -0.45341651843E+03  0.48932645303E+03  0.91023899358E+02 0.  0.
        -15    1    5    5    0    0 -0.16634381787E+02 -0.89380969531E+02 -0.34267875303E+03  0.35453404371E+03  0.00000000000E+00 0. -1.
        -15    1    3    3    0    0 -0.29328123388E+02 -0.18546408509E+03 -0.44685618982E+03  0.48470353832E+03  0.00000000000E+00 0. -1.
         15    1    3    3    0    0  0.43813993412E+02 -0.13337237973E+03 -0.34984507240E+03  0.37696078360E+03  0.00000000000E+00 0.  1.
         15    1    5    5    0    0 -0.55188429057E+02 -0.53482503896E+02 -0.11073776540E+03  0.13479240932E+03  0.00000000000E+00 0.  1.
        -16    1    4    4    0    0  0.13671684998E+03  0.23504637859E+03  0.68309668552E+02  0.28036495497E+03  0.00000000000E+00 0.  1.
         16    1    1    2    0    0 -0.73998986254E+02  0.22794190996E+03 -0.80904061760E+03  0.84378912366E+03  0.00000000000E+00 0. -1.
    9900018    1    4    4    0    0 -0.53809229033E+01 -0.12883503058E+01 -0.46286446304E+02  0.10241204852E+03  0.91187600000E+02 0.  0.
<mgrwt>
<rscale>  0 0.85998877E+03</rscale>
<asrwt>0</asrwt>
<pdfrwt beam="1">  1        2 0.35497631E+00 0.11855847E+04</pdfrwt>
<pdfrwt beam="2">  1       -2 0.41570902E-01 0.11855847E+04</pdfrwt>
<totfact> 0.24391279E+01</totfact>
</mgrwt>
</event>
<event>
12    1  0.3639560E-015  0.1925654E+04  0.7818608E-02  0.9369559E-01
          1   -1    0    0  501    0  0.00000000000E+00  0.00000000000E+00  0.11523260339E+04  0.11523260339E+04  0.00000000000E+00 0. -1.
         -1   -1    0    0    0  501 -0.00000000000E+00 -0.00000000000E+00 -0.10115226185E+04  0.10115226185E+04  0.00000000000E+00 0.  1.
         23    2    1    2    0    0  0.71074852689E+02  0.43627440046E+02  0.20871797396E+03  0.23699771812E+03  0.75164735947E+02 0.  0.
    9900016    2    1    2    0    0 -0.48319192010E+03  0.51738193579E+02 -0.51651423348E+03  0.96819462267E+03  0.65913777139E+03 0.  0.
         23    2    4    4    0    0  0.34759448335E+02 -0.17686191255E+03  0.23067084532E+00  0.20167200414E+03  0.90460978796E+02 0.  0.
        -15    1    5    5    0    0  0.49767838758E+02 -0.46755219592E+02  0.14873838062E+02  0.69886475032E+02  0.00000000000E+00 0. -1.
        -15    1    3    3    0    0 -0.32150537862E+01  0.20644205958E+02  0.10667210334E+03  0.10869893027E+03  0.00000000000E+00 0.  1.
         15    1    3    3    0    0  0.74289906475E+02  0.22983234088E+02  0.10204587062E+03  0.12829878785E+03  0.00000000000E+00 0. -1.
         15    1    5    5    0    0 -0.15008390423E+02 -0.13010669296E+03 -0.14643167216E+02  0.13178552911E+03  0.00000000000E+00 0.  1.
        -16    1    4    4    0    0 -0.51795136843E+03  0.22860010613E+03 -0.51674490432E+03  0.76652261854E+03  0.00000000000E+00 0.  1.
         16    1    1    2    0    0  0.50598539777E+03 -0.74861521398E+02  0.57914174301E+03  0.77267757094E+03  0.00000000000E+00 0. -1.
    9900018    1    1    2    0    0 -0.93868330360E+02 -0.20504112227E+02 -0.13054206805E+03  0.18597874069E+03  0.91187600000E+02 0.  0.
<mgrwt>
<rscale>  0 0.94623785E+03</rscale>
<asrwt>0</asrwt>
<pdfrwt beam="1">  1        1 0.17728093E+00 0.19256537E+04</pdfrwt>
<pdfrwt beam="2">  1       -1 0.15561886E+00 0.19256537E+04</pdfrwt>
<totfact> 0.33916481E+00</totfact>
</mgrwt>
</event>
<event>
12    1  0.3639560E-015  0.1286089E+04  0.7818608E-02  0.9378010E-01
          2   -1    0    0  501    0  0.00000000000E+00  0.00000000000E+00  0.19444540495E+04  0.19444540495E+04  0.00000000000E+00 0. -1.
         -2   -1    0    0    0  501 -0.00000000000E+00 -0.00000000000E+00 -0.37332507127E+03  0.37332507127E+03  0.00000000000E+00 0.  1.
         23    2    1    2    0    0  0.14061445160E+03  0.32832718063E+03  0.13439539505E+03  0.38950807967E+03  0.77995258698E+02 0.  0.
    9900016    2    1    2    0    0  0.25110697574E+03 -0.10396343717E+03  0.10983239630E+04  0.13640850460E+04  0.76193790790E+03 0.  0.
         23    2    4    4    0    0 -0.48127002381E+02  0.15220174941E+03  0.72016795823E+03  0.74413373468E+03  0.98038493247E+02 0.  0.
        -15    1    3    3    0    0  0.16054177950E+02  0.47420369308E+01 -0.21129194073E+01  0.16872699023E+02  0.00000000000E+00 0.  1.
        -15    1    5    5    0    0 -0.42560753106E+02  0.16348009582E+02  0.27199203103E+03  0.27578676557E+03  0.00000000000E+00 0.  1.
         15    1    5    5    0    0 -0.55662492743E+01  0.13585373983E+03  0.44817592720E+03  0.46834696911E+03  0.00000000000E+00 0. -1.
         15    1    3    3    0    0  0.12456027364E+03  0.32358514370E+03  0.13650831446E+03  0.37263538065E+03  0.00000000000E+00 0. -1.
        -16    1    4    4    0    0  0.29172199262E+03 -0.20267638300E+03  0.18712889755E+03  0.40149304042E+03  0.00000000000E+00 0.  1.
         16    1    1    2    0    0 -0.39172142733E+03 -0.22436374346E+03  0.33840962015E+03  0.56418599506E+03  0.00000000000E+00 0. -1.
    9900018    1    4    4    0    0  0.75119854971E+01 -0.53488803581E+02  0.19102710724E+03  0.21845827091E+03  0.91187600000E+02 0.  0.
<mgrwt>
<rscale>  0 0.93907715E+03</rscale>
<asrwt>0</asrwt>
<pdfrwt beam="1">  1        2 0.29914677E+00 0.12860894E+04</pdfrwt>
<pdfrwt beam="2">  1       -2 0.57434628E-01 0.12860894E+04</pdfrwt>
<totfact> 0.19925998E+01</totfact>
</mgrwt>
</event>
<event>
12    1  0.3639560E-015  0.2507599E+04  0.7818608E-02  0.8819734E-01
          2   -1    0    0  501    0  0.00000000000E+00  0.00000000000E+00  0.15516391163E+04  0.15516391163E+04  0.00000000000E+00 0.  1.
         -2   -1    0    0    0  501 -0.00000000000E+00 -0.00000000000E+00 -0.13782057031E+04  0.13782057031E+04  0.00000000000E+00 0. -1.
         23    2    1    2    0    0  0.37024283377E+03  0.15638403682E+03  0.16232298809E+02  0.41732347301E+03  0.11117405574E+03 0.  0.
    9900016    2    1    2    0    0  0.32884630735E+03 -0.10714038426E+04  0.21340876640E+02  0.13530193514E+04  0.75773335970E+03 0.  0.
         23    2    4    4    0    0 -0.69202959457E+02 -0.19895211661E+03 -0.22663623251E+03  0.32211938214E+03  0.89587500028E+02 0.  0.
        -15    1    5    5    0    0 -0.75422220729E+02 -0.81151155212E+02 -0.11560458371E+03  0.16012008352E+03  0.00000000000E+00 0. -1.
        -15    1    3    3    0    0  0.31728708031E+03  0.16940406248E+03  0.30456715883E+02  0.36096598075E+03  0.00000000000E+00 0. -1.
         15    1    3    3    0    0  0.52955753465E+02 -0.13020025660E+02 -0.14224417074E+02  0.56357492265E+02  0.00000000000E+00 0.  1.
         15    1    5    5    0    0  0.62192612716E+01 -0.11780096140E+03 -0.11103164879E+03  0.16199929861E+03  0.00000000000E+00 0.  1.
        -16    1    4    4    0    0  0.38215860186E+03 -0.78149491869E+03  0.23055123402E+03  0.89996298614E+03  0.00000000000E+00 0.  1.
         16    1    1    2    0    0 -0.69908914113E+03  0.91501980576E+03  0.13586023781E+03  0.11595019950E+04  0.00000000000E+00 0. -1.
    9900018    1    4    4    0    0  0.15890664950E+02 -0.90956807269E+02  0.17425875126E+02  0.13093698308E+03  0.91187600000E+02 0.  0.
<mgrwt>
<rscale>  0 0.16013252E+04</rscale>
<asrwt>0</asrwt>
<pdfrwt beam="1">  1        2 0.23871371E+00 0.25075987E+04</pdfrwt>
<pdfrwt beam="2">  1       -2 0.21203164E+00 0.25075987E+04</pdfrwt>
<totfact> 0.11592717E+00</totfact>
</mgrwt>
</event>
<event>
12    1  0.3639560E-015  0.1894846E+04  0.7818608E-02  0.9089251E-01
         -1   -1    0    0    0  501 -0.00000000000E+00  0.00000000000E+00  0.11385853995E+04  0.11385853995E+04  0.00000000000E+00 0.  1.
          1   -1    0    0  501    0  0.00000000000E+00 -0.00000000000E+00 -0.11884655179E+04  0.11884655179E+04  0.00000000000E+00 0. -1.
         23    2    1    2    0    0 -0.66154084967E+02 -0.30844673583E+03  0.23897523431E+03  0.41031432967E+03  0.10831867204E+03 0.  0.
    9900016    2    1    2    0    0 -0.48128441093E+03  0.24407900085E+03 -0.74865668831E+03  0.11989278526E+04  0.76533124592E+03 0.  0.
         23    2    4    4    0    0 -0.15482454210E+03 -0.24275519460E+03 -0.33946495616E+03  0.45478722072E+03  0.93242888891E+02 0.  0.
        -15    1    5    5    0    0 -0.59155153183E+02 -0.70055386554E+02 -0.50092728734E+02  0.10448143761E+03  0.00000000000E+00 0.  1.
        -15    1    3    3    0    0 -0.27910184252E+02 -0.26957230295E+03  0.22914583024E+03  0.35490282673E+03  0.00000000000E+00 0.  1.
         15    1    3    3    0    0 -0.38243900715E+02 -0.38874432878E+02  0.98294040759E+01  0.55411502939E+02  0.00000000000E+00 0. -1.
         15    1    5    5    0    0 -0.95669388916E+02 -0.17269980805E+03 -0.28937222742E+03  0.35030578311E+03  0.00000000000E+00 0. -1.
        -16    1    1    2    0    0  0.54743849590E+03  0.64367734974E+02  0.45980133556E+03  0.71780873517E+03  0.00000000000E+00 0.  1.
         16    1    4    4    0    0 -0.21623711431E+03  0.39529166738E+03 -0.27683531726E+03  0.52882112740E+03  0.00000000000E+00 0. -1.
    9900018    1    4    4    0    0 -0.11022275453E+03  0.91542528082E+02 -0.13235641489E+03  0.21531950450E+03  0.91187600000E+02 0.  0.
<mgrwt>
<rscale>  0 0.12273469E+04</rscale>
<asrwt>0</asrwt>
<pdfrwt beam="1">  1        1 0.18284085E+00 0.18948461E+04</pdfrwt>
<pdfrwt beam="2">  1       -1 0.17516699E+00 0.18948461E+04</pdfrwt>
<totfact> 0.22737635E+00</totfact>
</mgrwt>
</event>
<event>
12    1  0.3639560E-015  0.1165350E+04  0.7818608E-02  0.9545675E-01
         -1   -1    0    0    0  501 -0.00000000000E+00  0.00000000000E+00  0.28151324658E+03  0.28151324658E+03  0.00000000000E+00 0.  1.
          1   -1    0    0  501    0  0.00000000000E+00 -0.00000000000E+00 -0.19833268114E+04  0.19833268114E+04  0.00000000000E+00 0. -1.
         23    2    1    2    0    0 -0.27508885459E+02  0.26054617352E+03 -0.61021777622E+03  0.66808676675E+03  0.73028392899E+02 0.  0.
    9900016    2    1    2    0    0  0.38060324566E+01 -0.24297133091E+03 -0.10972367466E+04  0.13084952395E+04  0.67021023575E+03 0.  0.
         23    2    4    4    0    0  0.19392842875E+03 -0.18606784384E+03 -0.10714982639E+04  0.11083777692E+04  0.90350825802E+02 0.  0.
        -15    1    5    5    0    0  0.27021939636E+02 -0.77452565784E+02 -0.25121321743E+03  0.26426722418E+03  0.00000000000E+00 0.  1.
        -15    1    3    3    0    0  0.26198030593E+01  0.22393963598E+03 -0.51980370052E+03  0.56599621113E+03  0.00000000000E+00 0. -1.
         15    1    5    5    0    0  0.16690648911E+03 -0.10861527806E+03 -0.82028504649E+03  0.84411054503E+03  0.00000000000E+00 0. -1.
         15    1    3    3    0    0 -0.30128688518E+02  0.36606537537E+02 -0.90414075698E+02  0.10209055562E+03  0.00000000000E+00 0.  1.
        -16    1    1    2    0    0  0.35073676964E+01 -0.23614146586E+02  0.13024757380E+03  0.13241737056E+03  0.00000000000E+00 0.  1.
         16    1    4    4    0    0 -0.19012239629E+03 -0.56903487071E+02 -0.25738482687E+02  0.20011747026E+03  0.00000000000E+00 0. -1.
    9900018    1    1    2    0    0  0.20195485306E+02  0.60393039824E+01 -0.12460661574E+03  0.15584068115E+03  0.91187600000E+02 0.  0.
<mgrwt>
<rscale>  0 0.80998543E+03</rscale>
<asrwt>0</asrwt>
<pdfrwt beam="1">  1        1 0.30512720E+00 0.11653496E+04</pdfrwt>
<pdfrwt beam="2">  1       -1 0.43309731E-01 0.11653496E+04</pdfrwt>
<totfact> 0.15991883E+01</totfact>
</mgrwt>
</event>
<event>
12    1  0.3639560E-015  0.1270750E+04  0.7818608E-02  0.9576426E-01
          2   -1    0    0  501    0  0.00000000000E+00  0.00000000000E+00  0.22600640287E+04  0.22600640287E+04  0.00000000000E+00 0. -1.
         -2   -1    0    0    0  501 -0.00000000000E+00 -0.00000000000E+00 -0.24385526508E+03  0.24385526508E+03  0.00000000000E+00 0.  1.
         23    2    1    2    0    0  0.17844915709E+03 -0.28335661265E+02  0.12811003901E+03  0.22801921152E+03  0.54162416514E+02 0.  0.
    9900016    2    1    2    0    0 -0.20212800531E+03  0.29539438153E+03  0.18146861471E+04  0.19979244458E+04  0.75531629624E+03 0.  0.
         23    2    4    4    0    0  0.18058677456E+03  0.15404617179E+03  0.22237791682E+03  0.33774797684E+03  0.90994240377E+02 0.  0.
        -15    1    3    3    0    0  0.13250015341E+03 -0.29399588947E+02  0.12037159279E+03  0.18141098873E+03  0.00000000000E+00 0.  1.
        -15    1    5    5    0    0  0.11599112830E+03  0.10558782425E+03  0.85022531233E+02  0.17841401652E+03  0.00000000000E+00 0. -1.
         15    1    5    5    0    0  0.64595646261E+02  0.48458347546E+02  0.13735538559E+03  0.15933396032E+03  0.00000000000E+00 0.  1.
         15    1    3    3    0    0  0.45949003683E+02  0.10639276815E+01  0.77384462218E+01  0.46608222788E+02  0.00000000000E+00 0. -1.
        -16    1    1    2    0    0  0.23678848221E+02 -0.26705872026E+03  0.73412577465E+02  0.27797563644E+03  0.00000000000E+00 0.  1.
         16    1    4    4    0    0 -0.33433751544E+03  0.12973741201E+03  0.13438047061E+04  0.13908358848E+04  0.00000000000E+00 0. -1.
    9900018    1    4    4    0    0 -0.48377264429E+02  0.11610797724E+02  0.24850352424E+03  0.26934058419E+03  0.91187600000E+02 0.  0.
<mgrwt>
<rscale>  0 0.78876312E+03</rscale>
<asrwt>0</asrwt>
<pdfrwt beam="1">  1        2 0.34770214E+00 0.12707495E+04</pdfrwt>
<pdfrwt beam="2">  1       -2 0.37516196E-01 0.12707495E+04</pdfrwt>
<totfact> 0.31487148E+01</totfact>
</mgrwt>
</event>
<event>
12    1  0.3639560E-015  0.1727974E+04  0.7818608E-02  0.9435410E-01
         -1   -1    0    0    0  501 -0.00000000000E+00  0.00000000000E+00  0.27717892256E+03  0.27717892256E+03  0.00000000000E+00 0.  1.
          1   -1    0    0  501    0  0.00000000000E+00 -0.00000000000E+00 -0.32933631358E+04  0.32933631358E+04  0.00000000000E+00 0. -1.
         23    2    1    2    0    0 -0.43790848654E+02  0.46273958104E+02 -0.40101917257E+02  0.12918201458E+03  0.10498052914E+03 0.  0.
    9900016    2    1    2    0    0  0.57757719906E+03 -0.13961782539E+03 -0.26191389501E+04  0.27924767741E+04  0.76481967556E+03 0.  0.
         23    2    4    4    0    0 -0.88842165264E+02 -0.16332596772E+03 -0.31245231520E+03  0.37440963663E+03  0.89374630984E+02 0.  0.
        -15    1    3    3    0    0 -0.29005490458E+02  0.78684630048E+02 -0.41424057563E+02  0.93533641154E+02  0.00000000000E+00 0.  1.
        -15    1    5    5    0    0  0.11795999945E+02 -0.21113765595E+02 -0.11761403902E+02  0.26893629990E+02  0.00000000000E+00 0.  1.
         15    1    5    5    0    0 -0.10063816521E+03 -0.14221220212E+03 -0.30069091130E+03  0.34751600664E+03  0.00000000000E+00 0. -1.
         15    1    3    3    0    0 -0.14785358196E+02 -0.32410671945E+02  0.13221403064E+01  0.35648373425E+02  0.00000000000E+00 0. -1.
        -16    1    1    2    0    0 -0.53378635041E+03  0.93343867286E+02 -0.35694334589E+03  0.64888326964E+03  0.00000000000E+00 0.  1.
         16    1    4    4    0    0  0.55997777316E+03  0.95299734030E+02 -0.18120828904E+04  0.18990264736E+04  0.00000000000E+00 0. -1.
    9900018    1    4    4    0    0  0.10644159117E+03 -0.71591591703E+02 -0.49460374450E+03  0.51904066392E+03  0.91187600000E+02 0.  0.
<mgrwt>
<rscale>  0 0.89217983E+03</rscale>
<asrwt>0</asrwt>
<pdfrwt beam="1">  1        1 0.50667124E+00 0.17279737E+04</pdfrwt>
<pdfrwt beam="2">  1       -1 0.42642912E-01 0.17279737E+04</pdfrwt>
<totfact> 0.18628264E+00</totfact>
</mgrwt>
</event>
