<event>
13    1  0.1638137E-014  0.5713721E+04  0.7818608E-02  0.7726947E-01
          1   -1    0    0  501    0  0.00000000000E+00  0.00000000000E+00  0.32252582219E+04  0.32252582219E+04  0.00000000000E+00 0. -1.
         -1   -1    0    0    0  501 -0.00000000000E+00 -0.00000000000E+00 -0.25305419029E+04  0.25305419029E+04  0.00000000000E+00 0.  1.
    9900016    2    1    2    0    0 -0.63692384966E+03 -0.13198680739E+04  0.12971939218E+04  0.30005529821E+04  0.22743971520E+04 0.  0.
         24    2    3    3    0    0  0.10908390147E+03  0.58510524581E+03  0.57753205853E+03  0.83182890765E+03  0.64409678888E+02 0.  0.
    9900016    2    1    2    0    0  0.57603840777E+03  0.12453572554E+04 -0.60695672972E+03  0.26226042384E+04  0.21510280283E+04 0.  0.
         23    2    5    5    0    0 -0.52133480276E+03 -0.10000313737E+03  0.34791018267E+03  0.64119227463E+03  0.91079271983E+02 0.  0.
        -15    1    4    4    0    0  0.59127214153E+02  0.16025876901E+03  0.17058290443E+03  0.24140718254E+03  0.00000000000E+00 0.  1.
        -15    1    6    6    0    0 -0.93110233781E+02  0.58519604651E+01  0.92957731892E+02  0.13170004174E+03  0.00000000000E+00 0.  1.
         15    1    3    3    0    0 -0.74600775113E+03 -0.19049733197E+04  0.71966186326E+03  0.21687240745E+04  0.00000000000E+00 0. -1.
         15    1    6    6    0    0 -0.42822456898E+03 -0.10585509784E+03  0.25495245078E+03  0.50949223289E+03  0.00000000000E+00 0. -1.
        -16    1    5    5    0    0  0.10973732105E+04  0.13453603928E+04 -0.95486691239E+03  0.19814119637E+04  0.00000000000E+00 0.  1.
         16    1    4    4    0    0  0.49956687319E+02  0.42484647680E+03  0.40694915410E+03  0.59042172511E+03  0.00000000000E+00 0. -1.
    9900018    1    1    2    0    0  0.60885441889E+02  0.74510818527E+02  0.44791269489E+01  0.13264290438E+03  0.91187600000E+02 0.  0.
<mgrwt>
<rscale>  0 0.57137207E+04</rscale>
<asrwt>0</asrwt>
<pdfrwt beam="1">  1        1 0.49619357E+00 0.57137207E+04</pdfrwt>
<pdfrwt beam="2">  1       -1 0.38931414E+00 0.57137207E+04</pdfrwt>
<totfact> 0.23505094E-03</totfact>
</mgrwt>
</event>
<event>
13    1  0.1638137E-014  0.5410975E+04  0.7818608E-02  0.7768059E-01
         -2   -1    0    0    0  501 -0.00000000000E+00  0.00000000000E+00  0.16888791891E+04  0.16888791891E+04  0.00000000000E+00 0. -1.
          2   -1    0    0  501    0  0.00000000000E+00 -0.00000000000E+00 -0.43340363759E+04  0.43340363759E+04  0.00000000000E+00 0.  1.
    9900016    2    1    2    0    0  0.69149865543E+03 -0.12889701805E+04 -0.20032797036E+04  0.32567779665E+04  0.21104166971E+04 0.  0.
         24    2    3    3    0    0 -0.13119789132E+03 -0.17890771278E+03  0.40894914314E+03  0.47686496437E+03  0.10459414987E+03 0.  0.
    9900016    2    1    2    0    0 -0.62411758185E+03  0.11526813287E+04 -0.61142752103E+03  0.25862564189E+04  0.21439873249E+04 0.  0.
         23    2    5    5    0    0 -0.35417368105E+03 -0.34154030285E+02 -0.11854619788E+04  0.12405360031E+04  0.83689769249E+02 0.  0.
        -15    1    6    6    0    0 -0.18873913825E+03  0.46340176097E+01 -0.50375993169E+03  0.53797584073E+03  0.00000000000E+00 0.  1.
        -15    1    4    4    0    0 -0.70118993099E+02 -0.14347498756E+03  0.19777651842E+03  0.25419932433E+03  0.00000000000E+00 0.  1.
         15    1    3    3    0    0  0.82269654675E+03 -0.11100624677E+04 -0.24122288468E+04  0.27799130022E+04  0.00000000000E+00 0. -1.
         15    1    6    6    0    0 -0.16543454279E+03 -0.38788047895E+02 -0.68170204714E+03  0.70256016232E+03  0.00000000000E+00 0. -1.
        -16    1    5    5    0    0 -0.26994390081E+03  0.11868353590E+04  0.57403445781E+03  0.13457204159E+04  0.00000000000E+00 0.  1.
         16    1    4    4    0    0 -0.61078898220E+02 -0.35432725217E+02  0.21117262472E+03  0.22266564004E+03  0.00000000000E+00 0. -1.
    9900018    1    1    2    0    0 -0.67381073572E+02  0.13628885182E+03 -0.30449962118E+02  0.17988117965E+03  0.91187600000E+02 0.  0.
<mgrwt>
<rscale>  0 0.54109755E+04</rscale>
<asrwt>0</asrwt>
<pdfrwt beam="1">  1        2 0.66677481E+00 0.54109755E+04</pdfrwt>
<pdfrwt beam="2">  1       -2 0.25982757E+00 0.54109755E+04</pdfrwt>
<totfact> 0.69045547E-03</totfact>
</mgrwt>
</event>
<event>
12    1  0.1638137E-014  0.5238183E+04  0.7818608E-02  0.7792780E-01
          1   -1    0    0  501    0  0.00000000000E+00  0.00000000000E+00  0.28390522471E+04  0.28390522471E+04  0.00000000000E+00 0. -1.
         -1   -1    0    0    0  501 -0.00000000000E+00 -0.00000000000E+00 -0.24161725913E+04  0.24161725913E+04  0.00000000000E+00 0.  1.
    9900016    2    1    2    0    0 -0.92067470925E+02  0.12366378257E+03 -0.10880644455E+04  0.25466984575E+04  0.22973940988E+04 0.  0.
    9900016    2    1    2    0    0  0.92067470925E+02 -0.12366378257E+03  0.15109441013E+04  0.27085263810E+04  0.22426310282E+04 0.  0.
         23    2    4    4    0    0  0.16165387122E+02  0.49101936829E+03 -0.41276229697E+03  0.64758006189E+03  0.87326301752E+02 0.  0.
        -15    1    3    3    0    0 -0.48051039962E+03  0.10187269997E+04 -0.86462336384E+03  0.14199536983E+04  0.00000000000E+00 0.  1.
        -15    1    5    5    0    0 -0.58174534753E+01  0.46264158177E+03 -0.37593886370E+03  0.59615526936E+03  0.00000000000E+00 0.  1.
         15    1    5    5    0    0  0.21982840597E+02  0.28377786519E+02 -0.36823433272E+02  0.51424792526E+02  0.00000000000E+00 0. -1.
         15    1    3    3    0    0  0.48084804768E+03 -0.65332405192E+03 -0.45110138715E+02  0.81245435957E+03  0.00000000000E+00 0. -1.
        -16    1    3    3    0    0 -0.92405118985E+02 -0.24173916525E+03 -0.17833094298E+03  0.31429039956E+03  0.00000000000E+00 0.  1.
         16    1    4    4    0    0  0.64701176850E+02 -0.56244685070E+03  0.18429147146E+04  0.19279178788E+04  0.00000000000E+00 0. -1.
    9900018    1    4    4    0    0  0.11200906953E+02 -0.52236300160E+02  0.80791683660E+02  0.13302844024E+03  0.91187600000E+02 0.  0.
<mgrwt>
<rscale>  0 0.52381830E+04</rscale>
<asrwt>0</asrwt>
<pdfrwt beam="1">  1        1 0.43677727E+00 0.52381830E+04</pdfrwt>
<pdfrwt beam="2">  1       -1 0.37171886E+00 0.52381830E+04</pdfrwt>
<totfact> 0.61622134E-03</totfact>
</mgrwt>
</event>
<event>
12    1  0.1638137E-014  0.4928946E+04  0.7818608E-02  0.7839562E-01
          2   -1    0    0  501    0  0.00000000000E+00  0.00000000000E+00  0.23593869163E+04  0.23593869163E+04  0.00000000000E+00 0. -1.
         -2   -1    0    0    0  501 -0.00000000000E+00 -0.00000000000E+00 -0.25742396333E+04  0.25742396333E+04  0.00000000000E+00 0.  1.
    9900016    2    1    2    0    0 -0.56939418224E+03  0.56384259099E+03  0.69612206831E+03  0.23701617935E+04  0.21191868231E+04 0.  0.
    9900016    2    1    2    0    0  0.53194038404E+03 -0.54056124104E+03 -0.89536332942E+03  0.24609771753E+04  0.21632304866E+04 0.  0.
         23    2    4    4    0    0  0.33308899900E+03 -0.23455654316E+03  0.70515655217E+03  0.81937897847E+03  0.90394104343E+02 0.  0.
        -15    1    3    3    0    0 -0.66204047992E+03  0.61924515835E+03 -0.39818206128E+03  0.99010661906E+03  0.00000000000E+00 0.  1.
        -15    1    5    5    0    0  0.29392910377E+03 -0.23588212297E+03  0.65558472341E+03  0.75619179019E+03  0.00000000000E+00 0.  1.
         15    1    3    3    0    0  0.17225270678E+03 -0.14570422458E+03  0.11992892125E+04  0.12203259119E+04  0.00000000000E+00 0. -1.
         15    1    5    5    0    0  0.39159895233E+02  0.13255798158E+01  0.49571828759E+02  0.63187188282E+02  0.00000000000E+00 0. -1.
        -16    1    4    4    0    0  0.19885138504E+03 -0.30600469788E+03 -0.16005198816E+04  0.16415981968E+04  0.00000000000E+00 0.  1.
         16    1    3    3    0    0 -0.79606409103E+02  0.90301657215E+02 -0.10498508294E+03  0.15972926252E+03  0.00000000000E+00 0. -1.
    9900018    1    1    2    0    0  0.37453798207E+02 -0.23281349953E+02 -0.15611455886E+02  0.10248758073E+03  0.91187600000E+02 0.  0.
<mgrwt>
<rscale>  0 0.49289461E+04</rscale>
<asrwt>0</asrwt>
<pdfrwt beam="1">  1        2 0.36298260E+00 0.49289461E+04</pdfrwt>
<pdfrwt beam="2">  1       -2 0.39603687E+00 0.49289461E+04</pdfrwt>
<totfact> 0.24205385E-02</totfact>
</mgrwt>
</event>
