<event>
11    1  0.6018668E-013  0.5976220E+04  0.7818608E-02  0.7693357E-01
         -2   -1    0    0    0  501 -0.00000000000E+00  0.00000000000E+00  0.25271048491E+04  0.25271048491E+04  0.00000000000E+00 0.  1.
          2   -1    0    0  501    0  0.00000000000E+00 -0.00000000000E+00 -0.35332139161E+04  0.35332139161E+04  0.00000000000E+00 0. -1.
    9900016    2    1    2    0    0 -0.54675003055E+03 -0.88151237921E+02 -0.12759255918E+04  0.25942198618E+04  0.21898137681E+04 0.  0.
         24    2    3    3    0    0  0.23544857414E+03 -0.33119093603E+03 -0.15234856429E+04  0.15797532989E+04  0.97409003333E+02 0.  0.
        -15    1    4    4    0    0  0.50669582717E+02 -0.91043294311E+02 -0.56451736250E+03  0.57405238491E+03  0.00000000000E+00 0.  1.
        -15    1    1    2    0    0  0.55699244922E+03  0.24531092751E+03  0.99685730649E+03  0.11679651233E+04  0.00000000000E+00 0.  1.
         15    1    3    3    0    0 -0.80412789122E+03  0.28003610962E+03  0.13293046300E+03  0.86180763290E+03  0.00000000000E+00 0. -1.
         15    1    1    2    0    0  0.75871184303E+02 -0.10435626773E+04 -0.91265188097E+03  0.13884210291E+04  0.00000000000E+00 0. -1.
        -16    1    1    2    0    0 -0.86113602977E+02  0.88640298773E+03  0.18561109932E+03  0.90971275107E+03  0.00000000000E+00 0.  1.
         16    1    4    4    0    0  0.18477899143E+03 -0.24014764172E+03 -0.95896828041E+03  0.10057009140E+04  0.00000000000E+00 0. -1.
    9900018    1    3    3    0    0  0.21929286529E+02 -0.36996411509E+02  0.11462958807E+03  0.15265893006E+03  0.91187600000E+02 0.  0.
<mgrwt>
<rscale>  0 0.59762202E+04</rscale>
<asrwt>0</asrwt>
<pdfrwt beam="1">  1        2 0.54357137E+00 0.59762202E+04</pdfrwt>
<pdfrwt beam="2">  1       -2 0.38878536E+00 0.59762202E+04</pdfrwt>
<totfact> 0.45564000E-03</totfact>
</mgrwt>
</event>
<event>
10    1  0.6018668E-013  0.3474296E+04  0.7818608E-02  0.8299959E-01
         -2   -1    0    0    0  501 -0.00000000000E+00  0.00000000000E+00  0.24202372322E+04  0.24202372322E+04  0.00000000000E+00 0.  1.
          2   -1    0    0  501    0  0.00000000000E+00 -0.00000000000E+00 -0.26032189672E+04  0.26032189672E+04  0.00000000000E+00 0. -1.
    9900016    2    1    2    0    0 -0.24737885299E+03  0.21892138473E+02  0.62902621004E+03  0.23006418971E+04  0.21990005918E+04 0.  0.
        -15    1    3    3    0    0 -0.36054028070E+03  0.65139658174E+03  0.23670063335E+03  0.78123875387E+03  0.00000000000E+00 0.  1.
        -15    1    1    2    0    0  0.49015687751E+03  0.74817452568E+03  0.46008816416E+03  0.10058329902E+04  0.00000000000E+00 0.  1.
         15    1    1    2    0    0  0.13182479567E+03 -0.46441989751E+03 -0.16713807336E+03  0.51088037105E+03  0.00000000000E+00 0. -1.
         15    1    3    3    0    0  0.90583136788E+02 -0.35560273144E+03  0.32555972635E+03  0.49055860272E+03  0.00000000000E+00 0. -1.
        -16    1    3    3    0    0 -0.11051969127E+02 -0.51672623258E+03  0.36457218763E+03  0.63248796466E+03  0.00000000000E+00 0.  1.
         16    1    1    2    0    0 -0.37460282019E+03 -0.30564676664E+03 -0.11049580359E+04  0.12061009410E+04  0.00000000000E+00 0. -1.
    9900018    1    3    3    0    0  0.33630260041E+02  0.24282452074E+03 -0.29780633729E+03  0.39635657581E+03  0.91187600000E+02 0.  0.
<mgrwt>
<rscale>  0 0.28106841E+04</rscale>
<asrwt>0</asrwt>
<pdfrwt beam="1">  1        2 0.40049523E+00 0.34742962E+04</pdfrwt>
<pdfrwt beam="2">  1       -2 0.37234419E+00 0.34742962E+04</pdfrwt>
<totfact> 0.26653947E-02</totfact>
</mgrwt>
</event>
<event>
10    1  0.6018668E-013  0.3632880E+04  0.7818608E-02  0.8418076E-01
         -2   -1    0    0    0  501 -0.00000000000E+00  0.00000000000E+00  0.11888903349E+04  0.11888903349E+04  0.00000000000E+00 0.  1.
          2   -1    0    0  501    0  0.00000000000E+00 -0.00000000000E+00 -0.42169278569E+04  0.42169278569E+04  0.00000000000E+00 0. -1.
    9900016    2    1    2    0    0  0.61377543703E+03  0.32500596791E+03 -0.28749714317E+04  0.36903638909E+04  0.22070287148E+04 0.  0.
        -15    1    1    2    0    0  0.31549472332E+02  0.53993195532E+03  0.16487780029E+02  0.54110417894E+03  0.00000000000E+00 0.  1.
        -15    1    3    3    0    0  0.20103942320E+03  0.83309341519E+03 -0.49131774536E+03  0.98785353925E+03  0.00000000000E+00 0.  1.
         15    1    1    2    0    0 -0.13512532999E+03 -0.79062252238E+02 -0.17838732982E+03  0.23734307231E+03  0.00000000000E+00 0. -1.
         15    1    3    3    0    0 -0.39369838221E+02 -0.62798607721E+03 -0.12186086709E+04  0.13714676774E+04  0.00000000000E+00 0. -1.
        -16    1    3    3    0    0  0.56905478729E+01 -0.12554270221E+03 -0.24874028798E+03  0.27868455873E+03  0.00000000000E+00 0.  1.
         16    1    1    2    0    0 -0.51019957937E+03 -0.78587567100E+03  0.88334594624E+01  0.93700704963E+03  0.00000000000E+00 0. -1.
    9900018    1    3    3    0    0  0.44641530418E+03  0.24544133215E+03 -0.91630472749E+03  0.10523581155E+04  0.91187600000E+02 0.  0.
<mgrwt>
<rscale>  0 0.24580749E+04</rscale>
<asrwt>0</asrwt>
<pdfrwt beam="1">  1        2 0.64875813E+00 0.36328797E+04</pdfrwt>
<pdfrwt beam="2">  1       -2 0.18290621E+00 0.36328797E+04</pdfrwt>
<totfact> 0.30721212E-02</totfact>
</mgrwt>
</event>
<event>
10    1  0.6018668E-013  0.3101410E+04  0.7818608E-02  0.8398118E-01
          2   -1    0    0  501    0  0.00000000000E+00  0.00000000000E+00  0.34775786300E+04  0.34775786300E+04  0.00000000000E+00 0. -1.
         -2   -1    0    0    0  501 -0.00000000000E+00 -0.00000000000E+00 -0.14980718795E+04  0.14980718795E+04  0.00000000000E+00 0.  1.
    9900016    2    1    2    0    0  0.21506987028E+03 -0.26521889197E+03  0.15335020731E+04  0.27005293544E+04  0.21965049684E+04 0.  0.
        -15    1    1    2    0    0 -0.85098690493E+03  0.65699025564E+02 -0.22007645200E+03  0.88143560119E+03  0.00000000000E+00 0.  1.
        -15    1    3    3    0    0 -0.14156061332E+03 -0.13689462897E+03 -0.33568116319E+03  0.38918040805E+03  0.00000000000E+00 0.  1.
         15    1    3    3    0    0  0.28013144972E+03  0.69983464380E+02  0.74626111437E+03  0.80017308455E+03  0.00000000000E+00 0. -1.
         15    1    1    2    0    0  0.66908100169E+03  0.54225249402E+03  0.36166116989E+03  0.93408027272E+03  0.00000000000E+00 0. -1.
        -16    1    3    3    0    0  0.40188323467E+03  0.98909517801E+02  0.93684352901E+03  0.10241918887E+04  0.00000000000E+00 0.  1.
         16    1    1    2    0    0 -0.33163967044E+02 -0.34273262761E+03  0.30441995952E+03  0.45960528118E+03  0.00000000000E+00 0. -1.
    9900018    1    3    3    0    0 -0.32538420079E+03 -0.29721724518E+03  0.18607859290E+03  0.48698397313E+03  0.91187600000E+02 0.  0.
<mgrwt>
<rscale>  0 0.25137077E+04</rscale>
<asrwt>0</asrwt>
<pdfrwt beam="1">  1        2 0.53501210E+00 0.31014099E+04</pdfrwt>
<pdfrwt beam="2">  1       -2 0.23047260E+00 0.31014099E+04</pdfrwt>
<totfact> 0.58191315E-02</totfact>
</mgrwt>
</event>
<event>
11    1  0.6018668E-013  0.6253896E+04  0.7818608E-02  0.7659695E-01
          2   -1    0    0  501    0  0.00000000000E+00  0.00000000000E+00  0.37430202440E+04  0.37430202440E+04  0.00000000000E+00 0. -1.
         -2   -1    0    0    0  501 -0.00000000000E+00 -0.00000000000E+00 -0.26122764452E+04  0.26122764452E+04  0.00000000000E+00 0.  1.
    9900016    2    1    2    0    0 -0.86701281238E+03 -0.98377443926E+03  0.10476001198E+04  0.27662519238E+04  0.21988998000E+04 0.  0.
        -24    2    3    3    0    0 -0.88403985546E+03 -0.14579564588E+04  0.43851314767E+03  0.17618887094E+04  0.69242629202E+02 0.  0.
        -15    1    3    3    0    0 -0.65741758625E+02  0.58543603427E+03  0.31844437089E+03  0.66967465712E+03  0.00000000000E+00 0.  1.
        -15    1    1    2    0    0  0.49428285553E+03 -0.10886195000E+04  0.27676635949E+03  0.12271950028E+04  0.00000000000E+00 0.  1.
         15    1    4    4    0    0 -0.43997532831E+03 -0.70782926934E+03  0.24878779648E+03  0.86976774585E+03  0.00000000000E+00 0. -1.
         15    1    1    2    0    0 -0.30916125324E+03  0.49656026967E+03 -0.26754077044E+03  0.64321912734E+03  0.00000000000E+00 0. -1.
        -16    1    4    4    0    0 -0.44406452715E+03 -0.75012718949E+03  0.18972535120E+03  0.89212096353E+03  0.00000000000E+00 0.  1.
         16    1    1    2    0    0  0.68189121009E+03  0.15758336696E+04  0.73918090026E+02  0.17186306353E+04  0.00000000000E+00 0. -1.
    9900018    1    3    3    0    0  0.82768801704E+02 -0.11125401470E+03  0.29064260122E+03  0.33468855726E+03  0.91187600000E+02 0.  0.
<mgrwt>
<rscale>  0 0.62538959E+04</rscale>
<asrwt>0</asrwt>
<pdfrwt beam="1">  1        2 0.57584927E+00 0.62538959E+04</pdfrwt>
<pdfrwt beam="2">  1       -2 0.40188868E+00 0.62538959E+04</pdfrwt>
<totfact> 0.25767442E-03</totfact>
</mgrwt>
</event>
<event>
11    1  0.6018668E-013  0.6188752E+04  0.7818608E-02  0.7667429E-01
          2   -1    0    0  501    0  0.00000000000E+00  0.00000000000E+00  0.29014273303E+04  0.29014273303E+04  0.00000000000E+00 0. -1.
         -2   -1    0    0    0  501 -0.00000000000E+00 -0.00000000000E+00 -0.33001558033E+04  0.33001558033E+04  0.00000000000E+00 0.  1.
    9900016    2    1    2    0    0  0.13365987598E+04 -0.71745149110E+02  0.20069024384E+03  0.25843433268E+04  0.22015699502E+04 0.  0.
        -24    2    3    3    0    0 -0.19066842694E+03  0.56005245976E+03 -0.46302655924E+03  0.75702533398E+03  0.93169496150E+02 0.  0.
        -15    1    1    2    0    0 -0.13115588906E+04 -0.32365660420E+03 -0.18233252295E+04  0.22692411096E+04  0.00000000000E+00 0.  1.
        -15    1    3    3    0    0  0.94619995466E+03 -0.38678251971E+03  0.60410187354E+03  0.11873643692E+04  0.00000000000E+00 0.  1.
         15    1    4    4    0    0 -0.73747509786E+02  0.20241356164E+03 -0.11366603049E+03  0.24357732165E+03  0.00000000000E+00 0. -1.
         15    1    1    2    0    0 -0.19143066562E+03  0.24399900035E+03  0.91302474281E+03  0.96425898642E+03  0.00000000000E+00 0. -1.
        -16    1    4    4    0    0 -0.11692091716E+03  0.35763889812E+03 -0.34936052875E+03  0.51344801233E+03  0.00000000000E+00 0.  1.
         16    1    1    2    0    0  0.16639079638E+03  0.15140275296E+03  0.31088176987E+03  0.38373971070E+03  0.00000000000E+00 0. -1.
    9900018    1    3    3    0    0  0.58106723210E+03 -0.24501508916E+03  0.59614929538E+02  0.63995362359E+03  0.91187600000E+02 0.  0.
<mgrwt>
<rscale>  0 0.61887518E+04</rscale>
<asrwt>0</asrwt>
<pdfrwt beam="1">  1        2 0.44637344E+00 0.61887518E+04</pdfrwt>
<pdfrwt beam="2">  1       -2 0.50771628E+00 0.61887518E+04</pdfrwt>
<totfact> 0.19932976E-03</totfact>
</mgrwt>
</event>
<event>
10    1  0.6018669E-013  0.3920384E+04  0.7818608E-02  0.8020803E-01
          2   -1    0    0  501    0  0.00000000000E+00  0.00000000000E+00  0.29061894530E+04  0.29061894530E+04  0.00000000000E+00 0. -1.
         -2   -1    0    0    0  501 -0.00000000000E+00 -0.00000000000E+00 -0.13221275550E+04  0.13221275550E+04  0.00000000000E+00 0.  1.
    9900016    2    1    2    0    0  0.13452519639E+03  0.10667445295E+04  0.10546793879E+04  0.26638536792E+04  0.21972088869E+04 0.  0.
        -15    1    3    3    0    0  0.70117996709E+03  0.54967736853E+03  0.17019760653E+02  0.89111628196E+03  0.00000000000E+00 0.  1.
        -15    1    1    2    0    0  0.30060418083E+03 -0.23521462118E+03  0.45966856059E+03  0.59748136134E+03  0.00000000000E+00 0.  1.
         15    1    3    3    0    0 -0.25825346406E+03  0.28683916654E+03  0.78569099484E+03  0.87537529011E+03  0.00000000000E+00 0. -1.
         15    1    1    2    0    0 -0.14134921086E+03 -0.19644511765E+03 -0.73104980374E+02  0.25281341304E+03  0.00000000000E+00 0. -1.
        -16    1    3    3    0    0 -0.17176255020E+03  0.21794782336E+03  0.51615801744E+03  0.58602280359E+03  0.00000000000E+00 0.  1.
         16    1    1    2    0    0 -0.29378016637E+03 -0.63508479068E+03  0.14281892989E+03  0.71416855451E+03  0.00000000000E+00 0. -1.
    9900018    1    3    3    0    0 -0.13663875643E+03  0.12280171084E+02 -0.26418938499E+03  0.31133930349E+03  0.91187600000E+02 0.  0.
<mgrwt>
<rscale>  0 0.39203842E+04</rscale>
<asrwt>0</asrwt>
<pdfrwt beam="1">  1        2 0.44710607E+00 0.39203842E+04</pdfrwt>
<pdfrwt beam="2">  1       -2 0.20340424E+00 0.39203842E+04</pdfrwt>
<totfact> 0.19968431E-01</totfact>
</mgrwt>
</event>
<event>
11    1  0.6018668E-013  0.4608705E+04  0.7818608E-02  0.7891877E-01
         -2   -1    0    0    0  501 -0.00000000000E+00  0.00000000000E+00  0.24593790646E+04  0.24593790646E+04  0.00000000000E+00 0.  1.
          2   -1    0    0  501    0  0.00000000000E+00 -0.00000000000E+00 -0.21590975992E+04  0.21590975992E+04  0.00000000000E+00 0. -1.
    9900016    2    1    2    0    0 -0.37765177290E+03 -0.91860135868E+03  0.24350928090E+03  0.24208868595E+04  0.21942987715E+04 0.  0.
        -24    2    3    3    0    0  0.17348141863E+03 -0.72990627991E+03  0.98853413980E+03  0.12444863036E+04  0.93206407196E+02 0.  0.
        -15    1    1    2    0    0  0.50022654282E+03 -0.46706391977E+03  0.25312821992E+03  0.72969116413E+03  0.00000000000E+00 0.  1.
        -15    1    3    3    0    0 -0.66730707128E+02 -0.15810424857E+03 -0.65155278904E+03  0.67377368426E+03  0.00000000000E+00 0.  1.
         15    1    1    2    0    0  0.72277089775E+02  0.40479036913E+03  0.10322014489E+03  0.42395001941E+03  0.00000000000E+00 0. -1.
         15    1    4    4    0    0  0.17566429883E+03 -0.60410964717E+03  0.84744329582E+03  0.10554461385E+04  0.00000000000E+00 0. -1.
        -16    1    4    4    0    0 -0.21828802008E+01 -0.12579663273E+03  0.14109084398E+03  0.18904016512E+03  0.00000000000E+00 0.  1.
         16    1    1    2    0    0 -0.19485185969E+03  0.98087490932E+03 -0.29957618027E+03  0.10439486207E+04  0.00000000000E+00 0. -1.
    9900018    1    3    3    0    0 -0.48440248441E+03 -0.30590830199E+02 -0.93472069854E+02  0.50262687157E+03  0.91187600000E+02 0.  0.
<mgrwt>
<rscale>  0 0.46087046E+04</rscale>
<asrwt>0</asrwt>
<pdfrwt beam="1">  1        2 0.33216886E+00 0.46087046E+04</pdfrwt>
<pdfrwt beam="2">  1       -2 0.37836601E+00 0.46087046E+04</pdfrwt>
<totfact> 0.41953092E-02</totfact>
</mgrwt>
</event>
<event>
11    1  0.6018668E-013  0.4038572E+04  0.7818608E-02  0.7996810E-01
         -2   -1    0    0    0  501 -0.00000000000E+00  0.00000000000E+00  0.12765229841E+04  0.12765229841E+04  0.00000000000E+00 0.  1.
          2   -1    0    0  501    0  0.00000000000E+00 -0.00000000000E+00 -0.31942359813E+04  0.31942359813E+04  0.00000000000E+00 0. -1.
    9900016    2    1    2    0    0 -0.66919701774E+03  0.12466117969E+03 -0.12572393815E+04  0.26174220402E+04  0.21924603111E+04 0.  0.
        -24    2    3    3    0    0 -0.44039312722E+03 -0.59317798585E+02  0.54991500518E+03  0.70968991914E+03  0.61551284903E+02 0.  0.
        -15    1    3    3    0    0 -0.26510550818E+03  0.27580854828E+03 -0.16789578467E+04  0.17219903416E+04  0.00000000000E+00 0.  1.
        -15    1    1    2    0    0  0.20233064757E+03 -0.65702678304E+03 -0.35625840477E+03  0.77430093346E+03  0.00000000000E+00 0.  1.
         15    1    1    2    0    0  0.37792407400E+03 -0.14445384892E+02  0.10241722308E+03  0.39182210560E+03  0.00000000000E+00 0. -1.
         15    1    4    4    0    0 -0.34024612715E+02  0.87672539331E+01  0.29269778262E+02  0.45730284620E+02  0.00000000000E+00 0. -1.
        -16    1    4    4    0    0 -0.40636851450E+03 -0.68085052518E+02  0.52064522691E+03  0.66395963452E+03  0.00000000000E+00 0.  1.
         16    1    1    2    0    0  0.88942296166E+02  0.54681098825E+03 -0.40663243399E+03  0.68721388613E+03  0.00000000000E+00 0. -1.
    9900018    1    3    3    0    0  0.36301617652E+02 -0.91829570001E+02 -0.12819654000E+03  0.18574177945E+03  0.91187600000E+02 0.  0.
<mgrwt>
<rscale>  0 0.40385718E+04</rscale>
<asrwt>0</asrwt>
<pdfrwt beam="1">  1        2 0.49142092E+00 0.40385718E+04</pdfrwt>
<pdfrwt beam="2">  1       -2 0.19638815E+00 0.40385718E+04</pdfrwt>
<totfact> 0.14439198E-01</totfact>
</mgrwt>
</event>
<event>
11    1  0.6018668E-013  0.3542511E+04  0.7818608E-02  0.8238270E-01
         -2   -1    0    0    0  501 -0.00000000000E+00  0.00000000000E+00  0.34880558215E+04  0.34880558215E+04  0.00000000000E+00 0.  1.
          2   -1    0    0  501    0  0.00000000000E+00 -0.00000000000E+00 -0.24229647356E+04  0.24229647356E+04  0.00000000000E+00 0. -1.
    9900016    2    1    2    0    0  0.20253322000E+03 -0.26745211454E+03 -0.71309746719E+03  0.23404957570E+04  0.22038289526E+04 0.  0.
         24    2    3    3    0    0  0.13677542998E+02 -0.76082856127E+03 -0.40983818391E+03  0.87001500237E+03  0.99556981279E+02 0.  0.
        -15    1    1    2    0    0 -0.34478137628E+03 -0.18669002745E+03  0.45682240762E+03  0.60200836862E+03  0.00000000000E+00 0.  1.
        -15    1    4    4    0    0 -0.40296473202E+02 -0.46253004448E+03 -0.25034403213E+03  0.52747510105E+03  0.00000000000E+00 0.  1.
         15    1    3    3    0    0  0.40215585882E+03  0.34639466819E+03 -0.76627780157E+03  0.93214820180E+03  0.00000000000E+00 0. -1.
         15    1    1    2    0    0 -0.67218479494E+03  0.12913154841E+04  0.96806271649E+03  0.17482772952E+04  0.00000000000E+00 0. -1.
        -16    1    1    2    0    0  0.81443295121E+03 -0.83717334209E+03  0.35330342900E+03  0.12202391363E+04  0.00000000000E+00 0.  1.
         16    1    4    4    0    0  0.53974016199E+02 -0.29829851679E+03 -0.15949415178E+03  0.34253990132E+03  0.00000000000E+00 0. -1.
    9900018    1    3    3    0    0 -0.21330018182E+03  0.14698177854E+03  0.46301851830E+03  0.53833255286E+03  0.91187600000E+02 0.  0.
<mgrwt>
<rscale>  0 0.30191985E+04</rscale>
<asrwt>0</asrwt>
<pdfrwt beam="1">  1        2 0.37276381E+00 0.35425106E+04</pdfrwt>
<pdfrwt beam="2">  1       -2 0.53662397E+00 0.35425106E+04</pdfrwt>
<totfact> 0.29731839E-03</totfact>
</mgrwt>
</event>
<event>
10    1  0.6820559E-013  0.5688363E+04  0.7818608E-02  0.7730289E-01
         -2   -1    0    0    0  501 -0.00000000000E+00  0.00000000000E+00  0.24347914628E+04  0.24347914628E+04  0.00000000000E+00 0. -1.
          2   -1    0    0  501    0  0.00000000000E+00 -0.00000000000E+00 -0.33224075385E+04  0.33224075385E+04  0.00000000000E+00 0.  1.
    9900016    2    1    2    0    0 -0.19408017973E+03  0.76714559410E+03  0.51021322249E+02  0.23624665084E+04  0.22254135232E+04 0.  0.
        -15    1    3    3    0    0 -0.51520386664E+03 -0.10487054983E+03 -0.22064347858E+03  0.57018979390E+03  0.00000000000E+00 0.  1.
        -15    1    1    2    0    0  0.67235512372E+03  0.29844743594E+03 -0.29878585374E+03  0.79398064889E+03  0.00000000000E+00 0.  1.
         15    1    1    2    0    0 -0.89866716144E+03 -0.10044854294E+04  0.45805948322E+03  0.14235210343E+04  0.00000000000E+00 0. -1.
         15    1    3    3    0    0  0.62513411849E+03  0.89147866345E+03  0.28829604312E+03  0.11263398608E+04  0.00000000000E+00 0. -1.
        -16    1    1    2    0    0  0.42039221745E+03 -0.61107600603E+02 -0.10979110274E+04  0.11772308098E+04  0.00000000000E+00 0.  1.
         16    1    3    3    0    0 -0.40157787801E+03 -0.12053244782E+03 -0.15670239531E+03  0.44760306498E+03  0.00000000000E+00 0. -1.
    9900018    1    3    3    0    0  0.97567446425E+02  0.10106992830E+03  0.14007115302E+03  0.21833378875E+03  0.91187600000E+02 0.  0.
<mgrwt>
<rscale>  0 0.56883634E+04</rscale>
<asrwt>0</asrwt>
<pdfrwt beam="1">  1        2 0.51113962E+00 0.56883634E+04</pdfrwt>
<pdfrwt beam="2">  1       -2 0.37458330E+00 0.56883634E+04</pdfrwt>
<totfact> 0.80425237E-03</totfact>
</mgrwt>
</event>
<event>
11    1  0.6018668E-013  0.6018430E+04  0.7818608E-02  0.7688121E-01
          2   -1    0    0  501    0  0.00000000000E+00  0.00000000000E+00  0.35392483651E+04  0.35392483651E+04  0.00000000000E+00 0.  1.
         -2   -1    0    0    0  501 -0.00000000000E+00 -0.00000000000E+00 -0.25585591602E+04  0.25585591602E+04  0.00000000000E+00 0. -1.
    9900016    2    1    2    0    0  0.91473462228E+03  0.14010282998E+04  0.11843355119E+04  0.30053481604E+04  0.21976913419E+04 0.  0.
        -24    2    3    3    0    0  0.10115003567E+04  0.70771964883E+03  0.93917315895E+02  0.12424510834E+04  0.10423127917E+03 0.  0.
        -15    1    3    3    0    0 -0.82344136166E+02  0.38843495589E+03  0.13146758519E+04  0.13733298465E+04  0.00000000000E+00 0.  1.
        -15    1    1    2    0    0 -0.29005207088E+03 -0.21681634028E+02  0.81836641354E+03  0.86851821160E+03  0.00000000000E+00 0.  1.
         15    1    1    2    0    0 -0.47443119445E+03 -0.15755212629E+04 -0.63275557863E+03  0.17628760111E+04  0.00000000000E+00 0. -1.
         15    1    4    4    0    0  0.17485754218E+03  0.76613795540E+02  0.12734209453E+02  0.19132954246E+03  0.00000000000E+00 0. -1.
        -16    1    4    4    0    0  0.83664281448E+03  0.63110585329E+03  0.81183106442E+02  0.10511215410E+04  0.00000000000E+00 0.  1.
         16    1    1    2    0    0 -0.15025135696E+03  0.19617459713E+03 -0.38925714196E+03  0.46106514224E+03  0.00000000000E+00 0. -1.
    9900018    1    3    3    0    0 -0.14421598219E+02  0.30487369508E+03 -0.22425765590E+03  0.38956723049E+03  0.91187600000E+02 0.  0.
<mgrwt>
<rscale>  0 0.60184305E+04</rscale>
<asrwt>0</asrwt>
<pdfrwt beam="1">  1        2 0.54449975E+00 0.60184305E+04</pdfrwt>
<pdfrwt beam="2">  1       -2 0.39362449E+00 0.60184305E+04</pdfrwt>
<totfact> 0.41834161E-03</totfact>
</mgrwt>
</event>
<event>
11    1  0.6018668E-013  0.5392263E+04  0.7818608E-02  0.7770690E-01
         -2   -1    0    0    0  501 -0.00000000000E+00  0.00000000000E+00  0.22275595616E+04  0.22275595616E+04  0.00000000000E+00 0. -1.
          2   -1    0    0  501    0  0.00000000000E+00 -0.00000000000E+00 -0.32632679681E+04  0.32632679681E+04  0.00000000000E+00 0.  1.
    9900016    2    1    2    0    0  0.18252914110E+03  0.12776844538E+03 -0.59704867058E+03  0.22862544735E+04  0.21956435821E+04 0.  0.
        -24    2    3    3    0    0 -0.20286682721E+03  0.74728545199E+03 -0.64520130960E+03  0.10122344150E+04  0.93505532310E+02 0.  0.
        -15    1    3    3    0    0 -0.66232468306E+02 -0.63537609567E+03 -0.29071772973E+03  0.70185918900E+03  0.00000000000E+00 0.  1.
        -15    1    1    2    0    0 -0.69093845290E+02 -0.69543270428E+03 -0.11941534653E+04  0.13836195664E+04  0.00000000000E+00 0.  1.
         15    1    1    2    0    0  0.30004541659E+03  0.10086040996E+04  0.48780281674E+03  0.11598539002E+04  0.00000000000E+00 0. -1.
         15    1    4    4    0    0 -0.13906209788E+03  0.40110293661E+03 -0.30533014585E+03  0.52292287269E+03  0.00000000000E+00 0. -1.
        -16    1    4    4    0    0 -0.63804729328E+02  0.34618251539E+03 -0.33987116375E+03  0.48931154226E+03  0.00000000000E+00 0.  1.
         16    1    1    2    0    0 -0.41348071241E+03 -0.44093984071E+03  0.26769091273E+03  0.66109958964E+03  0.00000000000E+00 0. -1.
    9900018    1    3    3    0    0  0.45162843661E+03  0.15859089051E+02  0.33887036875E+03  0.57216086958E+03  0.91187600000E+02 0.  0.
<mgrwt>
<rscale>  0 0.53922625E+04</rscale>
<asrwt>0</asrwt>
<pdfrwt beam="1">  1        2 0.50204122E+00 0.53922625E+04</pdfrwt>
<pdfrwt beam="2">  1       -2 0.34270147E+00 0.53922625E+04</pdfrwt>
<totfact> 0.14365927E-02</totfact>
</mgrwt>
</event>
<event>
11    1  0.6018668E-013  0.3289614E+04  0.7818608E-02  0.8347816E-01
         -2   -1    0    0    0  501 -0.00000000000E+00  0.00000000000E+00  0.14358017890E+04  0.14358017890E+04  0.00000000000E+00 0.  1.
          2   -1    0    0  501    0  0.00000000000E+00 -0.00000000000E+00 -0.40013087069E+04  0.40013087069E+04  0.00000000000E+00 0. -1.
    9900016    2    1    2    0    0  0.56804786189E+03  0.56773471981E+03 -0.15586426389E+04  0.28111814410E+04  0.21973559414E+04 0.  0.
         24    2    3    3    0    0  0.38741398583E+03 -0.63585211673E+03 -0.22327366332E+03  0.78311887617E+03  0.95008077166E+02 0.  0.
        -15    1    1    2    0    0  0.37300729981E+03 -0.19489128722E+03 -0.22617505793E+03  0.47777841765E+03  0.00000000000E+00 0.  1.
        -15    1    4    4    0    0  0.22589605111E+03 -0.37743513335E+03 -0.82957174919E+02  0.44762506483E+03  0.00000000000E+00 0.  1.
         15    1    3    3    0    0  0.16945531534E+03  0.92250035347E+03 -0.14364461373E+04  0.17155464178E+04  0.00000000000E+00 0. -1.
         15    1    1    2    0    0 -0.18149581799E+03 -0.94067644785E+03 -0.65327385755E+02  0.96025026885E+03  0.00000000000E+00 0. -1.
        -16    1    1    2    0    0 -0.75955934371E+03  0.56783301527E+03 -0.71536183530E+03  0.11879003684E+04  0.00000000000E+00 0.  1.
         16    1    4    4    0    0  0.16151793472E+03 -0.25841698338E+03 -0.14031648840E+03  0.33549381134E+03  0.00000000000E+00 0. -1.
    9900018    1    3    3    0    0  0.11178560725E+02  0.28108648307E+03  0.10107716171E+03  0.31251614710E+03  0.91187600000E+02 0.  0.
<mgrwt>
<rscale>  0 0.26608643E+04</rscale>
<asrwt>0</asrwt>
<pdfrwt beam="1">  1        2 0.61558596E+00 0.32896138E+04</pdfrwt>
<pdfrwt beam="2">  1       -2 0.22089258E+00 0.32896138E+04</pdfrwt>
<totfact> 0.26614108E-02</totfact>
</mgrwt>
</event>
<event>
11    1  0.6018668E-013  0.3745071E+04  0.7818608E-02  0.8209656E-01
         -2   -1    0    0    0  501 -0.00000000000E+00  0.00000000000E+00  0.33366185111E+04  0.33366185111E+04  0.00000000000E+00 0.  1.
          2   -1    0    0  501    0  0.00000000000E+00 -0.00000000000E+00 -0.23125207571E+04  0.23125207571E+04  0.00000000000E+00 0. -1.
    9900016    2    1    2    0    0 -0.83742665675E+01  0.36416991430E+03 -0.45290165583E+03  0.22726341952E+04  0.21970563080E+04 0.  0.
        -24    2    3    3    0    0 -0.82042368879E+02  0.48948577991E+03  0.27619433069E+03  0.57051014052E+03  0.53583888492E+02 0.  0.
        -15    1    3    3    0    0  0.50467110024E+03  0.14515180263E+03 -0.99181108902E+03  0.11222527351E+04  0.00000000000E+00 0.  1.
        -15    1    1    2    0    0 -0.61109822072E+03 -0.33744299679E+03  0.85391614252E+03  0.11029422423E+04  0.00000000000E+00 0.  1.
         15    1    4    4    0    0 -0.40162117627E+02  0.18989447504E+03  0.13663625056E+03  0.23736548256E+03  0.00000000000E+00 0. -1.
         15    1    1    2    0    0 -0.28432090494E+03  0.34162319868E+03 -0.57596866447E+03  0.72751954566E+03  0.00000000000E+00 0. -1.
        -16    1    4    4    0    0 -0.41880251252E+02  0.29959130488E+03  0.13955808013E+03  0.33314465797E+03  0.00000000000E+00 0.  1.
         16    1    1    2    0    0  0.90379339223E+03 -0.36835011619E+03  0.11990519318E+04  0.15460432850E+04  0.00000000000E+00 0. -1.
    9900018    1    3    3    0    0 -0.43100299793E+03 -0.27046766825E+03  0.26271510251E+03  0.57987131958E+03  0.91187600000E+02 0.  0.
<mgrwt>
<rscale>  0 0.31222586E+04</rscale>
<asrwt>0</asrwt>
<pdfrwt beam="1">  1        2 0.35577242E+00 0.37450711E+04</pdfrwt>
<pdfrwt beam="2">  1       -2 0.51332592E+00 0.37450711E+04</pdfrwt>
<totfact> 0.46556724E-03</totfact>
</mgrwt>
</event>
<event>
11    1  0.6018668E-013  0.4985563E+04  0.7818608E-02  0.7830738E-01
         -2   -1    0    0    0  501 -0.00000000000E+00  0.00000000000E+00  0.33693719156E+04  0.33693719156E+04  0.00000000000E+00 0. -1.
          2   -1    0    0  501    0  0.00000000000E+00 -0.00000000000E+00 -0.18442485303E+04  0.18442485303E+04  0.00000000000E+00 0.  1.
    9900016    2    1    2    0    0  0.12182003973E+04 -0.16807387366E+03  0.13338279579E+04  0.28593105979E+04  0.22100450309E+04 0.  0.
        -24    2    3    3    0    0 -0.30044004381E+03  0.58179474628E+03  0.48951380502E+03  0.82324239161E+03  0.96720852576E+02 0.  0.
        -15    1    3    3    0    0  0.13943738242E+04 -0.47188777789E+03  0.88187842303E+03  0.17160029107E+04  0.00000000000E+00 0.  1.
        -15    1    1    2    0    0 -0.13545509945E+04  0.81281967980E+03 -0.88836465985E+02  0.15822061010E+04  0.00000000000E+00 0.  1.
         15    1    1    2    0    0 -0.32864624223E+02 -0.19525223192E+03 -0.30185266893E+02  0.20028646467E+03  0.00000000000E+00 0. -1.
         15    1    4    4    0    0 -0.29810109827E+03  0.56475902361E+03  0.45323833419E+03  0.78309769960E+03  0.00000000000E+00 0. -1.
        -16    1    4    4    0    0 -0.23389455347E+01  0.17035722672E+02  0.36275470824E+02  0.40144692011E+02  0.00000000000E+00 0.  1.
         16    1    1    2    0    0  0.16921522133E+03 -0.44949357423E+03  0.31031716022E+03  0.57181728229E+03  0.00000000000E+00 0. -1.
    9900018    1    3    3    0    0  0.12426661696E+03 -0.27798084205E+03 -0.37564270138E+02  0.32006529556E+03  0.91187600000E+02 0.  0.
<mgrwt>
<rscale>  0 0.49855628E+04</rscale>
<asrwt>0</asrwt>
<pdfrwt beam="1">  1        2 0.28373054E+00 0.49855628E+04</pdfrwt>
<pdfrwt beam="2">  1       -2 0.51836491E+00 0.49855628E+04</pdfrwt>
<totfact> 0.76528892E-03</totfact>
</mgrwt>
</event>
