<event>
11    1  0.1758896E-009  0.3126410E+04  0.7818608E-02  0.8413227E-01
         -1   -1    0    0    0  501 -0.00000000000E+00  0.00000000000E+00  0.46895332597E+04  0.46895332597E+04  0.00000000000E+00 0.  1.
          1   -1    0    0  501    0  0.00000000000E+00 -0.00000000000E+00 -0.11515630614E+04  0.11515630614E+04  0.00000000000E+00 0. -1.
    9900016    2    1    2    0    0  0.48785300896E+03 -0.50316886035E+03  0.13198749013E+04  0.26671699919E+04  0.22091959059E+04 0.  0.
         23    2    3    3    0    0 -0.10066376505E+03 -0.75881557675E+02 -0.19505214305E+03  0.24184196704E+03  0.67461056373E+02 0.  0.
        -15    1    1    2    0    0  0.66252203964E+02  0.22275538533E+03  0.39293845121E+03  0.45651937819E+03  0.00000000000E+00 0.  1.
        -15    1    4    4    0    0 -0.15750704028E+02 -0.46746616238E+02 -0.97506273265E+02  0.10927398653E+03  0.00000000000E+00 0. -1.
         15    1    4    4    0    0 -0.84913061023E+02 -0.29134941438E+02 -0.97545869781E+02  0.13256798051E+03  0.00000000000E+00 0.  1.
         15    1    1    2    0    0 -0.36598326326E+03 -0.68996842010E+03  0.18533341640E+03  0.80271330184E+03  0.00000000000E+00 0. -1.
        -16    1    3    3    0    0 -0.22339913723E+03 -0.57632519873E+03 -0.83792735945E+02  0.62376207949E+03  0.00000000000E+00 0.  1.
         16    1    1    2    0    0 -0.18812194967E+03  0.97038189512E+03  0.16398234295E+04  0.19146936492E+04  0.00000000000E+00 0. -1.
    9900018    1    3    3    0    0  0.81191591125E+03  0.14903789606E+03  0.15987197803E+04  0.18015659454E+04  0.91187600000E+02 0.  0.
<mgrwt>
<rscale>  0 0.24714511E+04</rscale>
<asrwt>0</asrwt>
<pdfrwt beam="1">  1        1 0.17716355E+00 0.31264098E+04</pdfrwt>
<pdfrwt beam="2">  1       -1 0.72146665E+00 0.31264098E+04</pdfrwt>
<totfact> 0.15652079E-03</totfact>
</mgrwt>
</event>
<event>
11    1  0.1758896E-009  0.2663968E+04  0.7818608E-02  0.9387299E-01
         -1   -1    0    0    0  501 -0.00000000000E+00  0.00000000000E+00  0.71378162087E+03  0.71378162087E+03  0.00000000000E+00 0.  1.
          1   -1    0    0  501    0  0.00000000000E+00 -0.00000000000E+00 -0.25645996465E+04  0.25645996465E+04  0.00000000000E+00 0. -1.
    9900016    2    1    2    0    0 -0.33975656953E+03  0.19087690674E+03 -0.13478206053E+04  0.26043399687E+04  0.21941052319E+04 0.  0.
         23    2    3    3    0    0  0.86810469667E+02 -0.11940676081E+03  0.50567555937E+03  0.53724551840E+03  0.10550328677E+03 0.  0.
        -15    1    4    4    0    0 -0.45282210880E+01 -0.79257135251E+02  0.18249306642E+03  0.19901235531E+03  0.00000000000E+00 0. -1.
        -15    1    1    2    0    0  0.36384828448E+03 -0.18659607707E+03 -0.45812520685E+03  0.61407033413E+03  0.00000000000E+00 0.  1.
         15    1    4    4    0    0  0.91338690755E+02 -0.40149625561E+02  0.32318249295E+03  0.33823316309E+03  0.00000000000E+00 0.  1.
         15    1    1    2    0    0 -0.31759224294E+02 -0.43545017605E+01 -0.34837439549E+02  0.47341918082E+02  0.00000000000E+00 0. -1.
        -16    1    1    2    0    0  0.76675093428E+01  0.73672086013E-01 -0.10034773909E+02  0.12629046460E+02  0.00000000000E+00 0.  1.
         16    1    3    3    0    0 -0.43748075951E+03  0.29564341854E+03 -0.55782698678E+03  0.76809204725E+03  0.00000000000E+00 0. -1.
    9900018    1    3    3    0    0  0.10913720315E+02  0.14640249013E+02 -0.12956691779E+04  0.12990024031E+04  0.91187600000E+02 0.  0.
<mgrwt>
<rscale>  0 0.93128344E+03</rscale>
<asrwt>0</asrwt>
<pdfrwt beam="1">  1        1 0.39455379E+00 0.26639678E+04</pdfrwt>
<pdfrwt beam="2">  1       -1 0.10981256E+00 0.26639678E+04</pdfrwt>
<totfact> 0.81839562E-01</totfact>
</mgrwt>
</event>
<event>
12    1  0.1758896E-009  0.4090089E+04  0.7818608E-02  0.8320496E-01
          2   -1    0    0  501    0  0.00000000000E+00  0.00000000000E+00  0.30794028299E+04  0.30794028299E+04  0.00000000000E+00 0. -1.
         -2   -1    0    0    0  501 -0.00000000000E+00 -0.00000000000E+00 -0.19652604738E+04  0.19652604738E+04  0.00000000000E+00 0.  1.
         24    2    1    2    0    0 -0.33687992932E+03 -0.75541099472E+03  0.18602553563E+03  0.85059223835E+03  0.69049245608E+02 0.  0.
    9900016    2    1    2    0    0 -0.36567366020E+03  0.29553634365E+03 -0.72548483171E+03  0.23394916885E+04  0.21738983793E+04 0.  0.
         23    2    4    4    0    0 -0.38519474056E+03  0.11225260491E+03 -0.10451691080E+04  0.11244400888E+04  0.10493528248E+03 0.  0.
        -15    1    3    3    0    0 -0.31912368319E+03 -0.69311055784E+03  0.15443748235E+03  0.77851981768E+03  0.00000000000E+00 0.  1.
        -15    1    5    5    0    0 -0.15475671606E+03  0.98227978420E+02 -0.43396574405E+03  0.47108878560E+03  0.00000000000E+00 0.  1.
         15    1    1    2    0    0  0.70255358952E+03  0.45987465107E+03  0.16536016522E+04  0.18545793768E+04  0.00000000000E+00 0. -1.
         15    1    5    5    0    0 -0.23043802449E+03  0.14024626493E+02 -0.61120336391E+03  0.65335130316E+03  0.00000000000E+00 0. -1.
        -16    1    4    4    0    0 -0.25026471644E+03 -0.26069199942E+03  0.53477008119E+03  0.64542372640E+03  0.00000000000E+00 0.  1.
         16    1    3    3    0    0 -0.17756246127E+02 -0.62300436880E+02  0.31588053280E+02  0.72072420675E+02  0.00000000000E+00 0. -1.
    9900018    1    4    4    0    0  0.26978579679E+03  0.44397573816E+03 -0.21508580495E+03  0.56962787336E+03  0.91187600000E+02 0.  0.
<mgrwt>
<rscale>  0 0.27451704E+04</rscale>
<asrwt>0</asrwt>
<pdfrwt beam="1">  1        2 0.47375428E+00 0.40900894E+04</pdfrwt>
<pdfrwt beam="2">  1       -2 0.30234776E+00 0.40900894E+04</pdfrwt>
<totfact> 0.36263747E-02</totfact>
</mgrwt>
</event>
<event>
12    1  0.1758896E-009  0.3689821E+04  0.7818608E-02  0.8374059E-01
         -1   -1    0    0    0  501 -0.00000000000E+00  0.00000000000E+00  0.13286880718E+04  0.13286880718E+04  0.00000000000E+00 0.  1.
          1   -1    0    0  501    0  0.00000000000E+00 -0.00000000000E+00 -0.40196381654E+04  0.40196381654E+04  0.00000000000E+00 0. -1.
        -24    2    1    2    0    0  0.69941824409E+03 -0.54124836009E+03 -0.83782998260E+03  0.12193029523E+04  0.51038634191E+02 0.  0.
    9900016    2    1    2    0    0 -0.16362824443E+03 -0.70670405629E+03 -0.99817547344E+03  0.25242222099E+04  0.22020759895E+04 0.  0.
         23    2    4    4    0    0 -0.53242846410E+03 -0.28609784682E+03  0.43624364583E+03  0.75634839230E+03  0.12814961828E+03 0.  0.
        -15    1    5    5    0    0 -0.31778809655E+02 -0.58103344237E+02  0.64182552102E+02  0.92224136477E+02  0.00000000000E+00 0. -1.
        -15    1    1    2    0    0 -0.53578999966E+03  0.12479524164E+04 -0.85494463758E+03  0.16048010751E+04  0.00000000000E+00 0.  1.
         15    1    5    5    0    0 -0.50064965445E+03 -0.22799450259E+03  0.37206109372E+03  0.66412425582E+03  0.00000000000E+00 0.  1.
         15    1    3    3    0    0  0.23004268512E+03 -0.15075138542E+03 -0.27352238770E+03  0.38789188411E+03  0.00000000000E+00 0. -1.
        -16    1    3    3    0    0  0.46937555897E+03 -0.39049697467E+03 -0.56430759490E+03  0.83141106815E+03  0.00000000000E+00 0.  1.
         16    1    4    4    0    0  0.11395530964E+03  0.20012789781E+03 -0.82605134111E+03  0.85755338389E+03  0.00000000000E+00 0. -1.
    9900018    1    4    4    0    0  0.25484491003E+03 -0.62073410727E+03 -0.60836777815E+03  0.91032043369E+03  0.91187600000E+02 0.  0.
<mgrwt>
<rscale>  0 0.25828236E+04</rscale>
<asrwt>0</asrwt>
<pdfrwt beam="1">  1        1 0.61840586E+00 0.36898210E+04</pdfrwt>
<pdfrwt beam="2">  1       -1 0.20441355E+00 0.36898210E+04</pdfrwt>
<totfact> 0.10080267E-02</totfact>
</mgrwt>
</event>
