<event>
11    1  0.6189650E-015  0.9637002E+03  0.7818608E-02  0.9349279E-01
         -3   -1    0    0    0  501 -0.00000000000E+00  0.00000000000E+00  0.18136803160E+03  0.18136803160E+03  0.00000000000E+00 0.  1.
          3   -1    0    0  501    0  0.00000000000E+00 -0.00000000000E+00 -0.12801567725E+04  0.12801567725E+04  0.00000000000E+00 0. -1.
    9900016    2    1    2    0    0  0.10906697153E+03 -0.11867780377E+03 -0.10742089601E+04  0.12984782126E+04  0.71143569857E+03 0.  0.
         23    2    3    3    0    0 -0.27777426357E+02  0.75097109809E+02 -0.42082755174E+03  0.43783809649E+03  0.90527394293E+02 0.  0.
        -15    1    4    4    0    0 -0.99690215018E+01  0.25155594737E+02 -0.89595511837E+02  0.93592419980E+02  0.00000000000E+00 0.  1.
        -15    1    4    4    0    0  0.20068932093E+02  0.38974861546E+02 -0.24581683278E+03  0.24969524854E+03  0.00000000000E+00 0. -1.
         15    1    4    4    0    0 -0.10956709657E+02  0.72412206246E+01 -0.32780022667E+02  0.35313094579E+02  0.00000000000E+00 0. -1.
         15    1    4    4    0    0 -0.26920627291E+02  0.37254329004E+01 -0.52635184454E+02  0.59237333385E+02  0.00000000000E+00 0.  1.
        -16    1    1    2    0    0 -0.10906697153E+03  0.11867780377E+03 -0.24579780812E+02  0.16304659154E+03  0.00000000000E+00 0.  1.
         16    1    3    3    0    0  0.53454505725E+02 -0.35383977697E+03 -0.42549773209E+03  0.55597508214E+03  0.00000000000E+00 0. -1.
    9900018    1    3    3    0    0  0.83389892166E+02  0.16006486339E+03 -0.22788367625E+03  0.30466503393E+03  0.91187600000E+02 0.  0.
<mgrwt>
<rscale>  0 0.96370019E+03</rscale>
<asrwt>0</asrwt>
<pdfrwt beam="1">  1        3 0.19694719E+00 0.96370019E+03</pdfrwt>
<pdfrwt beam="2">  1       -3 0.27902775E-01 0.96370019E+03</pdfrwt>
<totfact> 0.50389056E+00</totfact>
</mgrwt>
</event>
<event>
11    1  0.6189650E-015  0.9814595E+03  0.7818608E-02  0.9329117E-01
          1   -1    0    0  501    0  0.00000000000E+00  0.00000000000E+00  0.24064506180E+03  0.24064506180E+03  0.00000000000E+00 0. -1.
         -1   -1    0    0    0  501 -0.00000000000E+00 -0.00000000000E+00 -0.10007089976E+04  0.10007089976E+04  0.00000000000E+00 0.  1.
    9900016    2    1    2    0    0 -0.90490697540E+01 -0.18645372742E+03 -0.42922233636E+03  0.86148165708E+03  0.72323713492E+03 0.  0.
         23    2    3    3    0    0  0.15445272939E+03  0.11577382230E+02 -0.48838934895E+03  0.52040925584E+03  0.91169929227E+02 0.  0.
        -15    1    4    4    0    0  0.26070622780E+02  0.24175822507E+02 -0.12947632277E+03  0.13426937821E+03  0.00000000000E+00 0.  1.
        -15    1    4    4    0    0  0.20057900959E+02  0.56514381699E+01 -0.19170791747E+02  0.28315674113E+02  0.00000000000E+00 0. -1.
         15    1    4    4    0    0  0.11402746239E+02 -0.80192055670E+00 -0.64260611626E+02  0.65269379535E+02  0.00000000000E+00 0.  1.
         15    1    4    4    0    0  0.96921459412E+02 -0.17447957891E+02 -0.27548162281E+03  0.29255482398E+03  0.00000000000E+00 0. -1.
        -16    1    1    2    0    0  0.90490697540E+01  0.18645372742E+03 -0.33084159947E+03  0.37987240235E+03  0.00000000000E+00 0.  1.
         16    1    3    3    0    0 -0.13733831733E+03 -0.69053209677E+02 -0.31728071098E+02  0.15696123620E+03  0.00000000000E+00 0. -1.
    9900018    1    3    3    0    0 -0.26163481813E+02 -0.12897789997E+03  0.90895083688E+02  0.18411116504E+03  0.91187600000E+02 0.  0.
<mgrwt>
<rscale>  0 0.98145948E+03</rscale>
<asrwt>0</asrwt>
<pdfrwt beam="1">  1        1 0.37022317E-01 0.98145948E+03</pdfrwt>
<pdfrwt beam="2">  1       -1 0.15395523E+00 0.98145948E+03</pdfrwt>
<totfact> 0.38152369E+01</totfact>
</mgrwt>
</event>
<event>
11    1  0.6189650E-015  0.8356263E+03  0.7818608E-02  0.9509835E-01
         -2   -1    0    0    0  501 -0.00000000000E+00  0.00000000000E+00  0.74049362703E+02  0.74049362703E+02  0.00000000000E+00 0.  1.
          2   -1    0    0  501    0  0.00000000000E+00 -0.00000000000E+00 -0.23574518635E+04  0.23574518635E+04  0.00000000000E+00 0. -1.
    9900016    2    1    2    0    0  0.81965140243E+02 -0.12082318658E+02 -0.17168028088E+04  0.18588761502E+04  0.70791552534E+03 0.  0.
         23    2    3    3    0    0 -0.15994368508E+03 -0.23926477298E+01 -0.18796596659E+03  0.26426380718E+03  0.94426945483E+02 0.  0.
        -15    1    4    4    0    0 -0.33283000581E+02  0.13623564295E+02 -0.18753540677E+02  0.40559276617E+02  0.00000000000E+00 0.  1.
        -15    1    4    4    0    0 -0.28681252866E+02  0.55378976823E+01 -0.71275451178E+02  0.77029036845E+02  0.00000000000E+00 0.  1.
         15    1    4    4    0    0 -0.24664538576E+02 -0.25873307320E+02 -0.32210738843E+02  0.48117555961E+02  0.00000000000E+00 0. -1.
         15    1    4    4    0    0 -0.73314893052E+02  0.43191976123E+01 -0.65726235887E+02  0.98557937758E+02  0.00000000000E+00 0. -1.
        -16    1    3    3    0    0  0.17520337586E+03 -0.14683462068E+03 -0.49014670469E+03  0.54083308041E+03  0.00000000000E+00 0.  1.
         16    1    1    2    0    0 -0.81965140243E+02  0.12082318658E+02 -0.56659969202E+03  0.57262507597E+03  0.00000000000E+00 0. -1.
    9900018    1    3    3    0    0  0.66705449461E+02  0.13714494976E+03 -0.10386901375E+04  0.10537792626E+04  0.91187600000E+02 0.  0.
<mgrwt>
<rscale>  0 0.83562625E+03</rscale>
<asrwt>0</asrwt>
<pdfrwt beam="1">  1        2 0.36268488E+00 0.83562625E+03</pdfrwt>
<pdfrwt beam="2">  1       -2 0.11392210E-01 0.83562625E+03</pdfrwt>
<totfact> 0.23912663E+02</totfact>
</mgrwt>
</event>
<event>
11    1  0.6189650E-015  0.1254892E+04  0.7818608E-02  0.9066121E-01
         -2   -1    0    0    0  501 -0.00000000000E+00  0.00000000000E+00  0.67325939612E+03  0.67325939612E+03  0.00000000000E+00 0. -1.
          2   -1    0    0  501    0  0.00000000000E+00 -0.00000000000E+00 -0.58475034896E+03  0.58475034896E+03  0.00000000000E+00 0.  1.
    9900016    2    1    2    0    0  0.21992657929E+03  0.11764848097E+03 -0.29230040653E+03  0.80279034152E+03  0.70485738943E+03 0.  0.
         23    2    3    3    0    0 -0.41493377830E+02  0.34321317233E+02 -0.28165836107E+03  0.30067400538E+03  0.90408915084E+02 0.  0.
        -15    1    4    4    0    0  0.17854114586E+01  0.10228154305E+02 -0.55746966513E+02  0.56705617976E+02  0.00000000000E+00 0.  1.
        -15    1    4    4    0    0 -0.20060314937E+02 -0.20076290048E+01 -0.65975152455E+02  0.68986720106E+02  0.00000000000E+00 0.  1.
         15    1    4    4    0    0  0.11861837349E+02  0.28285558914E+02 -0.10799128916E+03  0.11226261427E+03  0.00000000000E+00 0. -1.
         15    1    4    4    0    0 -0.35080311702E+02 -0.21847669811E+01 -0.51944952944E+02  0.62719053024E+02  0.00000000000E+00 0. -1.
        -16    1    1    2    0    0 -0.21992657929E+03 -0.11764848097E+03  0.38080945370E+03  0.45521940356E+03  0.00000000000E+00 0.  1.
         16    1    3    3    0    0  0.43468752242E+02  0.10875491099E+03  0.16802635372E+03  0.20481703696E+03  0.00000000000E+00 0. -1.
    9900018    1    3    3    0    0  0.21795120488E+03 -0.25427747248E+02 -0.17866839918E+03  0.29729929918E+03  0.91187600000E+02 0.  0.
<mgrwt>
<rscale>  0 0.12548923E+04</rscale>
<asrwt>0</asrwt>
<pdfrwt beam="1">  1        2 0.89961592E-01 0.12548923E+04</pdfrwt>
<pdfrwt beam="2">  1       -2 0.10357837E+00 0.12548923E+04</pdfrwt>
<totfact> 0.38212492E+01</totfact>
</mgrwt>
</event>
<event>
11    1  0.6189650E-015  0.1262872E+04  0.7818608E-02  0.9059538E-01
          2   -1    0    0  501    0  0.00000000000E+00  0.00000000000E+00  0.48715291067E+03  0.48715291067E+03  0.00000000000E+00 0.  1.
         -2   -1    0    0    0  501 -0.00000000000E+00 -0.00000000000E+00 -0.81845220479E+03  0.81845220479E+03  0.00000000000E+00 0. -1.
    9900016    2    1    2    0    0 -0.37721932996E+03 -0.69978186597E+02 -0.42370994914E+03  0.91097731784E+03  0.70933643861E+03 0.  0.
         23    2    3    3    0    0  0.15003619208E+03  0.11513505390E+02 -0.11002079734E+03  0.20869397663E+03  0.93835922208E+02 0.  0.
        -15    1    4    4    0    0  0.24378176793E+02  0.20291830995E+02 -0.28245484728E+01  0.31843868844E+02  0.00000000000E+00 0.  1.
        -15    1    4    4    0    0  0.63554170987E+02  0.89322844873E+01 -0.36152619846E+02  0.73660914180E+02  0.00000000000E+00 0.  1.
         15    1    4    4    0    0  0.37736256050E+02 -0.29323348941E+02 -0.43479987836E+02  0.64609543846E+02  0.00000000000E+00 0. -1.
         15    1    4    4    0    0  0.24367588245E+02  0.11612738848E+02 -0.27563641187E+02  0.38579649764E+02  0.00000000000E+00 0. -1.
        -16    1    1    2    0    0  0.37721932996E+03  0.69978186597E+02  0.92410655014E+02  0.39462779762E+03  0.00000000000E+00 0.  1.
         16    1    3    3    0    0 -0.24947645422E+03  0.11639355330E+03 -0.13642472698E+03  0.30724203259E+03  0.00000000000E+00 0. -1.
    9900018    1    3    3    0    0 -0.27777906782E+03 -0.19788524528E+03 -0.17726442482E+03  0.39504130862E+03  0.91187600000E+02 0.  0.
<mgrwt>
<rscale>  0 0.12628719E+04</rscale>
<asrwt>0</asrwt>
<pdfrwt beam="1">  1        2 0.74946602E-01 0.12628719E+04</pdfrwt>
<pdfrwt beam="2">  1       -2 0.12591572E+00 0.12628719E+04</pdfrwt>
<totfact> 0.29348374E+01</totfact>
</mgrwt>
</event>
<event>
11    1  0.6189650E-015  0.1049196E+04  0.7818608E-02  0.9256175E-01
          2   -1    0    0  501    0  0.00000000000E+00  0.00000000000E+00  0.33905936464E+03  0.33905936464E+03  0.00000000000E+00 0. -1.
         -2   -1    0    0    0  501 -0.00000000000E+00 -0.00000000000E+00 -0.81166553459E+03  0.81166553459E+03  0.00000000000E+00 0.  1.
    9900016    2    1    2    0    0 -0.17231283186E+03  0.13931223613E+03 -0.14884014765E+03  0.75839334512E+03  0.70986439917E+03 0.  0.
         23    2    3    3    0    0 -0.19747309169E+03  0.55416459635E+02 -0.20726626902E+03  0.30531909981E+03  0.90519834828E+02 0.  0.
        -15    1    4    4    0    0  0.78160352167E+00  0.16889147734E+02 -0.18820639466E+02  0.25299618281E+02  0.00000000000E+00 0. -1.
        -15    1    4    4    0    0 -0.24244907485E+02  0.17021226743E+02 -0.27997603473E+02  0.40760317700E+02  0.00000000000E+00 0.  1.
         15    1    4    4    0    0 -0.16193247489E+03  0.26802302709E+02 -0.14569253641E+03  0.21946937149E+03  0.00000000000E+00 0.  1.
         15    1    4    4    0    0 -0.12077312832E+02 -0.52962175507E+01 -0.14755489670E+02  0.19789792343E+02  0.00000000000E+00 0. -1.
        -16    1    1    2    0    0  0.17231283186E+03 -0.13931223613E+03 -0.32376602230E+03  0.39233155411E+03  0.00000000000E+00 0.  1.
         16    1    3    3    0    0 -0.17238529035E+03  0.46224587302E+02  0.13016590809E+03  0.22089944416E+03  0.00000000000E+00 0. -1.
    9900018    1    3    3    0    0  0.19754555019E+03  0.37671189189E+02 -0.71739786720E+02  0.23217480114E+03  0.91187600000E+02 0.  0.
<mgrwt>
<rscale>  0 0.10491955E+04</rscale>
<asrwt>0</asrwt>
<pdfrwt beam="1">  1        2 0.52162980E-01 0.10491955E+04</pdfrwt>
<pdfrwt beam="2">  1       -2 0.12487162E+00 0.10491955E+04</pdfrwt>
<totfact> 0.45811484E+01</totfact>
</mgrwt>
</event>
<event>
12    1  0.6189650E-015  0.1213817E+04  0.7818608E-02  0.9100848E-01
         -2   -1    0    0    0  501 -0.00000000000E+00  0.00000000000E+00  0.21816305712E+03  0.21816305712E+03  0.00000000000E+00 0.  1.
          2   -1    0    0  501    0  0.00000000000E+00 -0.00000000000E+00 -0.16883599862E+04  0.16883599862E+04  0.00000000000E+00 0. -1.
    9900016    2    1    2    0    0  0.32367522313E+02 -0.25699047922E+03 -0.51599851942E+03  0.91779336948E+03  0.71344126185E+03 0.  0.
         23    2    3    3    0    0  0.12745525804E+03  0.46664958721E+02 -0.22429554568E+03  0.27684579778E+03  0.88953036827E+02 0.  0.
         23    2    4    4    0    0  0.94242178696E+02  0.36092560666E+02 -0.18348155071E+03  0.21773684448E+03  0.59662323217E+02 0.  0.
        -15    1    5    5    0    0  0.74551945911E+02  0.29710272603E+02 -0.84197692054E+02  0.11631828869E+03  0.00000000000E+00 0. -1.
        -15    1    4    4    0    0  0.14031367107E+02  0.80718586185E+01 -0.27606884858E+01  0.16421192568E+02  0.00000000000E+00 0. -1.
         15    1    4    4    0    0  0.19181712241E+02  0.25005394364E+01 -0.38053306488E+02  0.42687760736E+02  0.00000000000E+00 0.  1.
         15    1    5    5    0    0  0.19690232785E+02  0.63822880628E+01 -0.99283858654E+02  0.10141855578E+03  0.00000000000E+00 0.  1.
        -16    1    3    3    0    0  0.70642656838E+02 -0.23640615324E+03 -0.35332078843E+03  0.43094527934E+03  0.00000000000E+00 0.  1.
         16    1    1    2    0    0 -0.32367522313E+02  0.25699047922E+03 -0.95419840962E+03  0.98872967378E+03  0.00000000000E+00 0. -1.
    9900018    1    3    3    0    0 -0.16573039257E+03 -0.67249284703E+02  0.61617814692E+02  0.21000229236E+03  0.91187600000E+02 0.  0.
<mgrwt>
<rscale>  0 0.12138168E+04</rscale>
<asrwt>0</asrwt>
<pdfrwt beam="1">  1        2 0.25974769E+00 0.12138168E+04</pdfrwt>
<pdfrwt beam="2">  1       -2 0.33563547E-01 0.12138168E+04</pdfrwt>
<totfact> 0.81426159E+01</totfact>
</mgrwt>
</event>
<event>
11    1  0.6189650E-015  0.8138624E+03  0.7818608E-02  0.9540166E-01
          2   -1    0    0  501    0  0.00000000000E+00  0.00000000000E+00  0.17993439963E+04  0.17993439963E+04  0.00000000000E+00 0. -1.
         -2   -1    0    0    0  501 -0.00000000000E+00 -0.00000000000E+00 -0.92029650432E+02  0.92029650432E+02  0.00000000000E+00 0.  1.
    9900016    2    1    2    0    0  0.10002091652E+03 -0.23246882373E+02  0.15244564673E+04  0.16816557289E+04  0.70246271699E+03 0.  0.
         23    2    3    3    0    0 -0.21843416663E+03  0.66929429851E+02  0.25179973461E+03  0.35205795050E+03  0.91371004297E+02 0.  0.
        -15    1    4    4    0    0 -0.57124949436E+01  0.14123390252E+02  0.26124005116E+02  0.30241798788E+02  0.00000000000E+00 0.  1.
        -15    1    4    4    0    0 -0.16232483163E+02 -0.86545805408E+01  0.26375249607E+02  0.32156633310E+02  0.00000000000E+00 0.  1.
         15    1    4    4    0    0 -0.57128562544E+02  0.36567047562E+02  0.53009900451E+02  0.86086416882E+02  0.00000000000E+00 0. -1.
         15    1    4    4    0    0 -0.13936062598E+03  0.24893572578E+02  0.14629057944E+03  0.20357310152E+03  0.00000000000E+00 0. -1.
        -16    1    1    2    0    0 -0.10002091652E+03  0.23246882373E+02  0.18285787859E+03  0.20971791780E+03  0.00000000000E+00 0.  1.
         16    1    3    3    0    0  0.26548191315E+03 -0.49085125256E+02  0.83612919269E+03  0.87863645645E+03  0.00000000000E+00 0. -1.
    9900018    1    3    3    0    0  0.52973170001E+02 -0.41091186968E+02  0.43652753998E+03  0.45096132200E+03  0.91187600000E+02 0.  0.
<mgrwt>
<rscale>  0 0.81386239E+03</rscale>
<asrwt>0</asrwt>
<pdfrwt beam="1">  1        2 0.27682213E+00 0.81386239E+03</pdfrwt>
<pdfrwt beam="2">  1       -2 0.14158409E-01 0.81386239E+03</pdfrwt>
<totfact> 0.33831243E+02</totfact>
</mgrwt>
</event>
<event>
12    1  0.6189650E-015  0.1395958E+04  0.7818608E-02  0.8956749E-01
          1   -1    0    0  501    0  0.00000000000E+00  0.00000000000E+00  0.72407896349E+03  0.72407896349E+03  0.00000000000E+00 0. -1.
         -1   -1    0    0    0  501 -0.00000000000E+00 -0.00000000000E+00 -0.67281990477E+03  0.67281990477E+03  0.00000000000E+00 0.  1.
    9900016    2    1    2    0    0 -0.15765257448E+03 -0.42349355129E+03  0.28310101094E+03  0.88900930050E+03  0.71132990360E+03 0.  0.
         23    2    3    3    0    0 -0.52309555786E+02 -0.41802895944E+02  0.26294509932E-01  0.11347236080E+03  0.91608974658E+02 0.  0.
         23    2    4    4    0    0 -0.52759312733E+02 -0.19687197722E+02 -0.65331159067E+01  0.79579592052E+02  0.55848894650E+02 0.  0.
        -15    1    4    4    0    0  0.10031251773E+02 -0.84613619299E+01 -0.45062485325E+01  0.13875407514E+02  0.00000000000E+00 0.  1.
        -15    1    5    5    0    0  0.11777270721E+02 -0.80910819631E+00 -0.33148862113E+01  0.12261616219E+02  0.00000000000E+00 0. -1.
         15    1    5    5    0    0 -0.64536583453E+02 -0.18878089526E+02 -0.32182296954E+01  0.67317975834E+02  0.00000000000E+00 0.  1.
         15    1    4    4    0    0 -0.95814948267E+01 -0.13654336292E+02  0.11065658949E+02  0.20017361232E+02  0.00000000000E+00 0. -1.
        -16    1    1    2    0    0  0.15765257448E+03  0.42349355129E+03 -0.23184195221E+03  0.50788956775E+03  0.00000000000E+00 0.  1.
         16    1    3    3    0    0  0.32534979384E+02  0.99808687751E+02  0.24320407904E+03  0.26489341837E+03  0.00000000000E+00 0. -1.
    9900018    1    3    3    0    0 -0.13787799808E+03 -0.48149934310E+03  0.39870637384E+02  0.51064352133E+03  0.91187600000E+02 0.  0.
<mgrwt>
<rscale>  0 0.13959581E+04</rscale>
<asrwt>0</asrwt>
<pdfrwt beam="1">  1        1 0.11139676E+00 0.13959581E+04</pdfrwt>
<pdfrwt beam="2">  1       -1 0.10351075E+00 0.13959581E+04</pdfrwt>
<totfact> 0.22216114E+01</totfact>
</mgrwt>
</event>
<event>
11    1  0.6189650E-015  0.7490151E+03  0.7818608E-02  0.9636897E-01
          1   -1    0    0  501    0  0.00000000000E+00  0.00000000000E+00  0.17594319519E+04  0.17594319519E+04  0.00000000000E+00 0. -1.
         -1   -1    0    0    0  501 -0.00000000000E+00 -0.00000000000E+00 -0.79716589859E+02  0.79716589859E+02  0.00000000000E+00 0.  1.
    9900016    2    1    2    0    0 -0.18795285867E+02 -0.45487470918E+02  0.14846104185E+04  0.16379314655E+04  0.69016593527E+03 0.  0.
         23    2    3    3    0    0  0.19589926900E+03 -0.10693166964E+03  0.33072887141E+03  0.41046633309E+03  0.96385261551E+02 0.  0.
        -15    1    4    4    0    0  0.10778492216E+02  0.49370466811E+01  0.16273595835E+02  0.20134056864E+02  0.00000000000E+00 0.  1.
        -15    1    4    4    0    0  0.52162721610E+02 -0.45828493757E+01  0.61783540844E+02  0.80988628544E+02  0.00000000000E+00 0.  1.
         15    1    4    4    0    0  0.74941686857E+02 -0.87541823613E+02  0.14240647237E+03  0.18319233249E+03  0.00000000000E+00 0. -1.
         15    1    4    4    0    0  0.58016368319E+02 -0.19744043336E+02  0.11026526236E+03  0.12615131519E+03  0.00000000000E+00 0. -1.
        -16    1    1    2    0    0  0.18795285867E+02  0.45487470918E+02  0.19510494351E+03  0.20121707622E+03  0.00000000000E+00 0.  1.
         16    1    3    3    0    0 -0.17115072703E+03  0.15448215935E+03  0.40445448966E+03  0.46555423220E+03  0.00000000000E+00 0. -1.
    9900018    1    3    3    0    0 -0.43543827839E+02 -0.93037960627E+02  0.74942705746E+03  0.76191090025E+03  0.91187600000E+02 0.  0.
<mgrwt>
<rscale>  0 0.74901513E+03</rscale>
<asrwt>0</asrwt>
<pdfrwt beam="1">  1        1 0.27068181E+00 0.74901513E+03</pdfrwt>
<pdfrwt beam="2">  1       -1 0.12264092E-01 0.74901513E+03</pdfrwt>
<totfact> 0.20253856E+02</totfact>
</mgrwt>
</event>
<event>
11    1  0.6189650E-015  0.8155086E+03  0.7818608E-02  0.9537836E-01
         -2   -1    0    0    0  501 -0.00000000000E+00  0.00000000000E+00  0.20930330661E+03  0.20930330661E+03  0.00000000000E+00 0.  1.
          2   -1    0    0  501    0  0.00000000000E+00 -0.00000000000E+00 -0.79436667057E+03  0.79436667057E+03  0.00000000000E+00 0. -1.
    9900016    2    1    2    0    0 -0.20272473253E+02  0.92019169729E+02 -0.48103552437E+03  0.86331224787E+03  0.71065769597E+03 0.  0.
         23    2    3    3    0    0  0.78158067785E+02  0.11390793996E+03 -0.16036747998E+03  0.23255789472E+03  0.96341805139E+02 0.  0.
        -15    1    4    4    0    0  0.37577190955E+02  0.17310145951E+02 -0.94687811204E+02  0.10333183451E+03  0.00000000000E+00 0.  1.
        -15    1    4    4    0    0  0.67480601015E+01  0.14501497484E+02  0.14325716922E+01  0.16058704994E+02  0.00000000000E+00 0.  1.
         15    1    4    4    0    0  0.16859933828E+02  0.54353481222E+02 -0.31923272608E+02  0.65250698262E+02  0.00000000000E+00 0. -1.
         15    1    4    4    0    0  0.16972882901E+02  0.27742815300E+02 -0.35188967857E+02  0.47916656953E+02  0.00000000000E+00 0. -1.
        -16    1    1    2    0    0  0.20272473253E+02 -0.92019169729E+02 -0.10402783958E+03  0.14035772931E+03  0.00000000000E+00 0.  1.
         16    1    3    3    0    0 -0.23768856582E+02 -0.24657868902E+03 -0.37498402130E+02  0.25054368598E+03  0.00000000000E+00 0. -1.
    9900018    1    3    3    0    0 -0.74661684455E+02  0.22468991879E+03 -0.28316964227E+03  0.38021066717E+03  0.91187600000E+02 0.  0.
<mgrwt>
<rscale>  0 0.81550860E+03</rscale>
<asrwt>0</asrwt>
<pdfrwt beam="1">  1        2 0.12221026E+00 0.81550860E+03</pdfrwt>
<pdfrwt beam="2">  1       -2 0.32200508E-01 0.81550860E+03</pdfrwt>
<totfact> 0.31347978E+02</totfact>
</mgrwt>
</event>
<event>
11    1  0.6189650E-015  0.8810259E+03  0.7818608E-02  0.9449616E-01
          2   -1    0    0  501    0  0.00000000000E+00  0.00000000000E+00  0.11555666550E+04  0.11555666550E+04  0.00000000000E+00 0. -1.
         -2   -1    0    0    0  501 -0.00000000000E+00 -0.00000000000E+00 -0.16792770200E+03  0.16792770200E+03  0.00000000000E+00 0.  1.
    9900016    2    1    2    0    0 -0.63611469529E+02  0.14243365962E+03  0.76651439593E+03  0.10528842386E+04  0.70476033815E+03 0.  0.
         23    2    3    3    0    0  0.20320144661E+03 -0.26074654981E+02  0.24712462267E+03  0.33611883943E+03  0.99672361032E+02 0.  0.
        -15    1    4    4    0    0  0.11729266312E+03 -0.37154672102E+01  0.10089673415E+03  0.15476280070E+03  0.00000000000E+00 0. -1.
        -15    1    4    4    0    0  0.58030744387E+02 -0.26715755531E+02  0.11805324042E+03  0.13423064650E+03  0.00000000000E+00 0.  1.
         15    1    4    4    0    0  0.15688159204E+02 -0.10179603482E+02  0.15728250503E+02  0.24436049807E+02  0.00000000000E+00 0.  1.
         15    1    4    4    0    0  0.12189879903E+02  0.14536171242E+02  0.12446397603E+02  0.22689342426E+02  0.00000000000E+00 0. -1.
        -16    1    3    3    0    0 -0.66706249825E+02  0.23684398653E+03  0.17289190876E+03  0.30072647013E+03  0.00000000000E+00 0.  1.
         16    1    1    2    0    0  0.63611469529E+02 -0.14243365962E+03  0.22112455705E+03  0.27061011840E+03  0.00000000000E+00 0. -1.
    9900018    1    3    3    0    0 -0.20010666632E+03 -0.68335671926E+02  0.34649786450E+03  0.41603892902E+03  0.91187600000E+02 0.  0.
<mgrwt>
<rscale>  0 0.88102589E+03</rscale>
<asrwt>0</asrwt>
<pdfrwt beam="1">  1        2 0.17777948E+00 0.88102589E+03</pdfrwt>
<pdfrwt beam="2">  1       -2 0.25835032E-01 0.88102589E+03</pdfrwt>
<totfact> 0.27268560E+02</totfact>
</mgrwt>
</event>
<event>
11    1  0.6189650E-015  0.1002507E+04  0.7818608E-02  0.9305799E-01
          1   -1    0    0  501    0  0.00000000000E+00  0.00000000000E+00  0.89619284336E+03  0.89619284336E+03  0.00000000000E+00 0. -1.
         -1   -1    0    0    0  501 -0.00000000000E+00 -0.00000000000E+00 -0.28035847683E+03  0.28035847683E+03  0.00000000000E+00 0.  1.
    9900016    2    1    2    0    0 -0.17255491637E+03 -0.10134603684E+03  0.62780399237E+03  0.97607815418E+03  0.72010033459E+03 0.  0.
         23    2    3    3    0    0  0.23782171986E+02 -0.10704692933E+03  0.18563359199E+03  0.23485172861E+03  0.93117491237E+02 0.  0.
        -15    1    4    4    0    0  0.60635250108E+00 -0.19088438392E+02  0.11604446436E+02  0.22347244141E+02  0.00000000000E+00 0. -1.
        -15    1    4    4    0    0  0.39481322107E+02 -0.15277813949E+02  0.47623350424E+02  0.63719462490E+02  0.00000000000E+00 0.  1.
         15    1    4    4    0    0 -0.53030420415E+01 -0.63805569578E+02  0.10836213054E+03  0.12586351456E+03  0.00000000000E+00 0. -1.
         15    1    4    4    0    0 -0.11002460581E+02 -0.88751074106E+01  0.18043664592E+02  0.22921507418E+02  0.00000000000E+00 0.  1.
        -16    1    1    2    0    0  0.17255491637E+03  0.10134603684E+03 -0.11969625849E+02  0.20047316601E+03  0.00000000000E+00 0.  1.
         16    1    3    3    0    0  0.10808052014E+02  0.23156779880E+03  0.53464911968E+02  0.23790535144E+03  0.00000000000E+00 0. -1.
    9900018    1    3    3    0    0 -0.20714514037E+03 -0.22586690632E+03  0.38870548842E+03  0.50332107414E+03  0.91187600000E+02 0.  0.
<mgrwt>
<rscale>  0 0.10025074E+04</rscale>
<asrwt>0</asrwt>
<pdfrwt beam="1">  1        1 0.13787582E+00 0.10025074E+04</pdfrwt>
<pdfrwt beam="2">  1       -1 0.43132074E-01 0.10025074E+04</pdfrwt>
<totfact> 0.97305438E+01</totfact>
</mgrwt>
</event>
<event>
11    1  0.6189650E-015  0.1753370E+04  0.7818608E-02  0.8731497E-01
          1   -1    0    0  501    0  0.00000000000E+00  0.00000000000E+00  0.89823210844E+03  0.89823210844E+03  0.00000000000E+00 0. -1.
         -1   -1    0    0    0  501 -0.00000000000E+00 -0.00000000000E+00 -0.85565478048E+03  0.85565478048E+03  0.00000000000E+00 0.  1.
    9900016    2    1    2    0    0 -0.24852063875E+03 -0.57622870470E+03  0.40694420828E+03  0.10282387294E+04  0.70559851750E+03 0.  0.
         23    2    3    3    0    0 -0.29350370131E+03 -0.73778313773E+01  0.18215857229E+03  0.36001285507E+03  0.10113681465E+03 0.  0.
        -15    1    4    4    0    0 -0.47313226193E+02  0.76559030956E+01  0.40291751616E+02  0.62614530848E+02  0.00000000000E+00 0.  1.
        -15    1    4    4    0    0 -0.29218470026E+02 -0.13443432260E+02  0.22412850241E+02  0.39201794826E+02  0.00000000000E+00 0. -1.
         15    1    4    4    0    0 -0.49737862150E+02 -0.54185894736E+01  0.65520814405E+02  0.82439026944E+02  0.00000000000E+00 0. -1.
         15    1    4    4    0    0 -0.16723414294E+03  0.38282872612E+01  0.53933156027E+02  0.17575750245E+03  0.00000000000E+00 0.  1.
        -16    1    1    2    0    0  0.24852063875E+03  0.57622870470E+03 -0.36436688032E+03  0.72564815956E+03  0.00000000000E+00 0.  1.
         16    1    3    3    0    0  0.11960676323E+03 -0.38781735596E+03  0.97065038791E+02  0.41728851069E+03  0.00000000000E+00 0. -1.
    9900018    1    3    3    0    0 -0.74623700670E+02 -0.18103351736E+03  0.12772059720E+03  0.25093736360E+03  0.91187600000E+02 0.  0.
<mgrwt>
<rscale>  0 0.17533700E+04</rscale>
<asrwt>0</asrwt>
<pdfrwt beam="1">  1        1 0.13818955E+00 0.17533700E+04</pdfrwt>
<pdfrwt beam="2">  1       -1 0.13163920E+00 0.17533700E+04</pdfrwt>
<totfact> 0.84988193E+00</totfact>
</mgrwt>
</event>
<event>
11    1  0.6189650E-015  0.1069040E+04  0.7818608E-02  0.9235905E-01
          1   -1    0    0  501    0  0.00000000000E+00  0.00000000000E+00  0.19177720924E+04  0.19177720924E+04  0.00000000000E+00 0. -1.
         -1   -1    0    0    0  501 -0.00000000000E+00 -0.00000000000E+00 -0.14898089056E+03  0.14898089056E+03  0.00000000000E+00 0.  1.
    9900016    2    1    2    0    0  0.22003895975E+03 -0.39802994426E+02  0.16629872880E+04  0.18193749517E+04  0.70327595763E+03 0.  0.
         23    2    3    3    0    0 -0.74625770482E+02 -0.13694555858E+02  0.94531232660E+02  0.15759202481E+03  0.10071020731E+03 0.  0.
        -15    1    4    4    0    0 -0.44217630547E+02  0.28669636763E+02  0.31768042173E+02  0.61533368401E+02  0.00000000000E+00 0.  1.
        -15    1    4    4    0    0 -0.46723159816E+01 -0.20392255532E+02  0.36770949100E+02  0.42305759892E+02  0.00000000000E+00 0.  1.
         15    1    4    4    0    0 -0.14145590523E+02 -0.18325786678E+02 -0.20009888668E+01  0.23236526097E+02  0.00000000000E+00 0. -1.
         15    1    4    4    0    0 -0.11590233431E+02 -0.36461504099E+01  0.27993230253E+02  0.30516370423E+02  0.00000000000E+00 0. -1.
        -16    1    1    2    0    0 -0.22003895975E+03  0.39802994426E+02  0.10580391382E+03  0.24737803127E+03  0.00000000000E+00 0.  1.
         16    1    3    3    0    0  0.13833892510E+03  0.15931286546E+03  0.29774587487E+03  0.36492581890E+03  0.00000000000E+00 0. -1.
    9900018    1    3    3    0    0  0.15632580514E+03 -0.18542130403E+03  0.12707101805E+04  0.12968571080E+04  0.91187600000E+02 0.  0.
<mgrwt>
<rscale>  0 0.10690396E+04</rscale>
<asrwt>0</asrwt>
<pdfrwt beam="1">  1        1 0.29504184E+00 0.10690396E+04</pdfrwt>
<pdfrwt beam="2">  1       -1 0.22920138E-01 0.10690396E+04</pdfrwt>
<totfact> 0.55120930E+01</totfact>
</mgrwt>
</event>
<event>
11    1  0.6189650E-015  0.1164643E+04  0.7818608E-02  0.9144380E-01
         -2   -1    0    0    0  501 -0.00000000000E+00  0.00000000000E+00  0.34869646876E+03  0.34869646876E+03  0.00000000000E+00 0.  1.
          2   -1    0    0  501    0  0.00000000000E+00 -0.00000000000E+00 -0.97247464055E+03  0.97247464055E+03  0.00000000000E+00 0. -1.
    9900016    2    1    2    0    0 -0.11424152624E+03 -0.30226305113E+03 -0.21571937534E+03  0.80066552840E+03  0.70008311012E+03 0.  0.
         23    2    3    3    0    0  0.70033937680E+02 -0.16682276690E+03  0.96992780466E+02  0.22478196205E+03  0.91568242399E+02 0.  0.
        -15    1    4    4    0    0  0.98450475420E+01 -0.41196995887E+02  0.34323105632E+02  0.54517822879E+02  0.00000000000E+00 0. -1.
        -15    1    4    4    0    0 -0.11535289015E+02 -0.39640878069E+02  0.11844989128E+02  0.42950737761E+02  0.00000000000E+00 0.  1.
         15    1    4    4    0    0  0.33443947504E+02 -0.16933190587E+02  0.20595873679E+02  0.42771726417E+02  0.00000000000E+00 0. -1.
         15    1    4    4    0    0  0.38280231649E+02 -0.69051702359E+02  0.30228812027E+02  0.84541674992E+02  0.00000000000E+00 0.  1.
        -16    1    3    3    0    0 -0.10188797250E+03 -0.14504847307E+03 -0.39138150057E+03  0.42965066911E+03  0.00000000000E+00 0.  1.
         16    1    1    2    0    0  0.11424152624E+03  0.30226305113E+03 -0.40805879645E+03  0.52050558091E+03  0.00000000000E+00 0. -1.
    9900018    1    3    3    0    0 -0.82387491418E+02  0.96081888406E+01  0.78669344766E+02  0.14623289724E+03  0.91187600000E+02 0.  0.
<mgrwt>
<rscale>  0 0.11646432E+04</rscale>
<asrwt>0</asrwt>
<pdfrwt beam="1">  1        2 0.14961148E+00 0.11646432E+04</pdfrwt>
<pdfrwt beam="2">  1       -2 0.53645612E-01 0.11646432E+04</pdfrwt>
<totfact> 0.84977646E+01</totfact>
</mgrwt>
</event>
<event>
11    1  0.6189650E-015  0.9558827E+03  0.7818608E-02  0.9358301E-01
         -2   -1    0    0    0  501 -0.00000000000E+00  0.00000000000E+00  0.33406766449E+03  0.33406766449E+03  0.00000000000E+00 0.  1.
          2   -1    0    0  501    0  0.00000000000E+00 -0.00000000000E+00 -0.68377748598E+03  0.68377748598E+03  0.00000000000E+00 0. -1.
    9900016    2    1    2    0    0  0.14531225733E+02  0.21283926364E+03 -0.22874832959E+03  0.77260365482E+03  0.70645516523E+03 0.  0.
         23    2    3    3    0    0  0.14316615584E+02 -0.86457901291E+02 -0.11322555790E+03  0.16841202399E+03  0.88671577661E+02 0.  0.
        -15    1    4    4    0    0 -0.26168662017E+02 -0.33656469254E+02 -0.41237893245E+02  0.59313747426E+02  0.00000000000E+00 0.  1.
        -15    1    4    4    0    0 -0.31048313085E+01 -0.10489659787E+02 -0.25708480937E+02  0.27939200633E+02  0.00000000000E+00 0. -1.
         15    1    4    4    0    0  0.58134210224E+01 -0.23491194852E+02 -0.13429373314E+02  0.27676346709E+02  0.00000000000E+00 0.  1.
         15    1    4    4    0    0  0.37776687888E+02 -0.18820577398E+02 -0.32849810403E+02  0.53482729220E+02  0.00000000000E+00 0. -1.
        -16    1    3    3    0    0  0.24621126509E+03  0.16573430989E+03 -0.34129256393E+02  0.29875182790E+03  0.00000000000E+00 0.  1.
         16    1    1    2    0    0 -0.14531225733E+02 -0.21283926364E+03 -0.12096149190E+03  0.24524149565E+03  0.00000000000E+00 0. -1.
    9900018    1    3    3    0    0 -0.24599665494E+03  0.13356285504E+03 -0.81393515303E+02  0.30543980293E+03  0.91187600000E+02 0.  0.
<mgrwt>
<rscale>  0 0.95588273E+03</rscale>
<asrwt>0</asrwt>
<pdfrwt beam="1">  1        2 0.10519654E+00 0.95588273E+03</pdfrwt>
<pdfrwt beam="2">  1       -2 0.51395025E-01 0.95588273E+03</pdfrwt>
<totfact> 0.15108080E+02</totfact>
</mgrwt>
</event>
<event>
11    1  0.6189650E-015  0.1191068E+04  0.7818608E-02  0.9120710E-01
          1   -1    0    0  501    0  0.00000000000E+00  0.00000000000E+00  0.22298400585E+04  0.22298400585E+04  0.00000000000E+00 0. -1.
         -1   -1    0    0    0  501 -0.00000000000E+00 -0.00000000000E+00 -0.15905220326E+03  0.15905220326E+03  0.00000000000E+00 0.  1.
    9900016    2    1    2    0    0  0.96600359057E+02  0.18698787445E+03  0.75907117725E+03  0.10603981000E+04  0.70990068583E+03 0.  0.
         23    2    3    3    0    0  0.21013199051E+02 -0.14093643098E+03  0.62066444845E+03  0.64322831169E+03  0.90629306936E+02 0.  0.
        -15    1    4    4    0    0 -0.11507161875E+02 -0.29578766285E+02  0.50022555223E+02  0.59241659501E+02  0.00000000000E+00 0.  1.
        -15    1    4    4    0    0  0.17106086894E+00 -0.38495175360E+02  0.15032205580E+03  0.15517289791E+03  0.00000000000E+00 0. -1.
         15    1    4    4    0    0 -0.16802230687E+01 -0.10516855605E+02  0.25161699342E+02  0.27322857010E+02  0.00000000000E+00 0.  1.
         15    1    4    4    0    0  0.34029523127E+02 -0.62345633735E+02  0.39515813808E+03  0.40149089726E+03  0.00000000000E+00 0. -1.
        -16    1    3    3    0    0  0.77424693611E+02  0.15530257984E+03  0.13835262041E+03  0.22193449948E+03  0.00000000000E+00 0.  1.
         16    1    1    2    0    0 -0.96600359057E+02 -0.18698787445E+03  0.13117166780E+04  0.13284941618E+04  0.00000000000E+00 0. -1.
    9900018    1    3    3    0    0 -0.18375336049E+01  0.17262172560E+03  0.54108399830E-01  0.19523528882E+03  0.91187600000E+02 0.  0.
<mgrwt>
<rscale>  0 0.11910684E+04</rscale>
<asrwt>0</asrwt>
<pdfrwt beam="1">  1        1 0.34305229E+00 0.11910684E+04</pdfrwt>
<pdfrwt beam="2">  1       -1 0.24469571E-01 0.11910684E+04</pdfrwt>
<totfact> 0.30030025E+01</totfact>
</mgrwt>
</event>
<event>
11    1  0.6189650E-015  0.1848297E+04  0.7818608E-02  0.8681029E-01
          1   -1    0    0  501    0  0.00000000000E+00  0.00000000000E+00  0.18244531029E+04  0.18244531029E+04  0.00000000000E+00 0. -1.
         -1   -1    0    0    0  501 -0.00000000000E+00 -0.00000000000E+00 -0.46811313560E+03  0.46811313560E+03  0.00000000000E+00 0.  1.
    9900016    2    1    2    0    0  0.19023296797E+02  0.57995637287E+03  0.14378792933E+04  0.17065970056E+04  0.71292720323E+03 0.  0.
         23    2    3    3    0    0  0.27499399706E+02 -0.71199561238E+01 -0.38575376157E+02  0.10400240041E+03  0.92312127517E+02 0.  0.
        -15    1    4    4    0    0  0.30262881320E+02  0.22266314500E+02  0.65615699316E+01  0.38140332289E+02  0.00000000000E+00 0. -1.
        -15    1    4    4    0    0  0.99291753869E+01  0.24412505553E+01 -0.77530730156E+01  0.12831927732E+02  0.00000000000E+00 0. -1.
         15    1    4    4    0    0  0.20356459834E+01 -0.14361109630E+02 -0.11541078434E+02  0.18535960072E+02  0.00000000000E+00 0.  1.
         15    1    4    4    0    0 -0.14728302984E+02 -0.17466411550E+02 -0.25842794639E+02  0.34494180320E+02  0.00000000000E+00 0.  1.
        -16    1    1    2    0    0 -0.19023296797E+02 -0.57995637287E+03 -0.81539325992E+02  0.58596923292E+03  0.00000000000E+00 0.  1.
         16    1    3    3    0    0  0.44632417599E+02  0.18479933347E+03  0.65247553102E+03  0.67960809658E+03  0.00000000000E+00 0. -1.
    9900018    1    3    3    0    0 -0.53108520509E+02  0.40227699552E+03  0.82397913841E+03  0.92298650857E+03  0.91187600000E+02 0.  0.
<mgrwt>
<rscale>  0 0.18482970E+04</rscale>
<asrwt>0</asrwt>
<pdfrwt beam="1">  1        1 0.28068509E+00 0.18482970E+04</pdfrwt>
<pdfrwt beam="2">  1       -1 0.72017406E-01 0.18482970E+04</pdfrwt>
<totfact> 0.71687487E+00</totfact>
</mgrwt>
</event>
<event>
11    1  0.6189650E-015  0.1170319E+04  0.7818608E-02  0.9139241E-01
          1   -1    0    0  501    0  0.00000000000E+00  0.00000000000E+00  0.14454583530E+04  0.14454583530E+04  0.00000000000E+00 0. -1.
         -1   -1    0    0    0  501 -0.00000000000E+00 -0.00000000000E+00 -0.23688784508E+03  0.23688784508E+03  0.00000000000E+00 0.  1.
    9900016    2    1    2    0    0 -0.34706331976E+03  0.75396352293E+02  0.65264539159E+03  0.10226566553E+04  0.70266853470E+03 0.  0.
         23    2    3    3    0    0  0.14189440308E+03 -0.40311420406E+01  0.23334667111E+03  0.28795231067E+03  0.91189870988E+02 0.  0.
        -15    1    4    4    0    0  0.78419553085E+02  0.14800751585E+02  0.84563626949E+02  0.11627422567E+03  0.00000000000E+00 0. -1.
        -15    1    4    4    0    0  0.34818991923E+02  0.16126375550E+01  0.11578107384E+03  0.12091410115E+03  0.00000000000E+00 0. -1.
         15    1    4    4    0    0  0.14987163851E+02 -0.78962695190E+01  0.25791317079E+02  0.30857060607E+02  0.00000000000E+00 0.  1.
         15    1    4    4    0    0  0.13668694219E+02 -0.12548261662E+02  0.72106532387E+01  0.19906923231E+02  0.00000000000E+00 0.  1.
        -16    1    1    2    0    0  0.34706331976E+03 -0.75396352293E+02  0.55592511632E+03  0.65968954275E+03  0.00000000000E+00 0.  1.
         16    1    3    3    0    0 -0.21485443278E+03 -0.76086207354E+02  0.36964021226E+02  0.23090664153E+03  0.00000000000E+00 0. -1.
    9900018    1    3    3    0    0 -0.27410329005E+03  0.15551370169E+03  0.38233469926E+03  0.50379770313E+03  0.91187600000E+02 0.  0.
<mgrwt>
<rscale>  0 0.11703188E+04</rscale>
<asrwt>0</asrwt>
<pdfrwt beam="1">  1        1 0.22237820E+00 0.11703188E+04</pdfrwt>
<pdfrwt beam="2">  1       -1 0.36444285E-01 0.11703188E+04</pdfrwt>
<totfact> 0.51068987E+01</totfact>
</mgrwt>
</event>
<event>
12    1  0.6189650E-015  0.1245101E+04  0.7818608E-02  0.9074270E-01
          1   -1    0    0  501    0  0.00000000000E+00  0.00000000000E+00  0.21711271599E+04  0.21711271599E+04  0.00000000000E+00 0. -1.
         -1   -1    0    0    0  501 -0.00000000000E+00 -0.00000000000E+00 -0.17851069138E+03  0.17851069138E+03  0.00000000000E+00 0.  1.
    9900016    2    1    2    0    0 -0.19117745394E+03  0.29030691798E+03  0.88430535923E+03  0.11880955832E+04  0.71326588378E+03 0.  0.
         23    2    3    3    0    0 -0.11732792100E+03 -0.15642154118E+03  0.42708854234E+03  0.47818584272E+03  0.89574201548E+02 0.  0.
         23    2    4    4    0    0 -0.70722942255E+02 -0.98975082632E+02  0.27033169813E+03  0.30362890525E+03  0.65677115860E+02 0.  0.
        -15    1    4    4    0    0 -0.13639581343E+02 -0.32415849242E+02  0.78842527778E+02  0.86330583501E+02  0.00000000000E+00 0. -1.
        -15    1    5    5    0    0 -0.23005626977E+02 -0.46549517030E+02  0.18772966722E+03  0.19477819273E+03  0.00000000000E+00 0.  1.
         15    1    5    5    0    0 -0.47717315279E+02 -0.52425565602E+02  0.82602030903E+02  0.10885071252E+03  0.00000000000E+00 0. -1.
         15    1    4    4    0    0 -0.32965397404E+02 -0.25030609311E+02  0.77914316438E+02  0.88226353968E+02  0.00000000000E+00 0.  1.
        -16    1    3    3    0    0 -0.78144211692E+02  0.42654951348E+03  0.30107498450E+03  0.52791775075E+03  0.00000000000E+00 0.  1.
         16    1    1    2    0    0  0.19117745394E+03 -0.29030691798E+03  0.11083111093E+04  0.11615422681E+04  0.00000000000E+00 0. -1.
    9900018    1    3    3    0    0  0.42946787537E+01  0.20178945681E+02  0.15614183239E+03  0.18199198974E+03  0.91187600000E+02 0.  0.
<mgrwt>
<rscale>  0 0.12451015E+04</rscale>
<asrwt>0</asrwt>
<pdfrwt beam="1">  1        1 0.33401954E+00 0.12451015E+04</pdfrwt>
<pdfrwt beam="2">  1       -1 0.27463185E-01 0.12451015E+04</pdfrwt>
<totfact> 0.26850739E+01</totfact>
</mgrwt>
</event>
<event>
11    1  0.6189650E-015  0.2329646E+04  0.7818608E-02  0.8466323E-01
          1   -1    0    0  501    0  0.00000000000E+00  0.00000000000E+00  0.11524438988E+04  0.11524438988E+04  0.00000000000E+00 0. -1.
         -1   -1    0    0    0  501 -0.00000000000E+00 -0.00000000000E+00 -0.11773354654E+04  0.11773354654E+04  0.00000000000E+00 0.  1.
    9900016    2    1    2    0    0 -0.48912163530E+03  0.30145554969E+03 -0.89996768703E+03  0.12829395297E+04  0.71125000983E+03 0.  0.
         23    2    3    3    0    0 -0.82121960308E+02 -0.18522197166E+03 -0.13286616834E+03  0.25825776456E+03  0.89400554333E+02 0.  0.
        -15    1    4    4    0    0 -0.22994827575E+02 -0.25651410981E+02 -0.47673066507E+02  0.58817329510E+02  0.00000000000E+00 0.  1.
        -15    1    4    4    0    0 -0.24559221536E+02 -0.32070226546E+02  0.94563717388E+00  0.40404814352E+02  0.00000000000E+00 0.  1.
         15    1    4    4    0    0 -0.33085588562E+02 -0.10760939361E+03 -0.80193254495E+02  0.13822226966E+03  0.00000000000E+00 0. -1.
         15    1    4    4    0    0 -0.14823226350E+01 -0.19890940526E+02 -0.59454845169E+01  0.20813351041E+02  0.00000000000E+00 0. -1.
        -16    1    3    3    0    0 -0.36218316599E+03  0.32531734557E+03 -0.58419949295E+03  0.76045845949E+03  0.00000000000E+00 0.  1.
         16    1    1    2    0    0  0.48912163530E+03 -0.30145554969E+03  0.87507612041E+03  0.10468398345E+04  0.00000000000E+00 0. -1.
    9900018    1    3    3    0    0 -0.44816509002E+02  0.16136017579E+03 -0.18290202574E+03  0.26422330560E+03  0.91187600000E+02 0.  0.
<mgrwt>
<rscale>  0 0.23296464E+04</rscale>
<asrwt>0</asrwt>
<pdfrwt beam="1">  1        1 0.17729906E+00 0.23296464E+04</pdfrwt>
<pdfrwt beam="2">  1       -1 0.18112853E+00 0.23296464E+04</pdfrwt>
<totfact> 0.21333664E+00</totfact>
</mgrwt>
</event>
<event>
11    1  0.6189650E-015  0.9139655E+03  0.7818608E-02  0.9408290E-01
         -1   -1    0    0    0  501 -0.00000000000E+00  0.00000000000E+00  0.39826346086E+03  0.39826346086E+03  0.00000000000E+00 0.  1.
          1   -1    0    0  501    0  0.00000000000E+00 -0.00000000000E+00 -0.52435952966E+03  0.52435952966E+03  0.00000000000E+00 0. -1.
    9900016    2    1    2    0    0  0.39169016252E+02 -0.18118385334E+03 -0.83908208812E+02  0.73251350608E+03  0.70368575980E+03 0.  0.
         23    2    3    3    0    0 -0.83377201486E+01  0.35015259338E+02  0.19183650508E+03  0.21434269859E+03  0.88577433874E+02 0.  0.
        -15    1    4    4    0    0  0.19798457767E+02  0.10415833842E+02  0.20840528196E+02  0.30574436055E+02  0.00000000000E+00 0.  1.
        -15    1    4    4    0    0  0.28024945773E+01  0.26920288415E+02  0.11053295826E+03  0.11379846557E+03  0.00000000000E+00 0. -1.
         15    1    4    4    0    0 -0.93527174901E+01 -0.84119741120E+01  0.18200790304E+02  0.22124723741E+02  0.00000000000E+00 0. -1.
         15    1    4    4    0    0 -0.21585955003E+02  0.60911111934E+01  0.42262228324E+02  0.47845073224E+02  0.00000000000E+00 0.  1.
        -16    1    1    2    0    0 -0.39169016252E+02  0.18118385334E+03 -0.42187859985E+02  0.19010948444E+03  0.00000000000E+00 0.  1.
         16    1    3    3    0    0  0.10784616544E+03 -0.20734564205E+03 -0.13730954658E+02  0.23411866605E+03  0.00000000000E+00 0. -1.
    9900018    1    3    3    0    0 -0.60339429037E+02 -0.88534706286E+01 -0.26201375923E+03  0.28405214145E+03  0.91187600000E+02 0.  0.
<mgrwt>
<rscale>  0 0.91396552E+03</rscale>
<asrwt>0</asrwt>
<pdfrwt beam="1">  1        1 0.80670697E-01 0.91396552E+03</pdfrwt>
<pdfrwt beam="2">  1       -1 0.61271301E-01 0.91396552E+03</pdfrwt>
<totfact> 0.11290948E+02</totfact>
</mgrwt>
</event>
<event>
11    1  0.6189650E-015  0.1231798E+04  0.7818608E-02  0.9085470E-01
          2   -1    0    0  501    0  0.00000000000E+00  0.00000000000E+00  0.13353061072E+04  0.13353061072E+04  0.00000000000E+00 0. -1.
         -2   -1    0    0    0  501 -0.00000000000E+00 -0.00000000000E+00 -0.28407848614E+03  0.28407848614E+03  0.00000000000E+00 0.  1.
    9900016    2    1    2    0    0 -0.15867435603E+03 -0.10926143855E+03  0.29290775043E+03  0.83697508457E+03  0.76001100566E+03 0.  0.
         23    2    3    3    0    0  0.12434331876E+03  0.37851135547E+02 -0.16130002924E+03  0.22542464868E+03  0.88907836642E+02 0.  0.
        -15    1    4    4    0    0  0.56628835887E+01  0.16476467408E+02 -0.38812727540E+02  0.42543742759E+02  0.00000000000E+00 0. -1.
        -15    1    4    4    0    0  0.88368282556E+02  0.86617937681E+01 -0.47875055714E+02  0.10087616662E+03  0.00000000000E+00 0.  1.
         15    1    4    4    0    0  0.93976901444E+01  0.58747097158E+01 -0.34725250238E+02  0.36450950583E+02  0.00000000000E+00 0.  1.
         15    1    4    4    0    0  0.20914462475E+02  0.68381646552E+01 -0.39886995749E+02  0.45553788716E+02  0.00000000000E+00 0. -1.
        -16    1    3    3    0    0 -0.22122969323E+02 -0.84790747463E+02  0.24258516864E+03  0.25792723910E+03  0.00000000000E+00 0.  1.
         16    1    1    2    0    0  0.15867435603E+03  0.10926143855E+03  0.75831987062E+03  0.78240950875E+03  0.00000000000E+00 0. -1.
    9900018    1    3    3    0    0 -0.26089470547E+03 -0.62321826629E+02  0.21162261103E+03  0.35362319679E+03  0.91187600000E+02 0.  0.
<mgrwt>
<rscale>  0 0.12317983E+04</rscale>
<asrwt>0</asrwt>
<pdfrwt beam="1">  1        2 0.20543171E+00 0.12317983E+04</pdfrwt>
<pdfrwt beam="2">  1       -2 0.43704383E-01 0.12317983E+04</pdfrwt>
<totfact> 0.77044798E+01</totfact>
</mgrwt>
</event>
<event>
11    1  0.6189650E-015  0.9126430E+03  0.7818608E-02  0.9409914E-01
         -2   -1    0    0    0  501 -0.00000000000E+00  0.00000000000E+00  0.13476019357E+04  0.13476019357E+04  0.00000000000E+00 0.  1.
          2   -1    0    0  501    0  0.00000000000E+00 -0.00000000000E+00 -0.15451839663E+03  0.15451839663E+03  0.00000000000E+00 0. -1.
    9900016    2    1    2    0    0  0.68166165717E+02  0.11345784170E+02  0.71385537975E+03  0.10179354692E+04  0.72237646927E+03 0.  0.
         23    2    3    3    0    0  0.98888439863E+02 -0.59666485062E+02 -0.69397048283E+02  0.16344944732E+03  0.92524367277E+02 0.  0.
        -15    1    4    4    0    0  0.21950099640E+02 -0.12167847889E+02  0.10943298286E+02  0.27379174090E+02  0.00000000000E+00 0. -1.
        -15    1    4    4    0    0 -0.99245929980E+01 -0.48953588145E+01 -0.10213249129E+02  0.15058968818E+02  0.00000000000E+00 0. -1.
         15    1    4    4    0    0  0.68031966973E+02 -0.24605691734E+02 -0.47864961330E+02  0.86745853613E+02  0.00000000000E+00 0.  1.
         15    1    4    4    0    0  0.18830966248E+02 -0.17997586624E+02 -0.22262136110E+02  0.34265450797E+02  0.00000000000E+00 0.  1.
        -16    1    1    2    0    0 -0.68166165717E+02 -0.11345784170E+02  0.47922815928E+03  0.48418486306E+03  0.00000000000E+00 0.  1.
         16    1    3    3    0    0  0.47402508258E+02  0.14785172716E+03  0.61335689563E+03  0.63270357390E+03  0.00000000000E+00 0. -1.
    9900018    1    3    3    0    0 -0.78124782404E+02 -0.76839457930E+02  0.16989553241E+03  0.22178244801E+03  0.91187600000E+02 0.  0.
<mgrwt>
<rscale>  0 0.91264295E+03</rscale>
<asrwt>0</asrwt>
<pdfrwt beam="1">  1        2 0.23772062E-01 0.91264295E+03</pdfrwt>
<pdfrwt beam="2">  1       -2 0.20732337E+00 0.91264295E+03</pdfrwt>
<totfact> 0.27870492E+01</totfact>
</mgrwt>
</event>
