<event>
12    1  0.8503875E-011  0.2154480E+04  0.7818608E-02  0.8537617E-01
         -2   -1    0    0    0  501 -0.00000000000E+00  0.00000000000E+00  0.47431241625E+03  0.47431241625E+03  0.00000000000E+00 0.  1.
          2   -1    0    0  501    0  0.00000000000E+00 -0.00000000000E+00 -0.24465855445E+04  0.24465855445E+04  0.00000000000E+00 0. -1.
        -24    2    1    2    0    0  0.12279740796E+02 -0.40926831525E+01 -0.35596485424E+02  0.89765093278E+02  0.81382554072E+02 0.  0.
    9900016    2    1    2    0    0 -0.16910719754E+02 -0.22323604360E+02 -0.19746670268E+04  0.27846297977E+04  0.19631782721E+04 0.  0.
         24    2    4    4    0    0 -0.32589834307E+03  0.61370628212E+03 -0.11525066622E+03  0.70881570089E+03  0.79321189101E+02 0.  0.
        -15    1    5    5    0    0 -0.18416618847E+03  0.34667383910E+03 -0.10487212994E+03  0.40632265421E+03  0.00000000000E+00 0.  1.
        -15    1    1    2    0    0  0.46309789576E+01  0.26416287513E+02  0.37990384030E+02  0.46503069692E+02  0.00000000000E+00 0.  1.
         15    1    4    4    0    0  0.41294419041E+03 -0.54973802338E+03 -0.10855816718E+04  0.12849989747E+04  0.00000000000E+00 0. -1.
         15    1    3    3    0    0  0.42614994508E+02 -0.50321985046E+01  0.99137988737E-01  0.42911194426E+02  0.00000000000E+00 0. -1.
        -16    1    3    3    0    0 -0.30335253712E+02  0.93951535205E+00 -0.35695623413E+02  0.46853898853E+02  0.00000000000E+00 0.  1.
         16    1    5    5    0    0 -0.14173215460E+03  0.26703244302E+03 -0.10378536280E+02  0.30249304668E+03  0.00000000000E+00 0. -1.
    9900018    1    4    4    0    0 -0.10395656709E+03 -0.86291863096E+02 -0.77383468877E+03  0.79081512215E+03  0.91187600000E+02 0.  0.
<mgrwt>
<rscale>  0 0.21544799E+04</rscale>
<asrwt>0</asrwt>
<pdfrwt beam="1">  1        2 0.37639777E+00 0.21544799E+04</pdfrwt>
<pdfrwt beam="2">  1       -2 0.72971142E-01 0.21544799E+04</pdfrwt>
<totfact> 0.58190193E+00</totfact>
</mgrwt>
</event>
<event>
12    1  0.8503875E-011  0.3252070E+04  0.7818608E-02  0.8984474E-01
         -1   -1    0    0    0  501 -0.00000000000E+00  0.00000000000E+00  0.81255371699E+03  0.81255371699E+03  0.00000000000E+00 0.  1.
          1   -1    0    0  501    0  0.00000000000E+00 -0.00000000000E+00 -0.35500122841E+04  0.35500122841E+04  0.00000000000E+00 0. -1.
         24    2    1    2    0    0  0.27927064814E+02  0.55852178944E+02 -0.24801238334E+03  0.26704386815E+03  0.76830322035E+02 0.  0.
    9900016    2    1    2    0    0  0.78934583950E+03  0.23063817933E+03 -0.98885230216E+03  0.23629535995E+04  0.19822865620E+04 0.  0.
        -24    2    4    4    0    0 -0.34072151090E+03  0.24384923788E+02 -0.46689240138E+03  0.58436936094E+03  0.82542492342E+02 0.  0.
        -15    1    3    3    0    0  0.22348020428E+01  0.65605730346E+02 -0.12713419840E+03  0.14308113292E+03  0.00000000000E+00 0.  1.
        -15    1    4    4    0    0  0.85868400740E+03  0.17599343195E+03 -0.93080011119E+03  0.12785541677E+04  0.00000000000E+00 0.  1.
         15    1    5    5    0    0 -0.24091789687E+03 -0.15329751197E+02 -0.28897265891E+03  0.37653901777E+03  0.00000000000E+00 0. -1.
         15    1    1    2    0    0 -0.81727290431E+03 -0.28649035827E+03 -0.15005938816E+04  0.17325685334E+04  0.00000000000E+00 0. -1.
        -16    1    5    5    0    0 -0.99803614025E+02  0.39714674985E+02 -0.17791974247E+03  0.20783034317E+03  0.00000000000E+00 0.  1.
         16    1    3    3    0    0  0.25692262771E+02 -0.97535514022E+01 -0.12087818495E+03  0.12396273524E+03  0.00000000000E+00 0. -1.
    9900018    1    4    4    0    0  0.27138334300E+03  0.30259823587E+02  0.40884021041E+03  0.50003007091E+03  0.91187600000E+02 0.  0.
<mgrwt>
<rscale>  0 0.13584257E+04</rscale>
<asrwt>0</asrwt>
<pdfrwt beam="1">  1        1 0.54615574E+00 0.32520700E+04</pdfrwt>
<pdfrwt beam="2">  1       -1 0.12500826E+00 0.32520700E+04</pdfrwt>
<totfact> 0.10569981E-01</totfact>
</mgrwt>
</event>
<event>
12    1  0.8503875E-011  0.4462610E+04  0.7818608E-02  0.8765411E-01
         -2   -1    0    0    0  501 -0.00000000000E+00  0.00000000000E+00  0.21413892855E+04  0.21413892855E+04  0.00000000000E+00 0.  1.
          2   -1    0    0  501    0  0.00000000000E+00 -0.00000000000E+00 -0.24450523269E+04  0.24450523269E+04  0.00000000000E+00 0. -1.
        -24    2    1    2    0    0 -0.25773011103E+01 -0.47220512577E+02  0.58138950412E+02  0.10918879908E+03  0.79408041157E+02 0.  0.
    9900016    2    1    2    0    0 -0.39513562652E+03 -0.88245513385E+02 -0.93104003707E+02  0.20243638048E+04  0.19812776243E+04 0.  0.
         24    2    4    4    0    0  0.24921754332E+03 -0.26445951136E+02 -0.93026876358E+03  0.96613177512E+03  0.72123936193E+02 0.  0.
        -15    1    5    5    0    0  0.17457711336E+03 -0.20171862293E+02 -0.51492848844E+03  0.54409137169E+03  0.00000000000E+00 0.  1.
        -15    1    1    2    0    0 -0.24077340522E+03 -0.55869770991E+03  0.81264043701E+03  0.10151351849E+04  0.00000000000E+00 0.  1.
         15    1    3    3    0    0  0.28529307748E+02 -0.10411081995E+02 -0.39126932150E+01  0.30620600861E+02  0.00000000000E+00 0. -1.
         15    1    4    4    0    0 -0.64435316984E+03 -0.61799562249E+02  0.83716475987E+03  0.10582320296E+04  0.00000000000E+00 0. -1.
        -16    1    3    3    0    0 -0.31106608858E+02 -0.36809430583E+02  0.62051643627E+02  0.78568198219E+02  0.00000000000E+00 0.  1.
         16    1    5    5    0    0  0.74640429959E+02 -0.62740888428E+01 -0.41534027513E+03  0.42204040343E+03  0.00000000000E+00 0. -1.
    9900018    1    1    2    0    0  0.63848633285E+03  0.69416373587E+03 -0.10813384251E+04  0.14377538237E+04  0.91187600000E+02 0.  0.
<mgrwt>
<rscale>  0 0.16929223E+04</rscale>
<asrwt>0</asrwt>
<pdfrwt beam="1">  1        2 0.37616190E+00 0.44626105E+04</pdfrwt>
<pdfrwt beam="2">  1       -2 0.32944450E+00 0.44626105E+04</pdfrwt>
<totfact> 0.59301522E-02</totfact>
</mgrwt>
</event>
<event>
12    1  0.8503875E-011  0.2773012E+04  0.7818608E-02  0.8967854E-01
         -2   -1    0    0    0  501 -0.00000000000E+00  0.00000000000E+00  0.19815872273E+04  0.19815872273E+04  0.00000000000E+00 0.  1.
          2   -1    0    0  501    0  0.00000000000E+00 -0.00000000000E+00 -0.11035634766E+04  0.11035634766E+04  0.00000000000E+00 0. -1.
        -24    2    1    2    0    0 -0.83368358017E+02  0.12613102245E+03  0.12599667445E+03  0.21197507532E+03  0.78733427718E+02 0.  0.
    9900016    2    1    2    0    0  0.41275510189E+03 -0.40349659502E+03  0.70597845544E+02  0.20670905932E+04  0.19836086279E+04 0.  0.
         24    2    4    4    0    0 -0.59192790588E+03  0.37426994692E+03 -0.76397995574E-01  0.70484272453E+03  0.79665686224E+02 0.  0.
        -15    1    1    2    0    0 -0.32938674387E+03  0.27736557257E+03  0.68142923070E+03  0.80608503543E+03  0.00000000000E+00 0.  1.
        -15    1    5    5    0    0 -0.47605958674E+03  0.33550191458E+03  0.71431244113E+01  0.58244767064E+03  0.00000000000E+00 0.  1.
         15    1    4    4    0    0  0.56430809417E+03 -0.67122387906E+03  0.16036388389E+03  0.89146042886E+03  0.00000000000E+00 0. -1.
         15    1    3    3    0    0  0.96401575170E+01 -0.38167947814E+01  0.10858725039E+02  0.15013742666E+02  0.00000000000E+00 0. -1.
        -16    1    3    3    0    0 -0.93008515534E+02  0.12994781723E+03  0.11513794941E+03  0.19696133265E+03  0.00000000000E+00 0.  1.
         16    1    5    5    0    0 -0.11586831915E+03  0.38768032340E+02 -0.72195224068E+01  0.12239505389E+03  0.00000000000E+00 0. -1.
    9900018    1    4    4    0    0  0.44037491360E+03 -0.10654266288E+03 -0.89689640353E+02  0.47078743985E+03  0.91187600000E+02 0.  0.
<mgrwt>
<rscale>  0 0.13807736E+04</rscale>
<asrwt>0</asrwt>
<pdfrwt beam="1">  1        2 0.16977900E+00 0.27730116E+04</pdfrwt>
<pdfrwt beam="2">  1       -2 0.30485957E+00 0.27730116E+04</pdfrwt>
<totfact> 0.55751279E-01</totfact>
</mgrwt>
</event>
