<event>
12    1  0.3411706E-007  0.3962073E+04  0.7818608E-02  0.8388146E-01
          2   -1    0    0  501    0  0.00000000000E+00  0.00000000000E+00  0.29877363335E+04  0.29877363335E+04  0.00000000000E+00 0. -1.
         -2   -1    0    0    0  501 -0.00000000000E+00 -0.00000000000E+00 -0.23534840517E+04  0.23534840517E+04  0.00000000000E+00 0.  1.
        -24    2    1    2    0    0 -0.11449308327E+03 -0.65672195410E+03 -0.87370345892E+03  0.11018859973E+04  0.80016409624E+02 0.  0.
    9900016    2    1    2    0    0 -0.19686508469E+03 -0.48181049093E+03  0.14643911841E+04  0.26943306246E+04  0.22009267966E+04 0.  0.
         23    2    4    4    0    0  0.21845769786E+03  0.33526934769E+03  0.16993601253E+04  0.17481155963E+04  0.89185207646E+02 0.  0.
        -15    1    5    5    0    0  0.69401341482E+02  0.18221231400E+03  0.88199980535E+03  0.90329481910E+03  0.00000000000E+00 0.  1.
        -15    1    1    2    0    0  0.10817078474E+03  0.12516501366E+04  0.16527091649E+03  0.12671398735E+04  0.00000000000E+00 0.  1.
         15    1    5    5    0    0  0.14905635638E+03  0.15305703369E+03  0.81736031999E+03  0.84482077722E+03  0.00000000000E+00 0. -1.
         15    1    3    3    0    0 -0.94210295891E+02 -0.53360417256E+03 -0.75770984083E+03  0.93152197811E+03  0.00000000000E+00 0. -1.
        -16    1    3    3    0    0 -0.20282787382E+02 -0.12311778154E+03 -0.11599361809E+03  0.17036401919E+03  0.00000000000E+00 0.  1.
         16    1    4    4    0    0 -0.41532278255E+03 -0.81707983862E+03 -0.23496894128E+03  0.94621502828E+03  0.00000000000E+00 0. -1.
    9900018    1    1    2    0    0  0.20318738322E+03 -0.11311769158E+03 -0.12170635978E+03  0.27786388980E+03  0.91187600000E+02 0.  0.
<mgrwt>
<rscale>  0 0.25420804E+04</rscale>
<asrwt>0</asrwt>
<pdfrwt beam="1">  1        2 0.45965174E+00 0.39620734E+04</pdfrwt>
<pdfrwt beam="2">  1       -2 0.36207447E+00 0.39620734E+04</pdfrwt>
<totfact> 0.17490998E-02</totfact>
</mgrwt>
</event>
<event>
12    1  0.3411706E-007  0.4272345E+04  0.7818608E-02  0.8217071E-01
         -2   -1    0    0    0  501 -0.00000000000E+00  0.00000000000E+00  0.23162596842E+04  0.23162596842E+04  0.00000000000E+00 0. -1.
          2   -1    0    0  501    0  0.00000000000E+00 -0.00000000000E+00 -0.32092697219E+04  0.32092697219E+04  0.00000000000E+00 0.  1.
        -24    2    1    2    0    0  0.11505261608E+04 -0.23364346727E+03 -0.27675283978E+03  0.12089676201E+04  0.81919812987E+02 0.  0.
    9900016    2    1    2    0    0 -0.54257227667E+03 -0.10394124258E+04  0.43104305778E+03  0.25221039517E+04  0.21909923229E+04 0.  0.
         23    2    4    4    0    0 -0.45579292642E+03 -0.12801301743E+03  0.12210953445E+04  0.13128222836E+04  0.91071310248E+02 0.  0.
        -15    1    1    2    0    0 -0.57464893745E+03  0.92636796684E+03 -0.70884334530E+03  0.13003222291E+04  0.00000000000E+00 0.  1.
        -15    1    5    5    0    0 -0.10961754412E+03 -0.70827663487E+02  0.29973289615E+03  0.32691340280E+03  0.00000000000E+00 0. -1.
         15    1    3    3    0    0  0.54457469882E+03 -0.13320275745E+03 -0.96751029716E+02  0.56891593310E+03  0.00000000000E+00 0. -1.
         15    1    5    5    0    0 -0.34617538229E+03 -0.57185353939E+02  0.92136244830E+03  0.98590888076E+03  0.00000000000E+00 0.  1.
        -16    1    3    3    0    0  0.60595146193E+03 -0.10044070983E+03 -0.18000181007E+03  0.64005168700E+03  0.00000000000E+00 0.  1.
         16    1    4    4    0    0 -0.86779350256E+02 -0.91139940838E+03 -0.79005228667E+03  0.12092816681E+04  0.00000000000E+00 0. -1.
    9900018    1    1    2    0    0 -0.33304946629E+02  0.34668792625E+03 -0.33845691043E+03  0.49413560516E+03  0.91187600000E+02 0.  0.
<mgrwt>
<rscale>  0 0.30951481E+04</rscale>
<asrwt>0</asrwt>
<pdfrwt beam="1">  1        2 0.49373380E+00 0.42723451E+04</pdfrwt>
<pdfrwt beam="2">  1       -2 0.35634764E+00 0.42723451E+04</pdfrwt>
<totfact> 0.13436946E-02</totfact>
</mgrwt>
</event>
<event>
12    1  0.3411706E-007  0.3413605E+04  0.7818608E-02  0.8432835E-01
          2   -1    0    0  501    0  0.00000000000E+00  0.00000000000E+00  0.22038633645E+04  0.22038633645E+04  0.00000000000E+00 0. -1.
         -2   -1    0    0    0  501 -0.00000000000E+00 -0.00000000000E+00 -0.22833646960E+04  0.22833646960E+04  0.00000000000E+00 0.  1.
         24    2    1    2    0    0 -0.40851178295E+03  0.75177697290E+03  0.54426243126E+03  0.10171015978E+04  0.78889620870E+02 0.  0.
    9900016    2    1    2    0    0 -0.12464091599E+03  0.23827516587E+03 -0.30764011744E+03  0.22344846683E+04  0.21968087942E+04 0.  0.
         23    2    4    4    0    0 -0.76570085092E+03  0.25434111763E+03  0.67775112878E+03  0.10588096013E+04  0.10365318171E+03 0.  0.
        -15    1    5    5    0    0 -0.70845990463E+02  0.24331303968E+02  0.10716162592E+03  0.13074701063E+03  0.00000000000E+00 0. -1.
        -15    1    3    3    0    0 -0.20312465799E+03  0.40687554294E+03  0.33165418582E+03  0.56285151958E+03  0.00000000000E+00 0.  1.
         15    1    1    2    0    0  0.27353554915E+03 -0.47392329372E+03 -0.35034570447E+03  0.64974387079E+03  0.00000000000E+00 0. -1.
         15    1    5    5    0    0 -0.69485486045E+03  0.23000981366E+03  0.57058950285E+03  0.92806259069E+03  0.00000000000E+00 0.  1.
        -16    1    4    4    0    0  0.64105993493E+03 -0.16065951757E+02 -0.98539124622E+03  0.11756750670E+04  0.00000000000E+00 0.  1.
         16    1    3    3    0    0 -0.20538712496E+03  0.34490142997E+03  0.21260824543E+03  0.45425007817E+03  0.00000000000E+00 0. -1.
    9900018    1    1    2    0    0  0.25961714978E+03 -0.51612884506E+03  0.34222059150E+02  0.58589792360E+03  0.91187600000E+02 0.  0.
<mgrwt>
<rscale>  0 0.24178932E+04</rscale>
<asrwt>0</asrwt>
<pdfrwt beam="1">  1        2 0.33905590E+00 0.34136046E+04</pdfrwt>
<pdfrwt beam="2">  1       -2 0.35128688E+00 0.34136046E+04</pdfrwt>
<totfact> 0.62666343E-02</totfact>
</mgrwt>
</event>
<event>
12    1  0.3411706E-007  0.5944188E+04  0.7818608E-02  0.7697361E-01
         -2   -1    0    0    0  501 -0.00000000000E+00  0.00000000000E+00  0.34805926847E+04  0.34805926847E+04  0.00000000000E+00 0.  1.
          2   -1    0    0  501    0  0.00000000000E+00 -0.00000000000E+00 -0.25378843485E+04  0.25378843485E+04  0.00000000000E+00 0. -1.
         24    2    1    2    0    0 -0.13552450063E+04 -0.10674274499E+04 -0.75291801232E+03  0.18839057989E+04  0.78263261578E+02 0.  0.
    9900016    2    1    2    0    0  0.17972174220E+04  0.38669636105E+03  0.13086467931E+04  0.31459867193E+04  0.21920655718E+04 0.  0.
         23    2    4    4    0    0 -0.14758925832E+03 -0.33712083437E+03  0.97124757230E+03  0.10436017425E+04  0.10173349578E+03 0.  0.
        -15    1    5    5    0    0 -0.62226453332E+02 -0.73792928436E+02  0.35774368929E+03  0.37053754871E+03  0.00000000000E+00 0.  1.
        -15    1    3    3    0    0 -0.48219596902E+03 -0.33632076429E+03 -0.24062386974E+03  0.63523574814E+03  0.00000000000E+00 0.  1.
         15    1    1    2    0    0 -0.26155206001E+03  0.11234721269E+03  0.22803157136E+03  0.36473246885E+03  0.00000000000E+00 0. -1.
         15    1    5    5    0    0 -0.85362804992E+02 -0.26332790594E+03  0.61350388301E+03  0.67306419381E+03  0.00000000000E+00 0. -1.
        -16    1    4    4    0    0  0.19448066803E+04  0.72381719543E+03  0.33739922076E+03  0.21023849767E+04  0.00000000000E+00 0.  1.
         16    1    3    3    0    0 -0.87304903724E+03 -0.73110668558E+03 -0.51229414258E+03  0.12486700508E+04  0.00000000000E+00 0. -1.
    9900018    1    1    2    0    0 -0.18042035574E+03  0.56838387613E+03  0.15894798410E+03  0.62385204612E+03  0.91187600000E+02 0.  0.
<mgrwt>
<rscale>  0 0.59441876E+04</rscale>
<asrwt>0</asrwt>
<pdfrwt beam="1">  1        2 0.39044375E+00 0.59441876E+04</pdfrwt>
<pdfrwt beam="2">  1       -2 0.53547579E+00 0.59441876E+04</pdfrwt>
<totfact> 0.23194091E-03</totfact>
</mgrwt>
</event>
<event>
12    1  0.3411706E-007  0.3950578E+04  0.7818608E-02  0.8380691E-01
          2   -1    0    0  501    0  0.00000000000E+00  0.00000000000E+00  0.29393264047E+04  0.29393264047E+04  0.00000000000E+00 0. -1.
         -2   -1    0    0    0  501 -0.00000000000E+00 -0.00000000000E+00 -0.21976066655E+04  0.21976066655E+04  0.00000000000E+00 0.  1.
        -24    2    1    2    0    0 -0.60117132069E+03  0.35016670396E+03 -0.64286903860E+03  0.95074734157E+03  0.81340207346E+02 0.  0.
    9900016    2    1    2    0    0 -0.49936168411E+03 -0.63432822203E+03  0.30752277404E+03  0.23692690022E+04  0.22061575111E+04 0.  0.
         23    2    4    4    0    0  0.76806637848E+02 -0.21034359337E+03  0.12010405618E+04  0.12246699731E+04  0.84701977317E+02 0.  0.
        -15    1    1    2    0    0  0.77435531802E+03 -0.93126717725E+02  0.10516176985E+04  0.13092740462E+04  0.00000000000E+00 0.  1.
        -15    1    5    5    0    0  0.62501367402E+02 -0.58322171302E+02  0.37324793330E+03  0.38291241336E+03  0.00000000000E+00 0. -1.
         15    1    5    5    0    0  0.14305270446E+02 -0.15202142207E+03  0.82779262849E+03  0.84175755970E+03  0.00000000000E+00 0.  1.
         15    1    3    3    0    0 -0.12704006912E+03  0.42648827727E+02 -0.10095584678E+03  0.16778016768E+03  0.00000000000E+00 0. -1.
        -16    1    3    3    0    0 -0.47413125157E+03  0.30751787624E+03 -0.54191319182E+03  0.78296717389E+03  0.00000000000E+00 0.  1.
         16    1    4    4    0    0 -0.57616832196E+03 -0.42398462865E+03 -0.89351778775E+03  0.11445990292E+04  0.00000000000E+00 0. -1.
    9900018    1    1    2    0    0  0.32617768678E+03  0.37728823579E+03  0.25448305214E+02  0.50764268029E+03  0.91187600000E+02 0.  0.
<mgrwt>
<rscale>  0 0.25635443E+04</rscale>
<asrwt>0</asrwt>
<pdfrwt beam="1">  1        2 0.45220406E+00 0.39505778E+04</pdfrwt>
<pdfrwt beam="2">  1       -2 0.33809333E+00 0.39505778E+04</pdfrwt>
<totfact> 0.26752447E-02</totfact>
</mgrwt>
</event>
<event>
12    1  0.3411706E-007  0.3684908E+04  0.7818608E-02  0.8351864E-01
         -2   -1    0    0    0  501 -0.00000000000E+00  0.00000000000E+00  0.30568515298E+04  0.30568515298E+04  0.00000000000E+00 0.  1.
          2   -1    0    0  501    0  0.00000000000E+00 -0.00000000000E+00 -0.23021351220E+04  0.23021351220E+04  0.00000000000E+00 0. -1.
        -24    2    1    2    0    0  0.69560770393E+03  0.69036126632E+03 -0.88741041694E+03  0.13247423241E+04  0.83523777553E+02 0.  0.
    9900016    2    1    2    0    0 -0.70403760923E+03  0.52907100556E+03  0.67184009032E+03  0.24642600889E+04  0.22012777187E+04 0.  0.
         23    2    4    4    0    0 -0.18991060511E+03 -0.14943649981E+03  0.13509964521E+04  0.13752456836E+04  0.87817830959E+02 0.  0.
        -15    1    5    5    0    0 -0.30685968749E+02 -0.75581833395E+02  0.43754095394E+03  0.44508013727E+03  0.00000000000E+00 0. -1.
        -15    1    1    2    0    0  0.66442353764E+02 -0.61893529347E+03  0.44976175213E+03  0.76797208124E+03  0.00000000000E+00 0.  1.
         15    1    5    5    0    0 -0.15922463636E+03 -0.73854666417E+02  0.91345549813E+03  0.93016554636E+03  0.00000000000E+00 0.  1.
         15    1    3    3    0    0  0.33196978204E+03  0.38629441247E+03 -0.47407006094E+03  0.69582306082E+03  0.00000000000E+00 0. -1.
        -16    1    3    3    0    0  0.36363792189E+03  0.30406685386E+03 -0.41334035600E+03  0.62891926330E+03  0.00000000000E+00 0.  1.
         16    1    4    4    0    0 -0.51412700412E+03  0.67850750538E+03 -0.67915636175E+03  0.10890144053E+04  0.00000000000E+00 0. -1.
    9900018    1    1    2    0    0 -0.58012448469E+02 -0.60049697842E+03  0.52052498230E+03  0.80201215755E+03  0.91187600000E+02 0.  0.
<mgrwt>
<rscale>  0 0.26486424E+04</rscale>
<asrwt>0</asrwt>
<pdfrwt beam="1">  1        2 0.35417463E+00 0.36849080E+04</pdfrwt>
<pdfrwt beam="2">  1       -2 0.47028485E+00 0.36849080E+04</pdfrwt>
<totfact> 0.88865585E-03</totfact>
</mgrwt>
</event>
