<event>
13    1  0.4424484E-009  0.5525067E+04  0.7818608E-02  0.7752249E-01
         -1   -1    0    0    0  501 -0.00000000000E+00  0.00000000000E+00  0.19099849706E+04  0.19099849706E+04  0.00000000000E+00 0.  1.
          1   -1    0    0  501    0  0.00000000000E+00 -0.00000000000E+00 -0.39956285548E+04  0.39956285548E+04  0.00000000000E+00 0. -1.
    9900016    2    1    2    0    0 -0.38277671343E+03  0.20744028385E+03 -0.31020240310E+04  0.36359534473E+04  0.18460917904E+04 0.  0.
         23    2    3    3    0    0  0.29107812389E+03  0.16749773463E+02  0.12819573645E+03  0.33069052912E+03  0.88966567242E+02 0.  0.
    9900016    2    1    2    0    0  0.51526744340E+03 -0.18706919756E+03  0.86225886029E+03  0.20459696301E+04  0.17725704393E+04 0.  0.
        -24    2    5    5    0    0  0.96944717364E+02  0.27345582737E+03 -0.48016789026E+03  0.56637955773E+03  0.77770385319E+02 0.  0.
        -15    1    4    4    0    0  0.28583655424E+03  0.72338586666E+01  0.10415253126E+03  0.30430677650E+03  0.00000000000E+00 0. -1.
        -15    1    5    5    0    0  0.41832272604E+03 -0.46052502494E+03  0.13424267505E+04  0.14795900724E+04  0.00000000000E+00 0.  1.
         15    1    6    6    0    0  0.38997309191E+02  0.18189538900E+03 -0.24657644330E+03  0.30887969350E+03  0.00000000000E+00 0. -1.
         15    1    4    4    0    0  0.52415696445E+01  0.95159147960E+01  0.24043205186E+02  0.26383752621E+02  0.00000000000E+00 0.  1.
        -16    1    6    6    0    0  0.57947408173E+02  0.91560438367E+02 -0.23359144696E+03  0.25749986423E+03  0.00000000000E+00 0.  1.
         16    1    3    3    0    0 -0.67385483731E+03  0.19069051039E+03 -0.32302197674E+04  0.33052629182E+04  0.00000000000E+00 0. -1.
    9900018    1    1    2    0    0 -0.13249072997E+03 -0.20371086291E+02  0.15412158649E+03  0.22369044794E+03  0.91187600000E+02 0.  0.
<mgrwt>
<rscale>  0 0.55250667E+04</rscale>
<asrwt>0</asrwt>
<pdfrwt beam="1">  1        1 0.61471208E+00 0.55250667E+04</pdfrwt>
<pdfrwt beam="2">  1       -1 0.29384385E+00 0.55250667E+04</pdfrwt>
<totfact> 0.24194463E-03</totfact>
</mgrwt>
</event>
<event>
13    1  0.4424484E-009  0.6986520E+04  0.7818608E-02  0.7578827E-01
          2   -1    0    0  501    0  0.00000000000E+00  0.00000000000E+00  0.39908916147E+04  0.39908916147E+04  0.00000000000E+00 0. -1.
         -2   -1    0    0    0  501 -0.00000000000E+00 -0.00000000000E+00 -0.30576790467E+04  0.30576790467E+04  0.00000000000E+00 0.  1.
    9900016    2    1    2    0    0 -0.51441049116E+03 -0.41255427021E+03  0.33505878949E+04  0.38838930033E+04  0.18502341582E+04 0.  0.
         23    2    3    3    0    0 -0.24367348629E+03  0.15454223599E+03 -0.14195999308E+03  0.33526119327E+03  0.94801674304E+02 0.  0.
    9900016    2    1    2    0    0  0.51441049116E+03  0.41255427021E+03 -0.24173753269E+04  0.31646776581E+04  0.19330447561E+04 0.  0.
        -24    2    5    5    0    0  0.65877295303E+03 -0.12121936013E+03 -0.10641869988E+04  0.12600692403E+04  0.81268598154E+02 0.  0.
        -15    1    4    4    0    0 -0.21941339879E+03  0.10675868210E+03 -0.88486792379E+02  0.25955648364E+03  0.00000000000E+00 0. -1.
        -15    1    5    5    0    0 -0.13374108373E+03  0.31595547147E+03  0.15608948748E+03  0.37693297220E+03  0.00000000000E+00 0.  1.
         15    1    4    4    0    0 -0.24260087506E+02  0.47783553885E+02 -0.53473200698E+02  0.75704709632E+02  0.00000000000E+00 0.  1.
         15    1    6    6    0    0  0.47930237099E+03 -0.62885782052E+02 -0.71366899225E+03  0.86197959078E+03  0.00000000000E+00 0. -1.
        -16    1    6    6    0    0  0.17947058204E+03 -0.58333578077E+02 -0.35051800650E+03  0.39808964949E+03  0.00000000000E+00 0.  1.
         16    1    3    3    0    0 -0.27073700487E+03 -0.56709650619E+03  0.34925478880E+04  0.35486318100E+04  0.00000000000E+00 0. -1.
    9900018    1    5    5    0    0 -0.10621378133E+02  0.21781815886E+03 -0.15092778156E+04  0.15276754456E+04  0.91187600000E+02 0.  0.
<mgrwt>
<rscale>  0 0.69865201E+04</rscale>
<asrwt>0</asrwt>
<pdfrwt beam="1">  1        2 0.61398332E+00 0.69865201E+04</pdfrwt>
<pdfrwt beam="2">  1       -2 0.47041216E+00 0.69865201E+04</pdfrwt>
<totfact> 0.55543995E-04</totfact>
</mgrwt>
</event>
<event>
13    1  0.4424484E-009  0.6312812E+04  0.7818608E-02  0.7652782E-01
          2   -1    0    0  501    0  0.00000000000E+00  0.00000000000E+00  0.44032370292E+04  0.44032370292E+04  0.00000000000E+00 0. -1.
         -2   -1    0    0    0  501 -0.00000000000E+00 -0.00000000000E+00 -0.22626309108E+04  0.22626309108E+04  0.00000000000E+00 0.  1.
    9900016    2    1    2    0    0  0.88059253622E+03 -0.29711038211E+03  0.31899587616E+04  0.37975106941E+04  0.18388944443E+04 0.  0.
         23    2    3    3    0    0 -0.19612502328E+03 -0.42850451383E+03  0.58739267321E+02  0.48373329634E+03  0.92013354140E+02 0.  0.
    9900016    2    1    2    0    0 -0.18246837135E+03  0.64905315031E+03 -0.10011287442E+04  0.20797624294E+04  0.16936907338E+04 0.  0.
        -24    2    5    5    0    0 -0.27886234424E+03  0.52342980553E+03 -0.14687902176E+04  0.15860213268E+04  0.79849717528E+02 0.  0.
        -15    1    4    4    0    0 -0.48354498820E+02 -0.16700605249E+03 -0.14816201891E+02  0.17449555571E+03  0.00000000000E+00 0.  1.
        -15    1    5    5    0    0  0.96393972893E+02  0.12562334478E+03  0.46766147336E+03  0.49374110264E+03  0.00000000000E+00 0.  1.
         15    1    4    4    0    0 -0.14777052446E+03 -0.26149846133E+03  0.73555469212E+02  0.30923774063E+03  0.00000000000E+00 0. -1.
         15    1    6    6    0    0 -0.14903077199E+03  0.20630764971E+03 -0.57565509035E+03  0.62940591067E+03  0.00000000000E+00 0. -1.
        -16    1    6    6    0    0 -0.12983157226E+03  0.31712215581E+03 -0.89313512726E+03  0.95661541614E+03  0.00000000000E+00 0.  1.
         16    1    3    3    0    0  0.10767175595E+04  0.13139413172E+03  0.31312194943E+04  0.33137773978E+04  0.00000000000E+00 0. -1.
    9900018    1    1    2    0    0 -0.69812416487E+03 -0.35194276820E+03 -0.48223898936E+02  0.78859481643E+03  0.91187600000E+02 0.  0.
<mgrwt>
<rscale>  0 0.63128124E+04</rscale>
<asrwt>0</asrwt>
<pdfrwt beam="1">  1        2 0.67742108E+00 0.63128124E+04</pdfrwt>
<pdfrwt beam="2">  1       -2 0.34809706E+00 0.63128124E+04</pdfrwt>
<totfact> 0.15849137E-03</totfact>
</mgrwt>
</event>
<event>
12    1  0.4424484E-009  0.6165328E+04  0.7818608E-02  0.8216831E-01
          2   -1    0    0  501    0  0.00000000000E+00  0.00000000000E+00  0.33216989340E+04  0.33216989340E+04  0.00000000000E+00 0. -1.
         -2   -1    0    0    0  501 -0.00000000000E+00 -0.00000000000E+00 -0.33391731723E+04  0.33391731723E+04  0.00000000000E+00 0.  1.
    9900016    2    1    2    0    0  0.43667431009E+03  0.79266397170E+03 -0.23577579994E+04  0.31276402105E+04  0.18450230018E+04 0.  0.
         23    2    3    3    0    0 -0.16646233962E+03 -0.46039108810E+02  0.25321433923E+03  0.31972759992E+03  0.90988606452E+02 0.  0.
         24    2    1    2    0    0  0.30882341954E+03  0.22956017275E+03 -0.29291725389E+03  0.48939389357E+03  0.75073884041E+02 0.  0.
        -15    1    4    4    0    0 -0.14888227678E+03 -0.84694098634E+01  0.16595679971E+03  0.22311280244E+03  0.00000000000E+00 0.  1.
        -15    1    5    5    0    0  0.26310212163E+03  0.15943631130E+03 -0.24196179773E+03  0.39139261021E+03  0.00000000000E+00 0.  1.
         15    1    1    2    0    0  0.10248736641E+03 -0.53445680857E+03  0.91961024242E+03  0.10685648031E+04  0.00000000000E+00 0. -1.
         15    1    4    4    0    0 -0.17580062843E+02 -0.37569698947E+02  0.87257539516E+02  0.96614797474E+02  0.00000000000E+00 0. -1.
        -16    1    3    3    0    0  0.60313664971E+03  0.83870308051E+03 -0.26109723386E+04  0.28079126106E+04  0.00000000000E+00 0.  1.
         16    1    5    5    0    0  0.45721297917E+02  0.70123861450E+02 -0.50955456161E+02  0.98001283362E+02  0.00000000000E+00 0. -1.
    9900018    1    1    2    0    0 -0.84798509604E+03 -0.48776733589E+03  0.17135907725E+04  0.19752731991E+04  0.91187600000E+02 0.  0.
<mgrwt>
<rscale>  0 0.30960183E+04</rscale>
<asrwt>0</asrwt>
<pdfrwt beam="1">  1        2 0.51103060E+00 0.61653284E+04</pdfrwt>
<pdfrwt beam="2">  1       -2 0.51371895E+00 0.61653284E+04</pdfrwt>
<totfact> 0.96916935E-04</totfact>
</mgrwt>
</event>
<event>
13    1  0.4424484E-009  0.6716096E+04  0.7818608E-02  0.7607445E-01
         -2   -1    0    0    0  501 -0.00000000000E+00  0.00000000000E+00  0.23236598841E+04  0.23236598841E+04  0.00000000000E+00 0.  1.
          2   -1    0    0  501    0  0.00000000000E+00 -0.00000000000E+00 -0.48528990625E+04  0.48528990625E+04  0.00000000000E+00 0. -1.
    9900016    2    1    2    0    0  0.87958582059E+03 -0.20343484987E+04 -0.30405358604E+04  0.41855701734E+04  0.18335469256E+04 0.  0.
         23    2    3    3    0    0 -0.83693990542E+02  0.23330546883E+03 -0.84507472505E+03  0.88553803604E+03  0.92683313034E+02 0.  0.
    9900016    2    1    2    0    0 -0.87958582059E+03  0.20343484987E+04  0.51129668192E+03  0.29909887732E+04  0.19422524332E+04 0.  0.
        -24    2    5    5    0    0 -0.49326604887E+03  0.68281663362E+03  0.11406877833E+04  0.14202058675E+04  0.79158935367E+02 0.  0.
        -15    1    5    5    0    0 -0.39547882169E+03  0.11331793674E+04 -0.49307154991E+03  0.12975432673E+04  0.00000000000E+00 0.  1.
        -15    1    4    4    0    0 -0.34605746506E+02  0.18753377240E+03 -0.70302652583E+03  0.72843171917E+03  0.00000000000E+00 0.  1.
         15    1    4    4    0    0 -0.49088244036E+02  0.45771696429E+02 -0.14204819923E+03  0.15710631687E+03  0.00000000000E+00 0. -1.
         15    1    6    6    0    0 -0.15369951774E+03  0.26485017342E+03  0.37580805297E+03  0.48476886120E+03  0.00000000000E+00 0. -1.
        -16    1    6    6    0    0 -0.33956653113E+03  0.41796646020E+03  0.76487973036E+03  0.93543700634E+03  0.00000000000E+00 0.  1.
         16    1    3    3    0    0  0.96327981113E+03 -0.22676539676E+04 -0.21954611353E+04  0.33000321374E+04  0.00000000000E+00 0. -1.
    9900018    1    5    5    0    0  0.91590499757E+01  0.21835249767E+03 -0.13631955150E+03  0.27323963832E+03  0.91187600000E+02 0.  0.
<mgrwt>
<rscale>  0 0.67160961E+04</rscale>
<asrwt>0</asrwt>
<pdfrwt beam="1">  1        2 0.74659985E+00 0.67160961E+04</pdfrwt>
<pdfrwt beam="2">  1       -2 0.35748614E+00 0.67160961E+04</pdfrwt>
<totfact> 0.45105689E-04</totfact>
</mgrwt>
</event>
<event>
13    1  0.4424484E-009  0.4885517E+04  0.7818608E-02  0.7846414E-01
         -2   -1    0    0    0  501 -0.00000000000E+00  0.00000000000E+00  0.17874864332E+04  0.17874864332E+04  0.00000000000E+00 0. -1.
          2   -1    0    0  501    0  0.00000000000E+00 -0.00000000000E+00 -0.33382454875E+04  0.33382454875E+04  0.00000000000E+00 0.  1.
    9900016    2    1    2    0    0 -0.13208316750E+04  0.64910482325E+03 -0.12554831383E+04  0.26717762110E+04  0.18428827489E+04 0.  0.
         23    2    3    3    0    0  0.35537504171E+03 -0.26187945135E+03 -0.25480228452E+03  0.51749594217E+03  0.89473899320E+02 0.  0.
    9900016    2    1    2    0    0  0.13208316750E+04 -0.64910482325E+03 -0.29527591606E+03  0.24539557097E+04  0.19413339160E+04 0.  0.
         24    2    5    5    0    0 -0.35613852666E+03  0.20999317662E+03 -0.27703176283E+03  0.50392524955E+03  0.79134538096E+02 0.  0.
        -15    1    6    6    0    0 -0.14883811149E+03  0.59689703453E+02 -0.71475447088E+02  0.17556874342E+03  0.00000000000E+00 0.  1.
        -15    1    4    4    0    0  0.21397740493E+03 -0.17011115595E+03 -0.10783626305E+03  0.29385846053E+03  0.00000000000E+00 0.  1.
         15    1    5    5    0    0  0.64116202736E+03 -0.11762762423E+03  0.12887964038E+03  0.66448097416E+03  0.00000000000E+00 0. -1.
         15    1    4    4    0    0  0.14139763679E+03 -0.91768295401E+02 -0.14696602147E+03  0.22363748164E+03  0.00000000000E+00 0. -1.
        -16    1    3    3    0    0 -0.16762067167E+04  0.91098427460E+03 -0.10006808537E+04  0.21542802689E+04  0.00000000000E+00 0.  1.
         16    1    6    6    0    0 -0.20730041517E+03  0.15030347316E+03 -0.20555631575E+03  0.32835650613E+03  0.00000000000E+00 0. -1.
    9900018    1    5    5    0    0  0.10358081743E+04 -0.74147037564E+03 -0.14712379361E+03  0.12855494860E+04  0.91187600000E+02 0.  0.
<mgrwt>
<rscale>  0 0.48855168E+04</rscale>
<asrwt>0</asrwt>
<pdfrwt beam="1">  1        2 0.51357623E+00 0.48855168E+04</pdfrwt>
<pdfrwt beam="2">  1       -2 0.27499791E+00 0.48855168E+04</pdfrwt>
<totfact> 0.34801405E-02</totfact>
</mgrwt>
</event>
<event>
13    1  0.4424484E-009  0.4111610E+04  0.7818608E-02  0.7982402E-01
          1   -1    0    0  501    0  0.00000000000E+00  0.00000000000E+00  0.28552434729E+04  0.28552434729E+04  0.00000000000E+00 0. -1.
         -1   -1    0    0    0  501 -0.00000000000E+00 -0.00000000000E+00 -0.14802012041E+04  0.14802012041E+04  0.00000000000E+00 0.  1.
    9900016    2    1    2    0    0 -0.95657596373E+02  0.18203155571E+03  0.47196829040E+03  0.19157240152E+04  0.18452529832E+04 0.  0.
         23    2    3    3    0    0  0.11860818261E+03  0.38432285955E+03 -0.64219525432E+03  0.76325188969E+03  0.91469891628E+02 0.  0.
    9900016    2    1    2    0    0  0.98513994937E+02 -0.30712607542E+03  0.11729103248E+04  0.21086199867E+04  0.17223612237E+04 0.  0.
        -24    2    5    5    0    0  0.62643641864E+03 -0.65796272434E+03  0.17831616473E+03  0.92921081981E+03  0.79363466563E+02 0.  0.
        -15    1    5    5    0    0 -0.52792242370E+03  0.35083664892E+03  0.99459416008E+03  0.11794091669E+04  0.00000000000E+00 0.  1.
        -15    1    4    4    0    0  0.77681340789E+02  0.21292934850E+03 -0.44073318883E+03  0.49559967907E+03  0.00000000000E+00 0.  1.
         15    1    4    4    0    0  0.40926841824E+02  0.17139351106E+03 -0.20146206549E+03  0.26765221062E+03  0.00000000000E+00 0. -1.
         15    1    6    6    0    0  0.25194997141E+03 -0.24043904754E+03  0.10389138168E+03  0.36343244608E+03  0.00000000000E+00 0. -1.
        -16    1    6    6    0    0  0.37448644723E+03 -0.41752367680E+03  0.74424783048E+02  0.56577837372E+03  0.00000000000E+00 0.  1.
         16    1    3    3    0    0 -0.21426577899E+03 -0.20229130384E+03  0.11141635447E+04  0.11524721255E+04  0.00000000000E+00 0. -1.
    9900018    1    1    2    0    0 -0.28563985644E+01  0.12509451970E+03 -0.26983634638E+03  0.31110067518E+03  0.91187600000E+02 0.  0.
<mgrwt>
<rscale>  0 0.41116103E+04</rscale>
<asrwt>0</asrwt>
<pdfrwt beam="1">  1        1 0.43926823E+00 0.41116103E+04</pdfrwt>
<pdfrwt beam="2">  1       -1 0.22772326E+00 0.41116103E+04</pdfrwt>
<totfact> 0.57659628E-02</totfact>
</mgrwt>
</event>
<event>
13    1  0.4424484E-009  0.5658577E+04  0.7818608E-02  0.7734238E-01
         -2   -1    0    0    0  501 -0.00000000000E+00  0.00000000000E+00  0.24580160535E+04  0.24580160535E+04  0.00000000000E+00 0.  1.
          2   -1    0    0  501    0  0.00000000000E+00 -0.00000000000E+00 -0.32566398342E+04  0.32566398342E+04  0.00000000000E+00 0. -1.
    9900016    2    1    2    0    0  0.22773941055E+03  0.14252438058E+04  0.99271405595E+03  0.25442116405E+04  0.18450871334E+04 0.  0.
         23    2    3    3    0    0  0.59212310295E+03  0.14387715050E+03 -0.30222272702E+03  0.68638031002E+03  0.92026896996E+02 0.  0.
    9900016    2    1    2    0    0 -0.79710166889E+02 -0.76989661497E+03 -0.14818608857E+04  0.24251364187E+04  0.17567812773E+04 0.  0.
         24    2    5    5    0    0  0.16066474649E+03 -0.14557018901E+03 -0.17044769838E+04  0.17200679736E+04  0.79926245657E+02 0.  0.
        -15    1    4    4    0    0  0.48842903500E+02 -0.10338642435E+02 -0.38756405800E+02  0.63202656117E+02  0.00000000000E+00 0.  1.
        -15    1    6    6    0    0  0.12004873537E+03 -0.11865446415E+03 -0.10211698736E+04  0.10350258410E+04  0.00000000000E+00 0.  1.
         15    1    4    4    0    0  0.54328019945E+03  0.15421579293E+03 -0.26346632122E+03  0.62317765390E+03  0.00000000000E+00 0. -1.
         15    1    5    5    0    0 -0.24037491338E+03 -0.62432642596E+03  0.22261609809E+03  0.70506844509E+03  0.00000000000E+00 0. -1.
        -16    1    3    3    0    0 -0.36438369241E+03  0.12813666554E+04  0.12949367830E+04  0.18578313305E+04  0.00000000000E+00 0.  1.
         16    1    6    6    0    0  0.40616011123E+02 -0.26915724858E+02 -0.68330711021E+03  0.68504213262E+03  0.00000000000E+00 0. -1.
    9900018    1    1    2    0    0 -0.14802924366E+03 -0.65534719088E+03 -0.30947695098E+03  0.74530782846E+03  0.91187600000E+02 0.  0.
<mgrwt>
<rscale>  0 0.56585769E+04</rscale>
<asrwt>0</asrwt>
<pdfrwt beam="1">  1        2 0.50102151E+00 0.56585769E+04</pdfrwt>
<pdfrwt beam="2">  1       -2 0.37815632E+00 0.56585769E+04</pdfrwt>
<totfact> 0.84595959E-03</totfact>
</mgrwt>
</event>
<event>
13    1  0.4424484E-009  0.4644312E+04  0.7818608E-02  0.7885848E-01
         -2   -1    0    0    0  501 -0.00000000000E+00  0.00000000000E+00  0.18389000285E+04  0.18389000285E+04  0.00000000000E+00 0.  1.
          2   -1    0    0  501    0  0.00000000000E+00 -0.00000000000E+00 -0.29324099926E+04  0.29324099926E+04  0.00000000000E+00 0. -1.
    9900016    2    1    2    0    0 -0.41650007479E+03 -0.10531696317E+04 -0.30867353246E+03  0.22312054882E+04  0.18974614609E+04 0.  0.
         23    2    3    3    0    0 -0.58390333717E+03  0.37281757228E+03 -0.37630898217E+03  0.79383361142E+03  0.92883277270E+02 0.  0.
    9900016    2    1    2    0    0  0.49399601532E+03  0.79129582363E+03 -0.34265887779E+03  0.20124496460E+04  0.17499592359E+04 0.  0.
        -24    2    5    5    0    0  0.16355623881E+03 -0.50841142583E+03 -0.39632828754E+03  0.67032081991E+03  0.83791818966E+02 0.  0.
        -15    1    5    5    0    0  0.33043977652E+03  0.12997072495E+04  0.53669409747E+02  0.13421288261E+04  0.00000000000E+00 0.  1.
        -15    1    4    4    0    0 -0.49928724473E+02  0.61108086060E+01 -0.17057291224E+02  0.53114693760E+02  0.00000000000E+00 0.  1.
         15    1    4    4    0    0 -0.53397461270E+03  0.36670676368E+03 -0.35925169095E+03  0.74071891766E+03  0.00000000000E+00 0. -1.
         15    1    6    6    0    0  0.15081637404E+03 -0.45544895589E+03 -0.32057772431E+03  0.57701768381E+03  0.00000000000E+00 0. -1.
        -16    1    6    6    0    0  0.12739864762E+02 -0.52962469940E+02 -0.75750563225E+02  0.93303136095E+02  0.00000000000E+00 0.  1.
         16    1    3    3    0    0  0.16740326239E+03 -0.14259872040E+04  0.67635449712E+02  0.14373718768E+04  0.00000000000E+00 0. -1.
    9900018    1    1    2    0    0 -0.77495940535E+02  0.26187380806E+03 -0.44217755391E+03  0.52765488695E+03  0.91187600000E+02 0.  0.
<mgrwt>
<rscale>  0 0.46443121E+04</rscale>
<asrwt>0</asrwt>
<pdfrwt beam="1">  1        2 0.45113999E+00 0.46443121E+04</pdfrwt>
<pdfrwt beam="2">  1       -2 0.28290770E+00 0.46443121E+04</pdfrwt>
<totfact> 0.58065279E-02</totfact>
</mgrwt>
</event>
<event>
13    1  0.4424484E-009  0.5485821E+04  0.7818608E-02  0.7757643E-01
          1   -1    0    0  501    0  0.00000000000E+00  0.00000000000E+00  0.32870006040E+04  0.32870006040E+04  0.00000000000E+00 0. -1.
         -1   -1    0    0    0  501 -0.00000000000E+00 -0.00000000000E+00 -0.22888825376E+04  0.22888825376E+04  0.00000000000E+00 0.  1.
    9900016    2    1    2    0    0 -0.56025315903E+03 -0.56385745234E+03 -0.13603232269E+04  0.24338179645E+04  0.18550395612E+04 0.  0.
         23    2    3    3    0    0  0.11712742592E+03  0.21163124048E+03  0.35141490061E+03  0.43625079743E+03  0.91190515048E+02 0.  0.
    9900016    2    1    2    0    0  0.56025315903E+03  0.56385745234E+03  0.23584412933E+04  0.31420651771E+04  0.19179440592E+04 0.  0.
         24    2    5    5    0    0  0.55290583018E+03 -0.48896736162E+03  0.33070530782E+03  0.81301790240E+03  0.82693235660E+02 0.  0.
        -15    1    4    4    0    0  0.49131764772E+01  0.46178022607E+02  0.23120305581E+02  0.51875790164E+02  0.00000000000E+00 0.  1.
        -15    1    6    6    0    0  0.41054748960E+03 -0.31623904198E+03  0.21507279914E+03  0.56108170689E+03  0.00000000000E+00 0.  1.
         15    1    5    5    0    0  0.61680593627E+02  0.92154132954E+03  0.19148482324E+04  0.21259554724E+04  0.00000000000E+00 0. -1.
         15    1    4    4    0    0  0.11221424944E+03  0.16545321787E+03  0.32829459503E+03  0.38437500726E+03  0.00000000000E+00 0. -1.
        -16    1    3    3    0    0 -0.67738058495E+03 -0.77548869282E+03 -0.17117381276E+04  0.19975671671E+04  0.00000000000E+00 0.  1.
         16    1    6    6    0    0  0.14235834059E+03 -0.17272831964E+03  0.11563250868E+03  0.25193619550E+03  0.00000000000E+00 0. -1.
    9900018    1    5    5    0    0 -0.54333264779E+02  0.13128348441E+03  0.11288775314E+03  0.20309180226E+03  0.91187600000E+02 0.  0.
<mgrwt>
<rscale>  0 0.54858211E+04</rscale>
<asrwt>0</asrwt>
<pdfrwt beam="1">  1        1 0.50569240E+00 0.54858211E+04</pdfrwt>
<pdfrwt beam="2">  1       -1 0.35213577E+00 0.54858211E+04</pdfrwt>
<totfact> 0.38167283E-03</totfact>
</mgrwt>
</event>
