<event>
11    1  0.1098382E-019  0.3770689E+04  0.7818608E-02  0.8052474E-01
          2   -1    0    0  501    0  0.00000000000E+00  0.00000000000E+00  0.13977153959E+04  0.13977153959E+04  0.00000000000E+00 0. -1.
         -2   -1    0    0    0  501 -0.00000000000E+00 -0.00000000000E+00 -0.25430950851E+04  0.25430950851E+04  0.00000000000E+00 0.  1.
    9900016    2    1    2    0    0  0.27850057437E+03  0.62982620511E+02 -0.56443280526E+03  0.22943857775E+04  0.22054687311E+04 0.  0.
         24    2    3    3    0    0 -0.91522287197E+02 -0.40129245023E+03  0.68550862278E+03  0.80348243085E+03  0.79056847365E+02 0.  0.
        -15    1    4    4    0    0 -0.54313023009E+02 -0.11355684004E+03  0.25438019700E+03  0.28382097352E+03  0.00000000000E+00 0.  1.
        -15    1    3    3    0    0 -0.47537212673E+01 -0.13790061739E+02  0.15645372751E+02  0.21390216389E+02  0.00000000000E+00 0.  1.
         15    1    3    3    0    0 -0.79869235701E+00 -0.15985453503E+02  0.29414429570E+02  0.33487031820E+02  0.00000000000E+00 0. -1.
         15    1    3    3    0    0  0.37557527519E+03  0.49405058599E+03 -0.12950012304E+04  0.14360260985E+04  0.00000000000E+00 0. -1.
        -16    1    1    2    0    0  0.57047529796E+03  0.13223665453E+03 -0.49416890129E+03  0.76624506614E+03  0.00000000000E+00 0.  1.
         16    1    4    4    0    0 -0.37209264188E+02 -0.28773561019E+03  0.43112842579E+03  0.51966145733E+03  0.00000000000E+00 0. -1.
    9900018    1    1    2    0    0 -0.84897587233E+03 -0.19521927504E+03 -0.86777982642E+02  0.88017963724E+03  0.91187600000E+02 0.  0.
<mgrwt>
<rscale>  0 0.37706886E+04</rscale>
<asrwt>0</asrwt>
<pdfrwt beam="1">  1        2 0.21503314E+00 0.37706886E+04</pdfrwt>
<pdfrwt beam="2">  1       -2 0.39124540E+00 0.37706886E+04</pdfrwt>
<totfact> 0.98693593E-02</totfact>
</mgrwt>
</event>
<event>
11    1  0.1098382E-019  0.3200732E+04  0.7818608E-02  0.8188624E-01
         -2   -1    0    0    0  501 -0.00000000000E+00  0.00000000000E+00  0.88362334661E+03  0.88362334661E+03  0.00000000000E+00 0.  1.
          2   -1    0    0  501    0  0.00000000000E+00 -0.00000000000E+00 -0.28984884122E+04  0.28984884122E+04  0.00000000000E+00 0. -1.
    9900016    2    1    2    0    0  0.90057754973E+02 -0.25026111024E+03 -0.18409832865E+04  0.28816638974E+04  0.22009148857E+04 0.  0.
         24    2    3    3    0    0 -0.29909194479E+03  0.74118119008E+00  0.44859049717E+03  0.54572987651E+03  0.84445977858E+02 0.  0.
        -15    1    4    4    0    0 -0.12494003261E+02  0.36290066687E+01  0.29646541008E+02  0.32375719307E+02  0.00000000000E+00 0.  1.
        -15    1    4    4    0    0 -0.86331773229E+02  0.23989887058E+02  0.88440807438E+02  0.12589863450E+03  0.00000000000E+00 0.  1.
         15    1    4    4    0    0 -0.13009682521E+02 -0.25631941742E+01  0.18506305902E+02  0.22766316386E+02  0.00000000000E+00 0. -1.
         15    1    3    3    0    0  0.38914969977E+03 -0.25100229143E+03 -0.22895737836E+04  0.23359340209E+04  0.00000000000E+00 0. -1.
        -16    1    1    2    0    0 -0.59819837434E+02  0.12889340734E+03  0.33747810683E+03  0.36617399689E+03  0.00000000000E+00 0.  1.
         16    1    4    4    0    0 -0.18725648578E+03 -0.24314518363E+02  0.31199684282E+03  0.36468920632E+03  0.00000000000E+00 0. -1.
    9900018    1    1    2    0    0 -0.30237917539E+02  0.12136770290E+03 -0.51135988592E+03  0.53427386450E+03  0.91187600000E+02 0.  0.
<mgrwt>
<rscale>  0 0.32007324E+04</rscale>
<asrwt>0</asrwt>
<pdfrwt beam="1">  1        2 0.44592129E+00 0.32007324E+04</pdfrwt>
<pdfrwt beam="2">  1       -2 0.13594205E+00 0.32007324E+04</pdfrwt>
<totfact> 0.65662303E-01</totfact>
</mgrwt>
</event>
<event>
11    1  0.1098382E-019  0.4277007E+04  0.7818608E-02  0.7950883E-01
          2   -1    0    0  501    0  0.00000000000E+00  0.00000000000E+00  0.18964624973E+04  0.18964624973E+04  0.00000000000E+00 0. -1.
         -2   -1    0    0    0  501 -0.00000000000E+00 -0.00000000000E+00 -0.24114361481E+04  0.24114361481E+04  0.00000000000E+00 0.  1.
    9900016    2    1    2    0    0 -0.69433110897E+03  0.34367458017E+03  0.40670631843E+03  0.23615596180E+04  0.21934780359E+04 0.  0.
         24    2    3    3    0    0 -0.27372681680E+03 -0.30766357241E+03  0.11882703008E+04  0.12606547092E+04  0.87639854111E+02 0.  0.
        -15    1    4    4    0    0 -0.15467669853E+02 -0.17867119520E+02  0.72572852225E+02  0.76323663766E+02  0.00000000000E+00 0.  1.
        -15    1    4    4    0    0 -0.32744826286E+02 -0.86329749031E+01  0.80456427830E+02  0.87292546551E+02  0.00000000000E+00 0.  1.
         15    1    4    4    0    0 -0.13963313441E+02 -0.10027404705E+02  0.78673383473E+02  0.80529648171E+02  0.00000000000E+00 0. -1.
         15    1    3    3    0    0 -0.42060429217E+03  0.65133815258E+03 -0.78156398238E+03  0.11009049088E+04  0.00000000000E+00 0. -1.
        -16    1    1    2    0    0  0.53500221966E+03 -0.79185314014E+03 -0.10749711552E+04  0.14383399303E+04  0.00000000000E+00 0.  1.
         16    1    4    4    0    0 -0.21155100722E+03 -0.27113607328E+03  0.95656763729E+03  0.10165088507E+04  0.00000000000E+00 0. -1.
    9900018    1    1    2    0    0  0.15932888931E+03  0.44817855998E+03  0.15329118593E+03  0.50799909711E+03  0.91187600000E+02 0.  0.
<mgrwt>
<rscale>  0 0.42770075E+04</rscale>
<asrwt>0</asrwt>
<pdfrwt beam="1">  1        2 0.29176346E+00 0.42770075E+04</pdfrwt>
<pdfrwt beam="2">  1       -2 0.37099018E+00 0.42770075E+04</pdfrwt>
<totfact> 0.67316559E-02</totfact>
</mgrwt>
</event>
<event>
11    1  0.1098382E-019  0.2949591E+04  0.7818608E-02  0.8258274E-01
         -2   -1    0    0    0  501 -0.00000000000E+00  0.00000000000E+00  0.11456504309E+04  0.11456504309E+04  0.00000000000E+00 0.  1.
          2   -1    0    0  501    0  0.00000000000E+00 -0.00000000000E+00 -0.18985035605E+04  0.18985035605E+04  0.00000000000E+00 0. -1.
    9900016    2    1    2    0    0 -0.44381904230E+03 -0.61287003479E+01 -0.85347110081E+03  0.23982286712E+04  0.21968329332E+04 0.  0.
        -24    2    3    3    0    0 -0.55315309246E+02 -0.17332431967E+03  0.73100807963E+03  0.75827019646E+03  0.86601242118E+02 0.  0.
        -15    1    4    4    0    0 -0.12295453263E+01 -0.10208857673E+02  0.33099091705E+02  0.34659521468E+02  0.00000000000E+00 0. -1.
        -15    1    3    3    0    0 -0.38850373305E+03  0.16719561932E+03 -0.15844791804E+04  0.16399584748E+04  0.00000000000E+00 0.  1.
         15    1    4    4    0    0 -0.40101292148E+02 -0.30231011390E+02  0.15288128005E+03  0.16091834411E+03  0.00000000000E+00 0. -1.
         15    1    4    4    0    0 -0.11042673995E+02 -0.14122723010E+02  0.39253661231E+02  0.43153700585E+02  0.00000000000E+00 0.  1.
        -16    1    4    4    0    0 -0.29417977769E+01 -0.11876172759E+03  0.50577404664E+03  0.51953863030E+03  0.00000000000E+00 0.  1.
         16    1    1    2    0    0  0.11109681255E+03 -0.20527302960E+03  0.34283157112E+02  0.23591280869E+03  0.00000000000E+00 0. -1.
    9900018    1    1    2    0    0  0.33272222975E+03  0.21140172995E+03  0.66334814038E+02  0.41001251145E+03  0.91187600000E+02 0.  0.
<mgrwt>
<rscale>  0 0.29495908E+04</rscale>
<asrwt>0</asrwt>
<pdfrwt beam="1">  1        2 0.29207747E+00 0.29495908E+04</pdfrwt>
<pdfrwt beam="2">  1       -2 0.17625391E+00 0.29495908E+04</pdfrwt>
<totfact> 0.12592761E+00</totfact>
</mgrwt>
</event>
