<event>
11    1  0.2905697E-009  0.2884271E+04  0.7818608E-02  0.8277573E-01
         -2   -1    0    0    0  501 -0.00000000000E+00  0.00000000000E+00  0.10821709228E+04  0.10821709228E+04  0.00000000000E+00 0.  1.
          2   -1    0    0  501    0  0.00000000000E+00 -0.00000000000E+00 -0.19218361398E+04  0.19218361398E+04  0.00000000000E+00 0. -1.
    9900016    2    1    2    0    0 -0.56072075877E+03  0.13652822441E+03 -0.75644243401E+03  0.24209343768E+04  0.22261335035E+04 0.  0.
         24    2    3    3    0    0 -0.23847664783E+02  0.10796494548E+03  0.15084739558E+03  0.21560791366E+03  0.10726926453E+03 0.  0.
        -15    1    3    3    0    0 -0.44060171746E+03 -0.36014892413E+03 -0.19458137582E+03  0.60141419405E+03  0.00000000000E+00 0.  1.
        -15    1    4    4    0    0  0.95083300147E+01  0.34536035544E+02  0.12633481479E+03  0.13131500874E+03  0.00000000000E+00 0.  1.
         15    1    3    3    0    0 -0.61746171101E+03  0.16259131740E+03 -0.41701984917E+03  0.76262733734E+03  0.00000000000E+00 0. -1.
         15    1    3    3    0    0  0.28412417162E+03  0.35864084198E+03 -0.31285267405E+03  0.55428024870E+03  0.00000000000E+00 0. -1.
        -16    1    1    2    0    0  0.56072075877E+03 -0.13652822441E+03 -0.83222782963E+02  0.58307268584E+03  0.00000000000E+00 0.  1.
         16    1    4    4    0    0 -0.33355994798E+02  0.73428909937E+02  0.24512580781E+02  0.84292904921E+02  0.00000000000E+00 0. -1.
    9900018    1    3    3    0    0  0.23706616287E+03 -0.13251995633E+03  0.17164069458E+02  0.28700468303E+03  0.91187600000E+02 0.  0.
<mgrwt>
<rscale>  0 0.28842713E+04</rscale>
<asrwt>0</asrwt>
<pdfrwt beam="1">  1        2 0.29566710E+00 0.28842713E+04</pdfrwt>
<pdfrwt beam="2">  1       -2 0.16648783E+00 0.28842713E+04</pdfrwt>
<totfact> 0.14413982E+00</totfact>
</mgrwt>
</event>
<event>
11    1  0.2905698E-009  0.2859020E+04  0.7818608E-02  0.8285176E-01
          1   -1    0    0  501    0  0.00000000000E+00  0.00000000000E+00  0.23044177783E+04  0.23044177783E+04  0.00000000000E+00 0. -1.
         -1   -1    0    0    0  501 -0.00000000000E+00 -0.00000000000E+00 -0.88677421536E+03  0.88677421536E+03  0.00000000000E+00 0.  1.
    9900016    2    1    2    0    0 -0.42555388103E+03 -0.44506175996E+02  0.15757910019E+04  0.27350258860E+04  0.21941222414E+04 0.  0.
         24    2    3    3    0    0 -0.38277944605E+03  0.31525631625E+03 -0.13902586435E+03  0.52391918941E+03  0.96210585806E+02 0.  0.
        -15    1    3    3    0    0  0.97751941571E+02  0.18028534773E+03  0.46581134316E+03  0.50895820664E+03  0.00000000000E+00 0.  1.
        -15    1    4    4    0    0 -0.31509426856E+03  0.20943745174E+03 -0.88763784574E+02  0.38862250800E+03  0.00000000000E+00 0.  1.
         15    1    3    3    0    0  0.52978668163E+02  0.23334326755E+03  0.48214875383E+02  0.24409115920E+03  0.00000000000E+00 0. -1.
         15    1    3    3    0    0 -0.18056062114E+02 -0.43313882587E+03  0.63360972512E+03  0.76772166026E+03  0.00000000000E+00 0. -1.
        -16    1    1    2    0    0  0.42555388103E+03  0.44506175996E+02 -0.15814743891E+03  0.45616610768E+03  0.00000000000E+00 0.  1.
         16    1    4    4    0    0 -0.67685177488E+02  0.10581886451E+03 -0.50262079776E+02  0.13529668141E+03  0.00000000000E+00 0. -1.
    9900018    1    3    3    0    0 -0.17544898260E+03 -0.34025228165E+03  0.56718092254E+03  0.69033567049E+03  0.91187600000E+02 0.  0.
<mgrwt>
<rscale>  0 0.28590196E+04</rscale>
<asrwt>0</asrwt>
<pdfrwt beam="1">  1        1 0.35452581E+00 0.28590196E+04</pdfrwt>
<pdfrwt beam="2">  1       -1 0.13642680E+00 0.28590196E+04</pdfrwt>
<totfact> 0.71357011E-01</totfact>
</mgrwt>
</event>
<event>
11    1  0.2905697E-009  0.2685396E+04  0.7818608E-02  0.8339759E-01
         -1   -1    0    0    0  501 -0.00000000000E+00  0.00000000000E+00  0.10086123808E+04  0.10086123808E+04  0.00000000000E+00 0.  1.
          1   -1    0    0  501    0  0.00000000000E+00 -0.00000000000E+00 -0.17874443910E+04  0.17874443910E+04  0.00000000000E+00 0. -1.
    9900016    2    1    2    0    0  0.41185005064E+02  0.41876826409E+03 -0.78580531348E+03  0.23752103740E+04  0.22016065194E+04 0.  0.
         24    2    3    3    0    0  0.85563447733E+01  0.15801152741E+03  0.41626903757E+03  0.44936116051E+03  0.60039046496E+02 0.  0.
        -15    1    4    4    0    0 -0.15051310589E+02  0.11367102630E+03  0.23851014766E+03  0.26464076539E+03  0.00000000000E+00 0.  1.
        -15    1    3    3    0    0 -0.17023153127E+03  0.11877274810E+03  0.10421824249E+03  0.23226532672E+03  0.00000000000E+00 0.  1.
         15    1    3    3    0    0  0.33302707638E+03  0.14036452450E+03 -0.72029866089E+03  0.80587802689E+03  0.00000000000E+00 0. -1.
         15    1    3    3    0    0 -0.32519298265E+03  0.18869009226E+03 -0.27554654111E+03  0.46613337490E+03  0.00000000000E+00 0. -1.
        -16    1    1    2    0    0 -0.41185005064E+02 -0.41876826409E+03  0.69733033459E+01  0.42084639788E+03  0.00000000000E+00 0.  1.
         16    1    4    4    0    0  0.23607655362E+02  0.44340501112E+02  0.17775888990E+03  0.18472039511E+03  0.00000000000E+00 0. -1.
    9900018    1    3    3    0    0  0.19502609782E+03 -0.18707062818E+03 -0.31044739153E+03  0.42157248494E+03  0.91187600000E+02 0.  0.
<mgrwt>
<rscale>  0 0.26853965E+04</rscale>
<asrwt>0</asrwt>
<pdfrwt beam="1">  1        1 0.27499144E+00 0.26853965E+04</pdfrwt>
<pdfrwt beam="2">  1       -1 0.15517114E+00 0.26853965E+04</pdfrwt>
<totfact> 0.11556760E+00</totfact>
</mgrwt>
</event>
<event>
11    1  0.2905697E-009  0.3499116E+04  0.7818608E-02  0.8113999E-01
         -1   -1    0    0    0  501 -0.00000000000E+00  0.00000000000E+00  0.18000784856E+04  0.18000784856E+04  0.00000000000E+00 0.  1.
          1   -1    0    0  501    0  0.00000000000E+00 -0.00000000000E+00 -0.17004556007E+04  0.17004556007E+04  0.00000000000E+00 0. -1.
    9900016    2    1    2    0    0 -0.67121994711E+03 -0.53159650642E+03  0.68066624884E+03  0.24657672266E+04  0.22098801801E+04 0.  0.
        -24    2    3    3    0    0  0.11457099945E+03 -0.38761547671E+03 -0.16489602509E+03  0.44080983244E+03  0.61239999840E+02 0.  0.
        -15    1    3    3    0    0  0.12842081099E+03 -0.50771742772E+02 -0.81165429027E+02  0.16017959117E+03  0.00000000000E+00 0. -1.
        -15    1    3    3    0    0 -0.94108085524E+03 -0.77754043123E+02  0.69177164688E+03  0.11705669049E+04  0.00000000000E+00 0.  1.
         15    1    3    3    0    0  0.70970419492E+02 -0.29997556842E+03 -0.52810604043E+01  0.30830185158E+03  0.00000000000E+00 0. -1.
         15    1    4    4    0    0  0.12483921215E+02 -0.48625287005E+02 -0.43859806845E+02  0.66662954343E+02  0.00000000000E+00 0.  1.
        -16    1    4    4    0    0  0.10208707823E+03 -0.33899018971E+03 -0.12103621825E+03  0.37414687809E+03  0.00000000000E+00 0.  1.
         16    1    1    2    0    0  0.67121994711E+03  0.53159650642E+03 -0.58104336400E+03  0.10347668597E+04  0.00000000000E+00 0. -1.
    9900018    1    3    3    0    0 -0.44101321805E+02  0.28452032460E+03  0.24023711649E+03  0.38590904658E+03  0.91187600000E+02 0.  0.
<mgrwt>
<rscale>  0 0.34991162E+04</rscale>
<asrwt>0</asrwt>
<pdfrwt beam="1">  1        1 0.26160855E+00 0.34991162E+04</pdfrwt>
<pdfrwt beam="2">  1       -1 0.27693515E+00 0.34991162E+04</pdfrwt>
<totfact> 0.18102714E-01</totfact>
</mgrwt>
</event>
<event>
11    1  0.2905697E-009  0.2719980E+04  0.7818608E-02  0.8328551E-01
          2   -1    0    0  501    0  0.00000000000E+00  0.00000000000E+00  0.33987595144E+04  0.33987595144E+04  0.00000000000E+00 0. -1.
         -2   -1    0    0    0  501 -0.00000000000E+00 -0.00000000000E+00 -0.54419046480E+03  0.54419046480E+03  0.00000000000E+00 0.  1.
    9900016    2    1    2    0    0  0.13185942498E+03  0.39424184843E+03  0.20298848592E+04  0.30194146215E+04  0.21962737926E+04 0.  0.
         24    2    3    3    0    0 -0.49735448006E+03  0.77446513967E+03  0.12494748186E+04  0.15550296804E+04  0.98854708262E+02 0.  0.
        -15    1    3    3    0    0  0.29584850904E+03 -0.51948435639E+02  0.47781726825E+03  0.56438844965E+03  0.00000000000E+00 0. -1.
        -15    1    4    4    0    0 -0.45469875975E+03  0.65566255528E+03  0.10460445676E+04  0.13156190885E+04  0.00000000000E+00 0.  1.
         15    1    3    3    0    0  0.23465131736E+03  0.30799815535E+02  0.23156386342E+03  0.33110676861E+03  0.00000000000E+00 0.  1.
         15    1    3    3    0    0  0.40650412589E+02 -0.25705100987E+03  0.23281470533E+03  0.34918528711E+03  0.00000000000E+00 0. -1.
        -16    1    1    2    0    0 -0.13185942498E+03 -0.39424184843E+03  0.82468419043E+03  0.92353535772E+03  0.00000000000E+00 0.  1.
         16    1    4    4    0    0 -0.42655720306E+02  0.11880258440E+03  0.20343025096E+03  0.23941059195E+03  0.00000000000E+00 0. -1.
    9900018    1    3    3    0    0  0.58063666054E+02 -0.10202366127E+03 -0.16178579637E+03  0.21970443572E+03  0.91187600000E+02 0.  0.
<mgrwt>
<rscale>  0 0.27199798E+04</rscale>
<asrwt>0</asrwt>
<pdfrwt beam="1">  1        2 0.52288607E+00 0.27199798E+04</pdfrwt>
<pdfrwt beam="2">  1       -2 0.83721612E-01 0.27199798E+04</pdfrwt>
<totfact> 0.10434898E+00</totfact>
</mgrwt>
</event>
<event>
10    1  0.2905697E-009  0.3621269E+04  0.7818608E-02  0.8085637E-01
          1   -1    0    0  501    0  0.00000000000E+00  0.00000000000E+00  0.23358537682E+04  0.23358537682E+04  0.00000000000E+00 0. -1.
         -1   -1    0    0    0  501 -0.00000000000E+00 -0.00000000000E+00 -0.14035114454E+04  0.14035114454E+04  0.00000000000E+00 0.  1.
    9900016    2    1    2    0    0  0.75991680176E+03  0.80026320470E+03  0.94382764648E+03  0.26357227647E+04  0.21996202226E+04 0.  0.
        -15    1    3    3    0    0  0.17299077459E+02  0.15752449086E+03  0.25766308135E+03  0.30249543268E+03  0.00000000000E+00 0.  1.
        -15    1    3    3    0    0 -0.54797685394E+02  0.13262830550E+01 -0.65363526350E+02  0.85304958404E+02  0.00000000000E+00 0.  1.
         15    1    3    3    0    0  0.66099409909E+03  0.77806314964E+03  0.57731357588E+03  0.11728539674E+04  0.00000000000E+00 0. -1.
         15    1    3    3    0    0  0.26635977392E+03  0.12684727992E+03  0.98434450979E+02  0.31100981130E+03  0.00000000000E+00 0. -1.
        -16    1    1    2    0    0 -0.75991680176E+03 -0.80026320470E+03 -0.11485323652E+02  0.11036424489E+04  0.00000000000E+00 0.  1.
         16    1    3    3    0    0 -0.37406267991E+03 -0.26331638345E+03 -0.74133961566E+02  0.46341585057E+03  0.00000000000E+00 0. -1.
    9900018    1    3    3    0    0  0.24412421660E+03 -0.18161531433E+00  0.14991402618E+03  0.30064274439E+03  0.91187600000E+02 0.  0.
<mgrwt>
<rscale>  0 0.36212691E+04</rscale>
<asrwt>0</asrwt>
<pdfrwt beam="1">  1        1 0.35936212E+00 0.36212691E+04</pdfrwt>
<pdfrwt beam="2">  1       -1 0.21592484E+00 0.36212691E+04</pdfrwt>
<totfact> 0.16648782E-01</totfact>
</mgrwt>
</event>
