<event>
12    1  0.4744549E-013  0.2725935E+04  0.7818608E-02  0.8991579E-01
         -1   -1    0    0    0  501 -0.00000000000E+00  0.00000000000E+00  0.95417534507E+03  0.95417534507E+03  0.00000000000E+00 0.  1.
          1   -1    0    0  501    0  0.00000000000E+00 -0.00000000000E+00 -0.30023626067E+04  0.30023626067E+04  0.00000000000E+00 0. -1.
         23    2    1    2    0    0  0.43615156299E+02 -0.11047124170E+03  0.31107509170E+03  0.35142448458E+03  0.11236226493E+03 0.  0.
    9900016    2    1    2    0    0  0.83282270213E+03 -0.33887401298E+03 -0.23566669108E+04  0.26201966109E+04  0.70931100463E+03 0.  0.
         23    2    4    4    0    0  0.40961611562E+03  0.10294581011E+03 -0.10100343421E+04  0.11000634588E+04  0.10764310986E+03 0.  0.
        -15    1    5    5    0    0  0.28273028272E+03  0.22642482102E+02 -0.60811442133E+03  0.67100837863E+03  0.00000000000E+00 0.  1.
        -15    1    3    3    0    0  0.40745551534E+02 -0.13386432048E+03  0.26668494631E+03  0.30116559707E+03  0.00000000000E+00 0.  1.
         15    1    3    3    0    0  0.28696047652E+01  0.23393078776E+02  0.44390145389E+02  0.50258887510E+02  0.00000000000E+00 0. -1.
         15    1    5    5    0    0  0.12688583290E+03  0.80303328004E+02 -0.40191992080E+03  0.42905508016E+03  0.00000000000E+00 0. -1.
        -16    1    1    2    0    0 -0.87643785843E+03  0.44934525468E+03 -0.25954425552E+01  0.98491685635E+03  0.00000000000E+00 0.  1.
         16    1    4    4    0    0  0.27119410141E+03 -0.33733564577E+03 -0.56422138603E+03  0.71111697420E+03  0.00000000000E+00 0. -1.
    9900018    1    4    4    0    0  0.15201248509E+03 -0.10448417732E+03 -0.78241118266E+03  0.80901617788E+03  0.91187600000E+02 0.  0.
<mgrwt>
<rscale>  0 0.13490079E+04</rscale>
<asrwt>0</asrwt>
<pdfrwt beam="1">  1        1 0.46190194E+00 0.27259355E+04</pdfrwt>
<pdfrwt beam="2">  1       -1 0.14679621E+00 0.27259355E+04</pdfrwt>
<totfact> 0.18818542E-01</totfact>
</mgrwt>
</event>
<event>
12    1  0.4744549E-013  0.9375790E+03  0.7818608E-02  0.9991763E-01
          2   -1    0    0  501    0  0.00000000000E+00  0.00000000000E+00  0.23620882552E+03  0.23620882552E+03  0.00000000000E+00 0.  1.
         -2   -1    0    0    0  501 -0.00000000000E+00 -0.00000000000E+00 -0.11986300508E+04  0.11986300508E+04  0.00000000000E+00 0. -1.
         23    2    1    2    0    0 -0.57575634593E+02 -0.83152075865E+01 -0.16696163920E+03  0.20528191275E+03  0.10430905215E+03 0.  0.
    9900016    2    1    2    0    0  0.11474440972E+03  0.19263608782E+03 -0.57383113882E+03  0.93568347995E+03  0.70423466038E+03 0.  0.
         23    2    4    4    0    0  0.13894408222E+03  0.40980883829E+03 -0.48861369311E+03  0.66096727900E+03  0.10433437062E+03 0.  0.
        -15    1    5    5    0    0  0.11490007613E+03  0.19563338068E+03 -0.21402084519E+03  0.31189640798E+03  0.00000000000E+00 0. -1.
        -15    1    3    3    0    0 -0.23147906174E+02 -0.55308341595E+02 -0.70013586029E+02  0.92177765425E+02  0.00000000000E+00 0.  1.
         15    1    5    5    0    0  0.24044006085E+02  0.21417545761E+03 -0.27459284792E+03  0.34907087103E+03  0.00000000000E+00 0.  1.
         15    1    3    3    0    0 -0.34427728420E+02  0.46993134008E+02 -0.96948053174E+02  0.11310414733E+03  0.00000000000E+00 0. -1.
        -16    1    1    2    0    0 -0.57168775124E+02 -0.18432088023E+03 -0.22162844726E+03  0.29387348362E+03  0.00000000000E+00 0.  1.
         16    1    4    4    0    0 -0.33347817922E+02 -0.78384279847E+02 -0.65052177025E+02  0.10718189223E+03  0.00000000000E+00 0. -1.
    9900018    1    4    4    0    0  0.91481454211E+01 -0.13878847062E+03 -0.20165268684E+02  0.16753430871E+03  0.91187600000E+02 0.  0.
<mgrwt>
<rscale>  0 0.56012876E+03</rscale>
<asrwt>0</asrwt>
<pdfrwt beam="1">  1        2 0.36339819E-01 0.93757900E+03</pdfrwt>
<pdfrwt beam="2">  1       -2 0.18440462E+00 0.93757900E+03</pdfrwt>
<totfact> 0.24296836E+01</totfact>
</mgrwt>
</event>
<event>
11    1  0.4744549E-013  0.1222239E+04  0.7818608E-02  0.9457112E-01
         -1   -1    0    0    0  501 -0.00000000000E+00  0.00000000000E+00  0.41261181905E+03  0.41261181905E+03  0.00000000000E+00 0.  1.
          1   -1    0    0  501    0  0.00000000000E+00 -0.00000000000E+00 -0.19849666626E+04  0.19849666626E+04  0.00000000000E+00 0. -1.
         23    2    1    2    0    0 -0.23246581275E+03  0.21126071082E+03 -0.99543875841E+03  0.10460236123E+04  0.67791103036E+02 0.  0.
    9900016    2    1    2    0    0  0.28333614240E+03  0.12869614863E+03 -0.12019781158E+03  0.77993433254E+03  0.70498792961E+03 0.  0.
        -15    1    4    4    0    0  0.26900934257E+03  0.50628287092E+02  0.57074733328E+02  0.27961898188E+03  0.00000000000E+00 0. -1.
        -15    1    3    3    0    0 -0.10096730704E+03  0.13175554362E+03 -0.57029365270E+03  0.59396024335E+03  0.00000000000E+00 0.  1.
         15    1    4    4    0    0  0.12035397707E+03 -0.44885469947E+02 -0.41001541649E+02  0.13483661085E+03  0.00000000000E+00 0.  1.
         15    1    3    3    0    0 -0.13149850571E+03  0.79505167202E+02 -0.42514510571E+03  0.45206336893E+03  0.00000000000E+00 0. -1.
        -16    1    4    4    0    0 -0.83329588108E+02  0.10354685699E+03 -0.20719322927E+03  0.24616012289E+03  0.00000000000E+00 0.  1.
         16    1    1    2    0    0 -0.50870329642E+02 -0.33995685945E+03 -0.45671827352E+03  0.57162053680E+03  0.00000000000E+00 0. -1.
    9900018    1    4    4    0    0 -0.22697589138E+02  0.19406474503E+02  0.70922226008E+02  0.11931861691E+03  0.91187600000E+02 0.  0.
<mgrwt>
<rscale>  0 0.87521018E+03</rscale>
<asrwt>0</asrwt>
<pdfrwt beam="1">  1        1 0.30537949E+00 0.12222391E+04</pdfrwt>
<pdfrwt beam="2">  1       -1 0.63478740E-01 0.12222391E+04</pdfrwt>
<totfact> 0.75809258E+00</totfact>
</mgrwt>
</event>
