<event>
11    1  0.1225078E-016  0.3426668E+04  0.7818608E-02  0.8286425E-01
          1   -1    0    0  501    0  0.00000000000E+00  0.00000000000E+00  0.19496349306E+04  0.19496349306E+04  0.00000000000E+00 0. -1.
         -1   -1    0    0    0  501 -0.00000000000E+00 -0.00000000000E+00 -0.45028704387E+04  0.45028704387E+04  0.00000000000E+00 0.  1.
    9900016    2    1    2    0    0 -0.66668622511E+03 -0.35912050973E+03 -0.21643605501E+04  0.31419056168E+04  0.21479469850E+04 0.  0.
         24    2    3    3    0    0  0.44187571950E+03 -0.92885961029E+03 -0.95870368624E+03  0.14078004581E+04  0.68956832528E+02 0.  0.
        -15    1    4    4    0    0  0.25258992545E+03 -0.48453838694E+03 -0.54711373855E+03  0.77324805966E+03  0.00000000000E+00 0.  1.
        -15    1    1    2    0    0  0.36066803370E+03 -0.14019967839E+03 -0.42566188633E+02  0.38929328375E+03  0.00000000000E+00 0.  1.
         15    1    3    3    0    0 -0.11085619446E+04  0.56973910056E+03 -0.12056568639E+04  0.17341051586E+04  0.00000000000E+00 0. -1.
         15    1    1    2    0    0 -0.43152670557E+03  0.11211198895E+04  0.68056682747E+03  0.13806868982E+04  0.00000000000E+00 0. -1.
        -16    1    1    2    0    0  0.80005784616E+03 -0.64763461184E+03 -0.87489147306E+03  0.13509101515E+04  0.00000000000E+00 0.  1.
         16    1    4    4    0    0  0.18928579405E+03 -0.44432122335E+03 -0.41158994769E+03  0.63455239845E+03  0.00000000000E+00 0. -1.
    9900018    1    1    2    0    0 -0.62512949183E+02  0.25834910476E+02 -0.15198412376E+03  0.18970941907E+03  0.91187600000E+02 0.  0.
<mgrwt>
<rscale>  0 0.28548972E+04</rscale>
<asrwt>0</asrwt>
<pdfrwt beam="1">  1        1 0.29994384E+00 0.34266681E+04</pdfrwt>
<pdfrwt beam="2">  1       -1 0.69274929E+00 0.34266681E+04</pdfrwt>
<totfact> 0.52495615E-04</totfact>
</mgrwt>
</event>
<event>
10    1  0.1225078E-016  0.5673296E+04  0.7818608E-02  0.7732284E-01
         -2   -1    0    0    0  501 -0.00000000000E+00  0.00000000000E+00  0.26366937192E+04  0.26366937192E+04  0.00000000000E+00 0.  1.
          2   -1    0    0  501    0  0.00000000000E+00 -0.00000000000E+00 -0.30517655892E+04  0.30517655892E+04  0.00000000000E+00 0. -1.
    9900016    2    1    2    0    0  0.73991121105E+03  0.51578285692E+03 -0.14479804252E+03  0.24254469424E+04  0.22468479792E+04 0.  0.
        -15    1    3    3    0    0 -0.23385345864E+03 -0.11073788463E+03 -0.38591505549E+03  0.46462969047E+03  0.00000000000E+00 0.  1.
        -15    1    1    2    0    0 -0.37326093521E+03 -0.89174749428E+03  0.56128439232E+03  0.11178450198E+04  0.00000000000E+00 0.  1.
         15    1    3    3    0    0  0.11332876248E+04  0.63955255561E+03  0.60621062914E+03  0.14355694475E+04  0.00000000000E+00 0. -1.
         15    1    1    2    0    0  0.35358669602E+03 -0.43346729664E+03 -0.89983919679E+03  0.10595414239E+04  0.00000000000E+00 0. -1.
        -16    1    1    2    0    0 -0.72023697186E+03  0.80943193401E+03  0.68280976944E+02  0.10856259223E+04  0.00000000000E+00 0.  1.
         16    1    3    3    0    0 -0.20762556228E+03 -0.79077822927E+02 -0.33010528712E+03  0.39790850302E+03  0.00000000000E+00 0. -1.
    9900018    1    3    3    0    0  0.48102607212E+02  0.66046008863E+02 -0.34988329059E+02  0.12733930136E+03  0.91187600000E+02 0.  0.
<mgrwt>
<rscale>  0 0.56732957E+04</rscale>
<asrwt>0</asrwt>
<pdfrwt beam="1">  1        2 0.46950240E+00 0.56732957E+04</pdfrwt>
<pdfrwt beam="2">  1       -2 0.40564519E+00 0.56732957E+04</pdfrwt>
<totfact> 0.76057474E-03</totfact>
</mgrwt>
</event>
<event>
11    1  0.1225078E-016  0.3489724E+04  0.7818608E-02  0.8468961E-01
          2   -1    0    0  501    0  0.00000000000E+00  0.00000000000E+00  0.31160523851E+04  0.31160523851E+04  0.00000000000E+00 0.  1.
         -2   -1    0    0    0  501 -0.00000000000E+00 -0.00000000000E+00 -0.14958178112E+04  0.14958178112E+04  0.00000000000E+00 0. -1.
    9900016    2    1    2    0    0 -0.62580807942E+03 -0.15201743189E+03  0.13893581228E+04  0.27170082819E+04  0.22443424334E+04 0.  0.
        -24    2    3    3    0    0  0.43334832592E+03  0.30966824123E+02 -0.38688337008E+03  0.58472621807E+03  0.58960090604E+02 0.  0.
        -15    1    3    3    0    0 -0.99270340511E+03 -0.20116626324E+03  0.17382856858E+04  0.20118561184E+04  0.00000000000E+00 0.  1.
        -15    1    1    2    0    0 -0.87484732612E+02  0.12032645237E+03  0.30983710095E+03  0.34370199695E+03  0.00000000000E+00 0.  1.
         15    1    1    2    0    0  0.20429004925E+03 -0.46485113802E+03  0.43916717784E+03  0.67133360919E+03  0.00000000000E+00 0. -1.
         15    1    4    4    0    0  0.18900599392E+03  0.42852402293E+02 -0.17021905093E+03  0.25794208540E+03  0.00000000000E+00 0. -1.
        -16    1    4    4    0    0  0.24434233200E+03 -0.11885578170E+02 -0.21666431914E+03  0.32678413267E+03  0.00000000000E+00 0.  1.
         16    1    1    2    0    0  0.50900276277E+03  0.49654211753E+03 -0.51812782771E+03  0.87982630834E+03  0.00000000000E+00 0. -1.
    9900018    1    3    3    0    0 -0.66453000232E+02  0.18182007227E+02  0.37955807111E+02  0.12042594535E+03  0.91187600000E+02 0.  0.
<mgrwt>
<rscale>  0 0.23228625E+04</rscale>
<asrwt>0</asrwt>
<pdfrwt beam="1">  1        2 0.47939267E+00 0.34897245E+04</pdfrwt>
<pdfrwt beam="2">  1       -2 0.23012582E+00 0.34897245E+04</pdfrwt>
<totfact> 0.10028651E-01</totfact>
</mgrwt>
</event>
<event>
11    1  0.1225078E-016  0.3232938E+04  0.7818608E-02  0.8432363E-01
          2   -1    0    0  501    0  0.00000000000E+00  0.00000000000E+00  0.10765772830E+04  0.10765772830E+04  0.00000000000E+00 0. -1.
         -2   -1    0    0    0  501 -0.00000000000E+00 -0.00000000000E+00 -0.43487799585E+04  0.43487799585E+04  0.00000000000E+00 0.  1.
    9900016    2    1    2    0    0  0.93867313752E+03 -0.30753730887E+02 -0.20116081134E+04  0.30896397257E+04  0.21487795098E+04 0.  0.
         24    2    3    3    0    0  0.10543020824E+04 -0.57398049061E+03 -0.23042353902E+03  0.12238734345E+04  0.61357084833E+02 0.  0.
        -15    1    4    4    0    0  0.53375853023E+03 -0.32418794645E+03 -0.11127931901E+03  0.63433357160E+03  0.00000000000E+00 0.  1.
        -15    1    1    2    0    0 -0.18056222140E+03  0.92609119182E+01  0.18521356263E+03  0.25882917932E+03  0.00000000000E+00 0.  1.
         15    1    1    2    0    0 -0.30690449456E+03 -0.52280762264E+03 -0.54962928644E+03  0.81829733690E+03  0.00000000000E+00 0. -1.
         15    1    3    3    0    0 -0.11562894488E+03  0.54322675973E+03 -0.17811845744E+04  0.18657662912E+04  0.00000000000E+00 0. -1.
        -16    1    1    2    0    0 -0.51003205737E+03  0.55716137387E+03 -0.85732411808E+03  0.11426137315E+04  0.00000000000E+00 0.  1.
         16    1    4    4    0    0  0.52054355217E+03 -0.24979254416E+03 -0.11914422001E+03  0.58953986293E+03  0.00000000000E+00 0. -1.
    9900018    1    1    2    0    0  0.58825635811E+02 -0.12860932257E+02 -0.38854720228E+02  0.11597726797E+03  0.91187600000E+02 0.  0.
<mgrwt>
<rscale>  0 0.24191655E+04</rscale>
<asrwt>0</asrwt>
<pdfrwt beam="1">  1        2 0.16562728E+00 0.32329376E+04</pdfrwt>
<pdfrwt beam="2">  1       -2 0.66904305E+00 0.32329376E+04</pdfrwt>
<totfact> 0.52883343E-03</totfact>
</mgrwt>
</event>
<event>
11    1  0.1225078E-016  0.2877576E+04  0.7818608E-02  0.8605193E-01
          2   -1    0    0  501    0  0.00000000000E+00  0.00000000000E+00  0.19067551062E+04  0.19067551062E+04  0.00000000000E+00 0. -1.
         -2   -1    0    0    0  501 -0.00000000000E+00 -0.00000000000E+00 -0.16756491061E+04  0.16756491061E+04  0.00000000000E+00 0.  1.
    9900016    2    1    2    0    0  0.27950829320E+03  0.26357982964E+03  0.40658002060E+03  0.22259084581E+04  0.21544748637E+04 0.  0.
         24    2    3    3    0    0 -0.21306055003E+02  0.11767327564E+04 -0.80885248180E+01  0.11788709505E+04  0.67211350675E+02 0.  0.
        -15    1    1    2    0    0 -0.31557483705E+03 -0.22672948091E+03 -0.38346459537E+03  0.54592932803E+03  0.00000000000E+00 0.  1.
        -15    1    4    4    0    0  0.25616519384E+01  0.34004454214E+03  0.26857895828E+02  0.34111317663E+03  0.00000000000E+00 0.  1.
         15    1    3    3    0    0  0.30081434820E+03 -0.91315292681E+03  0.41466854542E+03  0.10470375076E+04  0.00000000000E+00 0. -1.
         15    1    1    2    0    0  0.23419000076E+02  0.29062174281E+03  0.19173984156E+03  0.34896076255E+03  0.00000000000E+00 0. -1.
        -16    1    1    2    0    0 -0.33575945884E+02 -0.35401077686E+03  0.85359963840E+01  0.35570189416E+03  0.00000000000E+00 0.  1.
         16    1    4    4    0    0 -0.23867706942E+02  0.83668821431E+03 -0.34946420646E+02  0.83775777389E+03  0.00000000000E+00 0. -1.
    9900018    1    1    2    0    0  0.46223489658E+02  0.26538685325E+02  0.77147370236E+01  0.10590376941E+03  0.91187600000E+02 0.  0.
<mgrwt>
<rscale>  0 0.20030558E+04</rscale>
<asrwt>0</asrwt>
<pdfrwt beam="1">  1        2 0.29334694E+00 0.28775764E+04</pdfrwt>
<pdfrwt beam="2">  1       -2 0.25779217E+00 0.28775764E+04</pdfrwt>
<totfact> 0.36606903E-01</totfact>
</mgrwt>
</event>
<event>
11    1  0.1225078E-016  0.3195537E+04  0.7818608E-02  0.8327848E-01
          2   -1    0    0  501    0  0.00000000000E+00  0.00000000000E+00  0.33177139839E+04  0.33177139839E+04  0.00000000000E+00 0. -1.
         -2   -1    0    0    0  501 -0.00000000000E+00 -0.00000000000E+00 -0.20707936367E+04  0.20707936367E+04  0.00000000000E+00 0.  1.
    9900016    2    1    2    0    0  0.62737923906E+03  0.10772216810E+03  0.54242407290E+03  0.24007961770E+04  0.22504198794E+04 0.  0.
        -24    2    3    3    0    0  0.80363229116E+03  0.94439989285E+03  0.54142059230E+03  0.13546503497E+04  0.65002270595E+02 0.  0.
        -15    1    1    2    0    0  0.24841109955E+03 -0.16544149132E+03 -0.95882020068E+03  0.10041987546E+04  0.00000000000E+00 0.  1.
        -15    1    3    3    0    0 -0.19994024004E+03 -0.90253701492E+03 -0.36765544198E+02  0.92514910589E+03  0.00000000000E+00 0.  1.
         15    1    4    4    0    0  0.45234765105E+03  0.49523652031E+03  0.26834747446E+03  0.72241814450E+03  0.00000000000E+00 0. -1.
         15    1    1    2    0    0 -0.31123817645E+03 -0.81812441303E+02  0.11928500943E+04  0.12354974000E+04  0.00000000000E+00 0. -1.
        -16    1    4    4    0    0  0.35128464011E+03  0.44916337254E+03  0.27307311784E+03  0.63223220520E+03  0.00000000000E+00 0.  1.
         16    1    1    2    0    0 -0.56455216215E+03  0.13953176452E+03  0.47046638066E+03  0.74801528891E+03  0.00000000000E+00 0. -1.
    9900018    1    3    3    0    0  0.23687187935E+02  0.65859290167E+02  0.37769024798E+02  0.12099672145E+03  0.91187600000E+02 0.  0.
<mgrwt>
<rscale>  0 0.27221688E+04</rscale>
<asrwt>0</asrwt>
<pdfrwt beam="1">  1        2 0.51041754E+00 0.31955367E+04</pdfrwt>
<pdfrwt beam="2">  1       -2 0.31858364E+00 0.31955367E+04</pdfrwt>
<totfact> 0.21039346E-02</totfact>
</mgrwt>
</event>
<event>
10    1  0.1225078E-016  0.4496277E+04  0.7818608E-02  0.8025846E-01
          2   -1    0    0  501    0  0.00000000000E+00  0.00000000000E+00  0.30927307229E+04  0.30927307229E+04  0.00000000000E+00 0.  1.
         -2   -1    0    0    0  501 -0.00000000000E+00 -0.00000000000E+00 -0.41366916404E+04  0.41366916404E+04  0.00000000000E+00 0. -1.
    9900016    2    1    2    0    0  0.47976655637E+03  0.62561933714E+03 -0.24315947029E+03  0.23038413280E+04  0.21510422666E+04 0.  0.
        -15    1    1    2    0    0  0.28106620747E+03  0.28450978129E+03  0.58891926982E+03  0.71187775284E+03  0.00000000000E+00 0.  1.
        -15    1    3    3    0    0 -0.19786856019E+03 -0.60309953938E+03 -0.57506771405E+03  0.85649512390E+03  0.00000000000E+00 0.  1.
         15    1    1    2    0    0  0.73159613381E+03 -0.18602095227E+04 -0.10715375521E+04  0.22679958326E+04  0.00000000000E+00 0. -1.
         15    1    3    3    0    0  0.64018280553E+03  0.11039376853E+04  0.27633569250E+03  0.13057081805E+04  0.00000000000E+00 0. -1.
        -16    1    3    3    0    0  0.37452311026E+02  0.12478119119E+03  0.55572551268E+02  0.14163802360E+03  0.00000000000E+00 0.  1.
         16    1    1    2    0    0 -0.15485264133E+04  0.93007586224E+03 -0.32960621448E+03  0.18361959097E+04  0.00000000000E+00 0. -1.
    9900018    1    1    2    0    0  0.56097515650E+02  0.20004541983E+02  0.11423049556E+02  0.10951154011E+03  0.91187600000E+02 0.  0.
<mgrwt>
<rscale>  0 0.38960775E+04</rscale>
<asrwt>0</asrwt>
<pdfrwt beam="1">  1        2 0.47580473E+00 0.44962765E+04</pdfrwt>
<pdfrwt beam="2">  1       -2 0.63641410E+00 0.44962765E+04</pdfrwt>
<totfact> 0.40036420E-04</totfact>
</mgrwt>
</event>
