<event>
11    1  0.1423144E-015  0.5630808E+04  0.7818608E-02  0.7737942E-01
         -2   -1    0    0    0  501 -0.00000000000E+00  0.00000000000E+00  0.32013527027E+04  0.32013527027E+04  0.00000000000E+00 0.  1.
          2   -1    0    0  501    0  0.00000000000E+00 -0.00000000000E+00 -0.24759843682E+04  0.24759843682E+04  0.00000000000E+00 0. -1.
    9900016    2    1    2    0    0 -0.19660060643E+03 -0.58380168426E+03  0.43292744411E+03  0.19461831129E+04  0.17946382176E+04 0.  0.
        -24    2    3    3    0    0  0.21627090647E+03 -0.83375520785E+03  0.91679050488E+03  0.12627629554E+04  0.11020254089E+03 0.  0.
        -15    1    3    3    0    0 -0.41287151290E+03  0.24995352359E+03 -0.48386306077E+03  0.68342015752E+03  0.00000000000E+00 0.  1.
        -15    1    1    2    0    0  0.33304476118E+03 -0.13514451512E+04  0.13665711617E+03  0.13985699758E+04  0.00000000000E+00 0.  1.
         15    1    4    4    0    0  0.17383713935E+03 -0.53282499316E+03  0.53540017871E+03  0.77509688150E+03  0.00000000000E+00 0. -1.
         15    1    1    2    0    0  0.19782302439E+03  0.83789173011E+03  0.39868618973E+03  0.94876086462E+03  0.00000000000E+00 0. -1.
        -16    1    4    4    0    0  0.42433767120E+02 -0.30093021469E+03  0.38139032618E+03  0.48766607387E+03  0.00000000000E+00 0.  1.
         16    1    1    2    0    0 -0.27490457155E+03  0.11766230564E+04 -0.28743653012E+03  0.12420282199E+04  0.00000000000E+00 0. -1.
    9900018    1    1    2    0    0 -0.59362607586E+02 -0.79267950992E+02  0.44534114659E+02  0.14179489764E+03  0.91187600000E+02 0.  0.
<mgrwt>
<rscale>  0 0.56308078E+04</rscale>
<asrwt>0</asrwt>
<pdfrwt beam="1">  1        2 0.38092067E+00 0.56308078E+04</pdfrwt>
<pdfrwt beam="2">  1       -2 0.49251580E+00 0.56308078E+04</pdfrwt>
<totfact> 0.46155142E-03</totfact>
</mgrwt>
</event>
<event>
10    1  0.1423144E-015  0.3888986E+04  0.7818608E-02  0.8214336E-01
          2   -1    0    0  501    0  0.00000000000E+00  0.00000000000E+00  0.41374966291E+04  0.41374966291E+04  0.00000000000E+00 0. -1.
         -2   -1    0    0    0  501 -0.00000000000E+00 -0.00000000000E+00 -0.18106659199E+04  0.18106659199E+04  0.00000000000E+00 0.  1.
    9900016    2    1    2    0    0  0.18624447352E+02 -0.38752903264E+03  0.14197943918E+04  0.23265425890E+04  0.18017931852E+04 0.  0.
        -15    1    3    3    0    0  0.18947747398E+03  0.73766694731E+02  0.15700436676E+03  0.25689221393E+03  0.00000000000E+00 0.  1.
        -15    1    1    2    0    0  0.14656278420E+03 -0.19557512113E+03 -0.15170881667E+03  0.28765577132E+03  0.00000000000E+00 0.  1.
         15    1    1    2    0    0 -0.62779927516E+02 -0.11404800183E+04  0.93615764238E+03  0.14768300927E+04  0.00000000000E+00 0. -1.
         15    1    3    3    0    0 -0.75052980484E+03 -0.63952405021E+03  0.53339755576E+03  0.11210704488E+04  0.00000000000E+00 0. -1.
        -16    1    1    2    0    0 -0.12983494807E+03  0.17406876571E+04  0.69788900128E+02  0.17469176065E+04  0.00000000000E+00 0.  1.
         16    1    3    3    0    0  0.57967677820E+03  0.17822832283E+03  0.72939246932E+03  0.94857992628E+03  0.00000000000E+00 0. -1.
    9900018    1    1    2    0    0  0.27427644036E+02 -0.17103485056E+02  0.52798591578E+02  0.11021648935E+03  0.91187600000E+02 0.  0.
<mgrwt>
<rscale>  0 0.31051129E+04</rscale>
<asrwt>0</asrwt>
<pdfrwt beam="1">  1        2 0.63653794E+00 0.38889856E+04</pdfrwt>
<pdfrwt beam="2">  1       -2 0.27856399E+00 0.38889856E+04</pdfrwt>
<totfact> 0.85396602E-03</totfact>
</mgrwt>
</event>
<event>
11    1  0.1423144E-015  0.2941634E+04  0.7818608E-02  0.8389303E-01
          1   -1    0    0  501    0  0.00000000000E+00  0.00000000000E+00  0.21759020362E+04  0.21759020362E+04  0.00000000000E+00 0. -1.
         -1   -1    0    0    0  501 -0.00000000000E+00 -0.00000000000E+00 -0.24963763918E+04  0.24963763918E+04  0.00000000000E+00 0.  1.
    9900016    2    1    2    0    0 -0.63931004367E+03  0.58635293410E+03 -0.75396435593E+03  0.21437570202E+04  0.18096145491E+04 0.  0.
        -24    2    3    3    0    0  0.17611999666E+03 -0.54336958637E+03 -0.40234505041E+03  0.70680355544E+03  0.10686891869E+03 0.  0.
        -15    1    3    3    0    0 -0.81543004033E+03  0.11297225205E+04 -0.35161930552E+03  0.14369534648E+04  0.00000000000E+00 0.  1.
        -15    1    1    2    0    0  0.45613381469E+03 -0.39645639721E+03 -0.19682383375E+03  0.63559055478E+03  0.00000000000E+00 0.  1.
         15    1    4    4    0    0  0.13867320495E+03 -0.49413117875E+03 -0.32382465111E+03  0.60684288267E+03  0.00000000000E+00 0. -1.
         15    1    1    2    0    0  0.87732463660E+03  0.14536553878E+03  0.51342646419E+03  0.10268575325E+04  0.00000000000E+00 0. -1.
        -16    1    4    4    0    0  0.37446791714E+02 -0.49238407619E+02 -0.78520399301E+02  0.99960672771E+02  0.00000000000E+00 0.  1.
         16    1    1    2    0    0 -0.67127449044E+03 -0.34975226594E+03  0.13600834509E+03  0.76904769617E+03  0.00000000000E+00 0. -1.
    9900018    1    1    2    0    0 -0.22873917184E+02  0.14490190265E+02 -0.19120975200E+02  0.97025624387E+02  0.91187600000E+02 0.  0.
<mgrwt>
<rscale>  0 0.25387680E+04</rscale>
<asrwt>0</asrwt>
<pdfrwt beam="1">  1        1 0.33475416E+00 0.29416342E+04</pdfrwt>
<pdfrwt beam="2">  1       -1 0.38405791E+00 0.29416342E+04</pdfrwt>
<totfact> 0.16956423E-02</totfact>
</mgrwt>
</event>
<event>
11    1  0.1423144E-015  0.3086077E+04  0.7818608E-02  0.8456980E-01
          2   -1    0    0  501    0  0.00000000000E+00  0.00000000000E+00  0.32976824238E+04  0.32976824238E+04  0.00000000000E+00 0. -1.
         -2   -1    0    0    0  501 -0.00000000000E+00 -0.00000000000E+00 -0.13849216776E+04  0.13849216776E+04  0.00000000000E+00 0.  1.
    9900016    2    1    2    0    0 -0.40631283382E+03  0.38018228039E+03  0.11224468932E+04  0.21897409575E+04  0.17959537153E+04 0.  0.
        -24    2    3    3    0    0 -0.66464497253E+03  0.59511611119E+03  0.14610471423E+04  0.17126852226E+04  0.52113284040E+02 0.  0.
        -15    1    3    3    0    0  0.25833213870E+03 -0.21493383079E+03 -0.33860024911E+03  0.47705573490E+03  0.00000000000E+00 0.  1.
        -15    1    1    2    0    0 -0.75817540087E+03  0.10564344136E+03 -0.31810625332E+02  0.76616081280E+03  0.00000000000E+00 0.  1.
         15    1    1    2    0    0  0.27530315950E+03  0.37445260967E+02  0.18100356520E+02  0.27842701038E+03  0.00000000000E+00 0. -1.
         15    1    4    4    0    0 -0.23951249670E+03  0.23622341193E+03  0.51379414240E+03  0.61412715066E+03  0.00000000000E+00 0. -1.
        -16    1    4    4    0    0 -0.42513247583E+03  0.35889269925E+03  0.94725299993E+03  0.10985580720E+04  0.00000000000E+00 0.  1.
         16    1    1    2    0    0  0.94398546589E+03 -0.54481349891E+03  0.77015700636E+03  0.13345681410E+04  0.00000000000E+00 0. -1.
    9900018    1    1    2    0    0 -0.54800390702E+02  0.21542516194E+02  0.33867115391E+02  0.11370717974E+03  0.91187600000E+02 0.  0.
<mgrwt>
<rscale>  0 0.23538672E+04</rscale>
<asrwt>0</asrwt>
<pdfrwt beam="1">  1        2 0.50733576E+00 0.30860771E+04</pdfrwt>
<pdfrwt beam="2">  1       -2 0.21306487E+00 0.30860771E+04</pdfrwt>
<totfact> 0.10027361E-01</totfact>
</mgrwt>
</event>
<event>
11    1  0.1423144E-015  0.3718279E+04  0.7818608E-02  0.8148984E-01
          2   -1    0    0  501    0  0.00000000000E+00  0.00000000000E+00  0.37327292788E+04  0.37327292788E+04  0.00000000000E+00 0. -1.
         -2   -1    0    0    0  501 -0.00000000000E+00 -0.00000000000E+00 -0.29852482426E+04  0.29852482426E+04  0.00000000000E+00 0.  1.
    9900016    2    1    2    0    0  0.91886605902E+02  0.58447826613E+03 -0.48389835261E+02  0.18891779241E+04  0.17934864540E+04 0.  0.
        -24    2    3    3    0    0  0.15797814712E+03  0.94208746099E+03 -0.67028419468E+03  0.11687578922E+04  0.65024839499E+02 0.  0.
        -15    1    3    3    0    0 -0.66091541217E+02 -0.35760919486E+03  0.62189435942E+03  0.72042003189E+03  0.00000000000E+00 0.  1.
        -15    1    1    2    0    0 -0.11355594343E+04 -0.77182938647E+03 -0.47496130988E+02  0.13738528717E+04  0.00000000000E+00 0.  1.
         15    1    1    2    0    0  0.44757423702E+03 -0.77869347784E+03 -0.88771071501E+03  0.12628208676E+04  0.00000000000E+00 0. -1.
         15    1    4    4    0    0  0.15806744042E+03  0.81072776977E+03 -0.57248219511E+03  0.10049879084E+04  0.00000000000E+00 0. -1.
        -16    1    4    4    0    0 -0.89293298439E-01  0.13135969122E+03 -0.97801999567E+02  0.16376998373E+03  0.00000000000E+00 0.  1.
         16    1    1    2    0    0  0.60205870432E+03  0.99595833049E+03  0.17423873054E+04  0.20953093331E+04  0.00000000000E+00 0. -1.
    9900018    1    1    2    0    0 -0.59601129515E+01 -0.29913732307E+02 -0.11309587903E+02  0.96816524928E+02  0.91187600000E+02 0.  0.
<mgrwt>
<rscale>  0 0.33552244E+04</rscale>
<asrwt>0</asrwt>
<pdfrwt beam="1">  1        2 0.57426604E+00 0.37182794E+04</pdfrwt>
<pdfrwt beam="2">  1       -2 0.45926896E+00 0.37182794E+04</pdfrwt>
<totfact> 0.12368285E-03</totfact>
</mgrwt>
</event>
<event>
11    1  0.1423144E-015  0.3671712E+04  0.7818608E-02  0.8188128E-01
          1   -1    0    0  501    0  0.00000000000E+00  0.00000000000E+00  0.30289514363E+04  0.30289514363E+04  0.00000000000E+00 0. -1.
         -1   -1    0    0    0  501 -0.00000000000E+00 -0.00000000000E+00 -0.43759557254E+04  0.43759557254E+04  0.00000000000E+00 0.  1.
    9900016    2    1    2    0    0 -0.82741925848E+03 -0.52113878039E+03  0.47351067526E+03  0.21765321320E+04  0.18859669944E+04 0.  0.
        -24    2    3    3    0    0  0.23556376366E+03  0.47049729960E+03  0.42446379110E+03  0.68226281621E+03  0.91951317289E+02 0.  0.
        -15    1    3    3    0    0 -0.98667164043E+03 -0.94277720060E+03  0.52209712337E+02  0.13656777182E+04  0.00000000000E+00 0.  1.
        -15    1    1    2    0    0 -0.30981733003E+02  0.71614801887E+03 -0.27484512390E+04  0.28403894216E+04  0.00000000000E+00 0.  1.
         15    1    4    4    0    0  0.14422401636E+03  0.32553715241E+03  0.23395279564E+03  0.42603863097E+03  0.00000000000E+00 0. -1.
         15    1    1    2    0    0 -0.62636248926E+03 -0.99849073448E+02 -0.46879908914E+00  0.63427125522E+03  0.00000000000E+00 0. -1.
        -16    1    4    4    0    0  0.91339747299E+02  0.14496014719E+03  0.19051099546E+03  0.25622418524E+03  0.00000000000E+00 0.  1.
         16    1    1    2    0    0  0.14847634808E+04 -0.95160165030E+02  0.92840507376E+03  0.17537143530E+04  0.00000000000E+00 0. -1.
    9900018    1    3    3    0    0 -0.76311381709E+02 -0.48858879385E+02 -0.31628281856E+01  0.12859159751E+03  0.91187600000E+02 0.  0.
<mgrwt>
<rscale>  0 0.32026110E+04</rscale>
<asrwt>0</asrwt>
<pdfrwt beam="1">  1        1 0.46599253E+00 0.36717121E+04</pdfrwt>
<pdfrwt beam="2">  1       -1 0.67322396E+00 0.36717121E+04</pdfrwt>
<totfact> 0.10301643E-04</totfact>
</mgrwt>
</event>
<event>
11    1  0.1423144E-015  0.3242580E+04  0.7818608E-02  0.8204139E-01
          2   -1    0    0  501    0  0.00000000000E+00  0.00000000000E+00  0.39803400771E+04  0.39803400771E+04  0.00000000000E+00 0. -1.
         -2   -1    0    0    0  501 -0.00000000000E+00 -0.00000000000E+00 -0.26276327972E+04  0.26276327972E+04  0.00000000000E+00 0.  1.
    9900016    2    1    2    0    0 -0.58576943853E+03  0.11643129981E+04  0.16070518168E+03  0.22949259858E+04  0.18820490249E+04 0.  0.
         24    2    3    3    0    0  0.29595093745E+02  0.25642904266E+03 -0.74352108959E+03  0.79257198051E+03  0.93354218623E+02 0.  0.
        -15    1    1    2    0    0  0.81070254332E+03 -0.12162484587E+03  0.25869482440E+02  0.82018317894E+03  0.00000000000E+00 0.  1.
        -15    1    4    4    0    0 -0.84828428707E+01  0.22484648003E+03 -0.60618567047E+03  0.64659799357E+03  0.00000000000E+00 0.  1.
         15    1    1    2    0    0 -0.20780961134E+03 -0.18488394319E+04  0.17045704998E+04  0.25232821222E+04  0.00000000000E+00 0. -1.
         15    1    3    3    0    0 -0.60896868045E+03  0.85033609509E+03  0.92029630422E+03  0.13931473777E+04  0.00000000000E+00 0. -1.
        -16    1    1    2    0    0 -0.17123493454E+02  0.80615127964E+03 -0.53843788407E+03  0.96958158744E+03  0.00000000000E+00 0.  1.
         16    1    4    4    0    0  0.38077936616E+02  0.31582562634E+02 -0.13733541912E+03  0.14597398695E+03  0.00000000000E+00 0. -1.
    9900018    1    3    3    0    0 -0.63958518212E+01  0.57547860343E+02 -0.16070032950E+02  0.10920662756E+03  0.91187600000E+02 0.  0.
<mgrwt>
<rscale>  0 0.31426138E+04</rscale>
<asrwt>0</asrwt>
<pdfrwt beam="1">  1        2 0.61236002E+00 0.32425804E+04</pdfrwt>
<pdfrwt beam="2">  1       -2 0.40425120E+00 0.32425804E+04</pdfrwt>
<totfact> 0.19101642E-03</totfact>
</mgrwt>
</event>
<event>
11    1  0.1423144E-015  0.6033039E+04  0.7818608E-02  0.7686319E-01
          1   -1    0    0  501    0  0.00000000000E+00  0.00000000000E+00  0.31201208013E+04  0.31201208013E+04  0.00000000000E+00 0. -1.
         -1   -1    0    0    0  501 -0.00000000000E+00 -0.00000000000E+00 -0.29163577424E+04  0.29163577424E+04  0.00000000000E+00 0.  1.
    9900016    2    1    2    0    0  0.63290144991E+03  0.86550528156E+03  0.60502306353E+03  0.22561048238E+04  0.18905799192E+04 0.  0.
        -24    2    3    3    0    0  0.10704765009E+04  0.74025447944E+02  0.63639830185E+03  0.12509082007E+04  0.91481266217E+02 0.  0.
        -15    1    1    2    0    0 -0.56780333470E+03 -0.48402612849E+03 -0.13563322076E+04  0.15480048376E+04  0.00000000000E+00 0.  1.
        -15    1    3    3    0    0 -0.46487221860E+03  0.76966941427E+03 -0.66008923542E+02  0.90158436370E+03  0.00000000000E+00 0.  1.
         15    1    4    4    0    0  0.59976554686E+03  0.69923560038E+02  0.31629538095E+03  0.68165297876E+03  0.00000000000E+00 0. -1.
         15    1    1    2    0    0  0.52074984515E+02 -0.11788069664E+04  0.75893108424E+03  0.14029519089E+04  0.00000000000E+00 0. -1.
        -16    1    4    4    0    0  0.47071095407E+03  0.41018879058E+01  0.32010292090E+03  0.56925522197E+03  0.00000000000E+00 0.  1.
         16    1    1    2    0    0 -0.11717309972E+03  0.79732781330E+03  0.19614111871E+03  0.82941697330E+03  0.00000000000E+00 0. -1.
    9900018    1    3    3    0    0  0.27297167583E+02  0.21810419351E+02  0.34633685227E+02  0.10361225939E+03  0.91187600000E+02 0.  0.
<mgrwt>
<rscale>  0 0.60330385E+04</rscale>
<asrwt>0</asrwt>
<pdfrwt beam="1">  1        1 0.48001858E+00 0.60330385E+04</pdfrwt>
<pdfrwt beam="2">  1       -1 0.44867042E+00 0.60330385E+04</pdfrwt>
<totfact> 0.10779140E-03</totfact>
</mgrwt>
</event>
