<event>
11    1  0.1569296E-015  0.3797973E+04  0.7818608E-02  0.8659860E-01
          1   -1    0    0  501    0  0.00000000000E+00  0.00000000000E+00  0.20060523744E+04  0.20060523744E+04  0.00000000000E+00 0. -1.
         -1   -1    0    0    0  501 -0.00000000000E+00 -0.00000000000E+00 -0.21491623399E+04  0.21491623399E+04  0.00000000000E+00 0.  1.
        -24    2    1    2    0    0 -0.13475451435E+03 -0.16419034972E+03 -0.26816414590E+03  0.35518332754E+03  0.95529769903E+02 0.  0.
    9900016    2    1    2    0    0  0.12734499158E+04  0.46265525455E+03  0.34881617880E+01  0.26166097317E+04  0.22385061421E+04 0.  0.
        -15    1    1    2    0    0 -0.11386954015E+04 -0.29846490483E+03  0.12156601867E+03  0.11834216550E+04  0.00000000000E+00 0.  1.
        -15    1    4    4    0    0 -0.19395632380E+03  0.35489424336E+03  0.18500856472E+03  0.44474391342E+03  0.00000000000E+00 0.  1.
         15    1    4    4    0    0 -0.18716284323E+02  0.27428906956E+03  0.19173538624E+03  0.33518241499E+03  0.00000000000E+00 0. -1.
         15    1    3    3    0    0 -0.46401419169E+02 -0.32161160062E+02 -0.14036831738E+03  0.15129671656E+03  0.00000000000E+00 0. -1.
        -16    1    3    3    0    0 -0.88353095178E+02 -0.13202918966E+03 -0.12779582852E+03  0.20388661098E+03  0.00000000000E+00 0.  1.
         16    1    4    4    0    0  0.86876325132E+03 -0.49303037137E+03 -0.50633419036E+03  0.11199119815E+04  0.00000000000E+00 0. -1.
    9900018    1    4    4    0    0  0.61735927260E+03  0.32650231301E+03  0.13307840119E+03  0.71677142181E+03  0.91187600000E+02 0.  0.
<mgrwt>
<rscale>  0 0.18899796E+04</rscale>
<asrwt>0</asrwt>
<pdfrwt beam="1">  1        1 0.30862344E+00 0.37979731E+04</pdfrwt>
<pdfrwt beam="2">  1       -1 0.33064036E+00 0.37979731E+04</pdfrwt>
<totfact> 0.48372748E-02</totfact>
</mgrwt>
</event>
<event>
12    1  0.1569296E-015  0.3813344E+04  0.7818608E-02  0.8687484E-01
          2   -1    0    0  501    0  0.00000000000E+00  0.00000000000E+00  0.27586846725E+04  0.27586846725E+04  0.00000000000E+00 0. -1.
         -2   -1    0    0    0  501 -0.00000000000E+00 -0.00000000000E+00 -0.18294441721E+04  0.18294441721E+04  0.00000000000E+00 0.  1.
         24    2    1    2    0    0  0.18254118379E+03 -0.37035707750E+01  0.74247842895E+03  0.77021402481E+03  0.92846251126E+02 0.  0.
    9900016    2    1    2    0    0  0.10952119243E+04 -0.36885164785E+03  0.20146048688E+03  0.24868752112E+04  0.21928112758E+04 0.  0.
         23    2    4    4    0    0 -0.28051619398E+03  0.41258561421E+02  0.73564153989E+03  0.79770346056E+03  0.12153489958E+03 0.  0.
        -15    1    3    3    0    0  0.85097716197E+02  0.24644114466E+02  0.20633932807E+03  0.22455483070E+03  0.00000000000E+00 0.  1.
        -15    1    5    5    0    0 -0.20511976652E+03 -0.17888606543E+02  0.41862708038E+03  0.46652197514E+03  0.00000000000E+00 0.  1.
         15    1    1    2    0    0 -0.12777531081E+04  0.37255521863E+03 -0.14698415385E+02  0.13310396086E+04  0.00000000000E+00 0. -1.
         15    1    5    5    0    0 -0.75396427454E+02  0.59147167965E+02  0.31701445950E+03  0.33118148542E+03  0.00000000000E+00 0. -1.
        -16    1    4    4    0    0  0.98842976958E+02  0.11391797668E+03 -0.22650609967E+03  0.27212543558E+03  0.00000000000E+00 0.  1.
         16    1    3    3    0    0  0.97443467595E+02 -0.28347685241E+02  0.53613910088E+03  0.54565919412E+03  0.00000000000E+00 0. -1.
    9900018    1    4    4    0    0  0.12768851413E+04 -0.52402818595E+03 -0.30767495334E+03  0.14170463151E+04  0.91187600000E+02 0.  0.
<mgrwt>
<rscale>  0 0.18358112E+04</rscale>
<asrwt>0</asrwt>
<pdfrwt beam="1">  1        2 0.42441303E+00 0.38133441E+04</pdfrwt>
<pdfrwt beam="2">  1       -2 0.28145295E+00 0.38133441E+04</pdfrwt>
<totfact> 0.79006285E-02</totfact>
</mgrwt>
</event>
<event>
11    1  0.1569296E-015  0.2838326E+04  0.7818608E-02  0.9187761E-01
         -2   -1    0    0    0  501 -0.00000000000E+00  0.00000000000E+00  0.22008190070E+04  0.22008190070E+04  0.00000000000E+00 0. -1.
          2   -1    0    0  501    0  0.00000000000E+00 -0.00000000000E+00 -0.10888439291E+04  0.10888439291E+04  0.00000000000E+00 0.  1.
        -24    2    1    2    0    0 -0.36960210499E+02  0.22034903411E+00  0.34198706098E+03  0.34874868199E+03  0.57483802904E+02 0.  0.
    9900016    2    1    2    0    0  0.68870476996E+02 -0.48278960769E+03  0.30632913847E+03  0.22709359634E+04  0.21966983545E+04 0.  0.
        -15    1    1    2    0    0 -0.31910266497E+02  0.48256925865E+03  0.46365887851E+03  0.66997829079E+03  0.00000000000E+00 0.  1.
        -15    1    4    4    0    0  0.44143075911E+02 -0.29359281649E+03 -0.20542129084E+03  0.36103082940E+03  0.00000000000E+00 0. -1.
         15    1    3    3    0    0 -0.32099168349E+02  0.25486549339E+02  0.24510176280E+03  0.24850512054E+03  0.00000000000E+00 0. -1.
         15    1    4    4    0    0  0.38251784702E+02 -0.22229528354E+01 -0.15355835601E+02  0.41278835246E+02  0.00000000000E+00 0.  1.
        -16    1    3    3    0    0 -0.48610421503E+01 -0.25266200305E+02  0.96885298182E+02  0.10024356145E+03  0.00000000000E+00 0.  1.
         16    1    4    4    0    0  0.82913572815E+03  0.14640115780E+03  0.57553545878E+02  0.84392639806E+03  0.00000000000E+00 0. -1.
    9900018    1    4    4    0    0 -0.84266011177E+03 -0.33337499616E+03  0.46955271903E+03  0.10246999006E+04  0.91187600000E+02 0.  0.
<mgrwt>
<rscale>  0 0.11180650E+04</rscale>
<asrwt>0</asrwt>
<pdfrwt beam="1">  1        2 0.16751445E+00 0.28383261E+04</pdfrwt>
<pdfrwt beam="2">  1       -2 0.33858754E+00 0.28383261E+04</pdfrwt>
<totfact> 0.34936141E-01</totfact>
</mgrwt>
</event>
<event>
10    1  0.1569296E-015  0.3850682E+04  0.7818608E-02  0.8543738E-01
          2   -1    0    0  501    0  0.00000000000E+00  0.00000000000E+00  0.31005409819E+04  0.31005409819E+04  0.00000000000E+00 0. -1.
         -2   -1    0    0    0  501 -0.00000000000E+00 -0.00000000000E+00 -0.18699780304E+04  0.18699780304E+04  0.00000000000E+00 0.  1.
    9900016    2    1    2    0    0  0.12657991987E+04  0.34798647645E+03 -0.50600545137E+03  0.26132183892E+04  0.22021640797E+04 0.  0.
        -15    1    3    3    0    0  0.24396292077E+03 -0.35588786367E+03  0.38801940858E+03  0.58028711829E+03  0.00000000000E+00 0.  1.
        -15    1    1    2    0    0 -0.23931080429E+01  0.27437479650E+02  0.70007574692E+02  0.75230331449E+02  0.00000000000E+00 0.  1.
         15    1    3    3    0    0  0.13763501908E+03 -0.20486817002E+03  0.94911140608E+02  0.26442861073E+03  0.00000000000E+00 0. -1.
         15    1    1    2    0    0 -0.93262121788E+03 -0.45284744490E+03  0.68304266061E+03  0.12415314819E+04  0.00000000000E+00 0. -1.
        -16    1    3    3    0    0  0.10057981102E+03  0.41953133194E+03 -0.65028083586E+03  0.78037683355E+03  0.00000000000E+00 0.  1.
         16    1    1    2    0    0 -0.33078487274E+03  0.77423488808E+02  0.98351816758E+03  0.10405388098E+04  0.00000000000E+00 0. -1.
    9900018    1    3    3    0    0  0.78362144780E+03  0.48921117820E+03 -0.33865516469E+03  0.98812582665E+03  0.91187600000E+02 0.  0.
<mgrwt>
<rscale>  0 0.21402020E+04</rscale>
<asrwt>0</asrwt>
<pdfrwt beam="1">  1        2 0.47700631E+00 0.38506823E+04</pdfrwt>
<pdfrwt beam="2">  1       -2 0.28768893E+00 0.38506823E+04</pdfrwt>
<totfact> 0.43892138E-02</totfact>
</mgrwt>
</event>
<event>
10    1  0.1569296E-015  0.2610747E+04  0.7818608E-02  0.8364560E-01
         -1   -1    0    0    0  501 -0.00000000000E+00  0.00000000000E+00  0.13611606832E+04  0.13611606832E+04  0.00000000000E+00 0.  1.
          1   -1    0    0  501    0  0.00000000000E+00 -0.00000000000E+00 -0.12518724652E+04  0.12518724652E+04  0.00000000000E+00 0. -1.
    9900016    2    1    2    0    0 -0.13272255284E+03 -0.25986398551E+03  0.52514556390E+02  0.22168612495E+04  0.21969459379E+04 0.  0.
        -15    1    1    2    0    0  0.45540486245E+02  0.88004409892E+02  0.62295602210E+02  0.11704466713E+03  0.00000000000E+00 0.  1.
        -15    1    3    3    0    0  0.22522432376E+03 -0.67670381838E+02 -0.72650613081E+03  0.76362060913E+03  0.00000000000E+00 0. -1.
         15    1    1    2    0    0  0.12746615415E+03  0.18480505907E+03 -0.35473896204E+02  0.22728600402E+03  0.00000000000E+00 0. -1.
         15    1    3    3    0    0  0.64996925867E+02  0.74834613456E+02 -0.20181469893E+03  0.22484215007E+03  0.00000000000E+00 0.  1.
        -16    1    3    3    0    0  0.70840688081E+01  0.29198846769E+02  0.53474401948E+03  0.53558745603E+03  0.00000000000E+00 0.  1.
         16    1    1    2    0    0 -0.40284087553E+02 -0.12945483453E+02  0.29951955555E+02  0.51841227738E+02  0.00000000000E+00 0. -1.
    9900018    1    3    3    0    0 -0.43002787128E+03 -0.29622706390E+03  0.44609136665E+03  0.69281103430E+03  0.91187600000E+02 0.  0.
<mgrwt>
<rscale>  0 0.26107467E+04</rscale>
<asrwt>0</asrwt>
<pdfrwt beam="1">  1        1 0.19259576E+00 0.26107467E+04</pdfrwt>
<pdfrwt beam="2">  1       -1 0.20940934E+00 0.26107467E+04</pdfrwt>
<totfact> 0.11184811E+00</totfact>
</mgrwt>
</event>
