<event>
13    1  0.1443951E-009  0.5804414E+04  0.7818608E-02  0.7715136E-01
         -1   -1    0    0    0  501 -0.00000000000E+00  0.00000000000E+00  0.28335024899E+04  0.28335024899E+04  0.00000000000E+00 0.  1.
          1   -1    0    0  501    0  0.00000000000E+00 -0.00000000000E+00 -0.29725772637E+04  0.29725772637E+04  0.00000000000E+00 0. -1.
    9900016    2    1    2    0    0 -0.49001742730E+03  0.14453066795E+04  0.22529199691E+03  0.26871173542E+04  0.22001851546E+04 0.  0.
         24    2    3    3    0    0  0.73825966177E+03  0.99820895390E+03  0.51936675439E+03  0.13473259724E+04  0.64007862722E+02 0.  0.
    9900016    2    1    2    0    0  0.60590446858E+03 -0.13495777337E+04  0.14435764936E+03  0.25807156611E+04  0.21096857369E+04 0.  0.
         23    2    5    5    0    0  0.21258322699E+03  0.22763073660E+03 -0.68339562187E+03  0.75658199391E+03  0.91538827226E+02 0.  0.
        -15    1    6    6    0    0  0.94597173090E+02  0.45390052695E+02 -0.26949859655E+03  0.28920300064E+03  0.00000000000E+00 0.  1.
        -15    1    4    4    0    0  0.43271133428E+03  0.56226778336E+03  0.26561901377E+03  0.75758670758E+03  0.00000000000E+00 0.  1.
         15    1    6    6    0    0  0.11798605390E+03  0.18224068390E+03 -0.41389702532E+03  0.46737899327E+03  0.00000000000E+00 0. -1.
         15    1    3    3    0    0 -0.12282770891E+04  0.44709772558E+03 -0.29407475748E+03  0.13397913818E+04  0.00000000000E+00 0. -1.
        -16    1    5    5    0    0  0.39332124160E+03 -0.15772084703E+04  0.82775327123E+03  0.18241336672E+04  0.00000000000E+00 0.  1.
         16    1    4    4    0    0  0.30554832749E+03  0.43594117054E+03  0.25374774062E+03  0.58973926482E+03  0.00000000000E+00 0. -1.
    9900018    1    1    2    0    0 -0.11588704128E+03 -0.95728945817E+02 -0.50872442001E+03  0.53824673832E+03  0.91187600000E+02 0.  0.
<mgrwt>
<rscale>  0 0.58044139E+04</rscale>
<asrwt>0</asrwt>
<pdfrwt beam="1">  1        1 0.45731958E+00 0.58044139E+04</pdfrwt>
<pdfrwt beam="2">  1       -1 0.43592346E+00 0.58044139E+04</pdfrwt>
<totfact> 0.17221318E-03</totfact>
</mgrwt>
</event>
<event>
13    1  0.1443951E-009  0.4677626E+04  0.7818608E-02  0.7880257E-01
         -2   -1    0    0    0  501 -0.00000000000E+00  0.00000000000E+00  0.24652909339E+04  0.24652909339E+04  0.00000000000E+00 0.  1.
          2   -1    0    0  501    0  0.00000000000E+00 -0.00000000000E+00 -0.22188234368E+04  0.22188234368E+04  0.00000000000E+00 0. -1.
    9900016    2    1    2    0    0  0.19511413731E+03 -0.40291552980E+03 -0.71278560271E+03  0.23564253309E+04  0.22009694623E+04 0.  0.
         24    2    3    3    0    0 -0.51215339508E+03  0.66283495288E+03  0.91803310067E+02  0.84532812284E+03  0.67085860483E+02 0.  0.
    9900016    2    1    2    0    0 -0.19511413731E+03  0.40291552980E+03  0.95925309985E+03  0.23276890398E+04  0.20730555481E+04 0.  0.
         23    2    5    5    0    0  0.44661150371E+03  0.40883025548E+03 -0.18284730341E+03  0.63852293105E+03  0.87603561970E+02 0.  0.
        -15    1    6    6    0    0  0.39285981216E+03  0.34902680627E+03 -0.18755827109E+03  0.55797549100E+03  0.00000000000E+00 0. -1.
        -15    1    4    4    0    0 -0.19465849778E+03  0.24938975491E+03  0.20572616863E+01  0.31637226955E+03  0.00000000000E+00 0.  1.
         15    1    6    6    0    0  0.53751691552E+02  0.59803449219E+02  0.47109676728E+01  0.80547440056E+02  0.00000000000E+00 0.  1.
         15    1    3    3    0    0  0.70726753240E+03 -0.10657504827E+04 -0.80458891277E+03  0.15110972081E+04  0.00000000000E+00 0. -1.
        -16    1    5    5    0    0 -0.36348527268E+03  0.50178717642E+03  0.79526369945E+03  0.10081449626E+04  0.00000000000E+00 0.  1.
         16    1    4    4    0    0 -0.31749489730E+03  0.41344519796E+03  0.89746048381E+02  0.52895585329E+03  0.00000000000E+00 0. -1.
    9900018    1    5    5    0    0 -0.27824036834E+03 -0.50770190211E+03  0.34683670381E+03  0.68102114614E+03  0.91187600000E+02 0.  0.
<mgrwt>
<rscale>  0 0.46776256E+04</rscale>
<asrwt>0</asrwt>
<pdfrwt beam="1">  1        2 0.34135745E+00 0.46776256E+04</pdfrwt>
<pdfrwt beam="2">  1       -2 0.37927553E+00 0.46776256E+04</pdfrwt>
<totfact> 0.38098726E-02</totfact>
</mgrwt>
</event>
<event>
13    1  0.1443951E-009  0.6160447E+04  0.7818608E-02  0.7670821E-01
          3   -1    0    0  501    0  0.00000000000E+00  0.00000000000E+00  0.20243196171E+04  0.20243196171E+04  0.00000000000E+00 0. -1.
         -3   -1    0    0    0  501 -0.00000000000E+00 -0.00000000000E+00 -0.46868968106E+04  0.46868968106E+04  0.00000000000E+00 0.  1.
    9900016    2    1    2    0    0  0.12040340768E+04 -0.17355521844E+04 -0.14671979215E+04  0.33756262836E+04  0.21863996942E+04 0.  0.
         24    2    3    3    0    0  0.60358329671E+02 -0.97426600661E+03 -0.17199727898E+04  0.19786846266E+04  0.63632336764E+02 0.  0.
    9900016    2    1    2    0    0 -0.12040340768E+04  0.17355521844E+04 -0.11953792720E+04  0.33355901441E+04  0.22880975858E+04 0.  0.
         23    2    5    5    0    0 -0.19635364716E+03  0.55312166890E+02  0.37603669487E+03  0.43750097289E+03  0.91593202972E+02 0.  0.
        -15    1    4    4    0    0  0.49531451517E+02 -0.52959878551E+03 -0.88196172977E+03  0.10299440427E+04  0.00000000000E+00 0.  1.
        -15    1    6    6    0    0 -0.19600398267E+02  0.41724067806E+02  0.86071041109E+02  0.97638606934E+02  0.00000000000E+00 0. -1.
         15    1    6    6    0    0 -0.17675324889E+03  0.13588099084E+02  0.28996565376E+03  0.33986236596E+03  0.00000000000E+00 0.  1.
         15    1    3    3    0    0  0.11436757472E+04 -0.76128617777E+03  0.25277486827E+03  0.13969416570E+04  0.00000000000E+00 0. -1.
        -16    1    5    5    0    0 -0.25306971398E+02  0.12505327987E+04 -0.12655503148E+04  0.17793510960E+04  0.00000000000E+00 0.  1.
         16    1    4    4    0    0  0.10826878154E+02 -0.44466722110E+03 -0.83801106000E+03  0.94874058387E+03  0.00000000000E+00 0. -1.
    9900018    1    5    5    0    0 -0.98237345827E+03  0.42970721876E+03 -0.30586565213E+03  0.11187380752E+04  0.91187600000E+02 0.  0.
<mgrwt>
<rscale>  0 0.61604471E+04</rscale>
<asrwt>0</asrwt>
<pdfrwt beam="1">  1        3 0.31143379E+00 0.61604471E+04</pdfrwt>
<pdfrwt beam="2">  1       -3 0.72106104E+00 0.61604471E+04</pdfrwt>
<totfact> 0.96839016E-06</totfact>
</mgrwt>
</event>
<event>
13    1  0.1443951E-009  0.5830623E+04  0.7818608E-02  0.7711765E-01
          1   -1    0    0  501    0  0.00000000000E+00  0.00000000000E+00  0.36959845009E+04  0.36959845009E+04  0.00000000000E+00 0. -1.
         -1   -1    0    0    0  501 -0.00000000000E+00 -0.00000000000E+00 -0.22995336131E+04  0.22995336131E+04  0.00000000000E+00 0.  1.
    9900016    2    1    2    0    0 -0.19107766099E+03  0.16693893876E+03  0.24059391845E+04  0.32750865781E+04  0.22075482900E+04 0.  0.
        -24    2    3    3    0    0  0.39091614598E+03  0.37495452737E+03  0.25767192473E+04  0.26338743618E+04  0.66375774436E+02 0.  0.
    9900016    2    1    2    0    0 -0.23403533392E+03 -0.41613106187E+02 -0.94288119155E+03  0.22630702918E+04  0.20435160915E+04 0.  0.
         23    2    5    5    0    0  0.37101728318E+03 -0.23021430420E+03  0.51022712155E+03  0.67776815944E+03  0.91572441931E+02 0.  0.
        -15    1    6    6    0    0  0.18779681479E+03 -0.71091884373E+02  0.26811662603E+03  0.33497496148E+03  0.00000000000E+00 0. -1.
        -15    1    3    3    0    0 -0.58199380697E+03 -0.20801558860E+03 -0.17078006283E+03  0.64121221628E+03  0.00000000000E+00 0.  1.
         15    1    6    6    0    0  0.18322046839E+03 -0.15912241983E+03  0.24211049552E+03  0.34279319796E+03  0.00000000000E+00 0.  1.
         15    1    4    4    0    0  0.20717776841E+03  0.17989273027E+03  0.14495224503E+04  0.14752624702E+04  0.00000000000E+00 0. -1.
        -16    1    4    4    0    0  0.18373837757E+03  0.19506179710E+03  0.11271967970E+04  0.11586118916E+04  0.00000000000E+00 0.  1.
         16    1    5    5    0    0 -0.60505261709E+03  0.18860119801E+03 -0.14531083131E+04  0.15853021324E+04  0.00000000000E+00 0. -1.
    9900018    1    1    2    0    0  0.42511299490E+03 -0.12532583258E+03 -0.66607105104E+02  0.45736124408E+03  0.91187600000E+02 0.  0.
<mgrwt>
<rscale>  0 0.58306228E+04</rscale>
<asrwt>0</asrwt>
<pdfrwt beam="1">  1        1 0.56861300E+00 0.58306228E+04</pdfrwt>
<pdfrwt beam="2">  1       -1 0.35377440E+00 0.58306228E+04</pdfrwt>
<totfact> 0.17222062E-03</totfact>
</mgrwt>
</event>
