<event>
11    1  0.1430077E-008  0.4259010E+04  0.7818608E-02  0.7954241E-01
         -2   -1    0    0    0  501 -0.00000000000E+00  0.00000000000E+00  0.14648514576E+04  0.14648514576E+04  0.00000000000E+00 0.  1.
          2   -1    0    0  501    0  0.00000000000E+00 -0.00000000000E+00 -0.30957344079E+04  0.30957344079E+04  0.00000000000E+00 0. -1.
    9900016    2    1    2    0    0  0.76405679434E+02 -0.13354228947E+03  0.45826501673E+02  0.22052901727E+04  0.21994393164E+04 0.  0.
        -24    2    3    3    0    0  0.28636034338E+03  0.69644084601E+03  0.35196457003E+03  0.83505063011E+03  0.79989987135E+02 0.  0.
        -15    1    3    3    0    0  0.15469337105E+03 -0.37356008263E+03  0.38515991090E+02  0.40615348817E+03  0.00000000000E+00 0.  1.
        -15    1    3    3    0    0 -0.53254516331E+03 -0.19907382696E+03 -0.11395212795E+03  0.57984465766E+03  0.00000000000E+00 0.  1.
         15    1    4    4    0    0  0.38516955824E+01  0.68946535421E+02  0.29618434994E+02  0.75137953105E+02  0.00000000000E+00 0. -1.
         15    1    3    3    0    0  0.16789712832E+03 -0.25734922589E+03 -0.23070193149E+03  0.38424139673E+03  0.00000000000E+00 0. -1.
        -16    1    4    4    0    0  0.28250864780E+03  0.62749431059E+03  0.32234613503E+03  0.75991267701E+03  0.00000000000E+00 0.  1.
         16    1    1    2    0    0 -0.39294381480E+02 -0.40906932575E+03 -0.17512399286E+04  0.17988115657E+04  0.00000000000E+00 0. -1.
    9900018    1    1    2    0    0 -0.37111297953E+02  0.54261161521E+03  0.74530476587E+02  0.55648412712E+03  0.91187600000E+02 0.  0.
<mgrwt>
<rscale>  0 0.42590098E+04</rscale>
<asrwt>0</asrwt>
<pdfrwt beam="1">  1        2 0.47626683E+00 0.42590098E+04</pdfrwt>
<pdfrwt beam="2">  1       -2 0.22536177E+00 0.42590098E+04</pdfrwt>
<totfact> 0.10688018E-01</totfact>
</mgrwt>
</event>
<event>
11    1  0.1430077E-008  0.4759852E+04  0.7818608E-02  0.7866659E-01
          2   -1    0    0  501    0  0.00000000000E+00  0.00000000000E+00  0.24858092525E+04  0.24858092525E+04  0.00000000000E+00 0.  1.
         -2   -1    0    0    0  501 -0.00000000000E+00 -0.00000000000E+00 -0.22785527820E+04  0.22785527820E+04  0.00000000000E+00 0. -1.
    9900016    2    1    2    0    0  0.61659069733E+03 -0.40595557186E+03  0.14695422332E+03  0.23409362293E+04  0.22166196948E+04 0.  0.
        -24    2    3    3    0    0 -0.49275298905E+03  0.80642115327E+02  0.36711639614E+03  0.62443018108E+03  0.76354068272E+02 0.  0.
        -15    1    3    3    0    0  0.26937728038E+03  0.18993742906E+03  0.32186251594E+03  0.46069059607E+03  0.00000000000E+00 0.  1.
        -15    1    3    3    0    0  0.28241702210E+03 -0.20403890524E+03 -0.36346801982E+03  0.50348808392E+03  0.00000000000E+00 0.  1.
         15    1    3    3    0    0  0.55754938391E+03 -0.47249621101E+03 -0.17855666894E+03  0.75232736820E+03  0.00000000000E+00 0. -1.
         15    1    4    4    0    0 -0.30670613648E+03  0.12440551393E+02  0.22269653884E+03  0.37923234288E+03  0.00000000000E+00 0. -1.
        -16    1    4    4    0    0 -0.18604685257E+03  0.68201563934E+02  0.14441985730E+03  0.24519783820E+03  0.00000000000E+00 0.  1.
         16    1    1    2    0    0 -0.78976911458E+03 -0.40386535890E+03 -0.82241220240E+03  0.12096298248E+04  0.00000000000E+00 0. -1.
    9900018    1    1    2    0    0  0.17317841724E+03  0.80982093076E+03  0.88271444956E+03  0.12137959804E+04  0.91187600000E+02 0.  0.
<mgrwt>
<rscale>  0 0.47598519E+04</rscale>
<asrwt>0</asrwt>
<pdfrwt beam="1">  1        2 0.38243219E+00 0.47598519E+04</pdfrwt>
<pdfrwt beam="2">  1       -2 0.35054658E+00 0.47598519E+04</pdfrwt>
<totfact> 0.40634702E-02</totfact>
</mgrwt>
</event>
<event>
12    1  0.1430077E-008  0.2549900E+04  0.7818608E-02  0.8385421E-01
          1   -1    0    0  501    0  0.00000000000E+00  0.00000000000E+00  0.22227362549E+04  0.22227362549E+04  0.00000000000E+00 0. -1.
         -1   -1    0    0    0  501 -0.00000000000E+00 -0.00000000000E+00 -0.73130465489E+03  0.73130465489E+03  0.00000000000E+00 0.  1.
    9900016    2    1    2    0    0  0.90473535532E+02  0.95043780381E+02  0.10902394288E+04  0.24664076843E+04  0.22084669054E+04 0.  0.
        -24    2    3    3    0    0  0.74561779885E+03  0.80335546322E+02 -0.11060038268E+02  0.75422229063E+03  0.79556503632E+02 0.  0.
         23    2    3    3    0    0 -0.32436399289E+03 -0.47650952130E+03  0.92210678366E+03  0.10934605047E+04  0.11446235654E+03 0.  0.
        -15    1    3    3    0    0 -0.33078027044E+03  0.49121775536E+03  0.17919268336E+03  0.61872488899E+03  0.00000000000E+00 0.  1.
        -15    1    5    5    0    0 -0.24542570307E+03 -0.26190229616E+03  0.57292704843E+03  0.67607099574E+03  0.00000000000E+00 0.  1.
         15    1    5    5    0    0 -0.78938289821E+02 -0.21460722514E+03  0.34917973523E+03  0.41738950895E+03  0.00000000000E+00 0. -1.
         15    1    4    4    0    0  0.66841368532E+03  0.79713835712E+02 -0.33000806032E+02  0.67395860669E+03  0.00000000000E+00 0. -1.
        -16    1    4    4    0    0  0.77204113532E+02  0.62171061006E+00  0.21940767764E+02  0.80263683945E+02  0.00000000000E+00 0.  1.
         16    1    1    2    0    0 -0.11640997014E+03 -0.67332342085E+02  0.35296667127E+03  0.37771734997E+03  0.00000000000E+00 0. -1.
    9900018    1    1    2    0    0  0.25936434606E+02 -0.27711438296E+02  0.48225500017E+02  0.10991587555E+03  0.91187600000E+02 0.  0.
<mgrwt>
<rscale>  0 0.25498999E+04</rscale>
<asrwt>0</asrwt>
<pdfrwt beam="1">  1        1 0.34195942E+00 0.25498999E+04</pdfrwt>
<pdfrwt beam="2">  1       -1 0.11250841E+00 0.25498999E+04</pdfrwt>
<totfact> 0.13446477E+00</totfact>
</mgrwt>
</event>
<event>
11    1  0.1430077E-008  0.4099374E+04  0.7818608E-02  0.7984794E-01
          1   -1    0    0  501    0  0.00000000000E+00  0.00000000000E+00  0.21661337632E+04  0.21661337632E+04  0.00000000000E+00 0.  1.
         -1   -1    0    0    0  501 -0.00000000000E+00 -0.00000000000E+00 -0.19395004220E+04  0.19395004220E+04  0.00000000000E+00 0. -1.
    9900016    2    1    2    0    0 -0.25301846761E+03  0.16473885485E+03 -0.35293259715E+03  0.22396250040E+04  0.21909362166E+04 0.  0.
         24    2    3    3    0    0  0.38246764507E+03 -0.30226090165E+03 -0.56532917868E+03  0.75088553044E+03  0.81171715271E+02 0.  0.
        -15    1    3    3    0    0  0.18176172637E+03  0.20853500464E+03  0.17975646545E+03  0.32990386510E+03  0.00000000000E+00 0.  1.
        -15    1    4    4    0    0  0.11661831632E+03 -0.87569283468E+02 -0.11578762652E+03  0.18621220573E+03  0.00000000000E+00 0.  1.
         15    1    3    3    0    0 -0.64468410441E+03  0.51582129633E+03  0.12603838371E+03  0.83520948174E+03  0.00000000000E+00 0. -1.
         15    1    3    3    0    0 -0.17256373464E+03 -0.25735654447E+03 -0.93398267625E+02  0.32362612671E+03  0.00000000000E+00 0. -1.
        -16    1    1    2    0    0 -0.32042289561E+03 -0.13801579504E+03  0.10574530565E+04  0.11135197162E+04  0.00000000000E+00 0.  1.
         16    1    4    4    0    0  0.26584932876E+03 -0.21469161818E+03 -0.44954155216E+03  0.56467332471E+03  0.00000000000E+00 0. -1.
    9900018    1    1    2    0    0  0.57344136322E+03 -0.26723059814E+02 -0.47788711809E+03  0.75248946505E+03  0.91187600000E+02 0.  0.
<mgrwt>
<rscale>  0 0.40993743E+04</rscale>
<asrwt>0</asrwt>
<pdfrwt beam="1">  1        1 0.33325135E+00 0.40993743E+04</pdfrwt>
<pdfrwt beam="2">  1       -1 0.29838468E+00 0.40993743E+04</pdfrwt>
<totfact> 0.60342909E-02</totfact>
</mgrwt>
</event>
<event>
11    1  0.1430077E-008  0.4088296E+04  0.7818608E-02  0.7986968E-01
         -2   -1    0    0    0  501 -0.00000000000E+00  0.00000000000E+00  0.14994523208E+04  0.14994523208E+04  0.00000000000E+00 0.  1.
          2   -1    0    0  501    0  0.00000000000E+00 -0.00000000000E+00 -0.27867116492E+04  0.27867116492E+04  0.00000000000E+00 0. -1.
    9900016    2    1    2    0    0 -0.30388073398E+03  0.84738198515E+03 -0.71393605575E+03  0.24762978898E+04  0.21936150114E+04 0.  0.
         24    2    3    3    0    0 -0.65442516341E+03 -0.16439137525E+03 -0.26649995181E+03  0.72911356585E+03  0.72715533578E+02 0.  0.
        -15    1    3    3    0    0  0.98597514085E+02 -0.19493739270E+02 -0.24609192946E+03  0.26582459141E+03  0.00000000000E+00 0.  1.
        -15    1    4    4    0    0 -0.22045008456E+03 -0.57883973461E+02 -0.53631181781E+02  0.23414759837E+03  0.00000000000E+00 0.  1.
         15    1    3    3    0    0  0.33461566696E+03 -0.22913447635E+02 -0.25690483101E+03  0.42248403858E+03  0.00000000000E+00 0. -1.
         15    1    3    3    0    0 -0.82668751613E+02  0.10541805473E+04  0.55560656533E+02  0.10588756940E+04  0.00000000000E+00 0. -1.
        -16    1    1    2    0    0  0.10608311358E+03 -0.12509213979E+04 -0.37474349612E+03  0.13101490979E+04  0.00000000000E+00 0.  1.
         16    1    4    4    0    0 -0.43397507885E+03 -0.10650740179E+03 -0.21286877003E+03  0.49496596747E+03  0.00000000000E+00 0. -1.
    9900018    1    1    2    0    0  0.19779762040E+03  0.40353941280E+03 -0.19857977661E+03  0.49971698229E+03  0.91187600000E+02 0.  0.
<mgrwt>
<rscale>  0 0.40882961E+04</rscale>
<asrwt>0</asrwt>
<pdfrwt beam="1">  1        2 0.42872487E+00 0.40882961E+04</pdfrwt>
<pdfrwt beam="2">  1       -2 0.23068497E+00 0.40882961E+04</pdfrwt>
<totfact> 0.15616679E-01</totfact>
</mgrwt>
</event>
<event>
11    1  0.1430077E-008  0.3218513E+04  0.7818608E-02  0.8183945E-01
          2   -1    0    0  501    0  0.00000000000E+00  0.00000000000E+00  0.30141786683E+04  0.30141786683E+04  0.00000000000E+00 0. -1.
         -2   -1    0    0    0  501 -0.00000000000E+00 -0.00000000000E+00 -0.85917504434E+03  0.85917504434E+03  0.00000000000E+00 0.  1.
    9900016    2    1    2    0    0 -0.11612076073E+03  0.34293066216E+03  0.15432405493E+04  0.27010876367E+04  0.21870522532E+04 0.  0.
        -24    2    3    3    0    0  0.67015006774E+03  0.13222298121E+03  0.53291792019E+03  0.87039050487E+03  0.83630683682E+02 0.  0.
        -15    1    3    3    0    0 -0.63976647725E+03  0.47289795059E+03  0.79731973271E+03  0.11263446956E+04  0.00000000000E+00 0.  1.
        -15    1    3    3    0    0 -0.14615598117E+03 -0.15651821188E+03 -0.19088223739E+03  0.28687200985E+03  0.00000000000E+00 0.  1.
         15    1    4    4    0    0  0.25585204050E+03  0.33420818276E+02  0.15513855239E+03  0.30107339331E+03  0.00000000000E+00 0. -1.
         15    1    3    3    0    0 -0.34837004662E+00 -0.10567205776E+03  0.40388513378E+03  0.41748042641E+03  0.00000000000E+00 0. -1.
        -16    1    4    4    0    0  0.41429802724E+03  0.98802162939E+02  0.37777936780E+03  0.56931711156E+03  0.00000000000E+00 0.  1.
         16    1    1    2    0    0  0.41952575931E+03 -0.47843306591E+03  0.28440738523E+03  0.69698466414E+03  0.00000000000E+00 0. -1.
    9900018    1    1    2    0    0 -0.30340499858E+03  0.13550240374E+03  0.32735568941E+03  0.47528141176E+03  0.91187600000E+02 0.  0.
<mgrwt>
<rscale>  0 0.32185134E+04</rscale>
<asrwt>0</asrwt>
<pdfrwt beam="1">  1        2 0.46371979E+00 0.32185134E+04</pdfrwt>
<pdfrwt beam="2">  1       -2 0.13218078E+00 0.32185134E+04</pdfrwt>
<totfact> 0.59667012E-01</totfact>
</mgrwt>
</event>
<event>
11    1  0.1430077E-008  0.2849558E+04  0.7818608E-02  0.8288046E-01
         -1   -1    0    0    0  501 -0.00000000000E+00  0.00000000000E+00  0.32289036907E+04  0.32289036907E+04  0.00000000000E+00 0.  1.
          1   -1    0    0  501    0  0.00000000000E+00 -0.00000000000E+00 -0.62869484693E+03  0.62869484693E+03  0.00000000000E+00 0. -1.
    9900016    2    1    2    0    0 -0.47607162232E+03  0.28731689786E+03  0.21656912093E+04  0.31359329577E+04  0.21987864635E+04 0.  0.
        -24    2    3    3    0    0 -0.21319674342E+02 -0.35722085860E+03  0.38357925839E+03  0.53061479861E+03  0.79735479598E+02 0.  0.
        -15    1    3    3    0    0 -0.27943644837E+03  0.42645082847E+03 -0.14302992426E+03  0.52953054398E+03  0.00000000000E+00 0.  1.
        -15    1    3    3    0    0 -0.30176529580E+03 -0.24416910371E+02  0.29446932028E+03  0.42233950780E+03  0.00000000000E+00 0.  1.
         15    1    3    3    0    0  0.12644979619E+03  0.24250383836E+03  0.16306725549E+04  0.16534481074E+04  0.00000000000E+00 0. -1.
         15    1    4    4    0    0  0.16369698502E+02 -0.62296995431E+02  0.38199752514E+02  0.74887273691E+02  0.00000000000E+00 0. -1.
        -16    1    4    4    0    0 -0.37689372843E+02 -0.29492386316E+03  0.34537950587E+03  0.45572752492E+03  0.00000000000E+00 0.  1.
         16    1    1    2    0    0  0.29504317657E+03 -0.16298234134E+03  0.27875129375E+03  0.43739684886E+03  0.00000000000E+00 0. -1.
    9900018    1    1    2    0    0  0.18102844575E+03 -0.12433455652E+03  0.15576634072E+03  0.28426873098E+03  0.91187600000E+02 0.  0.
<mgrwt>
<rscale>  0 0.28495579E+04</rscale>
<asrwt>0</asrwt>
<pdfrwt beam="1">  1        1 0.96722286E-01 0.28495579E+04</pdfrwt>
<pdfrwt beam="2">  1       -1 0.49675440E+00 0.28495579E+04</pdfrwt>
<totfact> 0.43010072E-02</totfact>
</mgrwt>
</event>
<event>
11    1  0.1534926E-008  0.3023076E+04  0.7818608E-02  0.8237172E-01
          2   -1    0    0  501    0  0.00000000000E+00  0.00000000000E+00  0.31879446603E+04  0.31879446603E+04  0.00000000000E+00 0. -1.
         -2   -1    0    0    0  501 -0.00000000000E+00 -0.00000000000E+00 -0.71668356534E+03  0.71668356534E+03  0.00000000000E+00 0.  1.
    9900016    2    1    2    0    0  0.31347152329E+03 -0.26682296675E+03  0.20681511697E+04  0.30438310572E+04  0.21950397155E+04 0.  0.
         24    2    3    3    0    0  0.24553051019E+02  0.32482584546E+03  0.15377895162E+03  0.36901377313E+03  0.80053211056E+02 0.  0.
        -15    1    3    3    0    0  0.24249053345E+03 -0.43467448689E+03  0.20406644414E+03  0.53794672783E+03  0.00000000000E+00 0.  1.
        -15    1    4    4    0    0  0.38569557841E+02  0.72003826748E+02  0.28551054231E+02  0.86529327723E+02  0.00000000000E+00 0.  1.
         15    1    3    3    0    0  0.38258959834E+03 -0.60220099863E+03  0.10885107025E+04  0.13014900664E+04  0.00000000000E+00 0. -1.
         15    1    3    3    0    0 -0.33616165952E+03  0.44522667330E+03  0.62179507149E+03  0.83538048988E+03  0.00000000000E+00 0. -1.
        -16    1    1    2    0    0 -0.34547808378E+03  0.23829201576E+03 -0.25538238761E+02  0.42046449647E+03  0.00000000000E+00 0.  1.
         16    1    4    4    0    0 -0.14016506822E+02  0.25282201872E+03  0.12522789738E+03  0.28248444540E+03  0.00000000000E+00 0. -1.
    9900018    1    1    2    0    0  0.32006560493E+02  0.28530950985E+02  0.42864816401E+03  0.44033267194E+03  0.91187600000E+02 0.  0.
<mgrwt>
<rscale>  0 0.30230763E+04</rscale>
<asrwt>0</asrwt>
<pdfrwt beam="1">  1        2 0.49045302E+00 0.30230763E+04</pdfrwt>
<pdfrwt beam="2">  1       -2 0.11025901E+00 0.30230763E+04</pdfrwt>
<totfact> 0.73648054E-01</totfact>
</mgrwt>
</event>
<event>
12    1  0.1430077E-008  0.3033575E+04  0.7818608E-02  0.8234208E-01
         -1   -1    0    0    0  501 -0.00000000000E+00  0.00000000000E+00  0.68569063728E+03  0.68569063728E+03  0.00000000000E+00 0.  1.
          1   -1    0    0  501    0  0.00000000000E+00 -0.00000000000E+00 -0.33552219301E+04  0.33552219301E+04  0.00000000000E+00 0. -1.
    9900016    2    1    2    0    0  0.60129591396E+02  0.47893864042E+03 -0.16076163355E+04  0.27335619208E+04  0.21575293055E+04 0.  0.
        -24    2    3    3    0    0 -0.19455708023E+03 -0.17616504440E+03 -0.32540022012E+03  0.42614410144E+03  0.82625126966E+02 0.  0.
         23    2    3    3    0    0  0.43793554369E+03 -0.19077139692E+03  0.24544885099E+03  0.55161456950E+03  0.12590563337E+03 0.  0.
        -15    1    3    3    0    0 -0.18324887207E+03  0.84587508174E+03 -0.15276649663E+04  0.17558032499E+04  0.00000000000E+00 0.  1.
        -15    1    5    5    0    0  0.23333429502E+03 -0.81417761695E+02  0.59230602092E+02  0.25412990650E+03  0.00000000000E+00 0.  1.
         15    1    5    5    0    0  0.20460124867E+03 -0.10935363523E+03  0.18621824890E+03  0.29748466300E+03  0.00000000000E+00 0. -1.
         15    1    4    4    0    0 -0.66510180654E+02 -0.18780638797E+02 -0.56382630010E+02  0.89192586525E+02  0.00000000000E+00 0. -1.
        -16    1    4    4    0    0 -0.12804689958E+03 -0.15738440560E+03 -0.26901759011E+03  0.33695151492E+03  0.00000000000E+00 0.  1.
         16    1    1    2    0    0  0.14345217738E+03 -0.15322664411E+03 -0.81527536584E+03  0.84186154075E+03  0.00000000000E+00 0. -1.
    9900018    1    1    2    0    0 -0.20358176878E+03 -0.32571199631E+03 -0.24663959156E+03  0.46548910583E+03  0.91187600000E+02 0.  0.
<mgrwt>
<rscale>  0 0.30335750E+04</rscale>
<asrwt>0</asrwt>
<pdfrwt beam="1">  1        1 0.51618798E+00 0.30335750E+04</pdfrwt>
<pdfrwt beam="2">  1       -1 0.10549087E+00 0.30335750E+04</pdfrwt>
<totfact> 0.23132717E-01</totfact>
</mgrwt>
</event>
<event>
11    1  0.1430077E-008  0.3359917E+04  0.7818608E-02  0.8147815E-01
         -1   -1    0    0    0  501 -0.00000000000E+00  0.00000000000E+00  0.13544503659E+04  0.13544503659E+04  0.00000000000E+00 0.  1.
          1   -1    0    0  501    0  0.00000000000E+00 -0.00000000000E+00 -0.20836942984E+04  0.20836942984E+04  0.00000000000E+00 0. -1.
    9900016    2    1    2    0    0  0.48523890192E+03  0.58515448116E+03 -0.19921514188E+03  0.23376095327E+04  0.22015606047E+04 0.  0.
         24    2    3    3    0    0  0.83798344186E+02  0.11015958722E+03  0.47721932735E+03  0.50332634244E+03  0.80260970942E+02 0.  0.
        -15    1    4    4    0    0  0.55993638460E+02  0.23757547264E+02  0.11722556218E+03  0.13206642657E+03  0.00000000000E+00 0.  1.
        -15    1    3    3    0    0  0.36095332850E+03  0.47205973745E+03  0.18265604367E+03  0.62168394813E+03  0.00000000000E+00 0.  1.
         15    1    3    3    0    0  0.30872399771E+03  0.31441222058E+03 -0.38522495054E+03  0.58528951275E+03  0.00000000000E+00 0. -1.
         15    1    3    3    0    0 -0.26823676847E+03 -0.31147706409E+03 -0.47386556236E+03  0.62730972940E+03  0.00000000000E+00 0. -1.
        -16    1    1    2    0    0 -0.44963721644E+03 -0.88478958108E+02 -0.25050286787E+03  0.52225840275E+03  0.00000000000E+00 0.  1.
         16    1    4    4    0    0  0.27804705726E+02  0.86402039952E+02  0.35999376517E+03  0.37125991587E+03  0.00000000000E+00 0. -1.
    9900018    1    1    2    0    0 -0.35601685485E+02 -0.49667552305E+03 -0.27952592281E+03  0.57827672884E+03  0.91187600000E+02 0.  0.
<mgrwt>
<rscale>  0 0.33599170E+04</rscale>
<asrwt>0</asrwt>
<pdfrwt beam="1">  1        1 0.32056835E+00 0.33599170E+04</pdfrwt>
<pdfrwt beam="2">  1       -1 0.20837698E+00 0.33599170E+04</pdfrwt>
<totfact> 0.28458951E-01</totfact>
</mgrwt>
</event>
<event>
11    1  0.1430077E-008  0.3406919E+04  0.7818608E-02  0.8136210E-01
          1   -1    0    0  501    0  0.00000000000E+00  0.00000000000E+00  0.23326612150E+04  0.23326612150E+04  0.00000000000E+00 0. -1.
         -1   -1    0    0    0  501 -0.00000000000E+00 -0.00000000000E+00 -0.12439757310E+04  0.12439757310E+04  0.00000000000E+00 0.  1.
    9900016    2    1    2    0    0 -0.41052892437E+03 -0.13498033977E+03  0.61010456032E+03  0.23302351626E+04  0.22070375277E+04 0.  0.
        -24    2    3    3    0    0 -0.30464845348E+03  0.35519782705E+03  0.23843071784E+03  0.53078091714E+03  0.76830971908E+02 0.  0.
        -15    1    3    3    0    0 -0.12039807758E+03 -0.15675425001E+03 -0.24066385435E+03  0.31142684979E+03  0.00000000000E+00 0.  1.
        -15    1    3    3    0    0  0.43917925107E+03 -0.10830830889E+03 -0.23809241037E+03  0.51117228037E+03  0.00000000000E+00 0.  1.
         15    1    4    4    0    0 -0.25116866243E+03  0.24258269951E+03  0.16653470469E+03  0.38686673540E+03  0.00000000000E+00 0. -1.
         15    1    3    3    0    0 -0.42466164438E+03 -0.22511560792E+03  0.85043010719E+03  0.97685511534E+03  0.00000000000E+00 0. -1.
        -16    1    4    4    0    0 -0.53479791049E+02  0.11261512753E+03  0.71896013149E+02  0.14391418174E+03  0.00000000000E+00 0.  1.
         16    1    1    2    0    0  0.27152872100E+03  0.49992099129E+03  0.60056264397E+03  0.82723898191E+03  0.00000000000E+00 0. -1.
    9900018    1    1    2    0    0  0.13900020337E+03 -0.36494065153E+03 -0.12198172022E+03  0.41916280147E+03  0.91187600000E+02 0.  0.
<mgrwt>
<rscale>  0 0.34069188E+04</rscale>
<asrwt>0</asrwt>
<pdfrwt beam="1">  1        1 0.35887095E+00 0.34069188E+04</pdfrwt>
<pdfrwt beam="2">  1       -1 0.19138088E+00 0.34069188E+04</pdfrwt>
<totfact> 0.25111861E-01</totfact>
</mgrwt>
</event>
<event>
11    1  0.1430077E-008  0.2648426E+04  0.7818608E-02  0.8351936E-01
         -2   -1    0    0    0  501 -0.00000000000E+00  0.00000000000E+00  0.10814239264E+04  0.10814239264E+04  0.00000000000E+00 0.  1.
          2   -1    0    0  501    0  0.00000000000E+00 -0.00000000000E+00 -0.16215099057E+04  0.16215099057E+04  0.00000000000E+00 0. -1.
    9900016    2    1    2    0    0 -0.13845725737E+03  0.23752882196E+03 -0.39991862607E+03  0.22462978397E+04  0.21932461612E+04 0.  0.
        -24    2    3    3    0    0 -0.34303488553E+03  0.72020842007E+03 -0.16384044976E+03  0.81827685939E+03  0.79751016361E+02 0.  0.
        -15    1    3    3    0    0  0.82608157383E+02 -0.57900737780E+03  0.18367641906E+03  0.61303399427E+03  0.00000000000E+00 0.  1.
        -15    1    3    3    0    0  0.22436681411E+03  0.15412200955E+03 -0.56557312354E+03  0.62766792110E+03  0.00000000000E+00 0.  1.
         15    1    3    3    0    0 -0.10239734332E+03 -0.57794229867E+02  0.14581852817E+03  0.18731906492E+03  0.00000000000E+00 0. -1.
         15    1    4    4    0    0 -0.33316176269E+03  0.69565195052E+03 -0.14270451841E+03  0.78440612948E+03  0.00000000000E+00 0. -1.
        -16    1    4    4    0    0 -0.98731228392E+01  0.24556469547E+02 -0.21135931345E+02  0.33870729916E+02  0.00000000000E+00 0.  1.
         16    1    1    2    0    0 -0.94954951119E+01 -0.42634686604E+02 -0.18639605146E+03  0.19144547246E+03  0.00000000000E+00 0. -1.
    9900018    1    1    2    0    0  0.14795275248E+03 -0.19489413535E+03  0.46228698235E+02  0.26519052000E+03  0.91187600000E+02 0.  0.
<mgrwt>
<rscale>  0 0.26484257E+04</rscale>
<asrwt>0</asrwt>
<pdfrwt beam="1">  1        2 0.24946306E+00 0.26484257E+04</pdfrwt>
<pdfrwt beam="2">  1       -2 0.16637291E+00 0.26484257E+04</pdfrwt>
<totfact> 0.21628595E+00</totfact>
</mgrwt>
</event>
<event>
11    1  0.1430077E-008  0.3174798E+04  0.7818608E-02  0.8195505E-01
          2   -1    0    0  501    0  0.00000000000E+00  0.00000000000E+00  0.11807728279E+04  0.11807728279E+04  0.00000000000E+00 0.  1.
         -2   -1    0    0    0  501 -0.00000000000E+00 -0.00000000000E+00 -0.21340560757E+04  0.21340560757E+04  0.00000000000E+00 0. -1.
    9900016    2    1    2    0    0  0.11933191228E+03 -0.18889823113E+02 -0.12564164380E+04  0.25356705198E+04  0.21991920764E+04 0.  0.
         24    2    3    3    0    0 -0.37609214489E+03 -0.63803480453E+03 -0.34653241210E+03  0.82150737706E+03  0.79094530038E+02 0.  0.
        -15    1    3    3    0    0  0.57135147586E+03  0.41253554183E+03 -0.50656947264E+02  0.70653677084E+03  0.00000000000E+00 0.  1.
        -15    1    4    4    0    0 -0.97369343609E+02 -0.10678891597E+03 -0.78075694612E+02  0.16425734607E+03  0.00000000000E+00 0.  1.
         15    1    3    3    0    0 -0.24391468818E+03  0.18531976751E+03 -0.32238971207E+03  0.44471667137E+03  0.00000000000E+00 0. -1.
         15    1    3    3    0    0  0.16798726950E+03  0.21289672076E+02 -0.53683736656E+03  0.56290970056E+03  0.00000000000E+00 0. -1.
        -16    1    1    2    0    0 -0.87965045015E+02  0.18527845979E+02  0.52741653972E+03  0.53502274399E+03  0.00000000000E+00 0.  1.
         16    1    4    4    0    0 -0.27872280128E+03 -0.53124588856E+03 -0.26845671749E+03  0.65725003099E+03  0.00000000000E+00 0. -1.
    9900018    1    1    2    0    0 -0.31366867268E+02  0.36197713400E+00 -0.22428334949E+03  0.24413563984E+03  0.91187600000E+02 0.  0.
<mgrwt>
<rscale>  0 0.31747979E+04</rscale>
<asrwt>0</asrwt>
<pdfrwt beam="1">  1        2 0.18165736E+00 0.31747979E+04</pdfrwt>
<pdfrwt beam="2">  1       -2 0.32831632E+00 0.31747979E+04</pdfrwt>
<totfact> 0.34893420E-01</totfact>
</mgrwt>
</event>
<event>
11    1  0.1430077E-008  0.3463697E+04  0.7818608E-02  0.8122447E-01
         -1   -1    0    0    0  501 -0.00000000000E+00  0.00000000000E+00  0.12228964464E+04  0.12228964464E+04  0.00000000000E+00 0.  1.
          1   -1    0    0  501    0  0.00000000000E+00 -0.00000000000E+00 -0.24526195117E+04  0.24526195117E+04  0.00000000000E+00 0. -1.
    9900016    2    1    2    0    0 -0.20190898676E+03  0.27161894504E+03 -0.76994563466E+03  0.23511139055E+04  0.21955355214E+04 0.  0.
        -24    2    3    3    0    0  0.11172038338E+03  0.18646274209E+03  0.36745171028E+03  0.43514337071E+03  0.84137954800E+02 0.  0.
        -15    1    3    3    0    0 -0.59008944903E+03  0.36803330620E+03 -0.62714616091E+03  0.93646483088E+03  0.00000000000E+00 0.  1.
        -15    1    3    3    0    0  0.24020412593E+03 -0.52905735463E+03 -0.30093592468E+03  0.65434099471E+03  0.00000000000E+00 0.  1.
         15    1    3    3    0    0  0.36255952963E+02  0.24618025137E+03 -0.20931525934E+03  0.32516470916E+03  0.00000000000E+00 0. -1.
         15    1    4    4    0    0  0.46761088481E+02  0.15074557797E+03  0.26929253362E+03  0.31213666452E+03  0.00000000000E+00 0. -1.
        -16    1    4    4    0    0  0.64959294895E+02  0.35717164123E+02  0.98159176651E+02  0.12300670619E+03  0.00000000000E+00 0.  1.
         16    1    1    2    0    0  0.25955416003E+03  0.40434644686E+03 -0.42092279586E+03  0.63878040918E+03  0.00000000000E+00 0. -1.
    9900018    1    1    2    0    0 -0.57645173270E+02 -0.67596539190E+03 -0.38854634802E+02  0.68562164353E+03  0.91187600000E+02 0.  0.
<mgrwt>
<rscale>  0 0.34636973E+04</rscale>
<asrwt>0</asrwt>
<pdfrwt beam="1">  1        1 0.37732608E+00 0.34636973E+04</pdfrwt>
<pdfrwt beam="2">  1       -1 0.18813792E+00 0.34636973E+04</pdfrwt>
<totfact> 0.21772280E-01</totfact>
</mgrwt>
</event>
<event>
11    1  0.1430077E-008  0.3370978E+04  0.7818608E-02  0.8145066E-01
         -2   -1    0    0    0  501 -0.00000000000E+00  0.00000000000E+00  0.79502579345E+03  0.79502579345E+03  0.00000000000E+00 0.  1.
          2   -1    0    0  501    0  0.00000000000E+00 -0.00000000000E+00 -0.35733085854E+04  0.35733085854E+04  0.00000000000E+00 0. -1.
    9900016    2    1    2    0    0 -0.56015074179E+03  0.49126887032E+02 -0.20458878853E+04  0.30559682574E+04  0.21993413665E+04 0.  0.
         24    2    3    3    0    0 -0.30325445987E+02  0.32134045097E+03 -0.60891244710E+01  0.33254068217E+03  0.79792917940E+02 0.  0.
        -15    1    3    3    0    0 -0.36270645380E+03  0.31991877227E+03 -0.29150693940E+03  0.56469486291E+03  0.00000000000E+00 0.  1.
        -15    1    4    4    0    0  0.14003452313E+02  0.14117207776E+03  0.26047992849E+02  0.14423643835E+03  0.00000000000E+00 0.  1.
         15    1    3    3    0    0  0.23021364302E+03 -0.53574657763E+02 -0.13694170789E+04  0.13896660395E+04  0.00000000000E+00 0. -1.
         15    1    3    3    0    0 -0.39733248502E+03 -0.53855767844E+03 -0.37887474251E+03  0.76906667278E+03  0.00000000000E+00 0. -1.
        -16    1    1    2    0    0  0.21003712271E+03  0.44697228739E+02  0.20889600300E+03  0.29958467124E+03  0.00000000000E+00 0.  1.
         16    1    4    4    0    0 -0.44328898300E+02  0.18016837321E+03 -0.32137117320E+02  0.18830424382E+03  0.00000000000E+00 0. -1.
    9900018    1    1    2    0    0  0.35011361908E+03 -0.93824115771E+02 -0.94129090968E+03  0.10127814503E+04  0.91187600000E+02 0.  0.
<mgrwt>
<rscale>  0 0.33709776E+04</rscale>
<asrwt>0</asrwt>
<pdfrwt beam="1">  1        2 0.54973979E+00 0.33709776E+04</pdfrwt>
<pdfrwt beam="2">  1       -2 0.12231166E+00 0.33709776E+04</pdfrwt>
<totfact> 0.30286130E-01</totfact>
</mgrwt>
</event>
