<event>
11    1  0.4765787E-014  0.2374841E+04  0.7818608E-02  0.9055024E-01
         -1   -1    0    0    0  501 -0.00000000000E+00  0.00000000000E+00  0.54955180720E+03  0.54955180720E+03  0.00000000000E+00 0.  1.
          1   -1    0    0  501    0  0.00000000000E+00 -0.00000000000E+00 -0.30122992626E+04  0.30122992626E+04  0.00000000000E+00 0. -1.
         23    2    1    2    0    0  0.12941400713E+03  0.11416537725E+03 -0.12962583530E+03  0.23268834076E+03  0.86944166814E+02 0.  0.
    9900016    2    1    2    0    0  0.34394480285E+03  0.45917373239E+03 -0.24016316491E+04  0.25825169485E+04  0.75658487099E+03 0.  0.
        -15    1    3    3    0    0  0.92056348437E+02  0.12343597721E+03 -0.11168434610E+03  0.19022146283E+03  0.00000000000E+00 0. -1.
        -15    1    4    4    0    0 -0.86413011358E+02  0.10681478295E+03 -0.59458691486E+03  0.61025421401E+03  0.00000000000E+00 0. -1.
         15    1    4    4    0    0 -0.90870776883E+02  0.43312426608E+02 -0.94388109478E+02  0.13799485353E+03  0.00000000000E+00 0.  1.
         15    1    3    3    0    0  0.37357658690E+02 -0.92705999532E+01 -0.17941489197E+02  0.42466877927E+02  0.00000000000E+00 0.  1.
        -16    1    1    2    0    0 -0.47335880998E+03 -0.57333910964E+03  0.68510029015E+02  0.74664578061E+03  0.00000000000E+00 0.  1.
         16    1    4    4    0    0  0.47162632335E+03  0.24120423625E+03 -0.14521186571E+04  0.15457229593E+04  0.00000000000E+00 0. -1.
    9900018    1    4    4    0    0  0.49602267749E+02  0.67842286582E+02 -0.26053796766E+03  0.28854492163E+03  0.91187600000E+02 0.  0.
<mgrwt>
<rscale>  0 0.12683792E+04</rscale>
<asrwt>0</asrwt>
<pdfrwt beam="1">  1        1 0.46343065E+00 0.23748406E+04</pdfrwt>
<pdfrwt beam="2">  1       -1 0.84546432E-01 0.23748406E+04</pdfrwt>
<totfact> 0.72484131E-01</totfact>
</mgrwt>
</event>
<event>
12    1  0.4765787E-014  0.1094780E+04  0.7818608E-02  0.9857533E-01
          1   -1    0    0  501    0  0.00000000000E+00  0.00000000000E+00  0.98641326013E+03  0.98641326013E+03  0.00000000000E+00 0. -1.
         -1   -1    0    0    0  501 -0.00000000000E+00 -0.00000000000E+00 -0.39205835786E+03  0.39205835786E+03  0.00000000000E+00 0.  1.
         23    2    1    2    0    0 -0.70320835484E+02  0.97092304745E+01  0.16767667245E+03  0.20348364938E+03  0.90834134655E+02 0.  0.
    9900016    2    1    2    0    0  0.12143683702E+03  0.16637442330E+03  0.85876862115E+02  0.78799459534E+03  0.75573361228E+03 0.  0.
         23    2    4    4    0    0  0.19283565484E+03 -0.20469205801E+03  0.18237455754E+03  0.34243898116E+03  0.70139490977E+02 0.  0.
        -15    1    5    5    0    0  0.12357248745E+03 -0.14465642818E+03  0.83970374860E+02  0.20795832689E+03  0.00000000000E+00 0.  1.
        -15    1    3    3    0    0 -0.19403813400E+02  0.12521794345E+02 -0.48338703733E+01  0.23593846886E+02  0.00000000000E+00 0.  1.
         15    1    5    5    0    0  0.69263167390E+02 -0.60035629827E+02  0.98404182676E+02  0.13448065427E+03  0.00000000000E+00 0. -1.
         15    1    3    3    0    0 -0.50917022084E+02 -0.28125638706E+01  0.17251054283E+03  0.17988980249E+03  0.00000000000E+00 0. -1.
        -16    1    4    4    0    0 -0.69373732391E+02  0.30556227607E+03 -0.11080468516E+03  0.33235327222E+03  0.00000000000E+00 0.  1.
         16    1    1    2    0    0 -0.51116001537E+02 -0.17608365377E+03  0.34080136769E+03  0.38699337328E+03  0.00000000000E+00 0. -1.
    9900018    1    4    4    0    0 -0.20250854276E+01  0.65504205232E+02  0.14306989735E+02  0.11320234195E+03  0.91187600000E+02 0.  0.
<mgrwt>
<rscale>  0 0.62364318E+03</rscale>
<asrwt>0</asrwt>
<pdfrwt beam="1">  1        1 0.15175588E+00 0.10947796E+04</pdfrwt>
<pdfrwt beam="2">  1       -1 0.60316671E-01 0.10947796E+04</pdfrwt>
<totfact> 0.43052592E+01</totfact>
</mgrwt>
</event>
<event>
12    1  0.4765787E-014  0.1086787E+04  0.7818608E-02  0.9218166E-01
         -1   -1    0    0    0  501 -0.00000000000E+00  0.00000000000E+00  0.59568429099E+03  0.59568429099E+03  0.00000000000E+00 0.  1.
          1   -1    0    0  501    0  0.00000000000E+00 -0.00000000000E+00 -0.49569323989E+03  0.49569323989E+03  0.00000000000E+00 0. -1.
         23    2    1    2    0    0 -0.12410354622E+02 -0.71255702024E+02 -0.10272137170E+03  0.15607451106E+03  0.92607671532E+02 0.  0.
    9900016    2    1    2    0    0  0.21952824581E+02  0.28175407673E+02  0.37607385510E+02  0.76440350596E+03  0.76264187164E+03 0.  0.
         23    2    4    4    0    0 -0.85243907381E+02  0.26635022491E+03  0.22682266417E+03  0.36468955415E+03  0.57801244546E+02 0.  0.
        -15    1    3    3    0    0  0.29317640129E+02 -0.31490820863E+02 -0.85828849361E+02  0.96009307903E+02  0.00000000000E+00 0.  1.
        -15    1    5    5    0    0 -0.17553423474E+02  0.92276388959E+02  0.10886820321E+03  0.14378922179E+03  0.00000000000E+00 0.  1.
         15    1    3    3    0    0 -0.41727994751E+02 -0.39764881161E+02 -0.16892522341E+02  0.60065203160E+02  0.00000000000E+00 0. -1.
         15    1    5    5    0    0 -0.67690483908E+02  0.17407383595E+03  0.11795446097E+03  0.22090033236E+03  0.00000000000E+00 0. -1.
        -16    1    1    2    0    0 -0.95424699591E+01  0.43080294351E+02  0.16510503730E+03  0.17089951385E+03  0.00000000000E+00 0.  1.
         16    1    4    4    0    0  0.12823452103E+03 -0.22297602200E+03 -0.14157874324E+03  0.29361018257E+03  0.00000000000E+00 0. -1.
    9900018    1    4    4    0    0 -0.21037789065E+02 -0.15198795238E+02 -0.47636535425E+02  0.10610376924E+03  0.91187600000E+02 0.  0.
<mgrwt>
<rscale>  0 0.10867873E+04</rscale>
<asrwt>0</asrwt>
<pdfrwt beam="1">  1        1 0.76260498E-01 0.10867873E+04</pdfrwt>
<pdfrwt beam="2">  1       -1 0.91643738E-01 0.10867873E+04</pdfrwt>
<totfact> 0.51944774E+01</totfact>
</mgrwt>
</event>
<event>
12    1  0.4765787E-014  0.1038923E+04  0.7818608E-02  0.9750677E-01
          1   -1    0    0  501    0  0.00000000000E+00  0.00000000000E+00  0.13111907054E+04  0.13111907054E+04  0.00000000000E+00 0. -1.
         -1   -1    0    0    0  501 -0.00000000000E+00 -0.00000000000E+00 -0.30583359160E+03  0.30583359160E+03  0.00000000000E+00 0.  1.
         23    2    1    2    0    0  0.53322206948E+02  0.16079844105E+03  0.33613781473E+02  0.19447536167E+03  0.89394538949E+02 0.  0.
    9900016    2    1    2    0    0 -0.17110298847E+03 -0.36873820143E+02  0.83181214994E+03  0.10824915908E+04  0.67025419058E+03 0.  0.
         23    2    4    4    0    0 -0.36190532493E+03 -0.69464782785E+01  0.80336311272E+03  0.88727241878E+03  0.10409772556E+03 0.  0.
        -15    1    3    3    0    0  0.25609386461E+02  0.15181198598E+03  0.48950740719E+02  0.16155152360E+03  0.00000000000E+00 0. -1.
        -15    1    5    5    0    0 -0.10918860293E+03  0.31166511841E+02  0.17154760161E+03  0.20572331440E+03  0.00000000000E+00 0.  1.
         15    1    5    5    0    0 -0.25271672200E+03 -0.38112990120E+02  0.63181551111E+03  0.68154910438E+03  0.00000000000E+00 0. -1.
         15    1    3    3    0    0  0.27712820487E+02  0.89864550693E+01 -0.15336959246E+02  0.32923838065E+02  0.00000000000E+00 0.  1.
        -16    1    4    4    0    0  0.19080233646E+03 -0.29927341864E+02  0.28449037212E+02  0.19521917197E+03  0.00000000000E+00 0.  1.
         16    1    1    2    0    0  0.16788466860E+03 -0.91690470420E+02  0.47255207269E+02  0.19704176951E+03  0.00000000000E+00 0. -1.
    9900018    1    1    2    0    0 -0.50103887077E+02 -0.32234150484E+02  0.92675975151E+02  0.14301557510E+03  0.91187600000E+02 0.  0.
<mgrwt>
<rscale>  0 0.68078040E+03</rscale>
<asrwt>0</asrwt>
<pdfrwt beam="1">  1        1 0.20172164E+00 0.10389227E+04</pdfrwt>
<pdfrwt beam="2">  1       -1 0.47051322E-01 0.10389227E+04</pdfrwt>
<totfact> 0.40026719E+01</totfact>
</mgrwt>
</event>
<event>
12    1  0.4765787E-014  0.1409947E+04  0.7818608E-02  0.9338200E-01
         -2   -1    0    0    0  501 -0.00000000000E+00  0.00000000000E+00  0.21443268691E+03  0.21443268691E+03  0.00000000000E+00 0.  1.
          2   -1    0    0  501    0  0.00000000000E+00 -0.00000000000E+00 -0.36743958919E+04  0.36743958919E+04  0.00000000000E+00 0. -1.
         23    2    1    2    0    0 -0.14847439055E+03 -0.26676369807E+03 -0.35154470835E+03  0.47558728850E+03  0.96912701738E+02 0.  0.
    9900016    2    1    2    0    0  0.42664923143E+03  0.10064297360E+03 -0.23066521249E+04  0.24381623107E+04  0.65713990389E+03 0.  0.
         23    2    4    4    0    0  0.20781507908E+03  0.37116605034E+03 -0.11671324264E+04  0.12467025907E+04  0.10544147548E+03 0.  0.
        -15    1    3    3    0    0 -0.12944960320E+03 -0.21938551943E+03 -0.33711424371E+03  0.42253191502E+03  0.00000000000E+00 0.  1.
        -15    1    5    5    0    0 -0.73965674717E+01  0.56654955535E+02 -0.15683472407E+03  0.16691801541E+03  0.00000000000E+00 0.  1.
         15    1    3    3    0    0 -0.19024787352E+02 -0.47378178644E+02 -0.14430464646E+02  0.53055373482E+02  0.00000000000E+00 0. -1.
         15    1    5    5    0    0  0.21521164655E+03  0.31451109481E+03 -0.10102977024E+04  0.10797845753E+04  0.00000000000E+00 0. -1.
        -16    1    1    2    0    0 -0.38150642575E+03  0.12399019108E+03 -0.50300672487E+03  0.64337895959E+03  0.00000000000E+00 0.  1.
         16    1    4    4    0    0  0.21883415236E+03 -0.27052307674E+03 -0.11395196984E+04  0.11914597200E+04  0.00000000000E+00 0. -1.
    9900018    1    1    2    0    0  0.10333158487E+03  0.42130533384E+02 -0.29875964691E+03  0.33170002003E+03  0.91187600000E+02 0.  0.
<mgrwt>
<rscale>  0 0.97340886E+03</rscale>
<asrwt>0</asrwt>
<pdfrwt beam="1">  1        2 0.56529161E+00 0.14099470E+04</pdfrwt>
<pdfrwt beam="2">  1       -2 0.32989648E-01 0.14099470E+04</pdfrwt>
<totfact> 0.51725565E+00</totfact>
</mgrwt>
</event>
<event>
12    1  0.4765787E-014  0.1145204E+04  0.7818608E-02  0.9712510E-01
         -2   -1    0    0    0  501 -0.00000000000E+00  0.00000000000E+00  0.58367853025E+03  0.58367853025E+03  0.00000000000E+00 0.  1.
          2   -1    0    0  501    0  0.00000000000E+00 -0.00000000000E+00 -0.89899731354E+03  0.89899731354E+03  0.00000000000E+00 0. -1.
         23    2    1    2    0    0  0.50582437725E+02  0.12576410466E+03  0.17337567908E+03  0.23755971031E+03  0.89444378463E+02 0.  0.
    9900016    2    1    2    0    0 -0.11495476719E+03  0.16143596509E+03 -0.12624340112E+03  0.77821309358E+03  0.74189086352E+03 0.  0.
         23    2    4    4    0    0  0.14772067860E+03 -0.10075723773E+03  0.14420927398E+03  0.25326070543E+03  0.10663606506E+03 0.  0.
        -15    1    5    5    0    0  0.10429368170E+03 -0.66901188531E+01  0.68945342355E+02  0.12520139762E+03  0.00000000000E+00 0.  1.
        -15    1    3    3    0    0  0.23855513932E+02  0.20679845281E+02  0.10435485804E+03  0.10902604250E+03  0.00000000000E+00 0.  1.
         15    1    5    5    0    0  0.43426996901E+02 -0.94067118877E+02  0.75263931625E+02  0.12805930781E+03  0.00000000000E+00 0. -1.
         15    1    3    3    0    0  0.26726923794E+02  0.10508425938E+03  0.69020821043E+02  0.12853366781E+03  0.00000000000E+00 0. -1.
        -16    1    1    2    0    0  0.64372329463E+02 -0.28720006975E+03 -0.36245106125E+03  0.46690303990E+03  0.00000000000E+00 0.  1.
         16    1    4    4    0    0 -0.25447526032E+03  0.22670083937E+03 -0.25477833673E+03  0.42551489934E+03  0.00000000000E+00 0. -1.
    9900018    1    4    4    0    0 -0.82001854694E+01  0.35492363451E+02 -0.15674338370E+02  0.99437488817E+02  0.91187600000E+02 0.  0.
<mgrwt>
<rscale>  0 0.70276831E+03</rscale>
<asrwt>0</asrwt>
<pdfrwt beam="1">  1        2 0.13830728E+00 0.11452039E+04</pdfrwt>
<pdfrwt beam="2">  1       -2 0.89796697E-01 0.11452039E+04</pdfrwt>
<totfact> 0.30758675E+01</totfact>
</mgrwt>
</event>
