<event>
11    1  0.4070836E-014  0.2837049E+04  0.7818608E-02  0.8558717E-01
          2   -1    0    0  501    0  0.00000000000E+00  0.00000000000E+00  0.18544648037E+04  0.18544648037E+04  0.00000000000E+00 0. -1.
         -2   -1    0    0    0  501 -0.00000000000E+00 -0.00000000000E+00 -0.20786544458E+04  0.20786544458E+04  0.00000000000E+00 0.  1.
    9900016    2    1    2    0    0  0.55750023648E+03 -0.19228532858E+03 -0.58683116466E+01  0.20560446577E+04  0.19696459165E+04 0.  0.
         24    2    3    3    0    0 -0.36923754060E+03 -0.44412751578E+03  0.66509162028E+03  0.88452657210E+03  0.80341656193E+02 0.  0.
        -15    1    1    2    0    0 -0.33045669362E+03 -0.55855535528E+02 -0.39951870671E+02  0.33751684280E+03  0.00000000000E+00 0.  1.
        -15    1    4    4    0    0 -0.15771472262E+03 -0.15016867975E+03  0.20578807742E+03  0.29962192663E+03  0.00000000000E+00 0.  1.
         15    1    3    3    0    0  0.92673777709E+03  0.25184218720E+03 -0.67095993193E+03  0.11715180856E+04  0.00000000000E+00 0. -1.
         15    1    1    2    0    0 -0.17973041649E+02  0.36886065268E+03  0.55240383973E+03  0.66447815124E+03  0.00000000000E+00 0. -1.
        -16    1    1    2    0    0 -0.26079215477E+03 -0.15488586387E+03 -0.69639281958E+03  0.75958221279E+03  0.00000000000E+00 0.  1.
         16    1    4    4    0    0 -0.21152281798E+03 -0.29395883603E+03  0.45930354286E+03  0.58490464547E+03  0.00000000000E+00 0. -1.
    9900018    1    1    2    0    0  0.51721653554E+02  0.34166075305E+02 -0.34380479933E+02  0.11549738500E+03  0.91187600000E+02 0.  0.
<mgrwt>
<rscale>  0 0.21057450E+04</rscale>
<asrwt>0</asrwt>
<pdfrwt beam="1">  1        2 0.28530228E+00 0.28370493E+04</pdfrwt>
<pdfrwt beam="2">  1       -2 0.31979299E+00 0.28370493E+04</pdfrwt>
<totfact> 0.16214902E-01</totfact>
</mgrwt>
</event>
<event>
11    1  0.4070836E-014  0.3295559E+04  0.7818608E-02  0.8333800E-01
         -2   -1    0    0    0  501 -0.00000000000E+00  0.00000000000E+00  0.16198313183E+04  0.16198313183E+04  0.00000000000E+00 0. -1.
          2   -1    0    0  501    0  0.00000000000E+00 -0.00000000000E+00 -0.39054509490E+04  0.39054509490E+04  0.00000000000E+00 0.  1.
    9900016    2    1    2    0    0  0.33234747331E+03  0.56799641915E+03 -0.13047783004E+04  0.25274230682E+04  0.20621217659E+04 0.  0.
         24    2    3    3    0    0  0.90032622627E+03  0.64747333265E+03 -0.11082847843E+03  0.11171656028E+04  0.77246373799E+02 0.  0.
        -15    1    1    2    0    0 -0.39642246358E+03  0.63994745294E+01 -0.12362995217E+03  0.41530240546E+03  0.00000000000E+00 0.  1.
        -15    1    4    4    0    0  0.65154737826E+03  0.45390980455E+03 -0.11215684679E+03  0.80195215261E+03  0.00000000000E+00 0.  1.
         15    1    1    2    0    0  0.10619943885E+04 -0.93534142020E+02  0.16071133869E+03  0.10781506626E+04  0.00000000000E+00 0. -1.
         15    1    3    3    0    0 -0.59032761933E+03 -0.14958734480E+03 -0.11101051800E+04  0.12661739938E+04  0.00000000000E+00 0. -1.
        -16    1    1    2    0    0 -0.99791939821E+03 -0.48086175166E+03 -0.10179227169E+04  0.15044061310E+04  0.00000000000E+00 0.  1.
         16    1    4    4    0    0  0.24877884801E+03  0.19356352810E+03  0.13283683559E+01  0.31521345021E+03  0.00000000000E+00 0. -1.
    9900018    1    3    3    0    0  0.22348866372E+02  0.70110431297E+02 -0.83844641949E+02  0.14408347158E+03  0.91187600000E+02 0.  0.
<mgrwt>
<rscale>  0 0.27037168E+04</rscale>
<asrwt>0</asrwt>
<pdfrwt beam="1">  1        2 0.60083860E+00 0.32955586E+04</pdfrwt>
<pdfrwt beam="2">  1       -2 0.24920482E+00 0.32955586E+04</pdfrwt>
<totfact> 0.21005017E-02</totfact>
</mgrwt>
</event>
<event>
11    1  0.4070836E-014  0.4277986E+04  0.7818608E-02  0.8104086E-01
          2   -1    0    0  501    0  0.00000000000E+00  0.00000000000E+00  0.45160588475E+04  0.45160588475E+04  0.00000000000E+00 0. -1.
         -2   -1    0    0    0  501 -0.00000000000E+00 -0.00000000000E+00 -0.26149090367E+04  0.26149090367E+04  0.00000000000E+00 0.  1.
    9900016    2    1    2    0    0 -0.12253737199E+02  0.10678948502E+04  0.49462457413E+02  0.22432530142E+04  0.19721024278E+04 0.  0.
        -24    2    3    3    0    0  0.83434948373E+03  0.75716626904E+02  0.33861368276E+03  0.90730276379E+03  0.81651763228E+02 0.  0.
        -15    1    3    3    0    0 -0.84660322093E+03  0.99217822329E+03 -0.28915122535E+03  0.13359502504E+04  0.00000000000E+00 0.  1.
        -15    1    1    2    0    0  0.37230358064E+03 -0.71274658850E+03 -0.90423428406E+03  0.12100649966E+04  0.00000000000E+00 0.  1.
         15    1    4    4    0    0  0.47562156042E+03  0.71328426135E+02  0.16249722254E+03  0.50765043134E+03  0.00000000000E+00 0. -1.
         15    1    1    2    0    0 -0.14518946661E+03 -0.88021470101E+03  0.20761410656E+03  0.91594842559E+03  0.00000000000E+00 0. -1.
        -16    1    4    4    0    0  0.35872792332E+03  0.43882007683E+01  0.17611646022E+03  0.39965233245E+03  0.00000000000E+00 0.  1.
         16    1    1    2    0    0 -0.17545834124E+03  0.42413421259E+03  0.25767050425E+04  0.26172665772E+04  0.00000000000E+00 0. -1.
    9900018    1    1    2    0    0 -0.39402035592E+02  0.10093222673E+03 -0.28397511655E+02  0.14443487066E+03  0.91187600000E+02 0.  0.
<mgrwt>
<rscale>  0 0.35412392E+04</rscale>
<asrwt>0</asrwt>
<pdfrwt beam="1">  1        2 0.69477828E+00 0.42779855E+04</pdfrwt>
<pdfrwt beam="2">  1       -2 0.40229370E+00 0.42779855E+04</pdfrwt>
<totfact> 0.60402485E-04</totfact>
</mgrwt>
</event>
<event>
11    1  0.4070837E-014  0.5406041E+04  0.7818608E-02  0.7768752E-01
         -2   -1    0    0    0  501 -0.00000000000E+00  0.00000000000E+00  0.23332540635E+04  0.23332540635E+04  0.00000000000E+00 0.  1.
          2   -1    0    0  501    0  0.00000000000E+00 -0.00000000000E+00 -0.31313867985E+04  0.31313867985E+04  0.00000000000E+00 0. -1.
    9900016    2    1    2    0    0 -0.10363779646E+04 -0.36395467483E+03 -0.13975510545E+04  0.27261915301E+04  0.20669854905E+04 0.  0.
         24    2    3    3    0    0 -0.67061583361E+03 -0.97137016714E+03 -0.94356922235E+02  0.11867919786E+04  0.79286655739E+02 0.  0.
        -15    1    1    2    0    0  0.17296688792E+03  0.22699631753E+03 -0.38731140313E+02  0.28800169047E+03  0.00000000000E+00 0.  1.
        -15    1    4    4    0    0 -0.37317045887E+03 -0.50211140716E+03 -0.16850430740E+02  0.62582425137E+03  0.00000000000E+00 0.  1.
         15    1    3    3    0    0 -0.30958849520E+03  0.63269874686E+03 -0.11797017399E+04  0.13739901513E+04  0.00000000000E+00 0. -1.
         15    1    1    2    0    0 -0.51209497176E+03 -0.32567161451E+03 -0.34449541597E+03  0.69783977546E+03  0.00000000000E+00 0. -1.
        -16    1    1    2    0    0  0.13755060484E+04  0.46262997182E+03  0.98264487583E+03  0.17526078660E+04  0.00000000000E+00 0.  1.
         16    1    4    4    0    0 -0.29744537473E+03 -0.46925875998E+03 -0.77506491494E+02  0.56096772723E+03  0.00000000000E+00 0. -1.
    9900018    1    3    3    0    0 -0.56173635770E+02 -0.25283254551E+02 -0.12349239240E+03  0.16540940025E+03  0.91187600000E+02 0.  0.
<mgrwt>
<rscale>  0 0.54060414E+04</rscale>
<asrwt>0</asrwt>
<pdfrwt beam="1">  1        2 0.48175181E+00 0.54060414E+04</pdfrwt>
<pdfrwt beam="2">  1       -2 0.35896216E+00 0.54060414E+04</pdfrwt>
<totfact> 0.13821059E-02</totfact>
</mgrwt>
</event>
<event>
11    1  0.4070836E-014  0.5334925E+04  0.7818608E-02  0.7778821E-01
         -2   -1    0    0    0  501 -0.00000000000E+00  0.00000000000E+00  0.26569305334E+04  0.26569305334E+04  0.00000000000E+00 0.  1.
          2   -1    0    0  501    0  0.00000000000E+00 -0.00000000000E+00 -0.26780358720E+04  0.26780358720E+04  0.00000000000E+00 0. -1.
    9900016    2    1    2    0    0 -0.14147707563E+04 -0.37202663784E+03 -0.74918183698E+03  0.26323782916E+04  0.20562494823E+04 0.  0.
        -24    2    3    3    0    0  0.20889137333E+03 -0.42038711432E+03  0.37793555485E+03  0.60790258775E+03  0.79682751198E+02 0.  0.
        -15    1    1    2    0    0  0.12464042289E+04  0.75441895285E+03  0.13171496819E+04  0.19640658703E+04  0.00000000000E+00 0.  1.
        -15    1    3    3    0    0 -0.15437040464E+04  0.90937809066E+02 -0.10856192242E+04  0.18894075706E+04  0.00000000000E+00 0.  1.
         15    1    4    4    0    0  0.10640230550E+03 -0.27906402101E+03  0.27028507209E+03  0.40280541038E+03  0.00000000000E+00 0. -1.
         15    1    1    2    0    0  0.25589390243E+01 -0.93740484263E+02 -0.23257759215E+03  0.25077113656E+03  0.00000000000E+00 0. -1.
        -16    1    4    4    0    0  0.10248906783E+03 -0.14132309331E+03  0.10765048276E+03  0.20509717737E+03  0.00000000000E+00 0.  1.
         16    1    1    2    0    0  0.16580758831E+03 -0.28865183074E+03 -0.35649559134E+03  0.48775110700E+03  0.00000000000E+00 0. -1.
    9900018    1    3    3    0    0 -0.79958083199E+02 -0.42577332586E+02 -0.41498167677E+02  0.13506813330E+03  0.91187600000E+02 0.  0.
<mgrwt>
<rscale>  0 0.53349247E+04</rscale>
<asrwt>0</asrwt>
<pdfrwt beam="1">  1        2 0.41200552E+00 0.53349247E+04</pdfrwt>
<pdfrwt beam="2">  1       -2 0.40875854E+00 0.53349247E+04</pdfrwt>
<totfact> 0.12632211E-02</totfact>
</mgrwt>
</event>
<event>
11    1  0.4070836E-014  0.4094523E+04  0.7818608E-02  0.7985745E-01
          2   -1    0    0  501    0  0.00000000000E+00  0.00000000000E+00  0.22266631702E+04  0.22266631702E+04  0.00000000000E+00 0.  1.
         -2   -1    0    0    0  501 -0.00000000000E+00 -0.00000000000E+00 -0.18823142545E+04  0.18823142545E+04  0.00000000000E+00 0. -1.
    9900016    2    1    2    0    0  0.52147652532E+03  0.19885054650E+03  0.25731711948E+03  0.21595304765E+04  0.20702368156E+04 0.  0.
        -24    2    3    3    0    0  0.10554493952E+04 -0.51041177630E+03  0.20328839684E+03  0.11927113082E+04  0.82100457965E+02 0.  0.
        -15    1    1    2    0    0 -0.34175287636E+03 -0.24209222850E+03  0.92618354500E+03  0.10164741190E+04  0.00000000000E+00 0.  1.
        -15    1    3    3    0    0 -0.51679589270E+03  0.70215967556E+03  0.40527330866E+02  0.87278214306E+03  0.00000000000E+00 0.  1.
         15    1    4    4    0    0  0.68427983690E+03 -0.32064995943E+03  0.16965206603E+03  0.77449152041E+03  0.00000000000E+00 0. -1.
         15    1    1    2    0    0  0.16827526513E+01 -0.14245222237E+03 -0.22631541043E+03  0.26742126376E+03  0.00000000000E+00 0. -1.
        -16    1    4    4    0    0  0.37116955827E+03 -0.18976181687E+03  0.33636330803E+02  0.41821978777E+03  0.00000000000E+00 0.  1.
         16    1    1    2    0    0 -0.18140640161E+03  0.18569390437E+03 -0.61283633832E+03  0.66555156542E+03  0.00000000000E+00 0. -1.
    9900018    1    3    3    0    0 -0.17176977161E+02  0.71026472389E+01  0.13501391777E+02  0.94037025239E+02  0.91187600000E+02 0.  0.
<mgrwt>
<rscale>  0 0.40945231E+04</rscale>
<asrwt>0</asrwt>
<pdfrwt beam="1">  1        2 0.34256356E+00 0.40945231E+04</pdfrwt>
<pdfrwt beam="2">  1       -2 0.28958681E+00 0.40945231E+04</pdfrwt>
<totfact> 0.14373254E-01</totfact>
</mgrwt>
</event>
<event>
11    1  0.4070836E-014  0.3284646E+04  0.7818608E-02  0.8353507E-01
         -2   -1    0    0    0  501 -0.00000000000E+00  0.00000000000E+00  0.16589597117E+04  0.16589597117E+04  0.00000000000E+00 0. -1.
          2   -1    0    0  501    0  0.00000000000E+00 -0.00000000000E+00 -0.38597060340E+04  0.38597060340E+04  0.00000000000E+00 0.  1.
    9900016    2    1    2    0    0  0.13354019560E+02  0.57325640467E+03 -0.10623176119E+04  0.23992938090E+04  0.20734731341E+04 0.  0.
         24    2    3    3    0    0 -0.73561186676E+03 -0.24762780069E+03 -0.90718942014E+03  0.11965229256E+04  0.78931116908E+02 0.  0.
        -15    1    1    2    0    0 -0.46773618719E+03 -0.10464499928E+03 -0.49765192009E+02  0.48187580455E+03  0.00000000000E+00 0.  1.
        -15    1    4    4    0    0 -0.23587344127E+03 -0.95948472887E+02 -0.35017123076E+03  0.43296914509E+03  0.00000000000E+00 0.  1.
         15    1    3    3    0    0  0.75387801702E+03  0.73080078390E+03 -0.77440609663E+02  0.10528052519E+04  0.00000000000E+00 0. -1.
         15    1    1    2    0    0  0.73218745523E+03  0.46011352995E+03  0.32464392657E+03  0.92368642357E+03  0.00000000000E+00 0. -1.
        -16    1    1    2    0    0 -0.27780528760E+03 -0.92872493534E+03 -0.14133074450E+04  0.17138097086E+04  0.00000000000E+00 0.  1.
         16    1    4    4    0    0 -0.49973842549E+03 -0.15167932780E+03 -0.55701818938E+03  0.76355378049E+03  0.00000000000E+00 0. -1.
    9900018    1    3    3    0    0 -0.49121307039E+01  0.90083421457E+02 -0.77687582100E+02  0.14996563158E+03  0.91187600000E+02 0.  0.
<mgrwt>
<rscale>  0 0.26436989E+04</rscale>
<asrwt>0</asrwt>
<pdfrwt beam="1">  1        2 0.59380092E+00 0.32846463E+04</pdfrwt>
<pdfrwt beam="2">  1       -2 0.25522458E+00 0.32846463E+04</pdfrwt>
<totfact> 0.20939356E-02</totfact>
</mgrwt>
</event>
<event>
11    1  0.4070836E-014  0.2541471E+04  0.7818608E-02  0.8594368E-01
         -2   -1    0    0    0  501 -0.00000000000E+00  0.00000000000E+00  0.20683659876E+04  0.20683659876E+04  0.00000000000E+00 0.  1.
          2   -1    0    0  501    0  0.00000000000E+00 -0.00000000000E+00 -0.17711879723E+04  0.17711879723E+04  0.00000000000E+00 0. -1.
    9900016    2    1    2    0    0 -0.58446742817E+03  0.35703184414E+02 -0.20688516891E+03  0.21536594891E+04  0.20621762364E+04 0.  0.
        -24    2    3    3    0    0 -0.52602613635E+03  0.91251060458E+03  0.20343822743E+03  0.10753631956E+04  0.75098538832E+02 0.  0.
        -15    1    3    3    0    0 -0.47111045852E+02 -0.87602794182E+03 -0.44037070464E+03  0.98161640318E+03  0.00000000000E+00 0.  1.
        -15    1    1    2    0    0  0.20738652716E+03  0.50449897969E+03  0.63801963725E+03  0.83940303173E+03  0.00000000000E+00 0.  1.
         15    1    1    2    0    0  0.43464025483E+02 -0.40894542310E+03  0.93726309464E+02  0.42179390900E+03  0.00000000000E+00 0. -1.
         15    1    4    4    0    0 -0.99893875051E+02  0.22245649120E+03  0.67479768033E+02  0.25302014909E+03  0.00000000000E+00 0. -1.
        -16    1    4    4    0    0 -0.42613226130E+03  0.69005411338E+03  0.13595845939E+03  0.82234304654E+03  0.00000000000E+00 0.  1.
         16    1    1    2    0    0  0.33361687552E+03 -0.13125674101E+03 -0.22768276252E+03  0.42469753006E+03  0.00000000000E+00 0. -1.
    9900018    1    3    3    0    0 -0.11330245967E+02 -0.77947834674E+00  0.30047308299E+02  0.96679890308E+02  0.91187600000E+02 0.  0.
<mgrwt>
<rscale>  0 0.20264177E+04</rscale>
<asrwt>0</asrwt>
<pdfrwt beam="1">  1        2 0.27249046E+00 0.25414712E+04</pdfrwt>
<pdfrwt beam="2">  1       -2 0.31821015E+00 0.25414712E+04</pdfrwt>
<totfact> 0.18845602E-01</totfact>
</mgrwt>
</event>
<event>
11    1  0.4070836E-014  0.2700518E+04  0.7818608E-02  0.8497699E-01
          2   -1    0    0  501    0  0.00000000000E+00  0.00000000000E+00  0.19562131605E+04  0.19562131605E+04  0.00000000000E+00 0.  1.
         -2   -1    0    0    0  501 -0.00000000000E+00 -0.00000000000E+00 -0.25428727212E+04  0.25428727212E+04  0.00000000000E+00 0. -1.
    9900016    2    1    2    0    0 -0.22140027574E+02  0.56368893638E+02 -0.89095609466E+03  0.22610881592E+04  0.20772696667E+04 0.  0.
        -24    2    3    3    0    0  0.56667960647E+03  0.70629035049E+03  0.81101796000E+02  0.91270024161E+03  0.80451191044E+02 0.  0.
        -15    1    3    3    0    0 -0.54098000150E+03 -0.60368155391E+03 -0.91323162674E+03  0.12210990069E+04  0.00000000000E+00 0.  1.
        -15    1    1    2    0    0  0.54390223977E+03  0.55515211448E+03  0.43023874673E+03  0.88832927219E+03  0.00000000000E+00 0.  1.
         15    1    4    4    0    0  0.31934645262E+03  0.44513868732E+03  0.75092180732E+02  0.55296423335E+03  0.00000000000E+00 0. -1.
         15    1    1    2    0    0 -0.52523837987E+03 -0.24834376666E+01  0.30147013437E+03  0.60561189310E+03  0.00000000000E+00 0. -1.
        -16    1    4    4    0    0  0.24733315384E+03  0.26115166317E+03  0.60096152684E+01  0.35973600826E+03  0.00000000000E+00 0.  1.
         16    1    1    2    0    0  0.34761676764E+01 -0.60903757046E+03 -0.42741234710E+03  0.74405655728E+03  0.00000000000E+00 0. -1.
    9900018    1    3    3    0    0 -0.47839632544E+02 -0.46239902939E+02 -0.58826263918E+02  0.12728891070E+03  0.91187600000E+02 0.  0.
<mgrwt>
<rscale>  0 0.22504967E+04</rscale>
<asrwt>0</asrwt>
<pdfrwt beam="1">  1        2 0.30095587E+00 0.27005184E+04</pdfrwt>
<pdfrwt beam="2">  1       -2 0.39121119E+00 0.27005184E+04</pdfrwt>
<totfact> 0.50055090E-02</totfact>
</mgrwt>
</event>
<event>
11    1  0.4070836E-014  0.3397060E+04  0.7818608E-02  0.8246168E-01
          2   -1    0    0  501    0  0.00000000000E+00  0.00000000000E+00  0.36532087766E+04  0.36532087766E+04  0.00000000000E+00 0.  1.
         -2   -1    0    0    0  501 -0.00000000000E+00 -0.00000000000E+00 -0.20514381373E+04  0.20514381373E+04  0.00000000000E+00 0. -1.
    9900016    2    1    2    0    0 -0.54000139250E+03  0.51474203597E+03  0.13973362209E+04  0.25367118275E+04  0.19813625398E+04 0.  0.
        -24    2    3    3    0    0 -0.67060091177E+03 -0.55778406533E+03  0.15393642666E+03  0.88946821443E+03  0.81416427285E+02 0.  0.
        -15    1    3    3    0    0  0.13059951927E+03  0.10725261013E+04  0.12433997943E+04  0.16472436131E+04  0.00000000000E+00 0.  1.
        -15    1    1    2    0    0  0.28090357969E+03 -0.10200826160E+04  0.11668897544E+04  0.15751530285E+04  0.00000000000E+00 0.  1.
         15    1    1    2    0    0  0.54777490887E+03  0.28049766730E+03 -0.24969594231E+03  0.66414181900E+03  0.00000000000E+00 0. -1.
         15    1    4    4    0    0 -0.18817311921E+03 -0.16142795987E+03  0.69127276140E+01  0.24802398034E+03  0.00000000000E+00 0. -1.
        -16    1    4    4    0    0 -0.48242779256E+03 -0.39635610545E+03  0.14702369904E+03  0.64144423409E+03  0.00000000000E+00 0.  1.
         16    1    1    2    0    0 -0.25306188570E+03  0.20712578213E+03 -0.75329298016E+03  0.82121356636E+03  0.00000000000E+00 0. -1.
    9900018    1    1    2    0    0 -0.35615210350E+02  0.17717130578E+02  0.40533586540E+02  0.10742667246E+03  0.91187600000E+02 0.  0.
<mgrwt>
<rscale>  0 0.29914797E+04</rscale>
<asrwt>0</asrwt>
<pdfrwt beam="1">  1        2 0.56203212E+00 0.33970604E+04</pdfrwt>
<pdfrwt beam="2">  1       -2 0.31560587E+00 0.33970604E+04</pdfrwt>
<totfact> 0.12556714E-02</totfact>
</mgrwt>
</event>
