<event>
12    1  0.7417763E-012  0.1959510E+04  0.7818608E-02  0.9059070E-01
          2   -1    0    0  501    0  0.00000000000E+00  0.00000000000E+00  0.16015594211E+04  0.16015594211E+04  0.00000000000E+00 0. -1.
         -2   -1    0    0    0  501 -0.00000000000E+00 -0.00000000000E+00 -0.82535362001E+03  0.82535362001E+03  0.00000000000E+00 0.  1.
         23    2    1    2    0    0 -0.18655617107E+03  0.26252068105E+03  0.14314168748E+03  0.36767750744E+03  0.10477067260E+03 0.  0.
    9900016    2    1    2    0    0  0.45584048385E+03  0.28521984039E+03  0.10070260054E+04  0.13434274473E+04  0.70820549743E+03 0.  0.
         23    2    4    4    0    0 -0.40899123192E+02 -0.13477386033E+03  0.11295165049E+03  0.20211958354E+03  0.90870891915E+02 0.  0.
        -15    1    3    3    0    0 -0.10438936841E+03  0.13716013658E+03  0.19675288949E+02  0.17348533165E+03  0.00000000000E+00 0.  1.
        -15    1    5    5    0    0  0.56593850101E+01 -0.92576059944E+02  0.28841505250E+02  0.97129747959E+02  0.00000000000E+00 0. -1.
         15    1    5    5    0    0 -0.46558508202E+02 -0.42197800381E+02  0.84110145243E+02  0.10498983558E+03  0.00000000000E+00 0.  1.
         15    1    3    3    0    0 -0.82166802655E+02  0.12536054448E+03  0.12346639853E+03  0.19419217578E+03  0.00000000000E+00 0. -1.
        -16    1    1    2    0    0 -0.26928431278E+03 -0.54774052144E+03 -0.37396189180E+03  0.71580808633E+03  0.00000000000E+00 0.  1.
         16    1    4    4    0    0  0.18551034289E+03  0.52368588641E+02  0.12657339068E+03  0.23060221079E+03  0.00000000000E+00 0. -1.
    9900018    1    4    4    0    0  0.31122926416E+03  0.36762511207E+03  0.76750096421E+03  0.91070565297E+03  0.91187600000E+02 0.  0.
<mgrwt>
<rscale>  0 0.12634404E+04</rscale>
<asrwt>0</asrwt>
<pdfrwt beam="1">  1        2 0.24639376E+00 0.19595103E+04</pdfrwt>
<pdfrwt beam="2">  1       -2 0.12697748E+00 0.19595103E+04</pdfrwt>
<totfact> 0.47334598E+00</totfact>
</mgrwt>
</event>
<event>
12    1  0.7417763E-012  0.1371289E+04  0.7818608E-02  0.9410251E-01
          2   -1    0    0  501    0  0.00000000000E+00  0.00000000000E+00  0.23093074265E+04  0.23093074265E+04  0.00000000000E+00 0. -1.
         -2   -1    0    0    0  501 -0.00000000000E+00 -0.00000000000E+00 -0.33158544733E+03  0.33158544733E+03  0.00000000000E+00 0.  1.
         23    2    1    2    0    0  0.67978676439E+02 -0.25037962632E+03  0.47077434117E+02  0.27280894315E+03  0.69981261282E+02 0.  0.
    9900016    2    1    2    0    0  0.26361954006E+03 -0.26576524509E+01  0.17669446810E+04  0.19199958957E+04  0.70341197648E+03 0.  0.
         23    2    4    4    0    0 -0.75638290757E+02 -0.42142755933E+02  0.13982052606E+02  0.12475899997E+03  0.88725122557E+02 0.  0.
        -15    1    5    5    0    0 -0.53282840939E+02 -0.57165981989E+01 -0.31650426856E+02  0.62237369430E+02  0.00000000000E+00 0. -1.
        -15    1    3    3    0    0  0.89370437155E+00 -0.13625570218E+03  0.27140770713E+02  0.13893536813E+03  0.00000000000E+00 0. -1.
         15    1    5    5    0    0 -0.22355449818E+02 -0.36426157734E+02  0.45632479461E+02  0.62521630542E+02  0.00000000000E+00 0.  1.
         15    1    3    3    0    0  0.67084972068E+02 -0.11412392414E+03  0.19936663404E+02  0.13387357501E+03  0.00000000000E+00 0.  1.
        -16    1    1    2    0    0 -0.33159821650E+03  0.25303727877E+03  0.16369986404E+03  0.44808803501E+03  0.00000000000E+00 0.  1.
         16    1    4    4    0    0  0.25309638042E+03  0.32830176490E+02  0.10111648753E+04  0.10428758332E+04  0.00000000000E+00 0. -1.
    9900018    1    4    4    0    0  0.86161450389E+02  0.66549269919E+01  0.74179775308E+03  0.75236106256E+03  0.91187600000E+02 0.  0.
<mgrwt>
<rscale>  0 0.91236833E+03</rscale>
<asrwt>0</asrwt>
<pdfrwt beam="1">  1        2 0.35527805E+00 0.13712889E+04</pdfrwt>
<pdfrwt beam="2">  1       -2 0.51013147E-01 0.13712889E+04</pdfrwt>
<totfact> 0.15845110E+01</totfact>
</mgrwt>
</event>
<event>
12    1  0.7417763E-012  0.1080869E+04  0.7818608E-02  0.9700025E-01
         -1   -1    0    0    0  501 -0.00000000000E+00  0.00000000000E+00  0.36706720645E+03  0.36706720645E+03  0.00000000000E+00 0.  1.
          1   -1    0    0  501    0  0.00000000000E+00 -0.00000000000E+00 -0.12200412069E+04  0.12200412069E+04  0.00000000000E+00 0. -1.
         23    2    1    2    0    0 -0.31796915749E+01  0.18654310998E+03  0.13418738208E+02  0.20185981588E+03  0.75887287556E+02 0.  0.
    9900016    2    1    2    0    0 -0.19905183091E+03 -0.23727122952E+03 -0.88156230894E+03  0.11762006445E+04  0.71440645559E+03 0.  0.
         23    2    4    4    0    0  0.33424756556E+02 -0.28752278104E+03 -0.14988033566E+03  0.33923938586E+03  0.93982349072E+02 0.  0.
        -15    1    3    3    0    0 -0.14680250314E+02  0.70067251367E+02 -0.29178969111E+02  0.77306802429E+02  0.00000000000E+00 0.  1.
        -15    1    5    5    0    0 -0.28067440411E+02 -0.79003036167E+02 -0.64070936060E+02  0.10551940951E+03  0.00000000000E+00 0.  1.
         15    1    5    5    0    0  0.61492196967E+02 -0.20851974487E+03 -0.85809399596E+02  0.23371997636E+03  0.00000000000E+00 0. -1.
         15    1    3    3    0    0  0.11500558739E+02  0.11647585861E+03  0.42597707320E+02  0.12455301345E+03  0.00000000000E+00 0. -1.
        -16    1    1    2    0    0  0.20223152249E+03  0.50728119543E+02  0.15169570255E+02  0.20904795302E+03  0.00000000000E+00 0.  1.
         16    1    4    4    0    0  0.54735472215E+02  0.66169252984E+02 -0.74013958874E+02  0.11336846152E+03  0.00000000000E+00 0. -1.
    9900018    1    4    4    0    0 -0.28721205968E+03 -0.15917701466E+02 -0.65766801441E+03  0.72359279711E+03  0.91187600000E+02 0.  0.
<mgrwt>
<rscale>  0 0.71015275E+03</rscale>
<asrwt>0</asrwt>
<pdfrwt beam="1">  1        1 0.18769865E+00 0.10808688E+04</pdfrwt>
<pdfrwt beam="2">  1       -1 0.56471878E-01 0.10808688E+04</pdfrwt>
<totfact> 0.32693828E+01</totfact>
</mgrwt>
</event>
<event>
12    1  0.7417763E-012  0.1610574E+04  0.7818608E-02  0.9599085E-01
         -1   -1    0    0    0  501 -0.00000000000E+00  0.00000000000E+00  0.52163591790E+03  0.52163591790E+03  0.00000000000E+00 0.  1.
          1   -1    0    0  501    0  0.00000000000E+00 -0.00000000000E+00 -0.13830007397E+04  0.13830007397E+04  0.00000000000E+00 0. -1.
         23    2    1    2    0    0 -0.37773427139E+02 -0.87899203699E+01 -0.67145969515E+02  0.10888274917E+03  0.76438062162E+02 0.  0.
    9900016    2    1    2    0    0  0.27441796529E+03 -0.15101919718E+03 -0.11204484525E+04  0.13622042071E+04  0.70857854158E+03 0.  0.
         23    2    4    4    0    0  0.53773575311E+02  0.22240701021E+03 -0.40718129716E+03  0.47671553084E+03  0.95418095740E+02 0.  0.
        -15    1    5    5    0    0  0.62945927317E+02  0.11065569952E+03 -0.15393682088E+03  0.19975840014E+03  0.00000000000E+00 0. -1.
        -15    1    3    3    0    0 -0.53416866815E+01  0.31838763885E+02 -0.35672236386E+02  0.48111837952E+02  0.00000000000E+00 0. -1.
         15    1    5    5    0    0 -0.91723520053E+01  0.11175131070E+03 -0.25324447628E+03  0.27695713070E+03  0.00000000000E+00 0.  1.
         15    1    3    3    0    0 -0.32431740457E+02 -0.40628684255E+02 -0.31473733129E+02  0.60770911219E+02  0.00000000000E+00 0.  1.
        -16    1    1    2    0    0 -0.23664453816E+03  0.15980911755E+03  0.32622960019E+03  0.43354970134E+03  0.00000000000E+00 0.  1.
         16    1    4    4    0    0  0.22673999412E+02 -0.16789802707E+03 -0.85216920256E+02  0.18964646383E+03  0.00000000000E+00 0. -1.
    9900018    1    4    4    0    0  0.19797039057E+03 -0.20552818032E+03 -0.62805023506E+03  0.69584221243E+03  0.91187600000E+02 0.  0.
<mgrwt>
<rscale>  0 0.77356768E+03</rscale>
<asrwt>0</asrwt>
<pdfrwt beam="1">  1        1 0.21276934E+00 0.16105740E+04</pdfrwt>
<pdfrwt beam="2">  1       -1 0.80251680E-01 0.16105740E+04</pdfrwt>
<totfact> 0.11709166E+01</totfact>
</mgrwt>
</event>
<event>
12    1  0.7417763E-012  0.1861750E+04  0.7818608E-02  0.8674134E-01
         -2   -1    0    0    0  501 -0.00000000000E+00  0.00000000000E+00  0.12700948092E+04  0.12700948092E+04  0.00000000000E+00 0. -1.
          2   -1    0    0  501    0  0.00000000000E+00 -0.00000000000E+00 -0.68225462813E+03  0.68225462813E+03  0.00000000000E+00 0.  1.
         23    2    1    2    0    0 -0.59407409488E+02  0.36307990075E+03  0.23437506623E+03  0.44881292843E+03  0.10557044295E+03 0.  0.
    9900016    2    1    2    0    0 -0.20269031095E+03 -0.17800121407E+03 -0.27995184362E+03  0.79348976495E+03  0.69172623051E+03 0.  0.
         23    2    4    4    0    0  0.12285862814E+03 -0.10938704814E+03  0.69707979384E+01  0.18826737404E+03  0.91303030047E+02 0.  0.
        -15    1    3    3    0    0  0.54391028773E+01  0.12266874697E+03  0.29311250938E+02  0.12623927580E+03  0.00000000000E+00 0. -1.
        -15    1    5    5    0    0  0.42697403424E+02 -0.88451773411E+02 -0.21718767176E+02  0.10059070199E+03  0.00000000000E+00 0.  1.
         15    1    3    3    0    0 -0.64846512365E+02  0.24041115378E+03  0.20506381530E+03  0.32257365263E+03  0.00000000000E+00 0.  1.
         15    1    5    5    0    0  0.80161224719E+02 -0.20935274726E+02  0.28689565114E+02  0.87676672056E+02  0.00000000000E+00 0. -1.
        -16    1    4    4    0    0 -0.29704269431E+03  0.89324535821E+02 -0.65628048496E+02  0.31704932691E+03  0.00000000000E+00 0.  1.
         16    1    1    2    0    0  0.26209772044E+03 -0.18507868668E+03  0.63341695849E+03  0.71004674397E+03  0.00000000000E+00 0. -1.
    9900018    1    4    4    0    0 -0.28506244778E+02 -0.15793870176E+03 -0.22129459306E+03  0.28817306400E+03  0.91187600000E+02 0.  0.
<mgrwt>
<rscale>  0 0.18617498E+04</rscale>
<asrwt>0</asrwt>
<pdfrwt beam="1">  1        2 0.10496225E+00 0.18617498E+04</pdfrwt>
<pdfrwt beam="2">  1       -2 0.19539920E+00 0.18617498E+04</pdfrwt>
<totfact> 0.56674145E+00</totfact>
</mgrwt>
</event>
<event>
12    1  0.7417763E-012  0.1875112E+04  0.7818608E-02  0.9065877E-01
         -3   -1    0    0    0  501 -0.00000000000E+00  0.00000000000E+00  0.13288095382E+04  0.13288095382E+04  0.00000000000E+00 0.  1.
          3   -1    0    0  501    0  0.00000000000E+00 -0.00000000000E+00 -0.96206590875E+03  0.96206590875E+03  0.00000000000E+00 0. -1.
         23    2    1    2    0    0  0.26867477163E+03  0.25172613258E+03 -0.17107424140E+02  0.37687762575E+03  0.78688640216E+02 0.  0.
    9900016    2    1    2    0    0 -0.64176117953E+03  0.19843846218E+03 -0.28938164291E+03  0.10223230521E+04  0.71426007369E+03 0.  0.
         23    2    4    4    0    0  0.42910172209E+02 -0.18254873730E+02  0.13850115295E+03  0.17314243021E+03  0.92850462993E+02 0.  0.
        -15    1    3    3    0    0  0.16410256333E+03  0.12110579249E+03  0.21731207018E+02  0.20510609358E+03  0.00000000000E+00 0.  1.
        -15    1    5    5    0    0  0.35634525612E+02  0.35061614544E+02  0.62902817302E+02  0.80348619493E+02  0.00000000000E+00 0.  1.
         15    1    5    5    0    0  0.72756465965E+01 -0.53316488273E+02  0.75598335649E+02  0.92793810721E+02  0.00000000000E+00 0. -1.
         15    1    3    3    0    0  0.10457220830E+03  0.13062034009E+03 -0.38838631159E+02  0.17177153217E+03  0.00000000000E+00 0. -1.
        -16    1    1    2    0    0  0.37308640790E+03 -0.45016459476E+03  0.67323269649E+03  0.89167476904E+03  0.00000000000E+00 0.  1.
         16    1    4    4    0    0 -0.12991708328E+03  0.60157084438E+02 -0.13261534101E+03  0.19515161288E+03  0.00000000000E+00 0. -1.
    9900018    1    4    4    0    0 -0.55475426846E+03  0.15653625147E+03 -0.29526745485E+03  0.65402900905E+03  0.91187600000E+02 0.  0.
<mgrwt>
<rscale>  0 0.12551874E+04</rscale>
<asrwt>0</asrwt>
<pdfrwt beam="1">  1        3 0.14801014E+00 0.18751123E+04</pdfrwt>
<pdfrwt beam="2">  1       -3 0.20443224E+00 0.18751123E+04</pdfrwt>
<totfact> 0.11078066E-01</totfact>
</mgrwt>
</event>
<event>
12    1  0.7417763E-012  0.1151309E+04  0.7818608E-02  0.9677297E-01
          2   -1    0    0  501    0  0.00000000000E+00  0.00000000000E+00  0.24530985374E+04  0.24530985374E+04  0.00000000000E+00 0. -1.
         -2   -1    0    0    0  501 -0.00000000000E+00 -0.00000000000E+00 -0.20151464134E+03  0.20151464134E+03  0.00000000000E+00 0.  1.
         23    2    1    2    0    0  0.13242473354E+03 -0.62786334398E+02  0.80355077925E+02  0.19702346807E+03  0.10432101698E+03 0.  0.
    9900016    2    1    2    0    0 -0.32717848821E+03 -0.21583182960E+03  0.14740037074E+04  0.16819093891E+04  0.70887454590E+03 0.  0.
         23    2    4    4    0    0 -0.83811020837E+02 -0.36999491643E+02  0.63749781027E+03  0.65040877272E+03  0.90746151137E+02 0.  0.
        -15    1    5    5    0    0 -0.68597447900E+02 -0.66467789469E+02  0.49093155978E+03  0.50013735442E+03  0.00000000000E+00 0. -1.
        -15    1    3    3    0    0  0.51317432955E+02 -0.37736314318E+02 -0.18876900084E+02  0.66436779724E+02  0.00000000000E+00 0.  1.
         15    1    5    5    0    0 -0.15213572937E+02  0.29468297826E+02  0.14656625049E+03  0.15027141831E+03  0.00000000000E+00 0.  1.
         15    1    3    3    0    0  0.81107300584E+02 -0.25050020080E+02  0.99231978010E+02  0.13058668835E+03  0.00000000000E+00 0. -1.
        -16    1    1    2    0    0  0.19475375467E+03  0.27861816400E+03  0.69722511072E+03  0.77568032158E+03  0.00000000000E+00 0.  1.
         16    1    4    4    0    0  0.25397674774E+02 -0.55067429207E+02 -0.58616539676E+02  0.84340751520E+02  0.00000000000E+00 0. -1.
    9900018    1    4    4    0    0 -0.26876514215E+03 -0.12376490875E+03  0.89512243685E+03  0.94715986487E+03  0.91187600000E+02 0.  0.
<mgrwt>
<rscale>  0 0.72384771E+03</rscale>
<asrwt>0</asrwt>
<pdfrwt beam="1">  1        2 0.37739975E+00 0.11513091E+04</pdfrwt>
<pdfrwt beam="2">  1       -2 0.31002254E-01 0.11513091E+04</pdfrwt>
<totfact> 0.35588484E+01</totfact>
</mgrwt>
</event>
<event>
12    1  0.8528629E-012  0.1222521E+04  0.7818608E-02  0.9649938E-01
         -1   -1    0    0    0  501 -0.00000000000E+00  0.00000000000E+00  0.40593156763E+03  0.40593156763E+03  0.00000000000E+00 0.  1.
          1   -1    0    0  501    0  0.00000000000E+00 -0.00000000000E+00 -0.12674328439E+04  0.12674328439E+04  0.00000000000E+00 0. -1.
         23    2    1    2    0    0  0.34563437766E+02 -0.11581102700E+03 -0.26745815252E+03  0.31415729926E+03  0.11204517002E+03 0.  0.
    9900016    2    1    2    0    0  0.30537574576E+03  0.24351622980E+03 -0.57872908587E+03  0.99574901688E+03  0.70995369533E+03 0.  0.
         23    2    4    4    0    0 -0.12421566156E+03 -0.44175246509E+02  0.49581375179E+02  0.16878411873E+03  0.92998833264E+02 0.  0.
        -15    1    3    3    0    0 -0.32784529234E+02 -0.59454217144E+02 -0.16953640153E+03  0.18262590379E+03  0.00000000000E+00 0.  1.
        -15    1    5    5    0    0 -0.50914799467E+02  0.27961620289E+02  0.23683187658E+02  0.62730075655E+02  0.00000000000E+00 0. -1.
         15    1    3    3    0    0  0.67347967000E+02 -0.56356809858E+02 -0.97921750991E+02  0.13153139547E+03  0.00000000000E+00 0. -1.
         15    1    5    5    0    0 -0.73300862094E+02 -0.72136866798E+02  0.25898187521E+02  0.10605404307E+03  0.00000000000E+00 0.  1.
        -16    1    1    2    0    0 -0.33993918353E+03 -0.12770520280E+03 -0.15314037832E+02  0.36345809535E+03  0.00000000000E+00 0.  1.
         16    1    4    4    0    0  0.17777601948E+03  0.12526832826E+03 -0.19359860943E+03  0.29116471067E+03  0.00000000000E+00 0. -1.
    9900018    1    4    4    0    0  0.25181538784E+03  0.16242314805E+03 -0.43471185163E+03  0.53580018749E+03  0.91187600000E+02 0.  0.
<mgrwt>
<rscale>  0 0.74077320E+03</rscale>
<asrwt>0</asrwt>
<pdfrwt beam="1">  1        1 0.19498967E+00 0.12225207E+04</pdfrwt>
<pdfrwt beam="2">  1       -1 0.62451011E-01 0.12225207E+04</pdfrwt>
<totfact> 0.24484687E+01</totfact>
</mgrwt>
</event>
<event>
11    1  0.7417763E-012  0.1668924E+04  0.7818608E-02  0.9165067E-01
          1   -1    0    0  501    0  0.00000000000E+00  0.00000000000E+00  0.14544642238E+04  0.14544642238E+04  0.00000000000E+00 0. -1.
         -1   -1    0    0    0  501 -0.00000000000E+00 -0.00000000000E+00 -0.71354311105E+03  0.71354311105E+03  0.00000000000E+00 0.  1.
    9900016    2    1    2    0    0  0.57753930791E+03  0.26465062269E+03  0.79140178188E+03  0.12352005896E+04  0.70413927031E+03 0.  0.
         23    2    3    3    0    0  0.40867849814E+03 -0.15698625633E+03  0.33979253010E+03  0.56210848426E+03  0.94043527367E+02 0.  0.
        -15    1    4    4    0    0  0.18766657189E+03 -0.10746110870E+03  0.12405337269E+03  0.24931079272E+03  0.00000000000E+00 0.  1.
        -15    1    1    2    0    0 -0.17711133896E+02 -0.23945680847E+03 -0.84959448446E+01  0.24026116720E+03  0.00000000000E+00 0.  1.
         15    1    4    4    0    0  0.22101192625E+03 -0.49525147633E+02  0.21573915741E+03  0.31279769154E+03  0.00000000000E+00 0. -1.
         15    1    1    2    0    0 -0.27246239635E+02 -0.88745929717E+02  0.10127208863E+03  0.13738352722E+03  0.00000000000E+00 0. -1.
        -16    1    1    2    0    0 -0.53258193438E+03  0.63552115491E+02 -0.14325681291E+03  0.55516205081E+03  0.00000000000E+00 0.  1.
         16    1    3    3    0    0  0.24483666931E+01  0.22125335330E+03  0.17229279482E+03  0.28043510478E+03  0.00000000000E+00 0. -1.
    9900018    1    3    3    0    0  0.16641244308E+03  0.20038352573E+03  0.27931645696E+03  0.39265700060E+03  0.91187600000E+02 0.  0.
<mgrwt>
<rscale>  0 0.11421385E+04</rscale>
<asrwt>0</asrwt>
<pdfrwt beam="1">  1        1 0.22376373E+00 0.16689238E+04</pdfrwt>
<pdfrwt beam="2">  1       -1 0.10977586E+00 0.16689238E+04</pdfrwt>
<totfact> 0.51060666E+00</totfact>
</mgrwt>
</event>
<event>
11    1  0.7417763E-012  0.1378647E+04  0.7818608E-02  0.9482860E-01
         -1   -1    0    0    0  501 -0.00000000000E+00  0.00000000000E+00  0.14836633714E+04  0.14836633714E+04  0.00000000000E+00 0.  1.
          1   -1    0    0  501    0  0.00000000000E+00 -0.00000000000E+00 -0.49972601916E+03  0.49972601916E+03  0.00000000000E+00 0. -1.
    9900016    2    1    2    0    0 -0.39602790117E+03 -0.10132087659E+03  0.30086232273E+02  0.82148893360E+03  0.71192335832E+03 0.  0.
         23    2    3    3    0    0 -0.34152568280E+02  0.19308426336E+03  0.17638790764E+03  0.27883882819E+03  0.90501201475E+02 0.  0.
        -15    1    1    2    0    0 -0.20418451363E+02 -0.52428745695E+02  0.33633817773E+03  0.34101181260E+03  0.00000000000E+00 0.  1.
        -15    1    4    4    0    0 -0.50191356819E+02  0.18656235884E+03  0.14014965157E+03  0.23867679165E+03  0.00000000000E+00 0.  1.
         15    1    1    2    0    0  0.58327060217E+02 -0.90118089667E+02  0.13277723872E+03  0.17074282170E+03  0.00000000000E+00 0. -1.
         15    1    4    4    0    0  0.16038788539E+02  0.65219045135E+01  0.36238256063E+02  0.40162036537E+02  0.00000000000E+00 0. -1.
        -16    1    1    2    0    0  0.35811929232E+03  0.24386771195E+03  0.48473570352E+03  0.65014582267E+03  0.00000000000E+00 0.  1.
         16    1    3    3    0    0 -0.19887634326E+03 -0.26343130488E+03 -0.64039354460E+02  0.33622743971E+03  0.00000000000E+00 0. -1.
    9900018    1    3    3    0    0 -0.16299898963E+03 -0.30973835070E+02 -0.82262320904E+02  0.20642266570E+03  0.91187600000E+02 0.  0.
<mgrwt>
<rscale>  0 0.85559329E+03</rscale>
<asrwt>0</asrwt>
<pdfrwt beam="1">  1        1 0.76880926E-01 0.13786469E+04</pdfrwt>
<pdfrwt beam="2">  1       -1 0.22825590E+00 0.13786469E+04</pdfrwt>
<totfact> 0.41814399E+00</totfact>
</mgrwt>
</event>
<event>
11    1  0.7417763E-012  0.1247242E+04  0.7818608E-02  0.9384213E-01
         -2   -1    0    0    0  501 -0.00000000000E+00  0.00000000000E+00  0.34383548892E+03  0.34383548892E+03  0.00000000000E+00 0.  1.
          2   -1    0    0  501    0  0.00000000000E+00 -0.00000000000E+00 -0.21000554275E+04  0.21000554275E+04  0.00000000000E+00 0. -1.
    9900016    2    1    2    0    0 -0.44760536571E+03  0.47034535151E+02 -0.88026152448E+03  0.12272949267E+04  0.72720676197E+03 0.  0.
         23    2    3    3    0    0 -0.79087356159E+01  0.14173363231E+03 -0.14739288318E+03  0.22374653217E+03  0.90481368345E+02 0.  0.
        -15    1    4    4    0    0 -0.47692640105E+02  0.99192779720E+02 -0.94342072207E+02  0.14496282992E+03  0.00000000000E+00 0.  1.
        -15    1    1    2    0    0  0.21497094846E+03 -0.24291955822E+03 -0.57983176306E+03  0.66439995025E+03  0.00000000000E+00 0.  1.
         15    1    4    4    0    0  0.39783904489E+02  0.42540852590E+02 -0.53050810975E+02  0.78783702252E+02  0.00000000000E+00 0. -1.
         15    1    1    2    0    0 -0.14547846931E+02 -0.64728814606E+02 -0.15074515886E+03  0.16469839771E+03  0.00000000000E+00 0. -1.
        -16    1    3    3    0    0 -0.30623779262E+03  0.75891277989E+02 -0.69797051413E+03  0.76596599813E+03  0.00000000000E+00 0.  1.
         16    1    1    2    0    0  0.24718226418E+03  0.26061383767E+03 -0.14538149219E+03  0.38749764178E+03  0.00000000000E+00 0. -1.
    9900018    1    3    3    0    0 -0.13345883747E+03 -0.17059037515E+03 -0.34898127169E+02  0.23758239637E+03  0.91187600000E+02 0.  0.
<mgrwt>
<rscale>  0 0.93386378E+03</rscale>
<asrwt>0</asrwt>
<pdfrwt beam="1">  1        2 0.32308544E+00 0.12472415E+04</pdfrwt>
<pdfrwt beam="2">  1       -2 0.52897769E-01 0.12472415E+04</pdfrwt>
<totfact> 0.19457925E+01</totfact>
</mgrwt>
</event>
<event>
11    1  0.7417763E-012  0.1557626E+04  0.7818608E-02  0.9271827E-01
         -2   -1    0    0    0  501 -0.00000000000E+00  0.00000000000E+00  0.13269558051E+04  0.13269558051E+04  0.00000000000E+00 0.  1.
          2   -1    0    0  501    0  0.00000000000E+00 -0.00000000000E+00 -0.66536251321E+03  0.66536251321E+03  0.00000000000E+00 0. -1.
    9900016    2    1    2    0    0  0.26968796186E+03  0.25128664633E+03 -0.16960175608E+03  0.82541221331E+03  0.71879342708E+03 0.  0.
         23    2    3    3    0    0 -0.11235146931E+03  0.64816979864E+02  0.46343157291E+02  0.16522251837E+03  0.91250746934E+02 0.  0.
        -15    1    1    2    0    0  0.24292178819E+02 -0.14484726402E+02 -0.25496545902E+02  0.38078748714E+02  0.00000000000E+00 0. -1.
        -15    1    4    4    0    0 -0.46094411128E+02  0.60424153662E+02 -0.11865038841E+02  0.76919127853E+02  0.00000000000E+00 0.  1.
         15    1    4    4    0    0 -0.66257058178E+02  0.43928262022E+01  0.58208196132E+02  0.88303390520E+02  0.00000000000E+00 0. -1.
         15    1    1    2    0    0 -0.75613439292E+02  0.21739913487E+03  0.24263741093E+03  0.33444385064E+03  0.00000000000E+00 0.  1.
        -16    1    1    2    0    0 -0.21836670139E+03 -0.45420105480E+03  0.61405418295E+03  0.79438350566E+03  0.00000000000E+00 0.  1.
         16    1    3    3    0    0  0.18860568517E+03 -0.13867496932E+03 -0.67064752029E+02  0.24351700672E+03  0.00000000000E+00 0. -1.
    9900018    1    3    3    0    0  0.19343374600E+03  0.32514463579E+03 -0.14888016134E+03  0.41667268822E+03  0.91187600000E+02 0.  0.
<mgrwt>
<rscale>  0 0.10341845E+04</rscale>
<asrwt>0</asrwt>
<pdfrwt beam="1">  1        2 0.10236346E+00 0.15576265E+04</pdfrwt>
<pdfrwt beam="2">  1       -2 0.20414705E+00 0.15576265E+04</pdfrwt>
<totfact> 0.52049424E+00</totfact>
</mgrwt>
</event>
<event>
12    1  0.7417763E-012  0.1276258E+04  0.7818608E-02  0.9048608E-01
         -1   -1    0    0    0  501 -0.00000000000E+00  0.00000000000E+00  0.12605552210E+03  0.12605552210E+03  0.00000000000E+00 0.  1.
          1   -1    0    0  501    0  0.00000000000E+00 -0.00000000000E+00 -0.32303893484E+04  0.32303893484E+04  0.00000000000E+00 0. -1.
         23    2    1    2    0    0 -0.44744500276E+02 -0.12575218262E+02  0.29734255628E+02  0.93673804965E+02  0.75699731570E+02 0.  0.
    9900016    2    1    2    0    0  0.85003093543E+02  0.29140108613E+02 -0.31387046164E+04  0.32189915341E+04  0.70877722580E+03 0.  0.
         23    2    4    4    0    0 -0.17736029613E+03 -0.10088962022E+03 -0.69441144695E+03  0.72939292625E+03  0.90395758233E+02 0.  0.
        -15    1    3    3    0    0  0.20588701378E+01  0.26437120892E+02  0.16783415041E+02  0.31382213557E+02  0.00000000000E+00 0. -1.
        -15    1    5    5    0    0 -0.16104493709E+03 -0.58447917759E+02 -0.46589805858E+03  0.49639966946E+03  0.00000000000E+00 0.  1.
         15    1    5    5    0    0 -0.16315359046E+02 -0.42441702462E+02 -0.22851338837E+03  0.23299325680E+03  0.00000000000E+00 0. -1.
         15    1    3    3    0    0 -0.46803370413E+02 -0.39012339154E+02  0.12950840586E+02  0.62291591408E+02  0.00000000000E+00 0.  1.
        -16    1    1    2    0    0 -0.40258593267E+02 -0.16564890351E+02  0.46365344292E+01  0.43779531470E+02  0.00000000000E+00 0.  1.
         16    1    4    4    0    0  0.41416662947E+02  0.13907277726E+02 -0.15569988623E+02  0.46380781463E+02  0.00000000000E+00 0. -1.
    9900018    1    4    4    0    0  0.22094672673E+03  0.11612245111E+03 -0.24287231808E+04  0.24432178264E+04  0.91187600000E+02 0.  0.
<mgrwt>
<rscale>  0 0.12762577E+04</rscale>
<asrwt>0</asrwt>
<pdfrwt beam="1">  1        1 0.49698300E+00 0.12762577E+04</pdfrwt>
<pdfrwt beam="2">  1       -1 0.19393156E-01 0.12762577E+04</pdfrwt>
<totfact> 0.86704842E+00</totfact>
</mgrwt>
</event>
<event>
12    1  0.7417763E-012  0.1283401E+04  0.7818608E-02  0.9446653E-01
         -2   -1    0    0    0  501 -0.00000000000E+00  0.00000000000E+00  0.46256281962E+03  0.46256281962E+03  0.00000000000E+00 0.  1.
          2   -1    0    0  501    0  0.00000000000E+00 -0.00000000000E+00 -0.14060218784E+04  0.14060218784E+04  0.00000000000E+00 0. -1.
         23    2    1    2    0    0 -0.27701920701E+03  0.66030573789E+01 -0.35378178490E+03  0.45619746143E+03  0.78557819902E+02 0.  0.
    9900016    2    1    2    0    0  0.65099049511E+02  0.39001396292E+03 -0.23912403293E+03  0.84220937953E+03  0.70412183485E+03 0.  0.
         23    2    4    4    0    0  0.28238265034E+02  0.50420257152E+02  0.16818454241E+03  0.19729854439E+03  0.85446318654E+02 0.  0.
        -15    1    5    5    0    0 -0.24479555674E+02 -0.17298432731E+01  0.20240562394E+02  0.31810711557E+02  0.00000000000E+00 0.  1.
        -15    1    3    3    0    0 -0.19097221115E+03 -0.32104005946E+02 -0.24001171215E+03  0.30839370064E+03  0.00000000000E+00 0.  1.
         15    1    5    5    0    0  0.52717820708E+02  0.52150100425E+02  0.14794398001E+03  0.16548783283E+03  0.00000000000E+00 0. -1.
         15    1    3    3    0    0 -0.86046995858E+02  0.38707063325E+02 -0.11377007275E+03  0.14780376078E+03  0.00000000000E+00 0. -1.
        -16    1    4    4    0    0  0.15103196530E+03  0.13166267973E+03 -0.31737584038E+03  0.37533070729E+03  0.00000000000E+00 0.  1.
         16    1    1    2    0    0  0.21192015750E+03 -0.39661702030E+03 -0.35055324094E+03  0.57017785706E+03  0.00000000000E+00 0. -1.
    9900018    1    4    4    0    0 -0.11417118082E+03  0.20793102604E+03 -0.89932734952E+02  0.26958012785E+03  0.91187600000E+02 0.  0.
<mgrwt>
<rscale>  0 0.88333787E+03</rscale>
<asrwt>0</asrwt>
<pdfrwt beam="1">  1        2 0.21631106E+00 0.12834011E+04</pdfrwt>
<pdfrwt beam="2">  1       -2 0.71163511E-01 0.12834011E+04</pdfrwt>
<totfact> 0.25134802E+01</totfact>
</mgrwt>
</event>
<event>
12    1  0.7417763E-012  0.8582814E+03  0.7818608E-02  0.1028211E+00
          2   -1    0    0  501    0  0.00000000000E+00  0.00000000000E+00  0.13415275339E+04  0.13415275339E+04  0.00000000000E+00 0. -1.
         -2   -1    0    0    0  501 -0.00000000000E+00 -0.00000000000E+00 -0.18867881414E+03  0.18867881414E+03  0.00000000000E+00 0.  1.
         23    2    1    2    0    0 -0.15518965798E+02 -0.20215039913E+00 -0.28503021914E+02  0.69987578838E+02  0.62007739591E+02 0.  0.
    9900016    2    1    2    0    0  0.11210594301E+03  0.31530153830E+02  0.11377617779E+04  0.13497173081E+04  0.71670988239E+03 0.  0.
         23    2    4    4    0    0 -0.49464939539E+02  0.90302437218E+02 -0.25808702398E+02  0.14000437042E+03  0.91289781500E+02 0.  0.
        -15    1    3    3    0    0 -0.56013598137E+01 -0.17231234064E+02  0.14158371577E+02  0.22994567725E+02  0.00000000000E+00 0. -1.
        -15    1    5    5    0    0 -0.47873477502E+02  0.53241850539E+02  0.26095574423E+02  0.76207240480E+02  0.00000000000E+00 0. -1.
         15    1    5    5    0    0 -0.15914620367E+01  0.37060586678E+02 -0.51904276821E+02  0.63797129941E+02  0.00000000000E+00 0.  1.
         15    1    3    3    0    0 -0.99176059845E+01  0.17029083665E+02 -0.42661393491E+02  0.46993011113E+02  0.00000000000E+00 0.  1.
        -16    1    1    2    0    0 -0.96586977212E+02 -0.31328003431E+02  0.43589963808E+02  0.11050146112E+03  0.00000000000E+00 0.  1.
         16    1    4    4    0    0  0.14663925515E+03 -0.14297720127E+03  0.76944496831E+03  0.79623558730E+03  0.00000000000E+00 0. -1.
    9900018    1    4    4    0    0  0.14931627404E+02  0.84204917880E+02  0.39412551198E+03  0.41347735038E+03  0.91187600000E+02 0.  0.
<mgrwt>
<rscale>  0 0.44836574E+03</rscale>
<asrwt>0</asrwt>
<pdfrwt beam="1">  1        2 0.20638884E+00 0.85828137E+03</pdfrwt>
<pdfrwt beam="2">  1       -2 0.29027511E-01 0.85828137E+03</pdfrwt>
<totfact> 0.17145937E+02</totfact>
</mgrwt>
</event>
<event>
12    1  0.7417763E-012  0.1015610E+04  0.7818608E-02  0.9905227E-01
         -2   -1    0    0    0  501 -0.00000000000E+00  0.00000000000E+00  0.29913471316E+03  0.29913471316E+03  0.00000000000E+00 0.  1.
          2   -1    0    0  501    0  0.00000000000E+00 -0.00000000000E+00 -0.10851780002E+04  0.10851780002E+04  0.00000000000E+00 0. -1.
         23    2    1    2    0    0 -0.42663360910E+02 -0.17360554211E+02 -0.91233206856E+02  0.15377471134E+03  0.11489827069E+03 0.  0.
    9900016    2    1    2    0    0  0.27612324963E+03  0.24652743087E+02 -0.62657289044E+03  0.98720076742E+03  0.71071791973E+03 0.  0.
         23    2    4    4    0    0 -0.16191081682E+02 -0.75925272694E+01  0.54505044156E+02  0.10719879596E+03  0.90559286770E+02 0.  0.
        -15    1    5    5    0    0  0.23915195853E+02  0.32584644487E+00 -0.13786541255E+02  0.27606366809E+02  0.00000000000E+00 0. -1.
        -15    1    3    3    0    0 -0.43460426540E+02 -0.55207123308E+02 -0.92184503392E+02  0.11590779872E+03  0.00000000000E+00 0. -1.
         15    1    3    3    0    0  0.79706562991E+00  0.37846569096E+02  0.95129653636E+00  0.37866912616E+02  0.00000000000E+00 0.  1.
         15    1    5    5    0    0 -0.40106277535E+02 -0.79183737143E+01  0.68291585412E+02  0.79592429150E+02  0.00000000000E+00 0.  1.
        -16    1    1    2    0    0 -0.23345988872E+03 -0.72921888760E+01 -0.68237189700E+02  0.24333723455E+03  0.00000000000E+00 0.  1.
         16    1    4    4    0    0 -0.11005364254E+03 -0.62842124867E+02 -0.22100490946E+03  0.25476284443E+03  0.00000000000E+00 0. -1.
    9900018    1    4    4    0    0  0.40236797386E+03  0.95087395224E+02 -0.46007302514E+03  0.62523912703E+03  0.91187600000E+02 0.  0.
<mgrwt>
<rscale>  0 0.60008619E+03</rscale>
<asrwt>0</asrwt>
<pdfrwt beam="1">  1        2 0.16695046E+00 0.10156095E+04</pdfrwt>
<pdfrwt beam="2">  1       -2 0.46020725E-01 0.10156095E+04</pdfrwt>
<totfact> 0.99288604E+01</totfact>
</mgrwt>
</event>
<event>
12    1  0.7417763E-012  0.1214907E+04  0.7818608E-02  0.9477642E-01
          2   -1    0    0  501    0  0.00000000000E+00  0.00000000000E+00  0.30649693088E+04  0.30649693088E+04  0.00000000000E+00 0.  1.
         -2   -1    0    0    0  501 -0.00000000000E+00 -0.00000000000E+00 -0.19699651091E+03  0.19699651091E+03  0.00000000000E+00 0. -1.
         23    2    1    2    0    0 -0.17467218717E+03  0.23684587925E+03  0.33449381887E+03  0.45224772225E+03  0.77688763216E+02 0.  0.
    9900016    2    1    2    0    0 -0.23632630902E+03 -0.91763384021E+02  0.18334470848E+04  0.19850888794E+04  0.71748101264E+03 0.  0.
         23    2    4    4    0    0 -0.26553573439E+03 -0.12302717941E+02  0.69949762561E+03  0.75389702047E+03  0.91669003156E+02 0.  0.
        -15    1    5    5    0    0 -0.12079112190E+03 -0.16817707820E+02  0.20403766394E+03  0.23770717013E+03  0.00000000000E+00 0. -1.
        -15    1    3    3    0    0 -0.25807442483E+02  0.77747837444E+02  0.12858247159E+03  0.15246049428E+03  0.00000000000E+00 0. -1.
         15    1    3    3    0    0 -0.14886474469E+03  0.15909804180E+03  0.20591134727E+03  0.29978722797E+03  0.00000000000E+00 0.  1.
         15    1    5    5    0    0 -0.14474461249E+03  0.45149898789E+01  0.49545996167E+03  0.51618985034E+03  0.00000000000E+00 0.  1.
        -16    1    4    4    0    0 -0.61206520960E+02 -0.25455925092E+03  0.65089804056E+03  0.70158029451E+03  0.00000000000E+00 0.  1.
         16    1    1    2    0    0  0.41099849620E+03 -0.14508249523E+03  0.70003189425E+03  0.82462921805E+03  0.00000000000E+00 0. -1.
    9900018    1    4    4    0    0  0.90415946325E+02  0.17509858484E+03  0.48305141862E+03  0.52961156443E+03  0.91187600000E+02 0.  0.
<mgrwt>
<rscale>  0 0.85952461E+03</rscale>
<asrwt>0</asrwt>
<pdfrwt beam="1">  1        2 0.47153371E+00 0.12149074E+04</pdfrwt>
<pdfrwt beam="2">  1       -2 0.30307158E-01 0.12149074E+04</pdfrwt>
<totfact> 0.15927444E+01</totfact>
</mgrwt>
</event>
