<event>
13    1  0.1994035E-007  0.5328962E+04  0.7818608E-02  0.7779673E-01
         -2   -1    0    0    0  501 -0.00000000000E+00  0.00000000000E+00  0.41828448719E+04  0.41828448719E+04  0.00000000000E+00 0.  1.
          2   -1    0    0  501    0  0.00000000000E+00 -0.00000000000E+00 -0.16972798989E+04  0.16972798989E+04  0.00000000000E+00 0. -1.
    9900016    2    1    2    0    0 -0.10945379591E+04  0.43173025884E+03 -0.30806032137E+03  0.21992810120E+04  0.18323568014E+04 0.  0.
         23    2    3    3    0    0 -0.33751224254E+03 -0.13139748790E+03  0.71598396657E+03  0.80684878801E+03  0.84806324343E+02 0.  0.
    9900016    2    1    2    0    0  0.10251836464E+04 -0.20015463778E+03  0.23158852529E+04  0.31377157678E+04  0.18414321457E+04 0.  0.
        -24    2    5    5    0    0 -0.51926180694E+03 -0.23715908431E+02  0.35084796709E+03  0.63215915934E+03  0.79596722732E+02 0.  0.
        -15    1    5    5    0    0  0.15444454534E+04 -0.17643872935E+03  0.19650372858E+04  0.25055566085E+04  0.00000000000E+00 0.  1.
        -15    1    4    4    0    0 -0.18057146602E+03 -0.52783381582E+02  0.45467517738E+03  0.49205859066E+03  0.00000000000E+00 0.  1.
         15    1    6    6    0    0 -0.43732708586E+03  0.75755606593E+01  0.27919770399E+03  0.51890627965E+03  0.00000000000E+00 0. -1.
         15    1    4    4    0    0 -0.15694077652E+03 -0.78614106317E+02  0.26130878918E+03  0.31479019736E+03  0.00000000000E+00 0. -1.
        -16    1    6    6    0    0 -0.81934721075E+02 -0.31291469090E+02  0.71650263101E+02  0.11325287969E+03  0.00000000000E+00 0.  1.
         16    1    3    3    0    0 -0.75702571655E+03  0.56312774673E+03 -0.10240442879E+04  0.13924322240E+04  0.00000000000E+00 0. -1.
    9900018    1    1    2    0    0  0.69354312647E+02 -0.23157562105E+03  0.47774004148E+03  0.54312799097E+03  0.91187600000E+02 0.  0.
<mgrwt>
<rscale>  0 0.53289618E+04</rscale>
<asrwt>0</asrwt>
<pdfrwt beam="1">  1        2 0.26111999E+00 0.53289618E+04</pdfrwt>
<pdfrwt beam="2">  1       -2 0.64351459E+00 0.53289618E+04</pdfrwt>
<totfact> 0.25010566E-03</totfact>
</mgrwt>
</event>
<event>
13    1  0.1994035E-007  0.4417389E+04  0.7818608E-02  0.7925261E-01
         -2   -1    0    0    0  501 -0.00000000000E+00  0.00000000000E+00  0.19762350896E+04  0.19762350896E+04  0.00000000000E+00 0.  1.
          2   -1    0    0  501    0  0.00000000000E+00 -0.00000000000E+00 -0.24684971174E+04  0.24684971174E+04  0.00000000000E+00 0. -1.
    9900016    2    1    2    0    0 -0.50394390683E+03 -0.12906450113E+03 -0.43996610940E+03  0.19577268227E+04  0.18353492933E+04 0.  0.
         23    2    3    3    0    0  0.20973149713E+03  0.10175298453E+03  0.61437298325E+03  0.66380247555E+03  0.94013792806E+02 0.  0.
    9900016    2    1    2    0    0  0.50104339118E+03 -0.32691663087E+03 -0.26714901736E+03  0.19747513084E+04  0.18628889309E+04 0.  0.
         24    2    5    5    0    0  0.33159570055E+03  0.74700155997E+03  0.99332290231E+02  0.82744082324E+03  0.82609762508E+02 0.  0.
        -15    1    6    6    0    0  0.12672503379E+03  0.30613219625E+03  0.37236904710E+00  0.33132505855E+03  0.00000000000E+00 0.  1.
        -15    1    4    4    0    0  0.93349804887E+02  0.62199827221E+02  0.41224005838E+03  0.42722929477E+03  0.00000000000E+00 0. -1.
         15    1    4    4    0    0  0.11638169224E+03  0.39553157313E+02  0.20213292487E+03  0.23657318077E+03  0.00000000000E+00 0.  1.
         15    1    5    5    0    0  0.16944769063E+03 -0.10739181908E+04 -0.36648130759E+03  0.11473104851E+04  0.00000000000E+00 0. -1.
        -16    1    3    3    0    0 -0.71367540396E+03 -0.23081748566E+03 -0.10543390927E+04  0.12939243472E+04  0.00000000000E+00 0.  1.
         16    1    6    6    0    0  0.20487066676E+03  0.44086936372E+03  0.98959921184E+02  0.49611576468E+03  0.00000000000E+00 0. -1.
    9900018    1    1    2    0    0  0.29005156482E+01  0.45598113200E+03  0.21485309904E+03  0.51225407591E+03  0.91187600000E+02 0.  0.
<mgrwt>
<rscale>  0 0.44173887E+04</rscale>
<asrwt>0</asrwt>
<pdfrwt beam="1">  1        2 0.37976878E+00 0.44173887E+04</pdfrwt>
<pdfrwt beam="2">  1       -2 0.30403617E+00 0.44173887E+04</pdfrwt>
<totfact> 0.83143589E-02</totfact>
</mgrwt>
</event>
<event>
13    1  0.1994035E-007  0.4736939E+04  0.7818608E-02  0.7870420E-01
         -2   -1    0    0    0  501 -0.00000000000E+00  0.00000000000E+00  0.18445775113E+04  0.18445775113E+04  0.00000000000E+00 0.  1.
          2   -1    0    0  501    0  0.00000000000E+00 -0.00000000000E+00 -0.30411556246E+04  0.30411556246E+04  0.00000000000E+00 0. -1.
    9900016    2    1    2    0    0 -0.85632239539E+03  0.85031628944E+03 -0.35887787841E+03  0.22302983459E+04  0.18409539763E+04 0.  0.
         23    2    3    3    0    0  0.44678824088E+03  0.30523342105E+02 -0.50805288112E+03  0.68355628970E+03  0.92628637949E+02 0.  0.
    9900016    2    1    2    0    0  0.49741359986E+03 -0.94578740506E+03 -0.72579833812E+03  0.22569784307E+04  0.18507388535E+04 0.  0.
        -24    2    5    5    0    0  0.47329047033E+03 -0.14992158748E+04 -0.44428068297E+03  0.16355951458E+04  0.78320157600E+02 0.  0.
        -15    1    5    5    0    0  0.24123129530E+02  0.55342846977E+03 -0.28151765515E+03  0.62138328485E+03  0.00000000000E+00 0.  1.
        -15    1    4    4    0    0  0.32240894810E+03 -0.14662971698E+02 -0.38995469392E+03  0.50618889346E+03  0.00000000000E+00 0.  1.
         15    1    4    4    0    0  0.12437929278E+03  0.45186313803E+02 -0.11809818721E+03  0.17736739624E+03  0.00000000000E+00 0. -1.
         15    1    6    6    0    0  0.31028678632E+03 -0.90856444915E+03 -0.23895480893E+03  0.98937689923E+03  0.00000000000E+00 0. -1.
        -16    1    6    6    0    0  0.16300368402E+03 -0.59065142568E+03 -0.20532587404E+03  0.64621824658E+03  0.00000000000E+00 0.  1.
         16    1    3    3    0    0 -0.13031106363E+04  0.81979294734E+03  0.14917500271E+03  0.15467420562E+04  0.00000000000E+00 0. -1.
    9900018    1    1    2    0    0  0.35890879553E+03  0.95471115622E+02 -0.11190189675E+03  0.39845635936E+03  0.91187600000E+02 0.  0.
<mgrwt>
<rscale>  0 0.47369388E+04</rscale>
<asrwt>0</asrwt>
<pdfrwt beam="1">  1        2 0.46787010E+00 0.47369388E+04</pdfrwt>
<pdfrwt beam="2">  1       -2 0.28378116E+00 0.47369388E+04</pdfrwt>
<totfact> 0.48664476E-02</totfact>
</mgrwt>
</event>
<event>
13    1  0.1994035E-007  0.4765147E+04  0.7818608E-02  0.7865793E-01
          2   -1    0    0  501    0  0.00000000000E+00  0.00000000000E+00  0.18717055626E+04  0.18717055626E+04  0.00000000000E+00 0. -1.
         -2   -1    0    0    0  501 -0.00000000000E+00 -0.00000000000E+00 -0.30328787895E+04  0.30328787895E+04  0.00000000000E+00 0.  1.
    9900016    2    1    2    0    0 -0.40785140619E+03  0.35573963993E+03 -0.14033445597E+04  0.23859349759E+04  0.18521383034E+04 0.  0.
         23    2    3    3    0    0 -0.69677274280E+02 -0.44626992119E+03  0.24485511523E+03  0.52202960059E+03  0.92461404526E+02 0.  0.
    9900016    2    1    2    0    0  0.51777750355E+03 -0.65575687419E+03 -0.15277709287E+03  0.20025161326E+04  0.18134551001E+04 0.  0.
         24    2    5    5    0    0  0.74710949145E+03  0.77438094585E+02  0.57112977141E+03  0.94695506327E+03  0.79783615892E+02 0.  0.
        -15    1    6    6    0    0  0.28165685468E+03  0.28286689396E+02  0.26450264126E+03  0.38741756261E+03  0.00000000000E+00 0.  1.
        -15    1    4    4    0    0  0.70559355483E+01 -0.36001100290E+02 -0.26470343069E+01  0.36781411599E+02  0.00000000000E+00 0.  1.
         15    1    4    4    0    0 -0.76733209828E+02 -0.41026882090E+03  0.24750214954E+03  0.48524818899E+03  0.00000000000E+00 0. -1.
         15    1    5    5    0    0 -0.22933198790E+03 -0.73319496877E+03 -0.72390686428E+03  0.10555610693E+04  0.00000000000E+00 0. -1.
        -16    1    3    3    0    0 -0.33817413191E+03  0.80200956112E+03 -0.16481996750E+04  0.18639053753E+04  0.00000000000E+00 0.  1.
         16    1    6    6    0    0  0.46545263676E+03  0.49151405189E+02  0.30662713016E+03  0.55953750067E+03  0.00000000000E+00 0. -1.
    9900018    1    1    2    0    0 -0.10992609736E+03  0.30001723425E+03  0.39494842575E+03  0.51613324358E+03  0.91187600000E+02 0.  0.
<mgrwt>
<rscale>  0 0.47651468E+04</rscale>
<asrwt>0</asrwt>
<pdfrwt beam="1">  1        2 0.28795470E+00 0.47651468E+04</pdfrwt>
<pdfrwt beam="2">  1       -2 0.46659673E+00 0.47651468E+04</pdfrwt>
<totfact> 0.15808053E-02</totfact>
</mgrwt>
</event>
<event>
13    1  0.1994035E-007  0.5805821E+04  0.7818608E-02  0.7714955E-01
         -1   -1    0    0    0  501 -0.00000000000E+00  0.00000000000E+00  0.19409248072E+04  0.19409248072E+04  0.00000000000E+00 0.  1.
          1   -1    0    0  501    0  0.00000000000E+00 -0.00000000000E+00 -0.43416872838E+04  0.43416872838E+04  0.00000000000E+00 0. -1.
    9900016    2    1    2    0    0  0.56236535278E+03  0.11813004781E+04 -0.16315025382E+04  0.27785720427E+04  0.18294634336E+04 0.  0.
         23    2    3    3    0    0 -0.38679947761E+03 -0.25880120364E+03 -0.12992419283E+03  0.49175236109E+03  0.91368429277E+02 0.  0.
    9900016    2    1    2    0    0  0.37941677301E+03  0.13644624393E+02 -0.55600843815E+03  0.19650017931E+04  0.18460615917E+04 0.  0.
        -24    2    5    5    0    0  0.52877768681E+03  0.65653405686E+03  0.28727009979E+03  0.89414503447E+03  0.79551383020E+02 0.  0.
        -15    1    5    5    0    0 -0.14936091380E+03 -0.64288943247E+03 -0.84327853794E+03  0.10708567586E+04  0.00000000000E+00 0.  1.
        -15    1    4    4    0    0 -0.25418260193E+03 -0.19630580868E+03 -0.50787558012E+02  0.32515248991E+03  0.00000000000E+00 0.  1.
         15    1    6    6    0    0  0.80364486417E+02  0.12964373279E+03  0.26808995617E+02  0.15486984979E+03  0.00000000000E+00 0. -1.
         15    1    4    4    0    0 -0.13261687568E+03 -0.62495394955E+02 -0.79136634816E+02  0.16659987117E+03  0.00000000000E+00 0. -1.
        -16    1    6    6    0    0  0.44841320039E+03  0.52689032407E+03  0.26046110418E+03  0.73927518467E+03  0.00000000000E+00 0.  1.
         16    1    3    3    0    0  0.94916483039E+03  0.14401016817E+04 -0.15015783454E+04  0.22868196816E+04  0.00000000000E+00 0. -1.
    9900018    1    1    2    0    0 -0.94178212579E+03 -0.11949451024E+04 -0.21325150028E+03  0.15390382552E+04  0.91187600000E+02 0.  0.
<mgrwt>
<rscale>  0 0.58058207E+04</rscale>
<asrwt>0</asrwt>
<pdfrwt beam="1">  1        1 0.66795188E+00 0.58058207E+04</pdfrwt>
<pdfrwt beam="2">  1       -1 0.29860382E+00 0.58058207E+04</pdfrwt>
<totfact> 0.10530332E-03</totfact>
</mgrwt>
</event>
<event>
13    1  0.1994035E-007  0.4388423E+04  0.7818608E-02  0.7930467E-01
         -2   -1    0    0    0  501 -0.00000000000E+00  0.00000000000E+00  0.23121524771E+04  0.23121524771E+04  0.00000000000E+00 0.  1.
          2   -1    0    0  501    0  0.00000000000E+00 -0.00000000000E+00 -0.20822870048E+04  0.20822870048E+04  0.00000000000E+00 0. -1.
    9900016    2    1    2    0    0 -0.68609463838E+03  0.12142689972E+02  0.43504703077E+03  0.20187935076E+04  0.18480768408E+04 0.  0.
         23    2    3    3    0    0  0.41621775088E+03 -0.24538981395E+03 -0.38204452257E+03  0.62270819480E+03  0.91400775142E+02 0.  0.
    9900016    2    1    2    0    0  0.25549101083E+03 -0.73318764757E+02  0.39982091551E+02  0.18681202214E+04  0.18486815020E+04 0.  0.
         24    2    5    5    0    0 -0.62286736848E+03 -0.45832525038E+03  0.36040835123E+03  0.85697412688E+03  0.80527514923E+02 0.  0.
        -15    1    6    6    0    0 -0.40361532614E+03 -0.32439504001E+03  0.20647135232E+03  0.55746559787E+03  0.00000000000E+00 0.  1.
        -15    1    4    4    0    0  0.13238823839E+03 -0.62528238431E+02 -0.16843923007E+03  0.22317750893E+03  0.00000000000E+00 0.  1.
         15    1    4    4    0    0  0.28382951249E+03 -0.18286157552E+03 -0.21360529250E+03  0.39953068586E+03  0.00000000000E+00 0. -1.
         15    1    5    5    0    0  0.87835837931E+03  0.38500648562E+03 -0.32042625967E+03  0.10111460945E+04  0.00000000000E+00 0. -1.
        -16    1    3    3    0    0 -0.11023123893E+04  0.25753250393E+03  0.81709155334E+03  0.13960853128E+04  0.00000000000E+00 0.  1.
         16    1    6    6    0    0 -0.21925204234E+03 -0.13393021037E+03  0.15393699891E+03  0.29950852902E+03  0.00000000000E+00 0. -1.
    9900018    1    1    2    0    0  0.43060362755E+03  0.61176074784E+02 -0.24516365005E+03  0.50752575293E+03  0.91187600000E+02 0.  0.
<mgrwt>
<rscale>  0 0.43884234E+04</rscale>
<asrwt>0</asrwt>
<pdfrwt beam="1">  1        2 0.32035185E+00 0.43884234E+04</pdfrwt>
<pdfrwt beam="2">  1       -2 0.35571577E+00 0.43884234E+04</pdfrwt>
<totfact> 0.65793340E-02</totfact>
</mgrwt>
</event>
<event>
13    1  0.1994035E-007  0.4369728E+04  0.7818608E-02  0.7933849E-01
          2   -1    0    0  501    0  0.00000000000E+00  0.00000000000E+00  0.29076859876E+04  0.29076859876E+04  0.00000000000E+00 0. -1.
         -2   -1    0    0    0  501 -0.00000000000E+00 -0.00000000000E+00 -0.16417282593E+04  0.16417282593E+04  0.00000000000E+00 0.  1.
    9900016    2    1    2    0    0  0.25900552059E+03  0.86775996200E+03  0.90211550639E+03  0.22446046777E+04  0.18450871418E+04 0.  0.
         23    2    3    3    0    0 -0.35374524803E+03 -0.33353622041E+03  0.73459863195E+03  0.88569411202E+03  0.91852050496E+02 0.  0.
    9900016    2    1    2    0    0 -0.14070158716E+03 -0.85367396663E+03  0.15366421845E+03  0.20465767141E+04  0.18483255602E+04 0.  0.
        -24    2    5    5    0    0  0.67715025248E+03 -0.67353423735E+03 -0.40413269578E+03  0.10403613538E+04  0.82750694418E+02 0.  0.
        -15    1    5    5    0    0 -0.81785183964E+03 -0.18013972928E+03  0.55779691423E+03  0.10062153602E+04  0.00000000000E+00 0.  1.
        -15    1    4    4    0    0 -0.79247244302E+02 -0.29530471327E+02  0.10954349624E+03  0.13839057784E+03  0.00000000000E+00 0.  1.
         15    1    4    4    0    0 -0.27449800372E+03 -0.30400574908E+03  0.62505513571E+03  0.74730353418E+03  0.00000000000E+00 0. -1.
         15    1    6    6    0    0  0.38019780323E+03 -0.32727920920E+03 -0.23352483148E+03  0.55334970613E+03  0.00000000000E+00 0. -1.
        -16    1    6    6    0    0  0.29695244925E+03 -0.34625502815E+03 -0.17060786430E+03  0.48701164770E+03  0.00000000000E+00 0.  1.
         16    1    3    3    0    0  0.61275076861E+03  0.12012961824E+04  0.16751687444E+03  0.13589105657E+04  0.00000000000E+00 0. -1.
    9900018    1    1    2    0    0 -0.11830393343E+03 -0.14085995372E+02  0.21017800345E+03  0.25823285511E+03  0.91187600000E+02 0.  0.
<mgrwt>
<rscale>  0 0.43697278E+04</rscale>
<asrwt>0</asrwt>
<pdfrwt beam="1">  1        2 0.44733631E+00 0.43697278E+04</pdfrwt>
<pdfrwt beam="2">  1       -2 0.25257358E+00 0.43697278E+04</pdfrwt>
<totfact> 0.94249126E-02</totfact>
</mgrwt>
</event>
<event>
13    1  0.1994035E-007  0.4941705E+04  0.7818608E-02  0.7837563E-01
         -2   -1    0    0    0  501 -0.00000000000E+00  0.00000000000E+00  0.14896986059E+04  0.14896986059E+04  0.00000000000E+00 0.  1.
          2   -1    0    0  501    0  0.00000000000E+00 -0.00000000000E+00 -0.40982202582E+04  0.40982202582E+04  0.00000000000E+00 0. -1.
    9900016    2    1    2    0    0  0.73250534259E+03 -0.66670801258E+02 -0.50349665288E+03  0.20478099720E+04  0.18436398047E+04 0.  0.
         23    2    3    3    0    0 -0.15140217417E+03 -0.40881773649E+03 -0.91263574510E+03  0.10154574062E+04  0.90527236013E+02 0.  0.
    9900016    2    1    2    0    0 -0.27328948472E+03  0.56929259387E+03 -0.88076355309E+03  0.21363143424E+04  0.18410087814E+04 0.  0.
        -24    2    5    5    0    0 -0.13923320187E+02 -0.57057353118E+03  0.12961801683E+03  0.59118117431E+03  0.83344689324E+02 0.  0.
        -15    1    4    4    0    0 -0.15415985724E+03 -0.31069085085E+03 -0.72520303420E+03  0.80387406178E+03  0.00000000000E+00 0. -1.
        -15    1    5    5    0    0 -0.25936616453E+03  0.11398661250E+04 -0.10103815699E+04  0.15451331681E+04  0.00000000000E+00 0.  1.
         15    1    6    6    0    0 -0.44970365502E+02 -0.33842988189E+03  0.95408574747E+02  0.35448542264E+03  0.00000000000E+00 0. -1.
         15    1    4    4    0    0  0.27576830639E+01 -0.98126885637E+02 -0.18743271090E+03  0.21158334437E+03  0.00000000000E+00 0.  1.
        -16    1    6    6    0    0  0.31047045316E+02 -0.23214364929E+03  0.34209442078E+02  0.23669575167E+03  0.00000000000E+00 0.  1.
         16    1    3    3    0    0  0.88390751676E+03  0.34214693523E+03  0.40913909221E+03  0.10323525659E+04  0.00000000000E+00 0. -1.
    9900018    1    1    2    0    0 -0.45921585787E+03 -0.50262179261E+03 -0.12242614463E+04  0.14037945497E+04  0.91187600000E+02 0.  0.
<mgrwt>
<rscale>  0 0.49417054E+04</rscale>
<asrwt>0</asrwt>
<pdfrwt beam="1">  1        2 0.63049543E+00 0.49417054E+04</pdfrwt>
<pdfrwt beam="2">  1       -2 0.22918440E+00 0.49417054E+04</pdfrwt>
<totfact> 0.17871838E-02</totfact>
</mgrwt>
</event>
<event>
13    1  0.1994035E-007  0.4550531E+04  0.7818608E-02  0.7901849E-01
         -2   -1    0    0    0  501 -0.00000000000E+00  0.00000000000E+00  0.20549519904E+04  0.20549519904E+04  0.00000000000E+00 0.  1.
          2   -1    0    0  501    0  0.00000000000E+00 -0.00000000000E+00 -0.25191995419E+04  0.25191995419E+04  0.00000000000E+00 0. -1.
    9900016    2    1    2    0    0 -0.35331019932E+03 -0.15849720412E+03 -0.16440846510E+03  0.19435264316E+04  0.18974497059E+04 0.  0.
         23    2    3    3    0    0  0.20045676295E+03 -0.87525112427E+02  0.79717327782E+03  0.83162070961E+03  0.90907704118E+02 0.  0.
    9900016    2    1    2    0    0  0.41312170812E+03  0.62525009547E+03 -0.58537982692E+03  0.20726964573E+04  0.18416823382E+04 0.  0.
         24    2    5    5    0    0 -0.21918396722E+03  0.55334374081E+03 -0.11006731353E+04  0.12538508159E+04  0.80184853342E+02 0.  0.
        -15    1    4    4    0    0  0.54236471279E+02 -0.45060696109E+02  0.40183299104E+03  0.40797281017E+03  0.00000000000E+00 0. -1.
        -15    1    6    6    0    0 -0.89992175665E+02  0.33472302952E+03 -0.63622076901E+03  0.72451015527E+03  0.00000000000E+00 0.  1.
         15    1    5    5    0    0  0.63230567534E+03  0.71906354664E+02  0.51529330837E+03  0.81884564147E+03  0.00000000000E+00 0. -1.
         15    1    4    4    0    0  0.14622029167E+03 -0.42464416317E+02  0.39534028677E+03  0.42364789944E+03  0.00000000000E+00 0.  1.
        -16    1    3    3    0    0 -0.55376696227E+03 -0.70972091697E+02 -0.96158174292E+03  0.11119057220E+04  0.00000000000E+00 0.  1.
         16    1    6    6    0    0 -0.12919179155E+03  0.21862071129E+03 -0.46445236628E+03  0.52934066059E+03  0.00000000000E+00 0. -1.
    9900018    1    1    2    0    0 -0.59811508801E+02 -0.46675289135E+03  0.28554074050E+03  0.55792864333E+03  0.91187600000E+02 0.  0.
<mgrwt>
<rscale>  0 0.45505314E+04</rscale>
<asrwt>0</asrwt>
<pdfrwt beam="1">  1        2 0.38756916E+00 0.45505314E+04</pdfrwt>
<pdfrwt beam="2">  1       -2 0.31614646E+00 0.45505314E+04</pdfrwt>
<totfact> 0.64756269E-02</totfact>
</mgrwt>
</event>
<event>
13    1  0.1994035E-007  0.4579056E+04  0.7818608E-02  0.7896941E-01
         -1   -1    0    0    0  501 -0.00000000000E+00  0.00000000000E+00  0.38579221000E+04  0.38579221000E+04  0.00000000000E+00 0.  1.
          1   -1    0    0  501    0  0.00000000000E+00 -0.00000000000E+00 -0.13587464237E+04  0.13587464237E+04  0.00000000000E+00 0. -1.
    9900016    2    1    2    0    0  0.98744615186E+03  0.38289464706E+03  0.19489414418E+04  0.28867989200E+04  0.18475868173E+04 0.  0.
         23    2    3    3    0    0 -0.10707073731E+03  0.35571485626E+03  0.17280843501E+04  0.17698907695E+04  0.90777822071E+02 0.  0.
    9900016    2    1    2    0    0 -0.79806860681E+03 -0.24627635519E+03  0.49388630264E+03  0.20729285987E+04  0.18318143331E+04 0.  0.
         24    2    5    5    0    0  0.77702230026E+02  0.42627540871E+03  0.81200181481E+03  0.92379940105E+03  0.79435668954E+02 0.  0.
        -15    1    4    4    0    0 -0.69385844928E+02  0.13587157609E+03  0.54434243396E+03  0.56531775673E+03  0.00000000000E+00 0. -1.
        -15    1    6    6    0    0 -0.10989466481E+02  0.10448452922E+03  0.23033510825E+03  0.25316407192E+03  0.00000000000E+00 0.  1.
         15    1    4    4    0    0 -0.37684892383E+02  0.21984328017E+03  0.11837419162E+04  0.12045730128E+04  0.00000000000E+00 0.  1.
         15    1    5    5    0    0 -0.87577083684E+03 -0.67255176391E+03 -0.31811551217E+03  0.11491291976E+04  0.00000000000E+00 0. -1.
        -16    1    3    3    0    0  0.10945168892E+04  0.27179790796E+02  0.22085709167E+03  0.11169081505E+04  0.00000000000E+00 0.  1.
         16    1    6    6    0    0  0.88691696508E+02  0.32179087949E+03  0.58166670656E+03  0.67063532913E+03  0.00000000000E+00 0. -1.
    9900018    1    1    2    0    0 -0.18937754505E+03 -0.13661829186E+03  0.56347931888E+02  0.25694100502E+03  0.91187600000E+02 0.  0.
<mgrwt>
<rscale>  0 0.45790557E+04</rscale>
<asrwt>0</asrwt>
<pdfrwt beam="1">  1        1 0.20903791E+00 0.45790557E+04</pdfrwt>
<pdfrwt beam="2">  1       -1 0.59352647E+00 0.45790557E+04</pdfrwt>
<totfact> 0.28909719E-03</totfact>
</mgrwt>
</event>
<event>
13    1  0.1994035E-007  0.5313193E+04  0.7818608E-02  0.7781930E-01
          2   -1    0    0  501    0  0.00000000000E+00  0.00000000000E+00  0.32972802286E+04  0.32972802286E+04  0.00000000000E+00 0. -1.
         -2   -1    0    0    0  501 -0.00000000000E+00 -0.00000000000E+00 -0.21404021287E+04  0.21404021287E+04  0.00000000000E+00 0.  1.
    9900016    2    1    2    0    0 -0.39144483340E+03 -0.79026794858E+03 -0.10446708033E+04  0.22975383097E+04  0.18465082479E+04 0.  0.
         23    2    3    3    0    0 -0.12904153549E+03  0.41408040339E+03 -0.96591157810E+03  0.10624215302E+04  0.87407280512E+02 0.  0.
    9900016    2    1    2    0    0  0.53310107175E+03  0.75223633549E+03  0.19847694567E+04  0.28629773103E+04  0.18458800138E+04 0.  0.
        -24    2    5    5    0    0  0.97251609675E+02 -0.40762861288E+03  0.14531228517E+04  0.15146822518E+04  0.84126929190E+02 0.  0.
        -15    1    4    4    0    0 -0.69436449185E+02  0.26472071704E+03 -0.50699650588E+03  0.57614575888E+03  0.00000000000E+00 0.  1.
        -15    1    5    5    0    0  0.43584946207E+03  0.11598649484E+04  0.53164660509E+03  0.13482950585E+04  0.00000000000E+00 0.  1.
         15    1    6    6    0    0  0.15143559220E+02 -0.24216787684E+03  0.81088836145E+03  0.84641274961E+03  0.00000000000E+00 0. -1.
         15    1    4    4    0    0 -0.59605086310E+02  0.14935968635E+03 -0.45891507222E+03  0.48627577128E+03  0.00000000000E+00 0. -1.
        -16    1    6    6    0    0  0.82108050455E+02 -0.16546073604E+03  0.64223449020E+03  0.66826950216E+03  0.00000000000E+00 0.  1.
         16    1    3    3    0    0 -0.26240329791E+03 -0.12043483520E+04 -0.78759225157E+02  0.12351167796E+04  0.00000000000E+00 0. -1.
    9900018    1    1    2    0    0 -0.14165623835E+03  0.38031613085E+02  0.21677944642E+03  0.27716673725E+03  0.91187600000E+02 0.  0.
<mgrwt>
<rscale>  0 0.53131932E+04</rscale>
<asrwt>0</asrwt>
<pdfrwt beam="1">  1        2 0.50727389E+00 0.53131932E+04</pdfrwt>
<pdfrwt beam="2">  1       -2 0.32929263E+00 0.53131932E+04</pdfrwt>
<totfact> 0.16637459E-02</totfact>
</mgrwt>
</event>
<event>
13    1  0.1994035E-007  0.6098860E+04  0.7818608E-02  0.7678264E-01
          2   -1    0    0  501    0  0.00000000000E+00  0.00000000000E+00  0.36248799627E+04  0.36248799627E+04  0.00000000000E+00 0.  1.
         -2   -1    0    0    0  501 -0.00000000000E+00 -0.00000000000E+00 -0.25653327612E+04  0.25653327612E+04  0.00000000000E+00 0. -1.
    9900016    2    1    2    0    0  0.11739540861E+04 -0.17011479002E+04  0.79952020913E+03  0.28777570778E+04  0.18358052345E+04 0.  0.
         23    2    3    3    0    0 -0.11382820281E+03  0.32812456140E+03  0.67089635225E+02  0.36523155693E+03  0.90942198524E+02 0.  0.
    9900016    2    1    2    0    0 -0.12588565980E+04  0.82368569138E+03  0.78166884579E+01  0.23910037591E+04  0.18584024921E+04 0.  0.
        -24    2    5    5    0    0 -0.15042206154E+04  0.11859742367E+04  0.16915211198E+03  0.19246502344E+04  0.80321465563E+02 0.  0.
        -15    1    4    4    0    0 -0.50476403766E+02  0.16667608643E+03  0.79326182523E+02  0.19136726041E+03  0.00000000000E+00 0.  1.
        -15    1    5    5    0    0  0.24536401736E+03 -0.36228854535E+03 -0.16133542352E+03  0.46635352469E+03  0.00000000000E+00 0.  1.
         15    1    4    4    0    0 -0.63351799046E+02  0.16144847497E+03 -0.12236547298E+02  0.17386429652E+03  0.00000000000E+00 0. -1.
         15    1    6    6    0    0 -0.58812647636E+03  0.45247615975E+03  0.27282545028E+02  0.74254411626E+03  0.00000000000E+00 0. -1.
        -16    1    6    6    0    0 -0.91609413900E+03  0.73349807699E+03  0.14186956695E+03  0.11821061181E+04  0.00000000000E+00 0.  1.
         16    1    3    3    0    0  0.12877822889E+04 -0.20292724616E+04  0.73243057391E+03  0.25125255208E+04  0.00000000000E+00 0. -1.
    9900018    1    1    2    0    0  0.84902511893E+02  0.87746220885E+03  0.25221030393E+03  0.92145188713E+03  0.91187600000E+02 0.  0.
<mgrwt>
<rscale>  0 0.60988600E+04</rscale>
<asrwt>0</asrwt>
<pdfrwt beam="1">  1        2 0.55767384E+00 0.60988600E+04</pdfrwt>
<pdfrwt beam="2">  1       -2 0.39466658E+00 0.60988600E+04</pdfrwt>
<totfact> 0.35528528E-03</totfact>
</mgrwt>
</event>
<event>
13    1  0.1994035E-007  0.5047877E+04  0.7818608E-02  0.7821164E-01
         -2   -1    0    0    0  501 -0.00000000000E+00  0.00000000000E+00  0.23509459420E+04  0.23509459420E+04  0.00000000000E+00 0. -1.
          2   -1    0    0  501    0  0.00000000000E+00 -0.00000000000E+00 -0.27096610414E+04  0.27096610414E+04  0.00000000000E+00 0.  1.
    9900016    2    1    2    0    0  0.96913397064E+03  0.47838871297E+03 -0.83046316713E+03  0.22974399177E+04  0.18494552413E+04 0.  0.
         23    2    3    3    0    0  0.44914817067E+03 -0.23027265233E+02 -0.13381792613E+04  0.14145022938E+04  0.88479770162E+02 0.  0.
    9900016    2    1    2    0    0 -0.14823222211E+03 -0.29499623140E+03  0.26749576879E+03  0.18927954996E+04  0.18444850905E+04 0.  0.
        -24    2    5    5    0    0 -0.89531113761E+03 -0.29142996015E+03  0.55079423944E+03  0.10937975974E+04  0.80656277914E+02 0.  0.
        -15    1    4    4    0    0  0.15388472439E+03 -0.44633785812E+02 -0.53598201395E+03  0.55941880779E+03  0.00000000000E+00 0.  1.
        -15    1    5    5    0    0  0.74707891549E+03 -0.35662712491E+01 -0.28329847065E+03  0.79899790221E+03  0.00000000000E+00 0.  1.
         15    1    6    6    0    0 -0.16460800979E+03 -0.29211873114E+02  0.74694998707E+02  0.18310781864E+03  0.00000000000E+00 0. -1.
         15    1    4    4    0    0  0.29526344628E+03  0.21606520580E+02 -0.80219724732E+03  0.85508348602E+03  0.00000000000E+00 0. -1.
        -16    1    6    6    0    0 -0.73070312782E+03 -0.26221808703E+03  0.47609924074E+03  0.91068977880E+03  0.00000000000E+00 0.  1.
         16    1    3    3    0    0  0.51998579996E+03  0.50141597820E+03  0.50771609414E+03  0.88293762385E+03  0.00000000000E+00 0. -1.
    9900018    1    1    2    0    0 -0.82090174853E+03 -0.18339248157E+03  0.20425229892E+03  0.87037156608E+03  0.91187600000E+02 0.  0.
<mgrwt>
<rscale>  0 0.50478774E+04</rscale>
<asrwt>0</asrwt>
<pdfrwt beam="1">  1        2 0.41687093E+00 0.50478774E+04</pdfrwt>
<pdfrwt beam="2">  1       -2 0.36168399E+00 0.50478774E+04</pdfrwt>
<totfact> 0.24937062E-02</totfact>
</mgrwt>
</event>
<event>
13    1  0.1994035E-007  0.4133451E+04  0.7818608E-02  0.7978153E-01
         -2   -1    0    0    0  501 -0.00000000000E+00  0.00000000000E+00  0.15295530581E+04  0.15295530581E+04  0.00000000000E+00 0. -1.
          2   -1    0    0  501    0  0.00000000000E+00 -0.00000000000E+00 -0.27925501368E+04  0.27925501368E+04  0.00000000000E+00 0.  1.
    9900016    2    1    2    0    0  0.16648296726E+03 -0.51142348901E+03  0.99351007383E+02  0.19143048659E+04  0.18345086354E+04 0.  0.
         23    2    3    3    0    0 -0.12670277831E+03 -0.41747942388E+03 -0.82622279404E+03  0.93887151054E+03  0.92157172947E+02 0.  0.
    9900016    2    1    2    0    0 -0.18932533848E+03  0.50624427073E+03 -0.12759560860E+04  0.22800197929E+04  0.18106073503E+04 0.  0.
        -24    2    5    5    0    0 -0.58077904601E+03 -0.51598698484E+03 -0.67043650993E+03  0.10290814643E+04  0.77308973663E+02 0.  0.
        -15    1    5    5    0    0  0.39145370753E+03  0.10222312556E+04 -0.60551957606E+03  0.12509383286E+04  0.00000000000E+00 0.  1.
        -15    1    4    4    0    0  0.78152015761E+01 -0.10720426787E+03 -0.18629660573E+03  0.21508197910E+03  0.00000000000E+00 0.  1.
         15    1    6    6    0    0 -0.58773350860E+02 -0.28992367512E+02 -0.40852947532E+02  0.77225821247E+02  0.00000000000E+00 0. -1.
         15    1    4    4    0    0 -0.13451797989E+03 -0.31027515601E+03 -0.63992618830E+03  0.72378953144E+03  0.00000000000E+00 0. -1.
        -16    1    6    6    0    0 -0.52200569515E+03 -0.48699461733E+03 -0.62958356240E+03  0.95185564301E+03  0.00000000000E+00 0.  1.
         16    1    3    3    0    0  0.29318574557E+03 -0.93944065134E+02  0.92557380142E+03  0.97543335531E+03  0.00000000000E+00 0. -1.
    9900018    1    1    2    0    0  0.22842371213E+02  0.51792182855E+01 -0.86392000067E+02  0.12777853612E+03  0.91187600000E+02 0.  0.
<mgrwt>
<rscale>  0 0.41334507E+04</rscale>
<asrwt>0</asrwt>
<pdfrwt beam="1">  1        2 0.42962310E+00 0.41334507E+04</pdfrwt>
<pdfrwt beam="2">  1       -2 0.23531585E+00 0.41334507E+04</pdfrwt>
<totfact> 0.14440136E-01</totfact>
</mgrwt>
</event>
<event>
13    1  0.1994035E-007  0.6864523E+04  0.7818608E-02  0.7591571E-01
          2   -1    0    0  501    0  0.00000000000E+00  0.00000000000E+00  0.35499856332E+04  0.35499856332E+04  0.00000000000E+00 0.  1.
         -2   -1    0    0    0  501 -0.00000000000E+00 -0.00000000000E+00 -0.33184410985E+04  0.33184410985E+04  0.00000000000E+00 0. -1.
    9900016    2    1    2    0    0 -0.12176732401E+04  0.83396372054E+03 -0.17420373691E+04  0.29372965717E+04  0.18479159472E+04 0.  0.
         23    2    3    3    0    0 -0.20339189374E+03 -0.42347006657E+03  0.97604886324E+02  0.48899307611E+03  0.94299283836E+02 0.  0.
    9900016    2    1    2    0    0  0.78390855531E+03  0.29544766812E+03  0.64305361867E+03  0.21304795602E+04  0.18503035567E+04 0.  0.
        -24    2    5    5    0    0  0.41641341108E+03 -0.17321847992E+03 -0.59839664596E+03  0.75356293273E+03  0.79835937890E+02 0.  0.
        -15    1    5    5    0    0  0.36749514423E+03  0.46866614804E+03  0.12414502646E+04  0.13769166274E+04  0.00000000000E+00 0.  1.
        -15    1    4    4    0    0 -0.11100713907E+03 -0.32641667387E+03  0.79034828858E+02  0.35371872169E+03  0.00000000000E+00 0. -1.
         15    1    4    4    0    0 -0.92384754660E+02 -0.97053392706E+02  0.18570057466E+02  0.13527435442E+03  0.00000000000E+00 0.  1.
         15    1    6    6    0    0  0.31219279390E+03 -0.13119893351E+03 -0.50181370492E+03  0.60538788819E+03  0.00000000000E+00 0. -1.
        -16    1    6    6    0    0  0.10422061718E+03 -0.42019546408E+02 -0.96582941036E+02  0.14817504454E+03  0.00000000000E+00 0.  1.
         16    1    3    3    0    0 -0.10142813463E+04  0.12574337871E+04 -0.18396422554E+04  0.24483034956E+04  0.00000000000E+00 0. -1.
    9900018    1    1    2    0    0  0.43376468477E+03 -0.11294113887E+04  0.13305282851E+04  0.18006505998E+04  0.91187600000E+02 0.  0.
<mgrwt>
<rscale>  0 0.68645228E+04</rscale>
<asrwt>0</asrwt>
<pdfrwt beam="1">  1        2 0.54615163E+00 0.68645228E+04</pdfrwt>
<pdfrwt beam="2">  1       -2 0.51052940E+00 0.68645228E+04</pdfrwt>
<totfact> 0.68108406E-04</totfact>
</mgrwt>
</event>
<event>
13    1  0.1994035E-007  0.4214691E+04  0.7818608E-02  0.7962584E-01
          1   -1    0    0  501    0  0.00000000000E+00  0.00000000000E+00  0.16025077266E+04  0.16025077266E+04  0.00000000000E+00 0. -1.
         -1   -1    0    0    0  501 -0.00000000000E+00 -0.00000000000E+00 -0.27712218861E+04  0.27712218861E+04  0.00000000000E+00 0.  1.
    9900016    2    1    2    0    0  0.13721494721E+02  0.88562388201E+01 -0.11065609742E+04  0.21522869759E+04  0.18459673141E+04 0.  0.
         23    2    3    3    0    0 -0.35795785950E+03  0.40259187409E+03 -0.14231775528E+04  0.15250554790E+04  0.10072646513E+03 0.  0.
    9900016    2    1    2    0    0  0.32836906308E+03 -0.24378177249E+02 -0.10601677057E+02  0.18633370425E+04  0.18339825521E+04 0.  0.
        -24    2    5    5    0    0 -0.64849101233E+03  0.20111685227E+02  0.43855719077E+03  0.78724288149E+03  0.80460374899E+02 0.  0.
        -15    1    4    4    0    0 -0.30057428366E+03  0.32288668674E+03 -0.10441921748E+04  0.11335510621E+04  0.00000000000E+00 0.  1.
        -15    1    5    5    0    0  0.97686007541E+03 -0.44489862476E+02 -0.44915886782E+03  0.10760941610E+04  0.00000000000E+00 0.  1.
         15    1    6    6    0    0 -0.24049207929E+03  0.18861321833E+02  0.11894885403E+03  0.26896285903E+03  0.00000000000E+00 0. -1.
         15    1    4    4    0    0 -0.57383575844E+02  0.79705187353E+02 -0.37898537799E+03  0.39150441683E+03  0.00000000000E+00 0. -1.
        -16    1    6    6    0    0 -0.40799893304E+03  0.12503633938E+01  0.31960833673E+03  0.51828002246E+03  0.00000000000E+00 0.  1.
         16    1    3    3    0    0  0.37167935423E+03 -0.39373563527E+03  0.31661657868E+03  0.62723149692E+03  0.00000000000E+00 0. -1.
    9900018    1    1    2    0    0 -0.34209055780E+03  0.15521938429E+02 -0.51551508253E+02  0.35810559435E+03  0.91187600000E+02 0.  0.
<mgrwt>
<rscale>  0 0.42146907E+04</rscale>
<asrwt>0</asrwt>
<pdfrwt beam="1">  1        1 0.24653965E+00 0.42146907E+04</pdfrwt>
<pdfrwt beam="2">  1       -1 0.42634183E+00 0.42146907E+04</pdfrwt>
<totfact> 0.20145362E-02</totfact>
</mgrwt>
</event>
<event>
13    1  0.1994035E-007  0.5403426E+04  0.7818608E-02  0.7769119E-01
         -2   -1    0    0    0  501 -0.00000000000E+00  0.00000000000E+00  0.30483156732E+04  0.30483156732E+04  0.00000000000E+00 0.  1.
          2   -1    0    0  501    0  0.00000000000E+00 -0.00000000000E+00 -0.23945200022E+04  0.23945200022E+04  0.00000000000E+00 0. -1.
    9900016    2    1    2    0    0 -0.61877011066E+03 -0.34943333666E+03  0.11950811918E+04  0.23059572934E+04  0.18396303643E+04 0.  0.
         23    2    3    3    0    0 -0.20991165328E+03  0.17731322487E+03  0.15318786234E+04  0.15589233663E+04  0.89928099498E+02 0.  0.
    9900016    2    1    2    0    0  0.81284234659E+02  0.10957924210E+04 -0.19421847620E+03  0.21496025030E+04  0.18373083431E+04 0.  0.
        -24    2    5    5    0    0 -0.18260391823E+03 -0.49022652374E+03 -0.10294268847E+03  0.53919127612E+03  0.80397758744E+02 0.  0.
        -15    1    4    4    0    0 -0.13115581061E+03  0.16192147365E+03  0.10638125568E+04  0.10840283974E+04  0.00000000000E+00 0. -1.
        -15    1    5    5    0    0  0.26388815289E+03  0.15860189447E+04 -0.91275787726E+02  0.16104112269E+04  0.00000000000E+00 0.  1.
         15    1    4    4    0    0 -0.78755842671E+02  0.15391751218E+02  0.46806606663E+03  0.47489496890E+03  0.00000000000E+00 0.  1.
         15    1    6    6    0    0 -0.25818489158E+01 -0.93257149442E+02 -0.14190684180E+02  0.94365975772E+02  0.00000000000E+00 0. -1.
        -16    1    6    6    0    0 -0.18002206931E+03 -0.39696937429E+03 -0.88752004291E+02  0.44482530035E+03  0.00000000000E+00 0.  1.
         16    1    3    3    0    0 -0.40885845739E+03 -0.52674656153E+03 -0.33679743168E+03  0.74703392710E+03  0.00000000000E+00 0. -1.
    9900018    1    1    2    0    0  0.53748587601E+03 -0.74635908429E+03 -0.34706704459E+03  0.98727587910E+03  0.91187600000E+02 0.  0.
<mgrwt>
<rscale>  0 0.54034259E+04</rscale>
<asrwt>0</asrwt>
<pdfrwt beam="1">  1        2 0.36838769E+00 0.54034259E+04</pdfrwt>
<pdfrwt beam="2">  1       -2 0.46897164E+00 0.54034259E+04</pdfrwt>
<totfact> 0.73930653E-03</totfact>
</mgrwt>
</event>
<event>
13    1  0.1994035E-007  0.5717163E+04  0.7818608E-02  0.7726494E-01
         -2   -1    0    0    0  501 -0.00000000000E+00  0.00000000000E+00  0.23767523881E+04  0.23767523881E+04  0.00000000000E+00 0.  1.
          2   -1    0    0  501    0  0.00000000000E+00 -0.00000000000E+00 -0.34380897146E+04  0.34380897146E+04  0.00000000000E+00 0. -1.
    9900016    2    1    2    0    0 -0.91820529382E+03  0.41393997017E+02  0.13057247763E+04  0.24431291774E+04  0.18490939840E+04 0.  0.
         23    2    3    3    0    0  0.43779448512E+03 -0.30191792405E+03  0.13789855620E+02  0.53900357366E+03  0.86696298859E+02 0.  0.
    9900016    2    1    2    0    0  0.43782491679E+03  0.78757157102E+02 -0.18933491103E+04  0.26803947755E+04  0.18444110039E+04 0.  0.
         24    2    5    5    0    0 -0.42316102991E+03  0.69524290480E+03 -0.10221948168E+04  0.13091685795E+04  0.81315263721E+02 0.  0.
        -15    1    4    4    0    0  0.10505255408E+03 -0.30437272833E+02  0.43523568386E+01  0.10945962592E+03  0.00000000000E+00 0. -1.
        -15    1    6    6    0    0 -0.29521234380E+03  0.46256827076E+03 -0.74538192764E+03  0.92558843505E+03  0.00000000000E+00 0.  1.
         15    1    4    4    0    0  0.33274193104E+03 -0.27148065122E+03  0.94374987819E+01  0.42954394774E+03  0.00000000000E+00 0.  1.
         15    1    5    5    0    0  0.86098594670E+03 -0.61648574769E+03 -0.87115429348E+03  0.13712261960E+04  0.00000000000E+00 0. -1.
        -16    1    3    3    0    0 -0.13559997789E+04  0.34331192107E+03  0.12919349207E+04  0.19041256038E+04  0.00000000000E+00 0.  1.
         16    1    6    6    0    0 -0.12794868611E+03  0.23267463404E+03 -0.27681288920E+03  0.38358014447E+03  0.00000000000E+00 0. -1.
    9900018    1    1    2    0    0  0.48038037703E+03 -0.12015115412E+03 -0.47371299254E+03  0.69131814974E+03  0.91187600000E+02 0.  0.
<mgrwt>
<rscale>  0 0.57171629E+04</rscale>
<asrwt>0</asrwt>
<pdfrwt beam="1">  1        2 0.52893688E+00 0.57171629E+04</pdfrwt>
<pdfrwt beam="2">  1       -2 0.36565421E+00 0.57171629E+04</pdfrwt>
<totfact> 0.76321378E-03</totfact>
</mgrwt>
</event>
<event>
13    1  0.1994035E-007  0.5631424E+04  0.7818608E-02  0.7737860E-01
          2   -1    0    0  501    0  0.00000000000E+00  0.00000000000E+00  0.25126418332E+04  0.25126418332E+04  0.00000000000E+00 0. -1.
         -2   -1    0    0    0  501 -0.00000000000E+00 -0.00000000000E+00 -0.31553382972E+04  0.31553382972E+04  0.00000000000E+00 0.  1.
    9900016    2    1    2    0    0  0.98478281183E+03  0.15621652944E+04 -0.15925472123E+03  0.26148072972E+04  0.18443691447E+04 0.  0.
         23    2    3    3    0    0 -0.34446857168E+03  0.33287743088E+02 -0.44227190971E+03  0.56920847623E+03  0.92882595673E+02 0.  0.
    9900016    2    1    2    0    0 -0.63385354274E+03 -0.70353068124E+03 -0.21733722477E+03  0.20838784797E+04  0.18435260551E+04 0.  0.
        -24    2    5    5    0    0 -0.40454639785E+03  0.11338436862E+03  0.70882998045E+03  0.82780616595E+03  0.79431128238E+02 0.  0.
        -15    1    4    4    0    0 -0.17314145668E+03 -0.11977478677E+02 -0.27708039490E+03  0.32694796108E+03  0.00000000000E+00 0. -1.
        -15    1    5    5    0    0 -0.22930714490E+03 -0.81691504986E+03 -0.92616720522E+03  0.12560723138E+04  0.00000000000E+00 0.  1.
         15    1    4    4    0    0 -0.17132711500E+03  0.45265221765E+02 -0.16519151481E+03  0.24226051515E+03  0.00000000000E+00 0.  1.
         15    1    6    6    0    0 -0.18763287726E+03  0.80947869005E+02  0.28634835225E+03  0.35178691414E+03  0.00000000000E+00 0. -1.
        -16    1    6    6    0    0 -0.21691352059E+03  0.32436499618E+02  0.42248162820E+03  0.47601925181E+03  0.00000000000E+00 0.  1.
         16    1    3    3    0    0  0.13292513835E+04  0.15288775513E+04  0.28301718848E+03  0.20455988210E+04  0.00000000000E+00 0. -1.
    9900018    1    1    2    0    0 -0.35092926908E+03 -0.85863461316E+03 -0.26610451795E+03  0.96929435348E+03  0.91187600000E+02 0.  0.
<mgrwt>
<rscale>  0 0.56314243E+04</rscale>
<asrwt>0</asrwt>
<pdfrwt beam="1">  1        2 0.38656028E+00 0.56314243E+04</pdfrwt>
<pdfrwt beam="2">  1       -2 0.48543666E+00 0.56314243E+04</pdfrwt>
<totfact> 0.48699708E-03</totfact>
</mgrwt>
</event>
<event>
13    1  0.1994035E-007  0.5882568E+04  0.7818608E-02  0.7705135E-01
          2   -1    0    0  501    0  0.00000000000E+00  0.00000000000E+00  0.58967244267E+04  0.58967244267E+04  0.00000000000E+00 0. -1.
         -2   -1    0    0    0  501 -0.00000000000E+00 -0.00000000000E+00 -0.14671112336E+04  0.14671112336E+04  0.00000000000E+00 0.  1.
    9900016    2    1    2    0    0  0.14571532106E+03 -0.21164526328E+04  0.25637400610E+04  0.37989028094E+04  0.18325650747E+04 0.  0.
         23    2    3    3    0    0 -0.18016176482E+03 -0.34842868655E+03 -0.24010453244E+03  0.46818981456E+03  0.87696663830E+02 0.  0.
    9900016    2    1    2    0    0 -0.23269249943E+03  0.16638944100E+04  0.18273242014E+04  0.30935782360E+04  0.18461912573E+04 0.  0.
         24    2    5    5    0    0  0.58986517725E+03  0.13080738632E+04  0.16353459096E+04  0.21770276059E+04  0.78069160474E+02 0.  0.
        -15    1    4    4    0    0 -0.13327185880E+03 -0.32106960370E+03 -0.20623413464E+03  0.40420242090E+03  0.00000000000E+00 0.  1.
        -15    1    6    6    0    0  0.44669067171E+02  0.15808272307E+03  0.19474045886E+03  0.25477307396E+03  0.00000000000E+00 0.  1.
         15    1    5    5    0    0 -0.82255767668E+03  0.35582054673E+03  0.19197829175E+03  0.91655063005E+03  0.00000000000E+00 0. -1.
         15    1    4    4    0    0 -0.46889906018E+02 -0.27359082850E+02 -0.33870397798E+02  0.63987393663E+02  0.00000000000E+00 0. -1.
        -16    1    3    3    0    0  0.32587708587E+03 -0.17680239463E+04  0.28038445935E+04  0.33307129949E+04  0.00000000000E+00 0.  1.
         16    1    6    6    0    0  0.54519611008E+03  0.11499911402E+04  0.14406054507E+04  0.19222545319E+04  0.00000000000E+00 0. -1.
    9900018    1    1    2    0    0  0.86977178376E+02  0.45255822289E+03  0.38548930713E+02  0.47135461503E+03  0.91187600000E+02 0.  0.
<mgrwt>
<rscale>  0 0.58825677E+04</rscale>
<asrwt>0</asrwt>
<pdfrwt beam="1">  1        2 0.90718836E+00 0.58825677E+04</pdfrwt>
<pdfrwt beam="2">  1       -2 0.22570942E+00 0.58825677E+04</pdfrwt>
<totfact> 0.42058128E-05</totfact>
</mgrwt>
</event>
<event>
13    1  0.1994035E-007  0.5643779E+04  0.7818608E-02  0.7736209E-01
          2   -1    0    0  501    0  0.00000000000E+00  0.00000000000E+00  0.27803688409E+04  0.27803688409E+04  0.00000000000E+00 0. -1.
         -2   -1    0    0    0  501 -0.00000000000E+00 -0.00000000000E+00 -0.28640300208E+04  0.28640300208E+04  0.00000000000E+00 0.  1.
    9900016    2    1    2    0    0  0.32907103656E+03 -0.10686562391E+04  0.10459357947E+04  0.23960210318E+04  0.18429924562E+04 0.  0.
         23    2    3    3    0    0 -0.12823381041E+03  0.47998945430E+03  0.72234242705E+02  0.51041080717E+03  0.92019671207E+02 0.  0.
    9900016    2    1    2    0    0 -0.52031869487E+03  0.93997225128E+02 -0.11837894717E+04  0.22494845095E+04  0.18382752848E+04 0.  0.
        -24    2    5    5    0    0 -0.93410778687E+03 -0.50126178482E+03 -0.29642879906E+03  0.11036382437E+04  0.79539962327E+02 0.  0.
        -15    1    4    4    0    0 -0.12512131620E+03  0.37689155486E+03  0.86081710313E+02  0.40634055759E+03  0.00000000000E+00 0.  1.
        -15    1    5    5    0    0  0.41378909199E+03  0.59525900995E+03 -0.88736067265E+03  0.11458462658E+04  0.00000000000E+00 0.  1.
         15    1    4    4    0    0 -0.31124942082E+01  0.10309789944E+03 -0.13847467608E+02  0.10407024958E+03  0.00000000000E+00 0. -1.
         15    1    6    6    0    0 -0.58523509293E+03 -0.34674143879E+03 -0.21579279472E+03  0.71364996296E+03  0.00000000000E+00 0. -1.
        -16    1    6    6    0    0 -0.34887269394E+03 -0.15452034603E+03 -0.80636004342E+02  0.38998828073E+03  0.00000000000E+00 0.  1.
         16    1    3    3    0    0  0.45730484697E+03 -0.15486456934E+04  0.97370155202E+03  0.18856102246E+04  0.00000000000E+00 0. -1.
    9900018    1    1    2    0    0  0.19124765831E+03  0.97465901397E+03  0.54192497074E+02  0.99889332036E+03  0.91187600000E+02 0.  0.
<mgrwt>
<rscale>  0 0.56437788E+04</rscale>
<asrwt>0</asrwt>
<pdfrwt beam="1">  1        2 0.42774905E+00 0.56437788E+04</pdfrwt>
<pdfrwt beam="2">  1       -2 0.44062000E+00 0.56437788E+04</pdfrwt>
<totfact> 0.66058408E-03</totfact>
</mgrwt>
</event>
<event>
13    1  0.1994035E-007  0.5848069E+04  0.7818608E-02  0.7709530E-01
         -2   -1    0    0    0  501 -0.00000000000E+00  0.00000000000E+00  0.23966046499E+04  0.23966046499E+04  0.00000000000E+00 0. -1.
          2   -1    0    0  501    0  0.00000000000E+00 -0.00000000000E+00 -0.35675380016E+04  0.35675380016E+04  0.00000000000E+00 0.  1.
    9900016    2    1    2    0    0 -0.15370518211E+04 -0.59118251131E+01 -0.79098357428E+03  0.25272744147E+04  0.18436099647E+04 0.  0.
         23    2    3    3    0    0  0.32549152862E+03 -0.16386209855E+03  0.18485928155E+03  0.41865275644E+03  0.91113412595E+02 0.  0.
    9900016    2    1    2    0    0  0.72708419668E+03  0.47258022662E+02  0.68724884896E+03  0.20933708802E+04  0.18382072549E+04 0.  0.
         24    2    5    5    0    0  0.84410754330E+03  0.46484559564E+03  0.11207153768E+04  0.14802093390E+04  0.80110917916E+02 0.  0.
        -15    1    4    4    0    0  0.18875237539E+03 -0.13929085238E+03  0.13729172835E+03  0.27180584881E+03  0.00000000000E+00 0.  1.
        -15    1    6    6    0    0  0.28434094307E+03  0.12992101310E+03  0.40881698213E+03  0.51464605937E+03  0.00000000000E+00 0.  1.
         15    1    4    4    0    0  0.13673915323E+03 -0.24571246172E+02  0.47567553198E+02  0.14684690763E+03  0.00000000000E+00 0. -1.
         15    1    5    5    0    0 -0.11702334662E+03 -0.41758757298E+03 -0.43346652784E+03  0.61316154113E+03  0.00000000000E+00 0. -1.
        -16    1    3    3    0    0 -0.18625433497E+04  0.15795027344E+03 -0.97584285583E+03  0.21086216582E+04  0.00000000000E+00 0.  1.
         16    1    6    6    0    0  0.55976660023E+03  0.33492458254E+03  0.71189839467E+03  0.96556327968E+03  0.00000000000E+00 0. -1.
    9900018    1    1    2    0    0  0.80996762438E+03 -0.41346197549E+02 -0.10671986264E+04  0.13434973566E+04  0.91187600000E+02 0.  0.
<mgrwt>
<rscale>  0 0.58480691E+04</rscale>
<asrwt>0</asrwt>
<pdfrwt beam="1">  1        2 0.54885200E+00 0.58480691E+04</pdfrwt>
<pdfrwt beam="2">  1       -2 0.36870841E+00 0.58480691E+04</pdfrwt>
<totfact> 0.58574995E-03</totfact>
</mgrwt>
</event>
<event>
13    1  0.1994035E-007  0.5733804E+04  0.7818608E-02  0.7724312E-01
         -2   -1    0    0    0  501 -0.00000000000E+00  0.00000000000E+00  0.20671047901E+04  0.20671047901E+04  0.00000000000E+00 0.  1.
          2   -1    0    0  501    0  0.00000000000E+00 -0.00000000000E+00 -0.39761534069E+04  0.39761534069E+04  0.00000000000E+00 0. -1.
    9900016    2    1    2    0    0  0.65403765339E+03 -0.11597358789E+04 -0.23289256977E+04  0.32539568642E+04  0.18416264029E+04 0.  0.
         23    2    3    3    0    0  0.95211719311E+02  0.32396180851E+03 -0.13415388285E+04  0.13861833014E+04  0.88097626953E+02 0.  0.
    9900016    2    1    2    0    0 -0.36966881323E+03  0.41094232297E+03  0.11456139554E+03  0.19272744929E+04  0.18427517558E+04 0.  0.
         24    2    5    5    0    0 -0.71205923201E+02  0.32701119787E+03  0.96352168385E+03  0.10234724672E+04  0.84351934665E+02 0.  0.
        -15    1    4    4    0    0 -0.15829854210E+01  0.17365297283E+02 -0.22173773870E+02  0.28208786578E+02  0.00000000000E+00 0.  1.
        -15    1    6    6    0    0 -0.30677122392E+02  0.73129268287E+02  0.14178849817E+03  0.16245908387E+03  0.00000000000E+00 0.  1.
         15    1    5    5    0    0 -0.29846289003E+03  0.83931125098E+02 -0.84896028832E+03  0.90380202568E+03  0.00000000000E+00 0. -1.
         15    1    4    4    0    0  0.96794704732E+02  0.30659651123E+03 -0.13193650546E+04  0.13579745148E+04  0.00000000000E+00 0. -1.
        -16    1    3    3    0    0  0.55882593408E+03 -0.14836976874E+04 -0.98738686915E+03  0.18677735627E+04  0.00000000000E+00 0.  1.
         16    1    6    6    0    0 -0.40528800809E+02  0.25388192958E+03  0.82173318569E+03  0.86101338336E+03  0.00000000000E+00 0. -1.
    9900018    1    1    2    0    0 -0.28436884016E+03  0.74879355596E+03  0.30531568537E+03  0.86202683997E+03  0.91187600000E+02 0.  0.
<mgrwt>
<rscale>  0 0.57338035E+04</rscale>
<asrwt>0</asrwt>
<pdfrwt beam="1">  1        2 0.61171590E+00 0.57338035E+04</pdfrwt>
<pdfrwt beam="2">  1       -2 0.31801612E+00 0.57338035E+04</pdfrwt>
<totfact> 0.60211262E-03</totfact>
</mgrwt>
</event>
<event>
13    1  0.1994035E-007  0.5653286E+04  0.7818608E-02  0.7734942E-01
          1   -1    0    0  501    0  0.00000000000E+00  0.00000000000E+00  0.48589042159E+04  0.48589042159E+04  0.00000000000E+00 0. -1.
         -1   -1    0    0    0  501 -0.00000000000E+00 -0.00000000000E+00 -0.16443851947E+04  0.16443851947E+04  0.00000000000E+00 0.  1.
    9900016    2    1    2    0    0 -0.42663468370E+03  0.95912956290E+03  0.35653824809E+04  0.41552162072E+04  0.18579350964E+04 0.  0.
         23    2    3    3    0    0 -0.27725830659E+03 -0.61155001625E+02 -0.12533647565E+03  0.32315405865E+03  0.90040050529E+02 0.  0.
    9900016    2    1    2    0    0  0.34209460662E+03 -0.85519198483E+03 -0.12179929980E+03  0.20674745354E+04  0.18469525804E+04 0.  0.
        -24    2    5    5    0    0  0.44023749204E+03 -0.10965217132E+04  0.58012930037E+03  0.13187584186E+04  0.80030271973E+02 0.  0.
        -15    1    4    4    0    0 -0.18922067734E+03 -0.53076391018E+02 -0.40555964558E+02  0.20066478086E+03  0.00000000000E+00 0. -1.
        -15    1    5    5    0    0 -0.98142885420E+02  0.24132972842E+03 -0.70192860016E+03  0.74871611676E+03  0.00000000000E+00 0.  1.
         15    1    4    4    0    0 -0.88037629248E+02 -0.80786106071E+01 -0.84780511093E+02  0.12248927779E+03  0.00000000000E+00 0.  1.
         15    1    6    6    0    0  0.15960431422E+03 -0.48814703713E+03  0.27496419487E+03  0.58255160754E+03  0.00000000000E+00 0. -1.
        -16    1    6    6    0    0  0.28063317782E+03 -0.60837467611E+03  0.30516510550E+03  0.73620681105E+03  0.00000000000E+00 0.  1.
         16    1    3    3    0    0 -0.14937637711E+03  0.10202845645E+04  0.36907189565E+04  0.38320621486E+04  0.00000000000E+00 0. -1.
    9900018    1    1    2    0    0  0.84540077083E+02 -0.10393757806E+03 -0.22906415985E+03  0.28059866801E+03  0.91187600000E+02 0.  0.
<mgrwt>
<rscale>  0 0.56532858E+04</rscale>
<asrwt>0</asrwt>
<pdfrwt beam="1">  1        1 0.74752372E+00 0.56532858E+04</pdfrwt>
<pdfrwt beam="2">  1       -1 0.25298234E+00 0.56532858E+04</pdfrwt>
<totfact> 0.58267295E-04</totfact>
</mgrwt>
</event>
<event>
13    1  0.1994035E-007  0.5647767E+04  0.7818608E-02  0.7735677E-01
         -2   -1    0    0    0  501 -0.00000000000E+00  0.00000000000E+00  0.22367934791E+04  0.22367934791E+04  0.00000000000E+00 0.  1.
          2   -1    0    0  501    0  0.00000000000E+00 -0.00000000000E+00 -0.35650663471E+04  0.35650663471E+04  0.00000000000E+00 0. -1.
    9900016    2    1    2    0    0  0.67109341561E+02  0.15608431625E+04  0.45790719133E+03  0.24595560081E+04  0.18436381748E+04 0.  0.
         23    2    3    3    0    0 -0.80699563404E+02 -0.27196259175E+03 -0.34254522696E+03  0.45412625886E+03  0.91746147757E+02 0.  0.
    9900016    2    1    2    0    0 -0.13357029595E+03 -0.13195171816E+04 -0.94234583856E+03  0.24574158828E+04  0.18417140183E+04 0.  0.
         24    2    5    5    0    0 -0.26187956176E+03 -0.31976595944E+03  0.52760522004E+03  0.67507980660E+03  0.80835038117E+02 0.  0.
        -15    1    4    4    0    0 -0.62528910670E+02 -0.96298263627E+02 -0.18351350542E+03  0.21647269324E+03  0.00000000000E+00 0. -1.
        -15    1    6    6    0    0 -0.17711660960E+03 -0.17408213362E+03  0.36027518681E+03  0.43757638519E+03  0.00000000000E+00 0.  1.
         15    1    5    5    0    0  0.12830926581E+03 -0.99975122219E+03 -0.14699510586E+04  0.17823360762E+04  0.00000000000E+00 0. -1.
         15    1    4    4    0    0 -0.18170652734E+02 -0.17566432812E+03 -0.15903172154E+03  0.23765356562E+03  0.00000000000E+00 0.  1.
        -16    1    3    3    0    0  0.14780890496E+03  0.18328057542E+04  0.80045241829E+03  0.20054297492E+04  0.00000000000E+00 0.  1.
         16    1    6    6    0    0 -0.84762952158E+02 -0.14568382582E+03  0.16733003323E+03  0.23750342142E+03  0.00000000000E+00 0. -1.
    9900018    1    1    2    0    0  0.66460954386E+02 -0.24132598085E+03 -0.84383422080E+03  0.88488793532E+03  0.91187600000E+02 0.  0.
<mgrwt>
<rscale>  0 0.56477667E+04</rscale>
<asrwt>0</asrwt>
<pdfrwt beam="1">  1        2 0.54847174E+00 0.56477667E+04</pdfrwt>
<pdfrwt beam="2">  1       -2 0.34412208E+00 0.56477667E+04</pdfrwt>
<totfact> 0.85501961E-03</totfact>
</mgrwt>
</event>
<event>
13    1  0.1994035E-007  0.5615703E+04  0.7818608E-02  0.7739966E-01
         -2   -1    0    0    0  501 -0.00000000000E+00  0.00000000000E+00  0.19120326254E+04  0.19120326254E+04  0.00000000000E+00 0.  1.
          2   -1    0    0  501    0  0.00000000000E+00 -0.00000000000E+00 -0.41233765553E+04  0.41233765553E+04  0.00000000000E+00 0. -1.
    9900016    2    1    2    0    0  0.44408891271E+02 -0.67941144937E+03 -0.25386095584E+04  0.31913653822E+04  0.18101664137E+04 0.  0.
         23    2    3    3    0    0 -0.14831832094E+03 -0.24335296681E+03  0.23342285505E+03  0.37863459522E+03  0.87515350980E+02 0.  0.
    9900016    2    1    2    0    0 -0.41338719101E+03  0.24273790488E+03 -0.36555503241E+03  0.19411903128E+04  0.18452042404E+04 0.  0.
        -24    2    5    5    0    0 -0.87764152293E+03  0.77534593208E+03 -0.38246984724E+03  0.12344445974E+04  0.78449491810E+02 0.  0.
        -15    1    5    5    0    0  0.46425433192E+03 -0.53260802720E+03  0.16914814824E+02  0.70674571545E+03  0.00000000000E+00 0.  1.
        -15    1    4    4    0    0 -0.85848821909E+02 -0.65580984940E+02  0.66180700386E+02  0.12669163711E+03  0.00000000000E+00 0. -1.
         15    1    4    4    0    0 -0.62469499027E+02 -0.17777198187E+03  0.16724215467E+03  0.25194295812E+03  0.00000000000E+00 0.  1.
         15    1    6    6    0    0 -0.21442718902E+03  0.19478233611E+03 -0.59656621035E+02  0.29576695266E+03  0.00000000000E+00 0. -1.
        -16    1    6    6    0    0 -0.66321433391E+03  0.58056359597E+03 -0.32281322620E+03  0.93867764471E+03  0.00000000000E+00 0.  1.
         16    1    3    3    0    0  0.19272721221E+03 -0.43605848255E+03 -0.27720324135E+04  0.28127307870E+04  0.00000000000E+00 0. -1.
    9900018    1    1    2    0    0  0.36897829974E+03  0.43667354448E+03  0.69282066086E+03  0.90285348570E+03  0.91187600000E+02 0.  0.
<mgrwt>
<rscale>  0 0.56157032E+04</rscale>
<asrwt>0</asrwt>
<pdfrwt beam="1">  1        2 0.63436562E+00 0.56157032E+04</pdfrwt>
<pdfrwt beam="2">  1       -2 0.29415887E+00 0.56157032E+04</pdfrwt>
<totfact> 0.64315932E-03</totfact>
</mgrwt>
</event>
<event>
13    1  0.1994035E-007  0.4827851E+04  0.7818608E-02  0.7855626E-01
         -2   -1    0    0    0  501 -0.00000000000E+00  0.00000000000E+00  0.28820388242E+04  0.28820388242E+04  0.00000000000E+00 0.  1.
          2   -1    0    0  501    0  0.00000000000E+00 -0.00000000000E+00 -0.20218452409E+04  0.20218452409E+04  0.00000000000E+00 0. -1.
    9900016    2    1    2    0    0  0.50990656374E+03 -0.12597982462E+04  0.33317548601E+03  0.22948719018E+04  0.18188828484E+04 0.  0.
         23    2    3    3    0    0 -0.76050422898E+02 -0.41567277417E+03 -0.70956669086E+03  0.83090310083E+03  0.91364939506E+02 0.  0.
    9900016    2    1    2    0    0 -0.17164054873E+03  0.95092586485E+03  0.48886619223E+03  0.21404006065E+04  0.18462405380E+04 0.  0.
         24    2    5    5    0    0 -0.63326491766E+03  0.70362683936E+03  0.10204251547E+04  0.13942043880E+04  0.80144831799E+02 0.  0.
        -15    1    4    4    0    0 -0.76230398686E+02 -0.16865056696E+03 -0.31755946783E+03  0.36755693848E+03  0.00000000000E+00 0.  1.
        -15    1    6    6    0    0 -0.34912538329E+03  0.38155996155E+03  0.61536500068E+03  0.80383494673E+03  0.00000000000E+00 0.  1.
         15    1    5    5    0    0  0.46162436893E+03  0.24729902550E+03 -0.53155896249E+03  0.74619621857E+03  0.00000000000E+00 0. -1.
         15    1    4    4    0    0  0.17997578726E+00 -0.24702220722E+03 -0.39200722303E+03  0.46334616235E+03  0.00000000000E+00 0. -1.
        -16    1    3    3    0    0  0.58595698663E+03 -0.84412547207E+03  0.10427421769E+04  0.14639688010E+04  0.00000000000E+00 0.  1.
         16    1    6    6    0    0 -0.28413953437E+03  0.32206687781E+03  0.40506015404E+03  0.59036944125E+03  0.00000000000E+00 0. -1.
    9900018    1    1    2    0    0 -0.33826601501E+03  0.30887238139E+03  0.38151905003E+02  0.46861155678E+03  0.91187600000E+02 0.  0.
<mgrwt>
<rscale>  0 0.48278511E+04</rscale>
<asrwt>0</asrwt>
<pdfrwt beam="1">  1        2 0.31105311E+00 0.48278511E+04</pdfrwt>
<pdfrwt beam="2">  1       -2 0.44339059E+00 0.48278511E+04</pdfrwt>
<totfact> 0.18440579E-02</totfact>
</mgrwt>
</event>
<event>
13    1  0.1994035E-007  0.5573086E+04  0.7818608E-02  0.7745712E-01
         -1   -1    0    0    0  501 -0.00000000000E+00  0.00000000000E+00  0.31825156189E+04  0.31825156189E+04  0.00000000000E+00 0.  1.
          1   -1    0    0  501    0  0.00000000000E+00 -0.00000000000E+00 -0.24398374850E+04  0.24398374850E+04  0.00000000000E+00 0. -1.
    9900016    2    1    2    0    0 -0.75959812660E+03 -0.26492257907E+03 -0.48386526047E+03  0.20695017006E+04  0.18443260047E+04 0.  0.
         23    2    3    3    0    0  0.21839998926E+03 -0.65208159042E+02  0.56829181232E+03  0.61919115794E+03  0.92149046703E+02 0.  0.
    9900016    2    1    2    0    0  0.97224217954E+03  0.10600305901E+04  0.13560126947E+04  0.27147036117E+04  0.18606250465E+04 0.  0.
        -24    2    5    5    0    0 -0.16834616434E+03 -0.23608677904E+02 -0.34755499034E+03  0.39579035532E+03  0.83413028553E+02 0.  0.
        -15    1    5    5    0    0  0.11405883439E+04  0.10836392680E+04  0.17035676850E+04  0.23189132564E+04  0.00000000000E+00 0.  1.
        -15    1    4    4    0    0  0.11601624998E+03 -0.35493242186E+02  0.18409835609E+03  0.22048071394E+03  0.00000000000E+00 0. -1.
         15    1    4    4    0    0  0.10238373928E+03 -0.29714916857E+02  0.38419345623E+03  0.39871044401E+03  0.00000000000E+00 0.  1.
         15    1    6    6    0    0 -0.10767010274E+03 -0.54894171984E+02 -0.23139905054E+03  0.26105888557E+03  0.00000000000E+00 0. -1.
        -16    1    6    6    0    0 -0.60676061592E+02  0.31285494079E+02 -0.11615593980E+03  0.13473146975E+03  0.00000000000E+00 0.  1.
         16    1    3    3    0    0 -0.97799811586E+03 -0.19971442003E+03 -0.10521570728E+04  0.14503105426E+04  0.00000000000E+00 0. -1.
    9900018    1    1    2    0    0 -0.21264405294E+03 -0.79510801105E+03 -0.12946930027E+03  0.83814779161E+03  0.91187600000E+02 0.  0.
<mgrwt>
<rscale>  0 0.55730856E+04</rscale>
<asrwt>0</asrwt>
<pdfrwt beam="1">  1        1 0.37535962E+00 0.55730856E+04</pdfrwt>
<pdfrwt beam="2">  1       -1 0.48961778E+00 0.55730856E+04</pdfrwt>
<totfact> 0.18065409E-03</totfact>
</mgrwt>
</event>
<event>
13    1  0.1994035E-007  0.6292170E+04  0.7818608E-02  0.7655195E-01
          2   -1    0    0  501    0  0.00000000000E+00  0.00000000000E+00  0.27132483350E+04  0.27132483350E+04  0.00000000000E+00 0. -1.
         -2   -1    0    0    0  501 -0.00000000000E+00 -0.00000000000E+00 -0.36479709853E+04  0.36479709853E+04  0.00000000000E+00 0.  1.
    9900016    2    1    2    0    0 -0.14087926370E+04  0.99688623157E+03 -0.20753951673E+04  0.32593423046E+04  0.18269012849E+04 0.  0.
         23    2    3    3    0    0 -0.23571042119E+03  0.88077074752E+02  0.33470413141E+03  0.42903585501E+03  0.93423420750E+02 0.  0.
    9900016    2    1    2    0    0  0.96305413159E+03 -0.42406272167E+03  0.10405269848E+04  0.23635316395E+04  0.18429006898E+04 0.  0.
         24    2    5    5    0    0 -0.10236201921E+03  0.60634477186E+03  0.16246584806E+03  0.64078890274E+03  0.77995517556E+02 0.  0.
        -15    1    4    4    0    0 -0.84037058467E+02  0.41850155424E+02  0.58682673163E+02  0.11071277629E+03  0.00000000000E+00 0.  1.
        -15    1    6    6    0    0 -0.93233814268E+02  0.33834735773E+03  0.76558596352E+02  0.35921121541E+03  0.00000000000E+00 0.  1.
         15    1    4    4    0    0 -0.15167336273E+03  0.46226919328E+02  0.27602145824E+03  0.31832307871E+03  0.00000000000E+00 0. -1.
         15    1    5    5    0    0  0.10654161508E+04 -0.10304074935E+04  0.87806113670E+03  0.17227427367E+04  0.00000000000E+00 0. -1.
        -16    1    3    3    0    0 -0.11730822159E+04  0.90880915682E+03 -0.24100992987E+04  0.28303064496E+04  0.00000000000E+00 0.  1.
         16    1    6    6    0    0 -0.91282049394E+01  0.26799741413E+03  0.85907251710E+02  0.28157768733E+03  0.00000000000E+00 0. -1.
    9900018    1    1    2    0    0  0.44573850545E+03 -0.57282350990E+03  0.10014553224E+03  0.73834537634E+03  0.91187600000E+02 0.  0.
<mgrwt>
<rscale>  0 0.62921701E+04</rscale>
<asrwt>0</asrwt>
<pdfrwt beam="1">  1        2 0.41742282E+00 0.62921701E+04</pdfrwt>
<pdfrwt beam="2">  1       -2 0.56122630E+00 0.62921701E+04</pdfrwt>
<totfact> 0.13151198E-03</totfact>
</mgrwt>
</event>
<event>
13    1  0.2277005E-007  0.4718896E+04  0.7818608E-02  0.7873396E-01
          1   -1    0    0  501    0  0.00000000000E+00  0.00000000000E+00  0.25190743795E+04  0.25190743795E+04  0.00000000000E+00 0. -1.
         -1   -1    0    0    0  501 -0.00000000000E+00 -0.00000000000E+00 -0.22099365288E+04  0.22099365288E+04  0.00000000000E+00 0.  1.
    9900016    2    1    2    0    0  0.30164240620E+03  0.95563280283E+03  0.16144023799E+03  0.21024346827E+04  0.18411807216E+04 0.  0.
         23    2    3    3    0    0  0.48147365563E+02  0.26099184640E+03  0.96813851897E+03  0.10081093606E+04  0.92506099093E+02 0.  0.
    9900016    2    1    2    0    0 -0.27036941174E+03 -0.10820330598E+04 -0.28339887972E+03  0.21671043665E+04  0.18363363660E+04 0.  0.
         24    2    5    5    0    0  0.28524562028E+03  0.42977177423E+03 -0.18306495983E+03  0.55331106638E+03  0.81064880527E+02 0.  0.
        -15    1    4    4    0    0  0.45581546734E+02  0.17794868132E+03  0.79665921520E+03  0.81756303473E+03  0.00000000000E+00 0.  1.
        -15    1    6    6    0    0  0.24310212109E+03  0.40597699071E+03 -0.17333701715E+03  0.50394610801E+03  0.00000000000E+00 0.  1.
         15    1    4    4    0    0  0.25658188291E+01  0.83043165077E+02  0.17147930377E+03  0.19054632590E+03  0.00000000000E+00 0. -1.
         15    1    5    5    0    0 -0.55561503202E+03 -0.15118048340E+04 -0.10033391989E+03  0.16137933001E+04  0.00000000000E+00 0. -1.
        -16    1    3    3    0    0  0.25349504064E+03  0.69464095643E+03 -0.80669828097E+03  0.10943253221E+04  0.00000000000E+00 0.  1.
         16    1    6    6    0    0  0.42143499185E+02  0.23794783515E+02 -0.97279426792E+01  0.49364958370E+02  0.00000000000E+00 0. -1.
    9900018    1    1    2    0    0 -0.31272994460E+02  0.12640025697E+03  0.43109649245E+03  0.45947185914E+03  0.91187600000E+02 0.  0.
<mgrwt>
<rscale>  0 0.47188958E+04</rscale>
<asrwt>0</asrwt>
<pdfrwt beam="1">  1        1 0.38754990E+00 0.47188958E+04</pdfrwt>
<pdfrwt beam="2">  1       -1 0.33999024E+00 0.47188958E+04</pdfrwt>
<totfact> 0.17555512E-02</totfact>
</mgrwt>
</event>
