<event>
12    1  0.1302079E-008  0.2936525E+04  0.7818608E-02  0.9012889E-01
         -1   -1    0    0    0  501 -0.00000000000E+00  0.00000000000E+00  0.63231414348E+03  0.63231414348E+03  0.00000000000E+00 0.  1.
          1   -1    0    0  501    0  0.00000000000E+00 -0.00000000000E+00 -0.37392474048E+04  0.37392474048E+04  0.00000000000E+00 0. -1.
         23    2    1    2    0    0  0.32535518781E+02  0.73713566852E+02 -0.43404848841E+02  0.12793289551E+03  0.89390127701E+02 0.  0.
    9900016    2    1    2    0    0 -0.30385967037E+03  0.47012685451E+03 -0.20345816391E+04  0.30485928116E+04  0.22002376522E+04 0.  0.
        -24    2    4    4    0    0 -0.99452916828E+02 -0.61296474840E+03 -0.16745075424E+04  0.17877159156E+04  0.79599119509E+02 0.  0.
        -15    1    4    4    0    0  0.46476317044E+02  0.60867587640E+03 -0.37478700518E+03  0.71631813450E+03  0.00000000000E+00 0.  1.
        -15    1    3    3    0    0  0.45290968537E+02  0.24362346181E+02  0.11831565274E+02  0.52771030683E+02  0.00000000000E+00 0.  1.
         15    1    5    5    0    0 -0.47900708107E+02 -0.25732067556E+03 -0.59682722473E+03  0.65169866049E+03  0.00000000000E+00 0. -1.
         15    1    3    3    0    0 -0.12755449756E+02  0.49351220671E+02 -0.55236414114E+02  0.75161864828E+02  0.00000000000E+00 0. -1.
        -16    1    5    5    0    0 -0.51552208721E+02 -0.35564407284E+03 -0.10776803177E+04  0.11360172551E+04  0.00000000000E+00 0.  1.
         16    1    1    2    0    0  0.27132415159E+03 -0.54384042136E+03 -0.10289467734E+04  0.11950358411E+04  0.00000000000E+00 0. -1.
    9900018    1    4    4    0    0 -0.25088307059E+03  0.47441572651E+03  0.14712908540E+02  0.54455876151E+03  0.91187600000E+02 0.  0.
<mgrwt>
<rscale>  0 0.13212408E+04</rscale>
<asrwt>0</asrwt>
<pdfrwt beam="1">  1        1 0.57526883E+00 0.29365248E+04</pdfrwt>
<pdfrwt beam="2">  1       -1 0.97279099E-01 0.29365248E+04</pdfrwt>
<totfact> 0.13846405E-01</totfact>
</mgrwt>
</event>
<event>
12    1  0.1302079E-008  0.2880665E+04  0.7818608E-02  0.8278653E-01
         -2   -1    0    0    0  501 -0.00000000000E+00  0.00000000000E+00  0.65648093358E+03  0.65648093358E+03  0.00000000000E+00 0.  1.
          2   -1    0    0  501    0  0.00000000000E+00 -0.00000000000E+00 -0.31601197982E+04  0.31601197982E+04  0.00000000000E+00 0. -1.
         23    2    1    2    0    0 -0.16833635547E+03 -0.27632273160E+03 -0.11094599245E+03  0.35353618078E+03  0.89372463924E+02 0.  0.
    9900016    2    1    2    0    0  0.14307641608E+03  0.20014079489E+03 -0.17963333784E+04  0.28613283980E+04  0.22135626027E+04 0.  0.
        -24    2    4    4    0    0 -0.17684130351E+03 -0.41022243531E+03 -0.18364011459E+04  0.18916270057E+04  0.79550404977E+02 0.  0.
        -15    1    3    3    0    0 -0.13559865297E+03 -0.14598947436E+03 -0.47006093787E+02  0.20471808460E+03  0.00000000000E+00 0. -1.
        -15    1    4    4    0    0  0.23356460356E+03  0.49400796369E+03 -0.27453828343E+03  0.61152887201E+03  0.00000000000E+00 0.  1.
         15    1    5    5    0    0 -0.35224431261E+02 -0.17759095695E+03 -0.76980102856E+03  0.79080524285E+03  0.00000000000E+00 0. -1.
         15    1    3    3    0    0 -0.32737702500E+02 -0.13033325724E+03 -0.63939898668E+02  0.14881809618E+03  0.00000000000E+00 0.  1.
        -16    1    5    5    0    0 -0.14161687225E+03 -0.23263147835E+03 -0.10666001173E+04  0.11008217628E+04  0.00000000000E+00 0.  1.
         16    1    1    2    0    0  0.25259939394E+02  0.76181936707E+02 -0.59635949378E+03  0.60173615301E+03  0.00000000000E+00 0. -1.
    9900018    1    4    4    0    0  0.86353116023E+02  0.11635526651E+03  0.31460605088E+03  0.35817252035E+03  0.91187600000E+02 0.  0.
<mgrwt>
<rscale>  0 0.28806655E+04</rscale>
<asrwt>0</asrwt>
<pdfrwt beam="1">  1        2 0.48617227E+00 0.28806655E+04</pdfrwt>
<pdfrwt beam="2">  1       -2 0.10099707E+00 0.28806655E+04</pdfrwt>
<totfact> 0.95947295E-01</totfact>
</mgrwt>
</event>
<event>
12    1  0.1302079E-008  0.3208580E+04  0.7818608E-02  0.8186555E-01
          2   -1    0    0  501    0  0.00000000000E+00  0.00000000000E+00  0.15084212518E+04  0.15084212518E+04  0.00000000000E+00 0. -1.
         -2   -1    0    0    0  501 -0.00000000000E+00 -0.00000000000E+00 -0.17062518581E+04  0.17062518581E+04  0.00000000000E+00 0.  1.
         23    2    1    2    0    0  0.34334534426E+03 -0.26504508407E+03 -0.26926431765E+01  0.44492042009E+03  0.99055579709E+02 0.  0.
    9900016    2    1    2    0    0 -0.13616091079E+03 -0.65542685524E+02 -0.50387433944E+03  0.22722269991E+04  0.22104955436E+04 0.  0.
        -24    2    4    4    0    0 -0.78601079221E+03  0.45500695154E+03  0.37112241662E+03  0.98413795433E+03  0.77145146474E+02 0.  0.
        -15    1    3    3    0    0  0.22233668592E+03 -0.11475967300E+03 -0.21110708116E+02  0.25109569182E+03  0.00000000000E+00 0.  1.
        -15    1    4    4    0    0  0.64347694813E+03 -0.34726241784E+03 -0.57692643934E+03  0.93139566567E+03  0.00000000000E+00 0.  1.
         15    1    5    5    0    0 -0.45391541173E+03  0.22661916108E+03  0.18287288554E+03  0.53929392491E+03  0.00000000000E+00 0. -1.
         15    1    3    3    0    0  0.12100865834E+03 -0.15028541107E+03  0.18418064939E+02  0.19382472827E+03  0.00000000000E+00 0. -1.
        -16    1    5    5    0    0 -0.33209538048E+03  0.22838779046E+03  0.18824953107E+03  0.44484402942E+03  0.00000000000E+00 0.  1.
         16    1    1    2    0    0 -0.20718443347E+03  0.33058776960E+03  0.30873637626E+03  0.49752569070E+03  0.00000000000E+00 0. -1.
    9900018    1    4    4    0    0  0.63729332819E+01 -0.17328721922E+03 -0.29807031671E+03  0.35669337914E+03  0.91187600000E+02 0.  0.
<mgrwt>
<rscale>  0 0.32085801E+04</rscale>
<asrwt>0</asrwt>
<pdfrwt beam="1">  1        2 0.23206481E+00 0.32085801E+04</pdfrwt>
<pdfrwt beam="2">  1       -2 0.26250029E+00 0.32085801E+04</pdfrwt>
<totfact> 0.56905588E-01</totfact>
</mgrwt>
</event>
