<event>
11    1  0.4306058E-014  0.6225487E+03  0.7818608E-02  0.1012483E+00
         -1   -1    0    0    0  501 -0.00000000000E+00  0.00000000000E+00  0.11057787266E+04  0.11057787266E+04  0.00000000000E+00 0.  1.
          1   -1    0    0  501    0  0.00000000000E+00 -0.00000000000E+00 -0.18446105312E+03  0.18446105312E+03  0.00000000000E+00 0. -1.
         23    2    1    2    0    0  0.18011876364E+03 -0.16880546191E+03  0.18974719241E+03  0.32963466127E+03  0.10824490705E+03 0.  0.
         23    2    1    2    0    0 -0.22064776548E+03  0.12244314532E+03  0.21797349520E+03  0.34590200024E+03  0.91967325218E+02 0.  0.
        -15    1    4    4    0    0 -0.75695042129E+02  0.92510676119E+02  0.11257844700E+03  0.16420070441E+03  0.00000000000E+00 0. -1.
        -15    1    3    3    0    0  0.17961428945E+03 -0.12532297625E+03  0.12662716216E+03  0.25298533465E+03  0.00000000000E+00 0. -1.
         15    1    3    3    0    0  0.50447418447E+00 -0.43482485659E+02  0.63120030246E+02  0.76649326622E+02  0.00000000000E+00 0.  1.
         15    1    4    4    0    0 -0.14495272335E+03  0.29932469202E+02  0.10539504821E+03  0.18170129583E+03  0.00000000000E+00 0.  1.
        -16    1    1    2    0    0  0.10067156250E+03  0.89536694844E+02  0.39081565053E+03  0.41338656959E+03  0.00000000000E+00 0.  1.
         16    1    1    2    0    0 -0.52062252883E+02 -0.43490180494E+02  0.56701557940E+02  0.88413464176E+02  0.00000000000E+00 0. -1.
    9900018    1    1    2    0    0 -0.80803077691E+01  0.31580223846E+00  0.66079777442E+02  0.11290308448E+03  0.91187600000E+02 0.  0.
<mgrwt>
<rscale>  0 0.50499627E+03</rscale>
<asrwt>0</asrwt>
<pdfrwt beam="1">  1        1 0.28378624E-01 0.62254865E+03</pdfrwt>
<pdfrwt beam="2">  1       -1 0.17011980E+00 0.62254865E+03</pdfrwt>
<totfact> 0.41921077E+01</totfact>
</mgrwt>
</event>
<event>
12    1  0.4306058E-014  0.1874109E+04  0.7818608E-02  0.8667852E-01
         -2   -1    0    0    0  501 -0.00000000000E+00  0.00000000000E+00  0.27570589716E+03  0.27570589716E+03  0.00000000000E+00 0.  1.
          2   -1    0    0  501    0  0.00000000000E+00 -0.00000000000E+00 -0.31848107052E+04  0.31848107052E+04  0.00000000000E+00 0. -1.
         23    2    1    2    0    0 -0.10333120884E+03  0.26459050533E+03 -0.56162752290E+03  0.63281671869E+03  0.65924583769E+02 0.  0.
    9900016    2    1    2    0    0 -0.15970731611E+03 -0.33730923974E+03 -0.24342372504E+04  0.25413354803E+04  0.62736837800E+03 0.  0.
         23    2    4    4    0    0 -0.10682464185E+02  0.14756076163E+03 -0.48277305064E+03  0.51308637975E+03  0.91101708283E+02 0.  0.
        -15    1    5    5    0    0  0.27706454829E+02  0.10222573642E+03 -0.22681923358E+03  0.25032921033E+03  0.00000000000E+00 0. -1.
        -15    1    3    3    0    0 -0.38112519119E+02  0.18288393147E+03 -0.34753990460E+03  0.39456695476E+03  0.00000000000E+00 0.  1.
         15    1    5    5    0    0 -0.38388919014E+02  0.45335025215E+02 -0.25595381706E+03  0.26275716942E+03  0.00000000000E+00 0. -1.
         15    1    3    3    0    0 -0.65218689725E+02  0.81706573856E+02 -0.21408761830E+03  0.23824976392E+03  0.00000000000E+00 0.  1.
        -16    1    1    2    0    0  0.26303852495E+03  0.72718734408E+02  0.86759965327E+02  0.28636440339E+03  0.00000000000E+00 0.  1.
         16    1    4    4    0    0 -0.22409926756E+02 -0.33658879896E+03 -0.12182443028E+04  0.12640859962E+04  0.00000000000E+00 0. -1.
    9900018    1    4    4    0    0 -0.12661492517E+03 -0.14828120241E+03 -0.73321989696E+03  0.76416310429E+03  0.91187600000E+02 0.  0.
<mgrwt>
<rscale>  0 0.18741090E+04</rscale>
<asrwt>0</asrwt>
<pdfrwt beam="1">  1        2 0.48997086E+00 0.18741090E+04</pdfrwt>
<pdfrwt beam="2">  1       -2 0.42416293E-01 0.18741090E+04</pdfrwt>
<totfact> 0.65894988E+00</totfact>
</mgrwt>
</event>
<event>
11    1  0.4306058E-014  0.7747487E+03  0.7818608E-02  0.9597304E-01
          1   -1    0    0  501    0  0.00000000000E+00  0.00000000000E+00  0.24667437638E+04  0.24667437638E+04  0.00000000000E+00 0. -1.
         -1   -1    0    0    0  501 -0.00000000000E+00 -0.00000000000E+00 -0.60832788326E+02  0.60832788326E+02  0.00000000000E+00 0.  1.
         23    2    1    2    0    0 -0.14426259366E+03 -0.50016062402E+02  0.98329639331E+03  0.10013250856E+04  0.11165494828E+03 0.  0.
         23    2    1    2    0    0 -0.36985844152E+02  0.12929301366E+03  0.57561948484E+03  0.59778972449E+03  0.89051262368E+02 0.  0.
        -15    1    4    4    0    0  0.28017609443E+02  0.21790490221E+02  0.13851098381E+03  0.14298637886E+03  0.00000000000E+00 0.  1.
        -15    1    3    3    0    0 -0.30904135614E+02 -0.67687059003E+02  0.39406236070E+03  0.40102586908E+03  0.00000000000E+00 0.  1.
         15    1    3    3    0    0 -0.11335845805E+03  0.17670996601E+02  0.58923403262E+03  0.60029921650E+03  0.00000000000E+00 0. -1.
         15    1    4    4    0    0 -0.65003453596E+02  0.10750252344E+03  0.43710850103E+03  0.45480334563E+03  0.00000000000E+00 0. -1.
        -16    1    1    2    0    0  0.52883147780E+02 -0.14664399710E+03  0.19650893493E+03  0.25083231593E+03  0.00000000000E+00 0.  1.
         16    1    1    2    0    0  0.29767735053E+02  0.60928399689E+01  0.22970060644E+03  0.23170155232E+03  0.00000000000E+00 0. -1.
    9900018    1    1    2    0    0  0.98597554979E+02  0.61274205876E+02  0.42078555592E+03  0.44592787379E+03  0.91187600000E+02 0.  0.
<mgrwt>
<rscale>  0 0.77474874E+03</rscale>
<asrwt>0</asrwt>
<pdfrwt beam="1">  1        1 0.37949896E+00 0.77474874E+03</pdfrwt>
<pdfrwt beam="2">  1       -1 0.93588924E-02 0.77474874E+03</pdfrwt>
<totfact> 0.10400605E+02</totfact>
</mgrwt>
</event>
<event>
11    1  0.4306058E-014  0.8667178E+03  0.7818608E-02  0.9468170E-01
          1   -1    0    0  501    0  0.00000000000E+00  0.00000000000E+00  0.10259119418E+03  0.10259119418E+03  0.00000000000E+00 0. -1.
         -1   -1    0    0    0  501 -0.00000000000E+00 -0.00000000000E+00 -0.18305660057E+04  0.18305660057E+04  0.00000000000E+00 0.  1.
         23    2    1    2    0    0  0.16633358029E+03  0.22410726910E+03 -0.67005398160E+03  0.72808936222E+03  0.57016253123E+02 0.  0.
         23    2    1    2    0    0 -0.20754215463E+02 -0.24786482221E+03 -0.75603136286E+03  0.80139341153E+03  0.93703099510E+02 0.  0.
        -15    1    3    3    0    0  0.69337554740E+02  0.49839894211E+02 -0.19695815728E+03  0.21467237193E+03  0.00000000000E+00 0.  1.
        -15    1    4    4    0    0 -0.51995081927E+02 -0.97395525647E+02 -0.36168422835E+03  0.37815983129E+03  0.00000000000E+00 0.  1.
         15    1    4    4    0    0  0.31240866464E+02 -0.15046929656E+03 -0.39434713451E+03  0.42323358024E+03  0.00000000000E+00 0. -1.
         15    1    3    3    0    0  0.96996025554E+02  0.17426737489E+03 -0.47309582431E+03  0.51341699028E+03  0.00000000000E+00 0. -1.
        -16    1    1    2    0    0 -0.40609291559E+02 -0.61366094053E+02 -0.15922015852E+03  0.17540231167E+03  0.00000000000E+00 0.  1.
         16    1    1    2    0    0 -0.42116188461E+02  0.41237020674E+02 -0.51250529094E+02  0.78108142578E+02  0.00000000000E+00 0. -1.
    9900018    1    1    2    0    0 -0.62853884811E+02  0.43886626481E+02 -0.91418779414E+02  0.15016397185E+03  0.91187600000E+02 0.  0.
<mgrwt>
<rscale>  0 0.86671784E+03</rscale>
<asrwt>0</asrwt>
<pdfrwt beam="1">  1        1 0.15783261E-01 0.86671784E+03</pdfrwt>
<pdfrwt beam="2">  1       -1 0.28162553E+00 0.86671784E+03</pdfrwt>
<totfact> 0.16050908E+01</totfact>
</mgrwt>
</event>
<event>
11    1  0.4306058E-014  0.1151976E+04  0.7818608E-02  0.9920125E-01
         -2   -1    0    0    0  501 -0.00000000000E+00  0.00000000000E+00  0.23577424918E+03  0.23577424918E+03  0.00000000000E+00 0.  1.
          2   -1    0    0  501    0  0.00000000000E+00 -0.00000000000E+00 -0.16221635145E+04  0.16221635145E+04  0.00000000000E+00 0. -1.
    9900016    2    1    2    0    0 -0.19565628357E+03  0.18556959932E+03 -0.10333553824E+04  0.13403344507E+04  0.80991088140E+03 0.  0.
         23    2    3    3    0    0  0.11775650428E+03  0.24356116445E+03 -0.15951593769E+03  0.32603434777E+03  0.87546709929E+02 0.  0.
        -15    1    1    2    0    0  0.15876480866E+03 -0.24996218401E+03 -0.29565676904E+03  0.41844985719E+03  0.00000000000E+00 0.  1.
        -15    1    4    4    0    0  0.10232140368E+03  0.14009058379E+03 -0.13163360731E+03  0.21776695776E+03  0.00000000000E+00 0. -1.
         15    1    1    2    0    0 -0.12217788760E+00  0.30957683784E+02 -0.23268560033E+02  0.38727496675E+02  0.00000000000E+00 0.  1.
         15    1    4    4    0    0  0.15435100597E+02  0.10347058066E+03 -0.27882330385E+02  0.10826739001E+03  0.00000000000E+00 0. -1.
        -16    1    1    2    0    0  0.37013652799E+02  0.33434900899E+02 -0.34108553810E+02  0.60425959113E+02  0.00000000000E+00 0.  1.
         16    1    3    3    0    0 -0.87935426795E+02 -0.18597068906E+03 -0.56288995174E+03  0.59930195582E+03  0.00000000000E+00 0. -1.
    9900018    1    3    3    0    0 -0.22547736105E+03  0.12797912393E+03 -0.31094949298E+03  0.41499814709E+03  0.91187600000E+02 0.  0.
<mgrwt>
<rscale>  0 0.59295782E+03</rscale>
<asrwt>0</asrwt>
<pdfrwt beam="1">  1        2 0.24956362E+00 0.11519761E+04</pdfrwt>
<pdfrwt beam="2">  1       -2 0.36272962E-01 0.11519761E+04</pdfrwt>
<totfact> 0.76683473E+01</totfact>
</mgrwt>
</event>
<event>
12    1  0.4306058E-014  0.9525532E+03  0.7818608E-02  0.9362171E-01
          2   -1    0    0  501    0  0.00000000000E+00  0.00000000000E+00  0.42234506184E+03  0.42234506184E+03  0.00000000000E+00 0. -1.
         -2   -1    0    0    0  501 -0.00000000000E+00 -0.00000000000E+00 -0.53709496850E+03  0.53709496850E+03  0.00000000000E+00 0.  1.
         23    2    1    2    0    0 -0.16230701425E+02 -0.78013686349E+02 -0.81173843689E+02  0.15816672681E+03  0.10989972541E+03 0.  0.
    9900016    2    1    2    0    0  0.95530016396E+02  0.82185790958E+02  0.92601449105E+02  0.65218758198E+03  0.63316121600E+03 0.  0.
         23    2    4    4    0    0  0.17939469507E+03  0.86518414644E+02  0.17940334048E+03  0.28289737416E+03  0.90429381521E+02 0.  0.
        -15    1    3    3    0    0 -0.31813558587E+02 -0.29237337358E+02 -0.95648583493E+02  0.10495511388E+03  0.00000000000E+00 0. -1.
        -15    1    5    5    0    0  0.46448667058E+02 -0.15039217376E+02  0.23365309108E+02  0.54125727713E+02  0.00000000000E+00 0. -1.
         15    1    3    3    0    0  0.15582857162E+02 -0.48776348991E+02  0.14474739804E+02  0.53211612931E+02  0.00000000000E+00 0.  1.
         15    1    5    5    0    0  0.13294602801E+03  0.10155763202E+03  0.15603803138E+03  0.22877164645E+03  0.00000000000E+00 0.  1.
        -16    1    1    2    0    0 -0.79299314971E+02 -0.41721046088E+01 -0.12617751208E+03  0.14908572153E+03  0.00000000000E+00 0.  1.
         16    1    4    4    0    0 -0.17898826469E+03 -0.90538918162E+02 -0.35668178176E+02  0.20373098324E+03  0.00000000000E+00 0. -1.
    9900018    1    4    4    0    0  0.95123586017E+02  0.86206294477E+02 -0.51133713203E+02  0.16555922458E+03  0.91187600000E+02 0.  0.
<mgrwt>
<rscale>  0 0.95255322E+03</rscale>
<asrwt>0</asrwt>
<pdfrwt beam="1">  1        2 0.64976164E-01 0.95255322E+03</pdfrwt>
<pdfrwt beam="2">  1       -2 0.82629995E-01 0.95255322E+03</pdfrwt>
<totfact> 0.96210738E+01</totfact>
</mgrwt>
</event>
<event>
12    1  0.4306058E-014  0.1318818E+04  0.7818608E-02  0.9014774E-01
          2   -1    0    0  501    0  0.00000000000E+00  0.00000000000E+00  0.27505454364E+04  0.27505454364E+04  0.00000000000E+00 0.  1.
         -2   -1    0    0    0  501 -0.00000000000E+00 -0.00000000000E+00 -0.15808501815E+03  0.15808501815E+03  0.00000000000E+00 0. -1.
         23    2    1    2    0    0  0.28140774088E+03 -0.31628095191E+03  0.90722298385E+03  0.10037192150E+04  0.71935824685E+02 0.  0.
    9900016    2    1    2    0    0 -0.22958544367E+03  0.27812952970E+03  0.16853452446E+04  0.18405599138E+04  0.64591539037E+03 0.  0.
         23    2    4    4    0    0 -0.37819858057E+02  0.15706353779E+03  0.13190111282E+03  0.22530053221E+03  0.85223997125E+02 0.  0.
        -15    1    3    3    0    0  0.96603333357E+00 -0.15262911068E+02  0.16075229486E+02  0.22187894846E+02  0.00000000000E+00 0.  1.
        -15    1    5    5    0    0  0.10046485592E+02  0.40170116987E+02 -0.16977026799E+01  0.41442156868E+02  0.00000000000E+00 0.  1.
         15    1    5    5    0    0 -0.47866343649E+02  0.11689342080E+03  0.13359881550E+03  0.18385837535E+03  0.00000000000E+00 0. -1.
         15    1    3    3    0    0  0.28044170755E+03 -0.30101804084E+03  0.89114775436E+03  0.98153132010E+03  0.00000000000E+00 0. -1.
        -16    1    4    4    0    0 -0.10732658975E+03  0.22346124638E+03  0.12204747858E+04  0.12453965747E+04  0.00000000000E+00 0.  1.
         16    1    1    2    0    0 -0.51822297212E+02  0.38151422210E+02 -0.10781024645E+00  0.64351325767E+02  0.00000000000E+00 0. -1.
    9900018    1    4    4    0    0 -0.84438995859E+02 -0.10239525447E+03  0.33296934602E+03  0.36986280692E+03  0.91187600000E+02 0.  0.
<mgrwt>
<rscale>  0 0.13188177E+04</rscale>
<asrwt>0</asrwt>
<pdfrwt beam="1">  1        2 0.42316080E+00 0.13188177E+04</pdfrwt>
<pdfrwt beam="2">  1       -2 0.24320774E-01 0.13188177E+04</pdfrwt>
<totfact> 0.36835974E+01</totfact>
</mgrwt>
</event>
<event>
12    1  0.4306058E-014  0.1347149E+04  0.7818608E-02  0.9481275E-01
         -1   -1    0    0    0  501 -0.00000000000E+00  0.00000000000E+00  0.94778698585E+03  0.94778698585E+03  0.00000000000E+00 0.  1.
          1   -1    0    0  501    0  0.00000000000E+00 -0.00000000000E+00 -0.71374167491E+03  0.71374167491E+03  0.00000000000E+00 0. -1.
         23    2    1    2    0    0  0.15658642705E+03  0.13413485501E+03 -0.14284149352E+03  0.26265257228E+03  0.77917988851E+02 0.  0.
    9900016    2    1    2    0    0 -0.11898712534E+03 -0.78088626234E+02  0.21051947231E+03  0.68669566062E+03  0.63794726471E+03 0.  0.
         23    2    4    4    0    0 -0.23259876773E+03  0.17074796650E+03  0.27032073027E+03  0.40668950779E+03  0.95215564462E+02 0.  0.
        -15    1    3    3    0    0  0.62021801527E+02  0.90343652633E+02 -0.41177782447E+02  0.11706532024E+03  0.00000000000E+00 0.  1.
        -15    1    5    5    0    0 -0.18113892910E+03  0.17490266999E+03  0.21602101830E+03  0.33176397628E+03  0.00000000000E+00 0. -1.
         15    1    5    5    0    0 -0.51459838628E+02 -0.41547034845E+01  0.54299711966E+02  0.74925531511E+02  0.00000000000E+00 0.  1.
         15    1    3    3    0    0  0.94564625527E+02  0.43791202381E+02 -0.10166371107E+03  0.14558725204E+03  0.00000000000E+00 0. -1.
        -16    1    1    2    0    0  0.20170666523E+03  0.21736120207E+03 -0.13050082951E+02  0.29681943270E+03  0.00000000000E+00 0.  1.
         16    1    4    4    0    0  0.11361164239E+03 -0.24883659274E+03 -0.59801257958E+02  0.28000615284E+03  0.00000000000E+00 0. -1.
    9900018    1    1    2    0    0 -0.23930596695E+03 -0.27340743085E+03  0.17941741510E+03  0.41536099515E+03  0.91187600000E+02 0.  0.
<mgrwt>
<rscale>  0 0.85678515E+03</rscale>
<asrwt>0</asrwt>
<pdfrwt beam="1">  1        1 0.10980641E+00 0.13471491E+04</pdfrwt>
<pdfrwt beam="2">  1       -1 0.14581338E+00 0.13471491E+04</pdfrwt>
<totfact> 0.96990115E+00</totfact>
</mgrwt>
</event>
<event>
10    1  0.4306058E-014  0.1154964E+04  0.7818608E-02  0.9839495E-01
         -1   -1    0    0    0  501 -0.00000000000E+00  0.00000000000E+00  0.53983442890E+03  0.53983442890E+03  0.00000000000E+00 0.  1.
          1   -1    0    0  501    0  0.00000000000E+00 -0.00000000000E+00 -0.78998554768E+03  0.78998554768E+03  0.00000000000E+00 0. -1.
         23    2    1    2    0    0 -0.48772708437E+02  0.13367785136E+02 -0.13303645753E+03  0.16893322498E+03  0.91006926674E+02 0.  0.
        -15    1    1    2    0    0  0.15030199769E+03 -0.53981512084E+02  0.10440160471E+03  0.19079934282E+03  0.00000000000E+00 0.  1.
        -15    1    3    3    0    0 -0.47152590651E+02 -0.67487940080E+01 -0.13976536403E+03  0.14765930383E+03  0.00000000000E+00 0.  1.
         15    1    3    3    0    0 -0.16201177856E+01  0.20116579144E+02  0.67289065058E+01  0.21273921144E+02  0.00000000000E+00 0. -1.
         15    1    1    2    0    0  0.31406368351E+03  0.13708449965E+02 -0.51264812144E+02  0.31851530554E+03  0.00000000000E+00 0. -1.
        -16    1    1    2    0    0 -0.57630162835E+02 -0.14210703395E+03 -0.63431941420E+01  0.15347925227E+03  0.00000000000E+00 0.  1.
         16    1    1    2    0    0 -0.81874881112E+02  0.12283291807E+03  0.22957598376E+02  0.14939368541E+03  0.00000000000E+00 0. -1.
    9900018    1    1    2    0    0 -0.27608792881E+03  0.46179392863E+02 -0.18686585805E+03  0.34869916556E+03  0.91187600000E+02 0.  0.
<mgrwt>
<rscale>  0 0.63285427E+03</rscale>
<asrwt>0</asrwt>
<pdfrwt beam="1">  1        1 0.12153624E+00 0.11549642E+04</pdfrwt>
<pdfrwt beam="2">  1       -1 0.83051451E-01 0.11549642E+04</pdfrwt>
<totfact> 0.32208294E+01</totfact>
</mgrwt>
</event>
<event>
11    1  0.4306058E-014  0.5584506E+03  0.7818608E-02  0.9995567E-01
          1   -1    0    0  501    0  0.00000000000E+00  0.00000000000E+00  0.11304114447E+04  0.11304114447E+04  0.00000000000E+00 0. -1.
         -1   -1    0    0    0  501 -0.00000000000E+00 -0.00000000000E+00 -0.68972028075E+02  0.68972028075E+02  0.00000000000E+00 0.  1.
         23    2    1    2    0    0  0.20603790365E+00  0.24974736947E+02  0.15641480208E+03  0.19561130656E+03  0.11477984582E+03 0.  0.
         23    2    1    2    0    0  0.10715336193E+03  0.42414642217E+02  0.30012259141E+03  0.33422090288E+03  0.91373941598E+02 0.  0.
        -15    1    4    4    0    0  0.83018883383E+02  0.43530614104E+02  0.29498434485E+03  0.30952029509E+03  0.00000000000E+00 0. -1.
        -15    1    3    3    0    0 -0.43060230425E+02  0.51174579131E+02  0.89899295346E+02  0.11204866932E+03  0.00000000000E+00 0.  1.
         15    1    4    4    0    0  0.24134478543E+02 -0.11159718867E+01  0.51382465564E+01  0.24700607796E+02  0.00000000000E+00 0.  1.
         15    1    3    3    0    0  0.43266268328E+02 -0.26199842184E+02  0.66515506737E+02  0.83562637237E+02  0.00000000000E+00 0. -1.
        -16    1    1    2    0    0 -0.62996048400E+02 -0.65758077935E+02  0.24589556973E+03  0.26221605241E+03  0.00000000000E+00 0.  1.
         16    1    1    2    0    0 -0.38668832398E+02  0.37018382044E+02  0.26606169759E+03  0.27139356317E+03  0.00000000000E+00 0. -1.
    9900018    1    1    2    0    0 -0.56945190317E+01 -0.38649683273E+02  0.92944755791E+02  0.13594164773E+03  0.91187600000E+02 0.  0.
<mgrwt>
<rscale>  0 0.55845061E+03</rscale>
<asrwt>0</asrwt>
<pdfrwt beam="1">  1        1 0.17390944E+00 0.55845061E+03</pdfrwt>
<pdfrwt beam="2">  1       -1 0.10611082E-01 0.55845061E+03</pdfrwt>
<totfact> 0.70322204E+02</totfact>
</mgrwt>
</event>
<event>
11    1  0.4306058E-014  0.1076003E+04  0.7818608E-02  0.9228902E-01
         -2   -1    0    0    0  501 -0.00000000000E+00  0.00000000000E+00  0.63871023721E+03  0.63871023721E+03  0.00000000000E+00 0. -1.
          2   -1    0    0  501    0  0.00000000000E+00 -0.00000000000E+00 -0.45317206163E+03  0.45317206163E+03  0.00000000000E+00 0.  1.
         23    2    1    2    0    0  0.23402108995E+03  0.10817120719E+02  0.22096800440E+03  0.34254816087E+03  0.11674546204E+03 0.  0.
         23    2    1    2    0    0 -0.60551665220E+02 -0.76078348718E+02  0.81202216011E+02  0.15662378063E+03  0.92102060074E+02 0.  0.
        -15    1    3    3    0    0  0.22274819870E+03  0.51881212831E+01  0.14566692975E+03  0.26620017102E+03  0.00000000000E+00 0.  1.
        -15    1    4    4    0    0 -0.23228257804E+01 -0.75663285760E+02  0.45661579956E+02  0.88404231888E+02  0.00000000000E+00 0. -1.
         15    1    4    4    0    0 -0.58228839439E+02 -0.41506295834E+00  0.35540636055E+02  0.68219548744E+02  0.00000000000E+00 0.  1.
         15    1    3    3    0    0  0.11272891249E+02  0.56289994361E+01  0.75301074646E+02  0.76347989853E+02  0.00000000000E+00 0. -1.
        -16    1    1    2    0    0 -0.12354473689E+03  0.38823036653E+02 -0.22638078873E+03  0.26080412515E+03  0.00000000000E+00 0.  1.
         16    1    1    2    0    0  0.10731650577E+03  0.67595293288E+02  0.41989620556E+02  0.13360046526E+03  0.00000000000E+00 0. -1.
    9900018    1    1    2    0    0 -0.15724119360E+03 -0.41157101942E+02  0.67759123342E+02  0.19830576692E+03  0.91187600000E+02 0.  0.
<mgrwt>
<rscale>  0 0.10760030E+04</rscale>
<asrwt>0</asrwt>
<pdfrwt beam="1">  1        2 0.69718779E-01 0.10760030E+04</pdfrwt>
<pdfrwt beam="2">  1       -2 0.98263113E-01 0.10760030E+04</pdfrwt>
<totfact> 0.59072694E+01</totfact>
</mgrwt>
</event>
<event>
12    1  0.4306058E-014  0.1080822E+04  0.7818608E-02  0.9224089E-01
         -1   -1    0    0    0  501 -0.00000000000E+00  0.00000000000E+00  0.42088831570E+03  0.42088831570E+03  0.00000000000E+00 0.  1.
          1   -1    0    0  501    0  0.00000000000E+00 -0.00000000000E+00 -0.69387484871E+03  0.69387484871E+03  0.00000000000E+00 0. -1.
         23    2    1    2    0    0  0.82142063112E+02  0.24609751575E+03  0.33485627053E+02  0.28161294058E+03  0.10427490249E+03 0.  0.
    9900016    2    1    2    0    0 -0.10662943906E+03 -0.12417750765E+03 -0.24382755839E+03  0.69390775160E+03  0.62870199524E+03 0.  0.
         23    2    4    4    0    0 -0.65201847446E+02  0.11049986754E+02  0.12759305539E+03  0.17044884658E+03  0.91648450064E+02 0.  0.
        -15    1    5    5    0    0  0.16610049986E+01  0.31095190274E+02  0.80318956740E+02  0.86144092122E+02  0.00000000000E+00 0.  1.
        -15    1    3    3    0    0  0.56297751539E+02  0.79308851759E+02  0.54569521141E+02  0.11152203116E+03  0.00000000000E+00 0. -1.
         15    1    3    3    0    0  0.25844311572E+02  0.16678866400E+03 -0.21083894089E+02  0.17009090942E+03  0.00000000000E+00 0.  1.
         15    1    5    5    0    0 -0.66862852444E+02 -0.20045203520E+02  0.47274098653E+02  0.84304754460E+02  0.00000000000E+00 0. -1.
        -16    1    4    4    0    0  0.34811765671E+02 -0.21889368708E+03 -0.19824690556E+03  0.29736869512E+03  0.00000000000E+00 0.  1.
         16    1    1    2    0    0  0.24487375946E+02 -0.12192000810E+03 -0.62644601665E+02  0.13924247223E+03  0.00000000000E+00 0. -1.
    9900018    1    4    4    0    0 -0.76239357284E+02  0.83666192677E+02 -0.17317370823E+03  0.22609020990E+03  0.91187600000E+02 0.  0.
<mgrwt>
<rscale>  0 0.10808216E+04</rscale>
<asrwt>0</asrwt>
<pdfrwt beam="1">  1        1 0.10674997E+00 0.10808216E+04</pdfrwt>
<pdfrwt beam="2">  1       -1 0.64752050E-01 0.10808216E+04</pdfrwt>
<totfact> 0.66635373E+01</totfact>
</mgrwt>
</event>
<event>
11    1  0.4306058E-014  0.7572979E+03  0.7818608E-02  0.1010115E+00
         -2   -1    0    0    0  501 -0.00000000000E+00  0.00000000000E+00  0.52954686612E+03  0.52954686612E+03  0.00000000000E+00 0. -1.
          2   -1    0    0  501    0  0.00000000000E+00 -0.00000000000E+00 -0.46557320385E+03  0.46557320385E+03  0.00000000000E+00 0.  1.
         23    2    1    2    0    0 -0.24429095046E+03  0.39740936517E+02 -0.19887973997E+03  0.32410645695E+03  0.65072528405E+02 0.  0.
         23    2    1    2    0    0  0.80469024657E+02 -0.10577190923E+03  0.16562056734E+03  0.23103089516E+03  0.91006271647E+02 0.  0.
        -15    1    3    3    0    0 -0.12632743375E+03  0.51926460590E+02 -0.11868926956E+03  0.18094783927E+03  0.00000000000E+00 0.  1.
        -15    1    4    4    0    0  0.66699631629E+02 -0.49526119564E+02  0.14931837995E+03  0.17087321607E+03  0.00000000000E+00 0.  1.
         15    1    4    4    0    0  0.13769393028E+02 -0.56245789668E+02  0.16302187393E+02  0.60157679091E+02  0.00000000000E+00 0. -1.
         15    1    3    3    0    0 -0.11796351670E+03 -0.12185524073E+02 -0.80190470410E+02  0.14315861768E+03  0.00000000000E+00 0. -1.
        -16    1    1    2    0    0 -0.22347678426E+02  0.32038758877E+02 -0.87219305396E+02  0.95567295845E+02  0.00000000000E+00 0.  1.
         16    1    1    2    0    0  0.19094735537E+03  0.30730791602E+02  0.15671446777E+03  0.24892709472E+03  0.00000000000E+00 0. -1.
    9900018    1    1    2    0    0 -0.47777511392E+01  0.32614222359E+01  0.27737672524E+02  0.95488327306E+02  0.91187600000E+02 0.  0.
<mgrwt>
<rscale>  0 0.51428873E+03</rscale>
<asrwt>0</asrwt>
<pdfrwt beam="1">  1        2 0.71626647E-01 0.75729794E+03</pdfrwt>
<pdfrwt beam="2">  1       -2 0.81468749E-01 0.75729794E+03</pdfrwt>
<totfact> 0.89674086E+01</totfact>
</mgrwt>
</event>
<event>
12    1  0.4306058E-014  0.1371538E+04  0.7818608E-02  0.8974683E-01
          1   -1    0    0  501    0  0.00000000000E+00  0.00000000000E+00  0.17030037659E+04  0.17030037659E+04  0.00000000000E+00 0. -1.
         -1   -1    0    0    0  501 -0.00000000000E+00 -0.00000000000E+00 -0.27614670112E+03  0.27614670112E+03  0.00000000000E+00 0.  1.
         23    2    1    2    0    0  0.28780715288E+03 -0.12215220439E+02  0.70491194575E+03  0.76546624994E+03  0.77817476677E+02 0.  0.
    9900016    2    1    2    0    0 -0.25360277972E+03  0.16386944351E+03  0.27538048536E+03  0.74083232213E+03  0.61792439133E+03 0.  0.
         23    2    4    4    0    0 -0.24756997924E+03  0.12464546502E+03  0.26984682437E+02  0.29303817400E+03  0.91191072808E+02 0.  0.
        -15    1    5    5    0    0 -0.18070379012E+03  0.10812321375E+03  0.56613390414E+02  0.21805862764E+03  0.00000000000E+00 0.  1.
        -15    1    3    3    0    0  0.17458314030E+03  0.30642105340E+02  0.41030537315E+03  0.44695493143E+03  0.00000000000E+00 0.  1.
         15    1    5    5    0    0 -0.66866189124E+02  0.16522251270E+02 -0.29628707977E+02  0.74979546353E+02  0.00000000000E+00 0. -1.
         15    1    3    3    0    0  0.11322401259E+03 -0.42857325779E+02  0.29460657260E+03  0.31851131851E+03  0.00000000000E+00 0. -1.
        -16    1    4    4    0    0 -0.15214275467E+03  0.45421218760E+02  0.22276114387E+03  0.27355626867E+03  0.00000000000E+00 0.  1.
         16    1    1    2    0    0 -0.34204373165E+02 -0.15165422307E+03  0.44656463365E+03  0.47285189494E+03  0.00000000000E+00 0. -1.
    9900018    1    4    4    0    0  0.14610995419E+03 -0.61972402731E+01  0.25634659057E+02  0.17423787946E+03  0.91187600000E+02 0.  0.
<mgrwt>
<rscale>  0 0.13715376E+04</rscale>
<asrwt>0</asrwt>
<pdfrwt beam="1">  1        1 0.26200057E+00 0.13715376E+04</pdfrwt>
<pdfrwt beam="2">  1       -1 0.42484109E-01 0.13715376E+04</pdfrwt>
<totfact> 0.25271364E+01</totfact>
</mgrwt>
</event>
