<event>
11    1  0.6139155E-012  0.3478785E+04  0.7818608E-02  0.8359541E-01
         -1   -1    0    0    0  501 -0.00000000000E+00  0.00000000000E+00  0.20486498938E+04  0.20486498938E+04  0.00000000000E+00 0.  1.
          1   -1    0    0  501    0  0.00000000000E+00 -0.00000000000E+00 -0.27441089109E+04  0.27441089109E+04  0.00000000000E+00 0. -1.
    9900016    2    1    2    0    0  0.55031820979E+03  0.49438565310E+03 -0.65824144110E+03  0.22374165358E+04  0.20063607985E+04 0.  0.
        -24    2    3    3    0    0 -0.16392565207E+03 -0.16943835314E+03 -0.11279493544E+04  0.11550893536E+04  0.79879245146E+02 0.  0.
        -15    1    1    2    0    0  0.28151138886E+03  0.28101203766E+03 -0.69890636146E+03  0.80416822211E+03  0.00000000000E+00 0.  1.
        -15    1    3    3    0    0  0.71424386187E+03  0.66382400624E+03  0.46970791328E+03  0.10823271822E+04  0.00000000000E+00 0.  1.
         15    1    1    2    0    0 -0.32667637299E+03 -0.39037365879E+03  0.26703270954E+02  0.50972748682E+03  0.00000000000E+00 0. -1.
         15    1    4    4    0    0 -0.28311596310E+02  0.38582617115E+01 -0.11267850741E+03  0.11624490828E+03  0.00000000000E+00 0. -1.
        -16    1    4    4    0    0 -0.13561405576E+03 -0.17329661486E+03 -0.10152708470E+04  0.10388444453E+04  0.00000000000E+00 0.  1.
         16    1    1    2    0    0 -0.22763069713E+03 -0.50874212239E+03  0.29786174520E+02  0.55814110900E+03  0.00000000000E+00 0. -1.
    9900018    1    1    2    0    0 -0.27752252853E+03  0.12371809042E+03  0.60519933997E+03  0.68330545091E+03  0.91187600000E+02 0.  0.
<mgrwt>
<rscale>  0 0.26256493E+04</rscale>
<asrwt>0</asrwt>
<pdfrwt beam="1">  1        1 0.42217060E+00 0.34787854E+04</pdfrwt>
<pdfrwt beam="2">  1       -1 0.31517691E+00 0.34787854E+04</pdfrwt>
<totfact> 0.18892565E-02</totfact>
</mgrwt>
</event>
<event>
11    1  0.6139155E-012  0.3540819E+04  0.7818608E-02  0.8245913E-01
          2   -1    0    0  501    0  0.00000000000E+00  0.00000000000E+00  0.28268233982E+04  0.28268233982E+04  0.00000000000E+00 0.  1.
         -2   -1    0    0    0  501 -0.00000000000E+00 -0.00000000000E+00 -0.27154516227E+04  0.27154516227E+04  0.00000000000E+00 0. -1.
    9900016    2    1    2    0    0  0.11389474324E+04  0.18183330662E+03  0.60023420436E+03  0.23815679530E+04  0.19953245875E+04 0.  0.
         24    2    3    3    0    0  0.40901768549E+03 -0.41078074852E+03  0.11515375576E+04  0.12916485793E+04  0.79252857598E+02 0.  0.
        -15    1    4    4    0    0  0.27135165269E+03 -0.32058311940E+03  0.80315042753E+03  0.90634202435E+03  0.00000000000E+00 0.  1.
        -15    1    1    2    0    0 -0.53324037525E+03  0.72882239041E+03  0.24997818877E+03  0.93702533019E+03  0.00000000000E+00 0.  1.
         15    1    3    3    0    0  0.72992974695E+03  0.59261405515E+03 -0.55130335326E+03  0.10899193737E+04  0.00000000000E+00 0. -1.
         15    1    1    2    0    0 -0.50253624317E+03 -0.65668329682E+03 -0.11530313872E+04  0.14188928811E+04  0.00000000000E+00 0. -1.
        -16    1    1    2    0    0 -0.27888952073E+01  0.32562404974E+01  0.50123350597E+03  0.50125184144E+03  0.00000000000E+00 0.  1.
         16    1    4    4    0    0  0.13766603280E+03 -0.90197629120E+02  0.34838713010E+03  0.38530655497E+03  0.00000000000E+00 0. -1.
    9900018    1    1    2    0    0 -0.10038191881E+03 -0.25722864071E+03 -0.87042736454E+02  0.30353701519E+03  0.91187600000E+02 0.  0.
<mgrwt>
<rscale>  0 0.29923695E+04</rscale>
<asrwt>0</asrwt>
<pdfrwt beam="1">  1        2 0.43489591E+00 0.35408191E+04</pdfrwt>
<pdfrwt beam="2">  1       -2 0.41776179E+00 0.35408191E+04</pdfrwt>
<totfact> 0.97437820E-03</totfact>
</mgrwt>
</event>
<event>
11    1  0.6139155E-012  0.3997247E+04  0.7818608E-02  0.8391685E-01
         -2   -1    0    0    0  501 -0.00000000000E+00  0.00000000000E+00  0.18979400648E+04  0.18979400648E+04  0.00000000000E+00 0.  1.
          2   -1    0    0  501    0  0.00000000000E+00 -0.00000000000E+00 -0.29422748429E+04  0.29422748429E+04  0.00000000000E+00 0. -1.
    9900016    2    1    2    0    0  0.12123841592E+04 -0.46758149406E+03 -0.13969660989E+04  0.27899683607E+04  0.20356574784E+04 0.  0.
        -24    2    3    3    0    0  0.14323861822E+04 -0.58582501531E+03 -0.19444986601E+03  0.15617877100E+04  0.80305524438E+02 0.  0.
        -15    1    3    3    0    0 -0.22000202296E+03  0.11824352125E+03 -0.12025162329E+04  0.12281806507E+04  0.00000000000E+00 0.  1.
        -15    1    1    2    0    0  0.18393608918E+02  0.20512884754E+03  0.20391186462E+03  0.28982100938E+03  0.00000000000E+00 0.  1.
         15    1    1    2    0    0  0.28255648311E+02  0.37120897005E+03 -0.39434427398E+02  0.37436553683E+03  0.00000000000E+00 0. -1.
         15    1    4    4    0    0  0.56857611382E+03 -0.20815534625E+03 -0.43793589168E+02  0.60706286646E+03  0.00000000000E+00 0. -1.
        -16    1    4    4    0    0  0.86381006837E+03 -0.37766966906E+03 -0.15065627684E+03  0.95472484356E+03  0.00000000000E+00 0.  1.
         16    1    1    2    0    0 -0.12697850225E+04 -0.10546988932E+03  0.13860908546E+03  0.12816748337E+04  0.00000000000E+00 0. -1.
    9900018    1    1    2    0    0  0.10751606007E+02 -0.32864342079E+01  0.49544798093E+02  0.10438516702E+03  0.91187600000E+02 0.  0.
<mgrwt>
<rscale>  0 0.25319652E+04</rscale>
<asrwt>0</asrwt>
<pdfrwt beam="1">  1        2 0.45265766E+00 0.39972473E+04</pdfrwt>
<pdfrwt beam="2">  1       -2 0.29199078E+00 0.39972473E+04</pdfrwt>
<totfact> 0.51740572E-02</totfact>
</mgrwt>
</event>
<event>
11    1  0.6139155E-012  0.3245207E+04  0.7818608E-02  0.8381703E-01
          1   -1    0    0  501    0  0.00000000000E+00  0.00000000000E+00  0.17032305354E+04  0.17032305354E+04  0.00000000000E+00 0. -1.
         -1   -1    0    0    0  501 -0.00000000000E+00 -0.00000000000E+00 -0.31251155708E+04  0.31251155708E+04  0.00000000000E+00 0.  1.
    9900016    2    1    2    0    0  0.30703256031E+02  0.24275039709E+03 -0.15499125143E+04  0.25570671566E+04  0.20190327378E+04 0.  0.
         24    2    3    3    0    0  0.69288582024E+03  0.50134489509E+03 -0.16293322631E+04  0.18417599784E+04  0.76933287818E+02 0.  0.
        -15    1    1    2    0    0  0.29999701105E+02  0.81451130357E+02  0.34046791255E+03  0.35135831878E+03  0.00000000000E+00 0.  1.
        -15    1    4    4    0    0  0.82350333556E+02  0.73405552281E+02 -0.16395187778E+03  0.19761116054E+03  0.00000000000E+00 0.  1.
         15    1    1    2    0    0  0.67769615847E+03 -0.53715550962E+03 -0.27732366604E+03  0.90813905349E+03  0.00000000000E+00 0. -1.
         15    1    3    3    0    0 -0.66218256420E+03 -0.25859449800E+03  0.79419748800E+02  0.71530717823E+03  0.00000000000E+00 0. -1.
        -16    1    1    2    0    0 -0.74599369171E+03 -0.30535079748E+02  0.81978458804E+02  0.75110548319E+03  0.00000000000E+00 0.  1.
         16    1    4    4    0    0  0.61053548668E+03  0.42793934281E+03 -0.14653803853E+04  0.16441488179E+04  0.00000000000E+00 0. -1.
    9900018    1    1    2    0    0  0.75945761017E+01  0.24348906192E+03 -0.17095226462E+02  0.26067609407E+03  0.91187600000E+02 0.  0.
<mgrwt>
<rscale>  0 0.25606163E+04</rscale>
<asrwt>0</asrwt>
<pdfrwt beam="1">  1        1 0.26203547E+00 0.32452071E+04</pdfrwt>
<pdfrwt beam="2">  1       -1 0.48078701E+00 0.32452071E+04</pdfrwt>
<totfact> 0.75739981E-03</totfact>
</mgrwt>
</event>
<event>
11    1  0.6139155E-012  0.4883651E+04  0.7818608E-02  0.8003536E-01
         -2   -1    0    0    0  501 -0.00000000000E+00  0.00000000000E+00  0.30155541743E+04  0.30155541743E+04  0.00000000000E+00 0.  1.
          2   -1    0    0  501    0  0.00000000000E+00 -0.00000000000E+00 -0.41712683095E+04  0.41712683095E+04  0.00000000000E+00 0. -1.
    9900016    2    1    2    0    0 -0.29825656227E+03 -0.10757293744E+04 -0.16357610891E+04  0.28281866737E+04  0.20191024878E+04 0.  0.
         24    2    3    3    0    0  0.82865045348E+03 -0.54778783806E+03 -0.39814744547E+03  0.10731000037E+04  0.79304098570E+02 0.  0.
        -15    1    1    2    0    0 -0.31030163605E+03 -0.79162270030E+02  0.58611179755E+03  0.66789281292E+03  0.00000000000E+00 0.  1.
        -15    1    4    4    0    0  0.27923052891E+03 -0.20781838678E+03 -0.17466917502E+03  0.38944510635E+03  0.00000000000E+00 0.  1.
         15    1    1    2    0    0 -0.91414159845E+02  0.12230976008E+04 -0.99323187670E+03  0.15782375774E+04  0.00000000000E+00 0. -1.
         15    1    3    3    0    0 -0.11269070158E+04 -0.52794153639E+03 -0.12376136437E+04  0.17550866699E+04  0.00000000000E+00 0. -1.
        -16    1    1    2    0    0  0.79247629400E+03  0.69766013983E+02  0.13753363619E+04  0.15888474067E+04  0.00000000000E+00 0.  1.
         16    1    4    4    0    0  0.54941992458E+03 -0.33996945128E+03 -0.22347827045E+03  0.68365489736E+03  0.00000000000E+00 0. -1.
    9900018    1    1    2    0    0 -0.92503935836E+02 -0.13797197033E+03 -0.48816932883E+03  0.52365801316E+03  0.91187600000E+02 0.  0.
<mgrwt>
<rscale>  0 0.40050114E+04</rscale>
<asrwt>0</asrwt>
<pdfrwt beam="1">  1        2 0.64173359E+00 0.48836508E+04</pdfrwt>
<pdfrwt beam="2">  1       -2 0.46393141E+00 0.48836508E+04</pdfrwt>
<totfact> 0.47315570E-04</totfact>
</mgrwt>
</event>
<event>
11    1  0.6139155E-012  0.4722118E+04  0.7818608E-02  0.8072728E-01
         -2   -1    0    0    0  501 -0.00000000000E+00  0.00000000000E+00  0.24532084895E+04  0.24532084895E+04  0.00000000000E+00 0. -1.
          2   -1    0    0  501    0  0.00000000000E+00 -0.00000000000E+00 -0.42976943282E+04  0.42976943282E+04  0.00000000000E+00 0.  1.
    9900016    2    1    2    0    0  0.13773418284E+04 -0.53547960945E+03 -0.11316686061E+03  0.25108048216E+04  0.20267030344E+04 0.  0.
         24    2    3    3    0    0  0.16545037787E+04  0.39792920920E+02 -0.53993611576E+03  0.17427623567E+04  0.81996294952E+02 0.  0.
        -15    1    4    4    0    0  0.10310313508E+04  0.50170434590E+02 -0.30434416103E+03  0.10761821812E+04  0.00000000000E+00 0.  1.
        -15    1    1    2    0    0  0.25858190605E+03  0.43709424591E+03 -0.18571403053E+03  0.54074548826E+03  0.00000000000E+00 0.  1.
         15    1    1    2    0    0 -0.12239617661E+04 -0.10390101839E+03 -0.61646140725E+03  0.13743734912E+04  0.00000000000E+00 0. -1.
         15    1    3    3    0    0 -0.27716195031E+03 -0.57527253037E+03  0.42676925514E+03  0.76804246499E+03  0.00000000000E+00 0. -1.
        -16    1    1    2    0    0  0.98528227969E+02  0.58330254630E+03 -0.14051254428E+04  0.15245744266E+04  0.00000000000E+00 0.  1.
         16    1    4    4    0    0  0.62347242794E+03 -0.10377513670E+02 -0.23559195472E+03  0.66658017547E+03  0.00000000000E+00 0. -1.
    9900018    1    1    2    0    0 -0.51049019628E+03 -0.38101616437E+03  0.47598190247E+03  0.80040459012E+03  0.91187600000E+02 0.  0.
<mgrwt>
<rscale>  0 0.36785683E+04</rscale>
<asrwt>0</asrwt>
<pdfrwt beam="1">  1        2 0.66118375E+00 0.47221176E+04</pdfrwt>
<pdfrwt beam="2">  1       -2 0.37741669E+00 0.47221176E+04</pdfrwt>
<totfact> 0.13849460E-03</totfact>
</mgrwt>
</event>
<event>
11    1  0.6139155E-012  0.3324661E+04  0.7818608E-02  0.8320044E-01
         -2   -1    0    0    0  501 -0.00000000000E+00  0.00000000000E+00  0.32216242052E+04  0.32216242052E+04  0.00000000000E+00 0.  1.
          2   -1    0    0  501    0  0.00000000000E+00 -0.00000000000E+00 -0.18793521516E+04  0.18793521516E+04  0.00000000000E+00 0. -1.
    9900016    2    1    2    0    0 -0.16825290199E+03  0.10493676818E+04  0.99614362915E+03  0.24933371498E+04  0.20235974012E+04 0.  0.
         24    2    3    3    0    0 -0.93058218834E+03  0.11855583729E+04  0.70745850420E+03  0.16668790768E+04  0.80352079324E+02 0.  0.
        -15    1    4    4    0    0 -0.60434214975E+03  0.81990119438E+03  0.45375496098E+03  0.11150609701E+04  0.00000000000E+00 0.  1.
        -15    1    1    2    0    0 -0.31208314873E+03  0.95437047562E+02 -0.16049916328E+03  0.36368132092E+03  0.00000000000E+00 0.  1.
         15    1    3    3    0    0  0.76232928636E+03 -0.13619069105E+03  0.28868512495E+03  0.82645807306E+03  0.00000000000E+00 0. -1.
         15    1    1    2    0    0 -0.42911753703E+03 -0.10768646636E+04  0.26049630747E+03  0.11881236007E+04  0.00000000000E+00 0. -1.
        -16    1    1    2    0    0  0.86714252381E+03  0.29572528696E+02  0.28007233975E+03  0.91172978812E+03  0.00000000000E+00 0.  1.
         16    1    4    4    0    0 -0.32624003859E+03  0.36565717852E+03  0.25370354321E+03  0.55181810665E+03  0.00000000000E+00 0. -1.
    9900018    1    1    2    0    0  0.42311063936E+02 -0.97512594518E+02 -0.33941059446E+02  0.14410449726E+03  0.91187600000E+02 0.  0.
<mgrwt>
<rscale>  0 0.27465905E+04</rscale>
<asrwt>0</asrwt>
<pdfrwt beam="1">  1        2 0.28913110E+00 0.33246610E+04</pdfrwt>
<pdfrwt beam="2">  1       -2 0.49563450E+00 0.33246610E+04</pdfrwt>
<totfact> 0.10875037E-02</totfact>
</mgrwt>
</event>
<event>
11    1  0.6139155E-012  0.3259195E+04  0.7818608E-02  0.8348610E-01
         -2   -1    0    0    0  501 -0.00000000000E+00  0.00000000000E+00  0.18685487697E+04  0.18685487697E+04  0.00000000000E+00 0. -1.
          2   -1    0    0  501    0  0.00000000000E+00 -0.00000000000E+00 -0.47147277051E+04  0.47147277051E+04  0.00000000000E+00 0.  1.
    9900016    2    1    2    0    0  0.18671828118E+03  0.51596809387E+02 -0.43562296146E+03  0.20673318264E+04  0.20116082046E+04 0.  0.
        -24    2    3    3    0    0  0.49051590945E+03  0.25972463795E+03 -0.11411454347E+04  0.12714850118E+04  0.79990544275E+02 0.  0.
        -15    1    1    2    0    0  0.24427357649E+01  0.61416947161E+03 -0.26357380338E+04  0.27063490332E+04  0.00000000000E+00 0.  1.
        -15    1    3    3    0    0 -0.30379762827E+03 -0.20812782856E+03  0.70552247327E+03  0.79584681457E+03  0.00000000000E+00 0.  1.
         15    1    4    4    0    0  0.33019165147E+03  0.18505011829E+03 -0.69167455625E+03  0.78846925415E+03  0.00000000000E+00 0. -1.
         15    1    1    2    0    0  0.49750566439E+03  0.61974281458E+02 -0.35534857014E+03  0.61451224882E+03  0.00000000000E+00 0. -1.
        -16    1    4    4    0    0  0.16032425798E+03  0.74674519662E+02 -0.44947087848E+03  0.48301575770E+03  0.00000000000E+00 0.  1.
         16    1    1    2    0    0 -0.39528773302E+03 -0.22460082047E+03  0.28421578970E+03  0.53616838358E+03  0.00000000000E+00 0. -1.
    9900018    1    1    2    0    0 -0.29137894831E+03 -0.50313974198E+03  0.29631484030E+03  0.65891498272E+03  0.91187600000E+02 0.  0.
<mgrwt>
<rscale>  0 0.26584616E+04</rscale>
<asrwt>0</asrwt>
<pdfrwt beam="1">  1        2 0.72534272E+00 0.32591954E+04</pdfrwt>
<pdfrwt beam="2">  1       -2 0.28746904E+00 0.32591954E+04</pdfrwt>
<totfact> 0.21899315E-03</totfact>
</mgrwt>
</event>
<event>
11    1  0.6139155E-012  0.3470730E+04  0.7818608E-02  0.8298603E-01
          3   -1    0    0  501    0  0.00000000000E+00  0.00000000000E+00  0.28207335706E+04  0.28207335706E+04  0.00000000000E+00 0. -1.
         -3   -1    0    0    0  501 -0.00000000000E+00 -0.00000000000E+00 -0.22176033384E+04  0.22176033384E+04  0.00000000000E+00 0.  1.
    9900016    2    1    2    0    0  0.69141495457E+02  0.10594512482E+04  0.24654234859E+03  0.22933889464E+04  0.20178285943E+04 0.  0.
        -24    2    3    3    0    0  0.10173113076E+04  0.41215416305E+03 -0.69421673398E+02  0.11026527152E+04  0.78932191727E+02 0.  0.
        -15    1    1    2    0    0 -0.89074594891E+03 -0.41422856554E+03  0.37666106339E+03  0.10520870718E+04  0.00000000000E+00 0.  1.
        -15    1    3    3    0    0 -0.94816981213E+03  0.64729708514E+03  0.31596402199E+03  0.11907362312E+04  0.00000000000E+00 0.  1.
         15    1    4    4    0    0  0.21471104041E+03  0.93096784239E+02  0.17030768732E+02  0.23464417570E+03  0.00000000000E+00 0. -1.
         15    1    1    2    0    0  0.50406015136E+03 -0.64669738077E+02  0.57108139276E+02  0.51139040936E+03  0.00000000000E+00 0. -1.
        -16    1    4    4    0    0  0.80260026718E+03  0.31905737881E+03 -0.86452442130E+02  0.86800853947E+03  0.00000000000E+00 0.  1.
         16    1    1    2    0    0  0.43596472535E+03 -0.80050827918E+03 -0.34844949093E+02  0.91219127231E+03  0.00000000000E+00 0. -1.
    9900018    1    1    2    0    0 -0.11842042326E+03  0.21995533460E+03 -0.42336369982E+02  0.26927920916E+03  0.91187600000E+02 0.  0.
<mgrwt>
<rscale>  0 0.28150775E+04</rscale>
<asrwt>0</asrwt>
<pdfrwt beam="1">  1        3 0.43395901E+00 0.34707297E+04</pdfrwt>
<pdfrwt beam="2">  1       -3 0.34116975E+00 0.34707297E+04</pdfrwt>
<totfact> 0.33091583E-04</totfact>
</mgrwt>
</event>
<event>
11    1  0.6139155E-012  0.4039375E+04  0.7818608E-02  0.8221024E-01
          2   -1    0    0  501    0  0.00000000000E+00  0.00000000000E+00  0.44660624667E+04  0.44660624667E+04  0.00000000000E+00 0. -1.
         -2   -1    0    0    0  501 -0.00000000000E+00 -0.00000000000E+00 -0.18547505406E+04  0.18547505406E+04  0.00000000000E+00 0.  1.
    9900016    2    1    2    0    0  0.10284736474E+04 -0.21182032969E+03  0.18925261148E+04  0.29655870487E+04  0.20274184454E+04 0.  0.
         24    2    3    3    0    0  0.12588005588E+04  0.62422327009E+03  0.10438127935E+04  0.17521894681E+04  0.79932761847E+02 0.  0.
        -15    1    1    2    0    0 -0.11246083195E+03  0.36364451680E+03  0.19808902348E+03  0.42909676594E+03  0.00000000000E+00 0.  1.
        -15    1    4    4    0    0  0.92475582218E+03  0.48817065983E+03  0.80402310324E+03  0.13190667437E+04  0.00000000000E+00 0.  1.
         15    1    3    3    0    0 -0.23032691145E+03 -0.83604359978E+03  0.84871332133E+03  0.12133975806E+04  0.00000000000E+00 0. -1.
         15    1    1    2    0    0  0.78975908738E+03 -0.33403251141E+03 -0.42290883182E+03  0.95611140293E+03  0.00000000000E+00 0. -1.
        -16    1    1    2    0    0 -0.86539297512E+03  0.17422357218E+03  0.44497001457E+03  0.98856318379E+03  0.00000000000E+00 0.  1.
         16    1    4    4    0    0  0.33404473666E+03  0.13605261026E+03  0.23978969026E+03  0.43312272442E+03  0.00000000000E+00 0. -1.
    9900018    1    1    2    0    0 -0.84037892771E+03  0.79847521240E+01  0.49863560509E+03  0.98145460591E+03  0.91187600000E+02 0.  0.
<mgrwt>
<rscale>  0 0.30808123E+04</rscale>
<asrwt>0</asrwt>
<pdfrwt beam="1">  1        2 0.68708653E+00 0.40393752E+04</pdfrwt>
<pdfrwt beam="2">  1       -2 0.28534624E+00 0.40393752E+04</pdfrwt>
<totfact> 0.38471124E-03</totfact>
</mgrwt>
</event>
