<event>
10    1  0.3373258E-016  0.2041025E+04  0.7818608E-02  0.9099961E-01
          2   -1    0    0  501    0  0.00000000000E+00  0.00000000000E+00  0.36167457274E+04  0.36167457274E+04  0.00000000000E+00 0.  1.
         -2   -1    0    0    0  501 -0.00000000000E+00 -0.00000000000E+00 -0.44069066699E+03  0.44069066699E+03  0.00000000000E+00 0. -1.
         24    2    1    2    0    0  0.21195159314E+03  0.10765800719E+03  0.11623453436E+04  0.11902406987E+04  0.95459409242E+02 0.  0.
        -15    1    1    2    0    0 -0.10589059678E+03  0.16144632519E+03  0.47251453487E+03  0.51043875251E+03  0.00000000000E+00 0.  1.
        -15    1    3    3    0    0  0.88781286911E+02 -0.43107543303E+01  0.36005367564E+03  0.37086297854E+03  0.00000000000E+00 0.  1.
         15    1    1    2    0    0 -0.60054228468E+02  0.31105999781E+03  0.39151831758E+03  0.50363818917E+03  0.00000000000E+00 0. -1.
         15    1    1    2    0    0 -0.50713058981E+03 -0.71976723714E+02  0.48496486750E+03  0.70537437335E+03  0.00000000000E+00 0. -1.
        -16    1    1    2    0    0  0.21733650127E+03  0.20186686050E+02  0.48512948342E+03  0.53197112024E+03  0.00000000000E+00 0.  1.
         16    1    3    3    0    0  0.12317030623E+03  0.11196876152E+03  0.80229166794E+03  0.81937772019E+03  0.00000000000E+00 0. -1.
    9900018    1    1    2    0    0  0.24378732064E+03 -0.52837429251E+03  0.17958251348E+03  0.61577326041E+03  0.91187600000E+02 0.  0.
<mgrwt>
<rscale>  0 0.12148453E+04</rscale>
<asrwt>0</asrwt>
<pdfrwt beam="1">  1        2 0.55642240E+00 0.20410253E+04</pdfrwt>
<pdfrwt beam="2">  1       -2 0.67798567E-01 0.20410253E+04</pdfrwt>
<totfact> 0.12349062E+00</totfact>
</mgrwt>
</event>
<event>
11    1  0.3373258E-016  0.3194759E+04  0.7818608E-02  0.8190203E-01
         -2   -1    0    0    0  501 -0.00000000000E+00  0.00000000000E+00  0.83108643533E+03  0.83108643533E+03  0.00000000000E+00 0.  1.
          2   -1    0    0  501    0  0.00000000000E+00 -0.00000000000E+00 -0.30702230951E+04  0.30702230951E+04  0.00000000000E+00 0. -1.
         24    2    1    2    0    0 -0.22231102450E+03  0.10692606229E+03 -0.82982028653E+03  0.87181119198E+03  0.10294499557E+03 0.  0.
         23    2    1    2    0    0  0.45479639608E+03  0.13160121106E+03 -0.91739237887E+03  0.10384508128E+04  0.11230615822E+03 0.  0.
        -15    1    3    3    0    0 -0.10689762977E+03  0.53090664381E+02 -0.23572663106E+03  0.26422105610E+03  0.00000000000E+00 0.  1.
        -15    1    4    4    0    0  0.23825904575E+03  0.12699392506E+03 -0.51305439135E+03  0.57975825856E+03  0.00000000000E+00 0. -1.
         15    1    1    2    0    0  0.36804899477E+02  0.24349137499E+03 -0.96649742186E+03  0.99737651706E+03  0.00000000000E+00 0. -1.
         15    1    4    4    0    0  0.21653735033E+03  0.46072859953E+01 -0.40433798752E+03  0.45869255425E+03  0.00000000000E+00 0.  1.
        -16    1    1    2    0    0 -0.37813105717E+03 -0.28818988061E+02  0.31395717951E+03  0.49232381726E+03  0.00000000000E+00 0.  1.
         16    1    3    3    0    0 -0.11541339474E+03  0.53835397913E+02 -0.59409365547E+03  0.60759013588E+03  0.00000000000E+00 0. -1.
    9900018    1    1    2    0    0  0.10884078612E+03 -0.45319966028E+03  0.16061624794E+03  0.50134719137E+03  0.91187600000E+02 0.  0.
<mgrwt>
<rscale>  0 0.31947587E+04</rscale>
<asrwt>0</asrwt>
<pdfrwt beam="1">  1        2 0.47234201E+00 0.31947587E+04</pdfrwt>
<pdfrwt beam="2">  1       -2 0.12785945E+00 0.31947587E+04</pdfrwt>
<totfact> 0.59938214E-01</totfact>
</mgrwt>
</event>
<event>
12    1  0.3373258E-016  0.3045952E+04  0.7818608E-02  0.9002235E-01
         -1   -1    0    0    0  501 -0.00000000000E+00  0.00000000000E+00  0.80321266928E+03  0.80321266928E+03  0.00000000000E+00 0.  1.
          1   -1    0    0  501    0  0.00000000000E+00 -0.00000000000E+00 -0.41162122542E+04  0.41162122542E+04  0.00000000000E+00 0. -1.
         24    2    1    2    0    0  0.61309844584E+02  0.73209295572E+02  0.22461776057E+03  0.25117491502E+03  0.59305999479E+02 0.  0.
    9900016    2    1    2    0    0  0.18549226785E+03 -0.51300820622E+03 -0.34267172077E+04  0.41518846290E+04  0.22799496375E+04 0.  0.
         23    2    4    4    0    0 -0.67444341654E+02  0.53570803088E+03 -0.48528729060E+03  0.73344914339E+03  0.10446079625E+03 0.  0.
        -15    1    3    3    0    0  0.47181734722E+02  0.76252580523E+02  0.14674828399E+03  0.17197566974E+03  0.00000000000E+00 0.  1.
        -15    1    5    5    0    0 -0.44779978731E+02  0.39546381419E+03 -0.41482480200E+03  0.57487084740E+03  0.00000000000E+00 0. -1.
         15    1    1    2    0    0 -0.24680211244E+03  0.43979891064E+03 -0.11090013773E+03  0.51636537941E+03  0.00000000000E+00 0. -1.
         15    1    5    5    0    0 -0.22664362923E+02  0.14024421669E+03 -0.70462488596E+02  0.15857829599E+03  0.00000000000E+00 0.  1.
        -16    1    4    4    0    0 -0.45191759530E+03 -0.53684712733E+03 -0.20582642211E+04  0.21746001828E+04  0.00000000000E+00 0.  1.
         16    1    3    3    0    0  0.14128109862E+02 -0.30432849505E+01  0.77869476576E+02  0.79199245286E+02  0.00000000000E+00 0. -1.
    9900018    1    4    4    0    0  0.70485420481E+03 -0.51186910976E+03 -0.88316569604E+03  0.12438353029E+04  0.91187600000E+02 0.  0.
<mgrwt>
<rscale>  0 0.13350335E+04</rscale>
<asrwt>0</asrwt>
<pdfrwt beam="1">  1        1 0.63326342E+00 0.30459517E+04</pdfrwt>
<pdfrwt beam="2">  1       -1 0.12357118E+00 0.30459517E+04</pdfrwt>
<totfact> 0.36254837E-02</totfact>
</mgrwt>
</event>
<event>
 9    1  0.3373258E-016  0.2286717E+04  0.7818608E-02  0.8967620E-01
          2   -1    0    0  501    0  0.00000000000E+00  0.00000000000E+00  0.17297761876E+04  0.17297761876E+04  0.00000000000E+00 0. -1.
         -2   -1    0    0    0  501 -0.00000000000E+00 -0.00000000000E+00 -0.98964903397E+03  0.98964903397E+03  0.00000000000E+00 0.  1.
        -15    1    1    2    0    0  0.33045240144E+03 -0.26333905641E+03  0.57580811059E+03  0.71421371344E+03  0.00000000000E+00 0.  1.
        -15    1    1    2    0    0  0.38754007430E+02 -0.29407799209E+03 -0.32178821330E+03  0.43764299691E+03  0.00000000000E+00 0.  1.
         15    1    1    2    0    0  0.11151297061E+03 -0.10849610698E+03  0.94985980859E+02  0.18228791623E+03  0.00000000000E+00 0. -1.
         15    1    1    2    0    0 -0.89968595828E+02 -0.41353051560E+02 -0.16922594255E+02  0.10045296066E+03  0.00000000000E+00 0. -1.
        -16    1    1    2    0    0 -0.17721828279E+03 -0.10291135235E+03 -0.14899854891E+02  0.20547280081E+03  0.00000000000E+00 0.  1.
         16    1    1    2    0    0 -0.16458427519E+03  0.77675298955E+03  0.18140130055E+03  0.81445664234E+03  0.00000000000E+00 0. -1.
    9900018    1    1    2    0    0 -0.48948225674E+02  0.33424569846E+02  0.24154242405E+03  0.26489819115E+03  0.91187600000E+02 0.  0.
<mgrwt>
<rscale>  0 0.13810923E+04</rscale>
<asrwt>0</asrwt>
<pdfrwt beam="1">  1        2 0.26611941E+00 0.22867167E+04</pdfrwt>
<pdfrwt beam="2">  1       -2 0.15225370E+00 0.22867167E+04</pdfrwt>
<totfact> 0.24409279E+00</totfact>
</mgrwt>
</event>
