<event>
11    1  0.8984545E-014  0.2608911E+04  0.7818608E-02  0.8365181E-01
         -1   -1    0    0    0  501 -0.00000000000E+00  0.00000000000E+00  0.58889018580E+03  0.58889018580E+03  0.00000000000E+00 0.  1.
          1   -1    0    0  501    0  0.00000000000E+00 -0.00000000000E+00 -0.28895090711E+04  0.28895090711E+04  0.00000000000E+00 0. -1.
    9900016    2    1    2    0    0  0.31451061616E+03  0.96300226640E+02 -0.20823536963E+04  0.30836457211E+04  0.22504407024E+04 0.  0.
        -24    2    3    3    0    0  0.65355561179E+03 -0.41749252378E+03 -0.60780884370E+03  0.98854975981E+03  0.79775259484E+02 0.  0.
        -15    1    3    3    0    0 -0.15947130155E+03 -0.21308215878E+03 -0.46542848327E+03  0.53615182127E+03  0.00000000000E+00 0.  1.
        -15    1    3    3    0    0 -0.90342527593E+02  0.76288350775E+03 -0.36065338896E+03  0.84866005306E+03  0.00000000000E+00 0.  1.
         15    1    4    4    0    0  0.40139287483E+03 -0.22613551935E+03 -0.39766113695E+03  0.60859501552E+03  0.00000000000E+00 0. -1.
         15    1    3    3    0    0 -0.13275380321E+03 -0.81831510420E+02 -0.50736414776E+03  0.53079030397E+03  0.00000000000E+00 0. -1.
        -16    1    4    4    0    0  0.25216273696E+03 -0.19135700443E+03 -0.21014770675E+03  0.37995474429E+03  0.00000000000E+00 0.  1.
         16    1    1    2    0    0 -0.31451061616E+03 -0.96300226640E+02 -0.21826518903E+03  0.39475353586E+03  0.00000000000E+00 0. -1.
    9900018    1    3    3    0    0  0.43522636727E+02  0.45822911869E+02 -0.14109883261E+03  0.17949378295E+03  0.91187600000E+02 0.  0.
<mgrwt>
<rscale>  0 0.26089105E+04</rscale>
<asrwt>0</asrwt>
<pdfrwt beam="1">  1        1 0.44453986E+00 0.26089105E+04</pdfrwt>
<pdfrwt beam="2">  1       -1 0.90598490E-01 0.26089105E+04</pdfrwt>
<totfact> 0.75284609E-01</totfact>
</mgrwt>
</event>
<event>
12    1  0.8984545E-014  0.2563576E+04  0.7818608E-02  0.8380680E-01
          2   -1    0    0  501    0  0.00000000000E+00  0.00000000000E+00  0.11075520962E+04  0.11075520962E+04  0.00000000000E+00 0. -1.
         -2   -1    0    0    0  501 -0.00000000000E+00 -0.00000000000E+00 -0.14834345493E+04  0.14834345493E+04  0.00000000000E+00 0.  1.
    9900016    2    1    2    0    0 -0.19803904236E+03 -0.17276876753E+03 -0.33366631205E+03  0.21943249217E+04  0.21528260833E+04 0.  0.
         23    2    3    3    0    0  0.14439526975E+03 -0.25724524326E+03  0.27995822455E+03  0.41353579476E+03  0.74900847438E+02 0.  0.
         24    2    3    3    0    0 -0.22185755319E+03 -0.70479174507E+03 -0.64192374828E+03  0.98186239407E+03  0.77688380383E+02 0.  0.
        -15    1    4    4    0    0  0.43815281064E+02 -0.15436798265E+03  0.14994466874E+03  0.21961934479E+03  0.00000000000E+00 0. -1.
        -15    1    5    5    0    0 -0.19142684729E+02 -0.16800505666E+03 -0.15211851959E+03  0.22744710472E+03  0.00000000000E+00 0.  1.
         15    1    4    4    0    0  0.10057998868E+03 -0.10287726062E+03  0.13001355581E+03  0.19391644997E+03  0.00000000000E+00 0.  1.
         15    1    3    3    0    0 -0.12057675893E+03  0.78926822080E+03  0.28299211684E+02  0.79892673290E+03  0.00000000000E+00 0. -1.
        -16    1    1    2    0    0  0.21572919993E+03  0.20345272346E+03 -0.34493385187E+02  0.29853289937E+03  0.00000000000E+00 0.  1.
         16    1    5    5    0    0 -0.20271486846E+03 -0.53678668841E+03 -0.48980522869E+03  0.75441528934E+03  0.00000000000E+00 0. -1.
    9900018    1    1    2    0    0 -0.17690157565E+02 -0.30683955928E+02 -0.77227559381E+01  0.98128824405E+02  0.91187600000E+02 0.  0.
<mgrwt>
<rscale>  0 0.25635764E+04</rscale>
<asrwt>0</asrwt>
<pdfrwt beam="1">  1        2 0.17039263E+00 0.25635764E+04</pdfrwt>
<pdfrwt beam="2">  1       -2 0.22822070E+00 0.25635764E+04</pdfrwt>
<totfact> 0.16773575E+00</totfact>
</mgrwt>
</event>
<event>
12    1  0.8984545E-014  0.3153440E+04  0.7818608E-02  0.8201223E-01
          2   -1    0    0  501    0  0.00000000000E+00  0.00000000000E+00  0.13818342632E+04  0.13818342632E+04  0.00000000000E+00 0. -1.
         -2   -1    0    0    0  501 -0.00000000000E+00 -0.00000000000E+00 -0.17990908680E+04  0.17990908680E+04  0.00000000000E+00 0.  1.
    9900016    2    1    2    0    0 -0.28868836189E+03 -0.42321636766E+03 -0.89870225500E+03  0.24779009649E+04  0.22516381558E+04 0.  0.
         23    2    3    3    0    0  0.32115777789E+03 -0.86972042376E+03  0.15632233614E+02  0.93607684862E+03  0.12821687099E+03 0.  0.
        -24    2    3    3    0    0 -0.13361062347E+01  0.16241967298E+03 -0.73739290223E+03  0.75930561116E+03  0.80092343715E+02 0.  0.
        -15    1    3    3    0    0 -0.58569606154E+03  0.26425308551E+03 -0.82535691963E+02  0.64782845735E+03  0.00000000000E+00 0.  1.
        -15    1    4    4    0    0  0.29601908015E+03 -0.77000304374E+03  0.53040515314E+02  0.82664701018E+03  0.00000000000E+00 0.  1.
         15    1    5    5    0    0  0.25780303592E+02  0.12866226306E+03 -0.45253707917E+03  0.47117768412E+03  0.00000000000E+00 0. -1.
         15    1    4    4    0    0  0.25138697734E+02 -0.99717380020E+02 -0.37408281700E+02  0.10942983844E+03  0.00000000000E+00 0. -1.
        -16    1    5    5    0    0 -0.27116409827E+02  0.33757409922E+02 -0.28485582306E+03  0.28812792704E+03  0.00000000000E+00 0.  1.
         16    1    1    2    0    0  0.28868836189E+03  0.42321636766E+03  0.48144565026E+03  0.70302416623E+03  0.00000000000E+00 0. -1.
    9900018    1    3    3    0    0 -0.22813972005E+02  0.19831297602E+02 -0.94405894417E+02  0.13469004781E+03  0.91187600000E+02 0.  0.
<mgrwt>
<rscale>  0 0.31534396E+04</rscale>
<asrwt>0</asrwt>
<pdfrwt beam="1">  1        2 0.21258989E+00 0.31534396E+04</pdfrwt>
<pdfrwt beam="2">  1       -2 0.27678321E+00 0.31534396E+04</pdfrwt>
<totfact> 0.55200315E-01</totfact>
</mgrwt>
</event>
<event>
12    1  0.8984545E-014  0.3008149E+04  0.7818608E-02  0.8241408E-01
         -1   -1    0    0    0  501 -0.00000000000E+00  0.00000000000E+00  0.19629261494E+04  0.19629261494E+04  0.00000000000E+00 0.  1.
          1   -1    0    0  501    0  0.00000000000E+00 -0.00000000000E+00 -0.11524838385E+04  0.11524838385E+04  0.00000000000E+00 0. -1.
    9900016    2    1    2    0    0 -0.11985502542E+03  0.60523551060E+03  0.58376684535E+03  0.23234440898E+04  0.21626218944E+04 0.  0.
         23    2    3    3    0    0 -0.32408813995E+03  0.13200556291E+02  0.11588803649E+04  0.12054990385E+04  0.70829756930E+02 0.  0.
         24    2    3    3    0    0  0.10469638766E+03 -0.14093583296E+03 -0.22802476138E+02  0.19479759625E+03  0.81252126021E+02 0.  0.
        -15    1    5    5    0    0  0.88882650528E+02 -0.13721437764E+03 -0.42835444400E+02  0.16900528481E+03  0.00000000000E+00 0.  1.
        -15    1    4    4    0    0 -0.75868061996E+02  0.33221085804E+02  0.30525720147E+03  0.31629347515E+03  0.00000000000E+00 0.  1.
         15    1    4    4    0    0 -0.24822007795E+03 -0.20020529514E+02  0.85362316346E+03  0.88920556335E+03  0.00000000000E+00 0. -1.
         15    1    3    3    0    0  0.99536726865E+02  0.73297078727E+03 -0.55231104344E+03  0.92314745501E+03  0.00000000000E+00 0. -1.
        -16    1    1    2    0    0  0.10448727535E+03 -0.64469880804E+03  0.22696313565E+03  0.69142346557E+03  0.00000000000E+00 0.  1.
         16    1    5    5    0    0  0.15813737132E+02 -0.37214553192E+01  0.20032968262E+02  0.25792311435E+02  0.00000000000E+00 0. -1.
    9900018    1    1    2    0    0  0.15367750071E+02  0.39463297444E+02 -0.28767009037E+00  0.10054243251E+03  0.91187600000E+02 0.  0.
<mgrwt>
<rscale>  0 0.30081494E+04</rscale>
<asrwt>0</asrwt>
<pdfrwt beam="1">  1        1 0.17730521E+00 0.30081494E+04</pdfrwt>
<pdfrwt beam="2">  1       -1 0.30198864E+00 0.30081494E+04</pdfrwt>
<totfact> 0.31577017E-01</totfact>
</mgrwt>
</event>
<event>
12    1  0.8984545E-014  0.2666393E+04  0.7818608E-02  0.8345992E-01
          1   -1    0    0  501    0  0.00000000000E+00  0.00000000000E+00  0.22719743105E+04  0.22719743105E+04  0.00000000000E+00 0. -1.
         -1   -1    0    0    0  501 -0.00000000000E+00 -0.00000000000E+00 -0.78232067822E+03  0.78232067822E+03  0.00000000000E+00 0.  1.
    9900016    2    1    2    0    0 -0.30072439693E+03  0.12354554048E+03  0.15306125966E+04  0.27266117572E+04  0.22329214250E+04 0.  0.
         23    2    3    3    0    0  0.68188078308E+03  0.95042391990E+02  0.28487460426E+03  0.74796384299E+03  0.65588959911E+02 0.  0.
         24    2    3    3    0    0 -0.13807922486E+03 -0.33598746985E+03  0.78586499412E+03  0.86933926722E+03  0.78825886126E+02 0.  0.
        -15    1    4    4    0    0  0.22040219945E+02 -0.26908755025E+01 -0.10457429753E+01  0.22228488130E+02  0.00000000000E+00 0. -1.
        -15    1    5    5    0    0 -0.73588654801E+02 -0.15005798124E+03  0.45041969793E+03  0.48042750975E+03  0.00000000000E+00 0.  1.
         15    1    4    4    0    0  0.65984056313E+03  0.97733267492E+02  0.28592034723E+03  0.72573535486E+03  0.00000000000E+00 0.  1.
         15    1    3    3    0    0 -0.84418881554E+03  0.35782924597E+03  0.40237036322E+03  0.10012983745E+04  0.00000000000E+00 0. -1.
        -16    1    1    2    0    0  0.30072439693E+03 -0.12354554048E+03 -0.40958964248E+02  0.32768323154E+03  0.00000000000E+00 0.  1.
         16    1    5    5    0    0 -0.64490570058E+02 -0.18592948860E+03  0.33544529619E+03  0.38891175747E+03  0.00000000000E+00 0. -1.
    9900018    1    3    3    0    0 -0.33713960421E+00  0.66613723747E+01  0.57502634960E+02  0.10801027250E+03  0.91187600000E+02 0.  0.
<mgrwt>
<rscale>  0 0.26663927E+04</rscale>
<asrwt>0</asrwt>
<pdfrwt beam="1">  1        1 0.34953451E+00 0.26663927E+04</pdfrwt>
<pdfrwt beam="2">  1       -1 0.12035703E+00 0.26663927E+04</pdfrwt>
<totfact> 0.10465826E+00</totfact>
</mgrwt>
</event>
<event>
11    1  0.1065106E-013  0.3370709E+04  0.7818608E-02  0.8145133E-01
          3   -1    0    0  501    0  0.00000000000E+00  0.00000000000E+00  0.84707063124E+03  0.84707063124E+03  0.00000000000E+00 0. -1.
         -3   -1    0    0    0  501 -0.00000000000E+00 -0.00000000000E+00 -0.33532257829E+04  0.33532257829E+04  0.00000000000E+00 0.  1.
    9900016    2    1    2    0    0 -0.71507812586E+03 -0.27336483855E+02 -0.22565579548E+04  0.31948507647E+04  0.21454448480E+04 0.  0.
        -24    2    3    3    0    0 -0.42578883837E+01 -0.44246133088E+03 -0.35223609259E+02  0.45057065536E+03  0.77350202841E+02 0.  0.
        -15    1    3    3    0    0  0.53129857998E+02  0.10308427360E+03 -0.26396450376E+02  0.11893662963E+03  0.00000000000E+00 0.  1.
        -15    1    3    3    0    0 -0.84444808629E+03  0.24255537664E+03 -0.23083350958E+04  0.24698859479E+04  0.00000000000E+00 0.  1.
         15    1    3    3    0    0  0.80497990815E+02  0.69485196792E+02  0.11339720059E+03  0.15545753182E+03  0.00000000000E+00 0. -1.
         15    1    4    4    0    0  0.24138428925E+02 -0.14771378647E+03 -0.38093010569E+02  0.15444450110E+03  0.00000000000E+00 0. -1.
        -16    1    4    4    0    0 -0.28396317309E+02 -0.29474754441E+03  0.28694013101E+01  0.29612615426E+03  0.00000000000E+00 0.  1.
         16    1    1    2    0    0  0.80561881369E+03  0.82327030683E+02 -0.12737386858E+03  0.81977040405E+03  0.00000000000E+00 0. -1.
    9900018    1    1    2    0    0 -0.90540687839E+02 -0.54990546829E+02 -0.12222332829E+03  0.18567524543E+03  0.91187600000E+02 0.  0.
<mgrwt>
<rscale>  0 0.33707086E+04</rscale>
<asrwt>0</asrwt>
<pdfrwt beam="1">  1        3 0.13031856E+00 0.33707086E+04</pdfrwt>
<pdfrwt beam="2">  1       -3 0.51588089E+00 0.33707086E+04</pdfrwt>
<totfact> 0.24872667E-03</totfact>
</mgrwt>
</event>
<event>
11    1  0.8984545E-014  0.2844288E+04  0.7818608E-02  0.8289649E-01
          2   -1    0    0  501    0  0.00000000000E+00  0.00000000000E+00  0.14372664220E+04  0.14372664220E+04  0.00000000000E+00 0. -1.
         -2   -1    0    0    0  501 -0.00000000000E+00 -0.00000000000E+00 -0.14071802239E+04  0.14071802239E+04  0.00000000000E+00 0.  1.
    9900016    2    1    2    0    0  0.49155318862E+03 -0.48902015241E+02  0.16939604934E+03  0.22144640795E+04  0.21520084093E+04 0.  0.
         24    2    3    3    0    0  0.84307803403E+03 -0.63152005759E+03 -0.42926338731E+02  0.10572587546E+04  0.79719816064E+02 0.  0.
        -15    1    3    3    0    0 -0.23066881833E+03 -0.63936937085E+02 -0.18778295275E+03  0.30423424037E+03  0.00000000000E+00 0.  1.
        -15    1    4    4    0    0  0.35377424103E+03 -0.25041158055E+03  0.19806667476E+02  0.43388302268E+03  0.00000000000E+00 0.  1.
         15    1    3    3    0    0 -0.11303315905E+03  0.69141726934E+03  0.40135302827E+03  0.80741475630E+03  0.00000000000E+00 0. -1.
         15    1    3    3    0    0 -0.78228680359E+01 -0.44862289897E+02 -0.12476874500E+01  0.45556328244E+02  0.00000000000E+00 0. -1.
        -16    1    1    2    0    0 -0.48214766550E+03  0.59274301128E+02 -0.19360310789E+03  0.52293592103E+03  0.00000000000E+00 0.  1.
         16    1    4    4    0    0  0.48930379299E+03 -0.38110847704E+03 -0.62733006207E+02  0.62337573194E+03  0.00000000000E+00 0. -1.
    9900018    1    1    2    0    0 -0.94055231189E+01 -0.10372285887E+02  0.54293256656E+02  0.10704664540E+03  0.91187600000E+02 0.  0.
<mgrwt>
<rscale>  0 0.28442875E+04</rscale>
<asrwt>0</asrwt>
<pdfrwt beam="1">  1        2 0.22111791E+00 0.28442875E+04</pdfrwt>
<pdfrwt beam="2">  1       -2 0.21648927E+00 0.28442875E+04</pdfrwt>
<totfact> 0.12430189E+00</totfact>
</mgrwt>
</event>
<event>
11    1  0.8984545E-014  0.3325026E+04  0.7818608E-02  0.8156556E-01
          1   -1    0    0  501    0  0.00000000000E+00  0.00000000000E+00  0.12160633006E+04  0.12160633006E+04  0.00000000000E+00 0. -1.
         -1   -1    0    0    0  501 -0.00000000000E+00 -0.00000000000E+00 -0.22728670624E+04  0.22728670624E+04  0.00000000000E+00 0.  1.
    9900016    2    1    2    0    0  0.39260177301E+03 -0.76129138134E+03 -0.92785542597E+03  0.24866439536E+04  0.21421441924E+04 0.  0.
         24    2    3    3    0    0  0.39940173476E+02 -0.38658084082E+03  0.34021786223E+03  0.52266539359E+03  0.79943454606E+02 0.  0.
        -15    1    3    3    0    0  0.45485515352E+02 -0.51575158123E+02 -0.28741776322E+02  0.74531998151E+02  0.00000000000E+00 0. -1.
        -15    1    4    4    0    0  0.11481366274E+02 -0.56719362703E+02  0.92717412074E+02  0.10929513429E+03  0.00000000000E+00 0.  1.
         15    1    3    3    0    0 -0.37344859921E+03 -0.20203861435E+03 -0.11069270658E+04  0.11855677909E+04  0.00000000000E+00 0. -1.
         15    1    3    3    0    0  0.68062468339E+03 -0.12109676805E+03 -0.13240444610E+03  0.70387877097E+03  0.00000000000E+00 0.  1.
        -16    1    1    2    0    0 -0.36149232305E+03  0.80626586836E+03 -0.14279772722E+03  0.89506007676E+03  0.00000000000E+00 0.  1.
         16    1    4    4    0    0  0.28458807202E+02 -0.32986147812E+03  0.24750045015E+03  0.41337025931E+03  0.00000000000E+00 0. -1.
    9900018    1    1    2    0    0 -0.31109449957E+02 -0.44974487019E+02  0.13849391358E+02  0.10722633256E+03  0.91187600000E+02 0.  0.
<mgrwt>
<rscale>  0 0.33250264E+04</rscale>
<asrwt>0</asrwt>
<pdfrwt beam="1">  1        1 0.18708666E+00 0.33250264E+04</pdfrwt>
<pdfrwt beam="2">  1       -1 0.34967185E+00 0.33250264E+04</pdfrwt>
<totfact> 0.13440132E-01</totfact>
</mgrwt>
</event>
<event>
12    1  0.8984545E-014  0.3042098E+04  0.7818608E-02  0.8231811E-01
          1   -1    0    0  501    0  0.00000000000E+00  0.00000000000E+00  0.20178990487E+04  0.20178990487E+04  0.00000000000E+00 0. -1.
         -1   -1    0    0    0  501 -0.00000000000E+00 -0.00000000000E+00 -0.11465341723E+04  0.11465341723E+04  0.00000000000E+00 0.  1.
    9900016    2    1    2    0    0 -0.56057921634E+03 -0.36792860097E+03  0.52094042399E+03  0.24078502381E+04  0.22531629614E+04 0.  0.
         23    2    3    3    0    0  0.36341000177E+03 -0.15900153160E+03  0.87295983479E+03  0.96167795922E+03  0.73602361702E+02 0.  0.
        -24    2    3    3    0    0  0.43147496604E+02 -0.26297958223E+03 -0.22911594644E+03  0.36021131412E+03  0.78981686338E+02 0.  0.
        -15    1    4    4    0    0  0.11371115244E+03 -0.16304327580E+02  0.28019586455E+03  0.30282962173E+03  0.00000000000E+00 0. -1.
        -15    1    3    3    0    0 -0.98472293870E+03  0.47051398464E+02 -0.11330399221E+03  0.99233607954E+03  0.00000000000E+00 0.  1.
         15    1    4    4    0    0  0.24969884934E+03 -0.14269720402E+03  0.59276397024E+03  0.65884833749E+03  0.00000000000E+00 0.  1.
         15    1    5    5    0    0  0.31464352446E+02 -0.20548745301E+03 -0.13045509526E+03  0.24542540761E+03  0.00000000000E+00 0. -1.
        -16    1    5    5    0    0  0.11683144157E+02 -0.57492129217E+02 -0.98660851175E+02  0.11478590651E+03  0.00000000000E+00 0.  1.
         16    1    1    2    0    0  0.56057921634E+03  0.36792860097E+03  0.35042445240E+03  0.75658298292E+03  0.00000000000E+00 0. -1.
    9900018    1    3    3    0    0  0.17586223981E+02  0.70011143946E+01 -0.95994721514E+01  0.93624885239E+02  0.91187600000E+02 0.  0.
<mgrwt>
<rscale>  0 0.30420981E+04</rscale>
<asrwt>0</asrwt>
<pdfrwt beam="1">  1        1 0.31044601E+00 0.30420981E+04</pdfrwt>
<pdfrwt beam="2">  1       -1 0.17638987E+00 0.30420981E+04</pdfrwt>
<totfact> 0.54302892E-01</totfact>
</mgrwt>
</event>
<event>
11    1  0.8984545E-014  0.2856282E+04  0.7818608E-02  0.8286005E-01
          1   -1    0    0  501    0  0.00000000000E+00  0.00000000000E+00  0.23491508131E+04  0.23491508131E+04  0.00000000000E+00 0. -1.
         -1   -1    0    0    0  501 -0.00000000000E+00 -0.00000000000E+00 -0.86822315193E+03  0.86822315193E+03  0.00000000000E+00 0.  1.
    9900016    2    1    2    0    0 -0.35709138395E+03  0.28135730425E+03  0.15408264382E+04  0.27588283810E+04  0.22428356458E+04 0.  0.
         24    2    3    3    0    0 -0.20563193573E+03  0.22465774991E+02  0.67321494063E+03  0.70895533084E+03  0.81302526463E+02 0.  0.
        -15    1    3    3    0    0  0.70053752949E+02 -0.25830827190E+01 -0.57138186881E+02  0.90437674774E+02  0.00000000000E+00 0.  1.
        -15    1    4    4    0    0 -0.19314654407E+03  0.18565824248E+02  0.51732125353E+03  0.55251385202E+03  0.00000000000E+00 0.  1.
         15    1    3    3    0    0 -0.77387082543E+03  0.36759725089E+03  0.97745834492E+03  0.12997802158E+04  0.00000000000E+00 0. -1.
         15    1    3    3    0    0  0.55132099069E+03 -0.11186007642E+03 -0.69234879120E+02  0.56679888846E+03  0.00000000000E+00 0. -1.
        -16    1    1    2    0    0  0.35709138395E+03 -0.28135730425E+03 -0.59898777002E+02  0.45854558403E+03  0.00000000000E+00 0.  1.
         16    1    4    4    0    0 -0.12485391660E+02  0.38999507434E+01  0.15589368709E+03  0.15644147882E+03  0.00000000000E+00 0. -1.
    9900018    1    3    3    0    0  0.10366335792E+01  0.57374375078E+01  0.16526218651E+02  0.92856271167E+02  0.91187600000E+02 0.  0.
<mgrwt>
<rscale>  0 0.28562823E+04</rscale>
<asrwt>0</asrwt>
<pdfrwt beam="1">  1        1 0.36140782E+00 0.28562823E+04</pdfrwt>
<pdfrwt beam="2">  1       -1 0.13357279E+00 0.28562823E+04</pdfrwt>
<totfact> 0.70208141E-01</totfact>
</mgrwt>
</event>
<event>
12    1  0.8984545E-014  0.2505172E+04  0.7818608E-02  0.8401145E-01
         -1   -1    0    0    0  501 -0.00000000000E+00  0.00000000000E+00  0.34614863617E+03  0.34614863617E+03  0.00000000000E+00 0.  1.
          1   -1    0    0  501    0  0.00000000000E+00 -0.00000000000E+00 -0.45326543978E+04  0.45326543978E+04  0.00000000000E+00 0. -1.
    9900016    2    1    2    0    0  0.52340303337E+02  0.11545158135E+03 -0.41784434375E+04  0.47517850192E+04  0.22592040044E+04 0.  0.
         23    2    3    3    0    0  0.29777290891E+03  0.26595299199E+03 -0.20578469811E+03  0.46548643695E+03  0.12219075980E+03 0.  0.
         24    2    3    3    0    0  0.49537470741E+03 -0.36733624349E+03 -0.26074831401E+04  0.26806489660E+04  0.81108177334E+02 0.  0.
        -15    1    5    5    0    0  0.20799902678E+03 -0.11321892687E+03 -0.90378044662E+03  0.93429182605E+03  0.00000000000E+00 0.  1.
        -15    1    4    4    0    0  0.19678719411E+03  0.21203377446E+03 -0.90716295689E+02  0.30317151512E+03  0.00000000000E+00 0.  1.
         15    1    3    3    0    0 -0.68260175562E+03  0.23628534550E+03 -0.10730237390E+04  0.12935052631E+04  0.00000000000E+00 0. -1.
         15    1    4    4    0    0  0.10098571479E+03  0.53919217534E+02 -0.11506840243E+03  0.16231492183E+03  0.00000000000E+00 0. -1.
        -16    1    1    2    0    0 -0.52340303337E+02 -0.11545158135E+03 -0.80623241024E+01  0.12701801471E+03  0.00000000000E+00 0.  1.
         16    1    5    5    0    0  0.28737568063E+03 -0.25411731662E+03 -0.17037026935E+04  0.17463571399E+04  0.00000000000E+00 0. -1.
    9900018    1    3    3    0    0 -0.58205557364E+02 -0.19450512649E+02 -0.29215186032E+03  0.31214435320E+03  0.91187600000E+02 0.  0.
<mgrwt>
<rscale>  0 0.25051724E+04</rscale>
<asrwt>0</asrwt>
<pdfrwt beam="1">  1        1 0.69733153E+00 0.25051724E+04</pdfrwt>
<pdfrwt beam="2">  1       -1 0.53253630E-01 0.25051724E+04</pdfrwt>
<totfact> 0.94620738E-02</totfact>
</mgrwt>
</event>
<event>
11    1  0.8984545E-014  0.2715112E+04  0.7818608E-02  0.8330118E-01
          2   -1    0    0  501    0  0.00000000000E+00  0.00000000000E+00  0.12979514153E+04  0.12979514153E+04  0.00000000000E+00 0. -1.
         -2   -1    0    0    0  501 -0.00000000000E+00 -0.00000000000E+00 -0.14198973876E+04  0.14198973876E+04  0.00000000000E+00 0.  1.
    9900016    2    1    2    0    0 -0.89336157065E+02  0.39149220899E+03 -0.24005273014E+03  0.22992842261E+04  0.22511853634E+04 0.  0.
        -24    2    3    3    0    0 -0.74073212468E+02 -0.34846009417E+03  0.60112450070E+03  0.70337364343E+03  0.80452090704E+02 0.  0.
        -15    1    3    3    0    0 -0.15768343237E+03  0.24004471813E+01  0.68479159557E+02  0.17192795667E+03  0.00000000000E+00 0.  1.
        -15    1    3    3    0    0  0.18054322690E+03  0.67185274893E+03 -0.98864348878E+03  0.12088829228E+04  0.00000000000E+00 0.  1.
         15    1    3    3    0    0 -0.28612184964E+02  0.91487263338E+02  0.71461094641E+02  0.11956280579E+03  0.00000000000E+00 0. -1.
         15    1    4    4    0    0 -0.86784895411E+02 -0.22618521138E+03  0.40229266717E+03  0.46960702505E+03  0.00000000000E+00 0. -1.
        -16    1    4    4    0    0  0.12711682942E+02 -0.12227488278E+03  0.19883183353E+03  0.23376661838E+03  0.00000000000E+00 0.  1.
         16    1    1    2    0    0  0.89336157065E+02 -0.39149220899E+03  0.11810675784E+03  0.41856457675E+03  0.00000000000E+00 0. -1.
    9900018    1    3    3    0    0 -0.95105541564E+01 -0.25788156288E+02  0.75260037434E+01  0.95536897433E+02  0.91187600000E+02 0.  0.
<mgrwt>
<rscale>  0 0.27151117E+04</rscale>
<asrwt>0</asrwt>
<pdfrwt beam="1">  1        2 0.19968483E+00 0.27151117E+04</pdfrwt>
<pdfrwt beam="2">  1       -2 0.21844575E+00 0.27151117E+04</pdfrwt>
<totfact> 0.14686059E+00</totfact>
</mgrwt>
</event>
<event>
12    1  0.8984545E-014  0.2366716E+04  0.7818608E-02  0.8452071E-01
         -1   -1    0    0    0  501 -0.00000000000E+00  0.00000000000E+00  0.60552659128E+03  0.60552659128E+03  0.00000000000E+00 0.  1.
          1   -1    0    0  501    0  0.00000000000E+00 -0.00000000000E+00 -0.23125913824E+04  0.23125913824E+04  0.00000000000E+00 0. -1.
    9900016    2    1    2    0    0  0.83934725467E+02 -0.68854653761E+02 -0.16417989374E+04  0.27914466148E+04  0.22549688360E+04 0.  0.
         23    2    3    3    0    0 -0.45160801931E+03  0.22207663052E+03 -0.18117778870E+04  0.18836817702E+04  0.11157986662E+03 0.  0.
        -24    2    3    3    0    0  0.84591993113E+02  0.15375448014E+02 -0.93925780128E+02  0.14572798630E+03  0.70868780974E+02 0.  0.
        -15    1    3    3    0    0  0.45269742876E+03 -0.23941195835E+03  0.34966298655E+03  0.62009455083E+03  0.00000000000E+00 0.  1.
        -15    1    4    4    0    0 -0.17078662310E+03  0.10278149622E+03 -0.53422462886E+03  0.57020001813E+03  0.00000000000E+00 0. -1.
         15    1    4    4    0    0 -0.28082139621E+03  0.11929513430E+03 -0.12775532581E+04  0.13134817520E+04  0.00000000000E+00 0.  1.
         15    1    5    5    0    0  0.94024555426E+02  0.22668414464E+02 -0.71320746762E+02  0.12017122349E+03  0.00000000000E+00 0. -1.
        -16    1    5    5    0    0 -0.94325623133E+01 -0.72929664493E+01 -0.22605033366E+02  0.25556762802E+02  0.00000000000E+00 0.  1.
         16    1    1    2    0    0 -0.83934725467E+02  0.68854653761E+02 -0.65265853716E+02  0.12667135882E+03  0.00000000000E+00 0. -1.
    9900018    1    3    3    0    0 -0.17466770961E+01 -0.66894773951E+02 -0.85758256857E+02  0.14194230756E+03  0.91187600000E+02 0.  0.
<mgrwt>
<rscale>  0 0.23667155E+04</rscale>
<asrwt>0</asrwt>
<pdfrwt beam="1">  1        1 0.35578329E+00 0.23667155E+04</pdfrwt>
<pdfrwt beam="2">  1       -1 0.93157938E-01 0.23667155E+04</pdfrwt>
<totfact> 0.18340834E+00</totfact>
</mgrwt>
</event>
<event>
11    1  0.8984545E-014  0.2609823E+04  0.7818608E-02  0.8364872E-01
         -2   -1    0    0    0  501 -0.00000000000E+00  0.00000000000E+00  0.12374880822E+04  0.12374880822E+04  0.00000000000E+00 0.  1.
          2   -1    0    0  501    0  0.00000000000E+00 -0.00000000000E+00 -0.13760079978E+04  0.13760079978E+04  0.00000000000E+00 0. -1.
    9900016    2    1    2    0    0  0.10947534051E+03  0.25375433617E+03 -0.49056644903E+02  0.21688956521E+04  0.21506570350E+04 0.  0.
        -24    2    3    3    0    0 -0.15420490825E+03 -0.23275075158E+02  0.78799395350E+03  0.80703414127E+03  0.77773720350E+02 0.  0.
        -15    1    3    3    0    0  0.45059691351E+03 -0.10676948672E+03 -0.26180814073E+03  0.53195940100E+03  0.00000000000E+00 0.  1.
        -15    1    3    3    0    0 -0.27910677374E+03  0.40699187068E+03 -0.42080542409E+03  0.64855237174E+03  0.00000000000E+00 0.  1.
         15    1    4    4    0    0 -0.13068633477E+03 -0.48816221076E+02  0.63799603197E+03  0.65307034717E+03  0.00000000000E+00 0. -1.
         15    1    3    3    0    0  0.92190108988E+02 -0.23192972621E+02 -0.15443703358E+03  0.18134973812E+03  0.00000000000E+00 0. -1.
        -16    1    4    4    0    0 -0.23518573478E+02  0.25541145917E+02  0.14999792152E+03  0.15396379410E+03  0.00000000000E+00 0.  1.
         16    1    1    2    0    0 -0.15521893364E+03 -0.26169105154E+03 -0.13467036509E+03  0.33273297259E+03  0.00000000000E+00 0. -1.
    9900018    1    1    2    0    0  0.45743593127E+02  0.79367153687E+01  0.45207094377E+02  0.11186745523E+03  0.91187600000E+02 0.  0.
<mgrwt>
<rscale>  0 0.26098226E+04</rscale>
<asrwt>0</asrwt>
<pdfrwt beam="1">  1        2 0.21169354E+00 0.26098226E+04</pdfrwt>
<pdfrwt beam="2">  1       -2 0.19038278E+00 0.26098226E+04</pdfrwt>
<totfact> 0.20344260E+00</totfact>
</mgrwt>
</event>
<event>
12    1  0.8984545E-014  0.2938144E+04  0.7818608E-02  0.8261618E-01
         -2   -1    0    0    0  501 -0.00000000000E+00  0.00000000000E+00  0.72467092815E+03  0.72467092815E+03  0.00000000000E+00 0. -1.
          2   -1    0    0  501    0  0.00000000000E+00 -0.00000000000E+00 -0.29781423954E+04  0.29781423954E+04  0.00000000000E+00 0.  1.
    9900016    2    1    2    0    0  0.38450613065E+03  0.46369498711E+03 -0.18819712189E+04  0.29950913159E+04  0.22507550547E+04 0.  0.
         23    2    3    3    0    0  0.22224716604E+03 -0.31440239462E+03 -0.50136312679E+03  0.64206173353E+03  0.11240825679E+03 0.  0.
         24    2    3    3    0    0 -0.31336112623E+03  0.20287377858E+03  0.27406913914E+03  0.47056876974E+03  0.83475197257E+02 0.  0.
        -15    1    4    4    0    0 -0.20363096443E+01 -0.47259432075E+02 -0.97853055182E+02  0.10868680180E+03  0.00000000000E+00 0.  1.
        -15    1    5    5    0    0 -0.33425368509E+02 -0.48509294447E+01  0.20486517742E+02  0.39502964264E+02  0.00000000000E+00 0.  1.
         15    1    4    4    0    0  0.22428347568E+03 -0.26714296255E+03 -0.40351007161E+03  0.53337493173E+03  0.00000000000E+00 0. -1.
         15    1    3    3    0    0  0.42506153840E+03  0.59779328278E+03 -0.16052277855E+04  0.17648768692E+04  0.00000000000E+00 0. -1.
        -16    1    1    2    0    0 -0.38450613065E+03 -0.46369498711E+03 -0.37150024835E+03  0.70772200764E+03  0.00000000000E+00 0.  1.
         16    1    5    5    0    0 -0.27993575772E+03  0.20772470802E+03  0.25358262140E+03  0.43106580547E+03  0.00000000000E+00 0. -1.
    9900018    1    3    3    0    0  0.50558552438E+02 -0.22569679622E+02 -0.49449445798E+02  0.11758394340E+03  0.91187600000E+02 0.  0.
<mgrwt>
<rscale>  0 0.29381445E+04</rscale>
<asrwt>0</asrwt>
<pdfrwt beam="1">  1        2 0.45817575E+00 0.29381445E+04</pdfrwt>
<pdfrwt beam="2">  1       -2 0.11148783E+00 0.29381445E+04</pdfrwt>
<totfact> 0.98262222E-01</totfact>
</mgrwt>
</event>
<event>
12    1  0.8984545E-014  0.2660662E+04  0.7818608E-02  0.8347883E-01
         -2   -1    0    0    0  501 -0.00000000000E+00  0.00000000000E+00  0.11725028780E+04  0.11725028780E+04  0.00000000000E+00 0.  1.
          2   -1    0    0  501    0  0.00000000000E+00 -0.00000000000E+00 -0.15094034830E+04  0.15094034830E+04  0.00000000000E+00 0. -1.
    9900016    2    1    2    0    0  0.17603576974E+03 -0.84570853476E+02 -0.51698798091E+03  0.22209635806E+04  0.21511071178E+04 0.  0.
         23    2    3    3    0    0  0.99625163833E+02  0.93014867459E+02  0.73557762424E+02  0.18776213472E+03  0.10614582414E+03 0.  0.
         24    2    3    3    0    0  0.11257931414E+03  0.33474948991E+03  0.61975537170E+03  0.71842985626E+03  0.85518504670E+02 0.  0.
        -15    1    4    4    0    0 -0.12452244754E+02  0.21663562689E+02 -0.14001445707E+02  0.28642779713E+02  0.00000000000E+00 0.  1.
        -15    1    5    5    0    0  0.73192016978E+02  0.29833954650E+03  0.55503557123E+03  0.63437216339E+03  0.00000000000E+00 0.  1.
         15    1    3    3    0    0 -0.36168708228E+02 -0.51233521085E+03 -0.12103011150E+04  0.13147715896E+04  0.00000000000E+00 0. -1.
         15    1    4    4    0    0  0.11207740859E+03  0.71351304770E+02  0.87559208131E+02  0.15911935500E+03  0.00000000000E+00 0. -1.
        -16    1    1    2    0    0 -0.21660386374E+03  0.13000846378E+03  0.22890550869E+03  0.34090638942E+03  0.00000000000E+00 0.  1.
         16    1    5    5    0    0  0.39387297161E+02  0.36409943413E+02  0.64719800471E+02  0.84057692866E+02  0.00000000000E+00 0. -1.
    9900018    1    1    2    0    0  0.40568093993E+02 -0.45437610308E+02 -0.48818132774E+02  0.12003639099E+03  0.91187600000E+02 0.  0.
<mgrwt>
<rscale>  0 0.26606615E+04</rscale>
<asrwt>0</asrwt>
<pdfrwt beam="1">  1        2 0.23221592E+00 0.26606615E+04</pdfrwt>
<pdfrwt beam="2">  1       -2 0.18038506E+00 0.26606615E+04</pdfrwt>
<totfact> 0.19892828E+00</totfact>
</mgrwt>
</event>
<event>
12    1  0.8984545E-014  0.2555711E+04  0.7818608E-02  0.8383403E-01
         -2   -1    0    0    0  501 -0.00000000000E+00  0.00000000000E+00  0.57684294413E+03  0.57684294413E+03  0.00000000000E+00 0.  1.
          2   -1    0    0  501    0  0.00000000000E+00 -0.00000000000E+00 -0.28307777081E+04  0.28307777081E+04  0.00000000000E+00 0. -1.
    9900016    2    1    2    0    0  0.78643981436E+02  0.96847668278E+02 -0.23462157116E+04  0.32524429477E+04  0.22490203682E+04 0.  0.
         23    2    3    3    0    0 -0.11751438606E+03 -0.47619191150E+03 -0.18355462434E+04  0.19028356988E+04  0.10481086562E+03 0.  0.
         24    2    3    3    0    0  0.12531793181E+03  0.82226588603E+03 -0.23549404123E+03  0.86802716826E+03  0.78663524013E+02 0.  0.
        -15    1    4    4    0    0 -0.54309267298E+01 -0.11807559000E+03 -0.60128363779E+03  0.61279144331E+03  0.00000000000E+00 0. -1.
        -15    1    5    5    0    0  0.57055958621E+02  0.31001177386E+03 -0.12781331110E+03  0.34014544660E+03  0.00000000000E+00 0.  1.
         15    1    4    4    0    0 -0.11208345933E+03 -0.35811632150E+03 -0.12342626056E+04  0.12900442555E+04  0.00000000000E+00 0.  1.
         15    1    3    3    0    0  0.36444552072E+02 -0.28629160523E+03 -0.17819794916E+03  0.33918372261E+03  0.00000000000E+00 0. -1.
        -16    1    1    2    0    0 -0.78643981436E+02 -0.96847668278E+02  0.92280947630E+02  0.15517770446E+03  0.00000000000E+00 0.  1.
         16    1    5    5    0    0  0.68261973186E+02  0.51225411217E+03 -0.10768073013E+03  0.52788172165E+03  0.00000000000E+00 0. -1.
    9900018    1    3    3    0    0  0.34395883617E+02  0.37065298976E+02 -0.96977477802E+02  0.14239635807E+03  0.91187600000E+02 0.  0.
<mgrwt>
<rscale>  0 0.25557106E+04</rscale>
<asrwt>0</asrwt>
<pdfrwt beam="1">  1        2 0.43550427E+00 0.25557106E+04</pdfrwt>
<pdfrwt beam="2">  1       -2 0.88745067E-01 0.25557106E+04</pdfrwt>
<totfact> 0.21463460E+00</totfact>
</mgrwt>
</event>
<event>
11    1  0.8984545E-014  0.3265736E+04  0.7818608E-02  0.8171669E-01
          2   -1    0    0  501    0  0.00000000000E+00  0.00000000000E+00  0.11861787393E+04  0.11861787393E+04  0.00000000000E+00 0.  1.
         -2   -1    0    0    0  501 -0.00000000000E+00 -0.00000000000E+00 -0.22477702114E+04  0.22477702114E+04  0.00000000000E+00 0. -1.
    9900016    2    1    2    0    0  0.68427296357E+03 -0.33245543183E+03 -0.11398275638E+04  0.25551797306E+04  0.21566131962E+04 0.  0.
         24    2    3    3    0    0  0.25805231023E+03  0.11407537919E+03 -0.10599187769E+04  0.10997117631E+04  0.79586188391E+02 0.  0.
        -15    1    3    3    0    0 -0.17846921453E+03 -0.39051743123E+03  0.68206193879E+02  0.43474959403E+03  0.00000000000E+00 0.  1.
        -15    1    4    4    0    0  0.14701712540E+03  0.32090820347E+02 -0.64958524214E+03  0.66678695452E+03  0.00000000000E+00 0.  1.
         15    1    3    3    0    0  0.60777524819E+03  0.24768100515E+03 -0.24710567681E+03  0.70128300146E+03  0.00000000000E+00 0. -1.
         15    1    3    3    0    0 -0.30853803212E+01 -0.30369438495E+03  0.98990696002E+02  0.31943537205E+03  0.00000000000E+00 0. -1.
        -16    1    1    2    0    0 -0.67336889256E+03  0.33131160335E+03  0.14612732782E+03  0.76455623725E+03  0.00000000000E+00 0.  1.
         16    1    4    4    0    0  0.11103518483E+03  0.81984558842E+02 -0.41033353473E+03  0.43292480858E+03  0.00000000000E+00 0. -1.
    9900018    1    1    2    0    0 -0.10904071014E+02  0.11438284870E+01 -0.67891236097E+02  0.11421298280E+03  0.91187600000E+02 0.  0.
<mgrwt>
<rscale>  0 0.32657356E+04</rscale>
<asrwt>0</asrwt>
<pdfrwt beam="1">  1        2 0.18248904E+00 0.32657356E+04</pdfrwt>
<pdfrwt beam="2">  1       -2 0.34581080E+00 0.32657356E+04</pdfrwt>
<totfact> 0.26721930E-01</totfact>
</mgrwt>
</event>
<event>
12    1  0.8984545E-014  0.2635674E+04  0.7818608E-02  0.8356184E-01
          1   -1    0    0  501    0  0.00000000000E+00  0.00000000000E+00  0.26544204525E+04  0.26544204525E+04  0.00000000000E+00 0. -1.
         -1   -1    0    0    0  501 -0.00000000000E+00 -0.00000000000E+00 -0.65426476305E+03  0.65426476305E+03  0.00000000000E+00 0.  1.
    9900016    2    1    2    0    0  0.20178911623E+03  0.91535088166E+02  0.20033040756E+04  0.29499909003E+04  0.21540941421E+04 0.  0.
         23    2    3    3    0    0  0.18236919181E+03 -0.11988199098E+03 -0.24848275514E+03  0.33812673065E+03  0.70397389864E+02 0.  0.
         24    2    3    3    0    0 -0.39209514909E+03 -0.37991305105E+03  0.13431325567E+04  0.14522657184E+04  0.83654763733E+02 0.  0.
        -15    1    5    5    0    0 -0.35637767901E+03 -0.30476047614E+03  0.11261838327E+04  0.12199073829E+04  0.00000000000E+00 0.  1.
        -15    1    4    4    0    0  0.17250250923E+03 -0.11406235601E+03 -0.19780884087E+03  0.28617420267E+03  0.00000000000E+00 0.  1.
         15    1    4    4    0    0  0.98666825752E+01 -0.58196349718E+01 -0.50673914269E+02  0.51952527980E+02  0.00000000000E+00 0. -1.
         15    1    3    3    0    0  0.41151507352E+03  0.59133013019E+03  0.90865427402E+03  0.11595984513E+04  0.00000000000E+00 0. -1.
        -16    1    1    2    0    0 -0.18566393565E+03 -0.75100619725E+02 -0.99859966669E+02  0.22379279038E+03  0.00000000000E+00 0.  1.
         16    1    5    5    0    0 -0.35717470081E+02 -0.75152574905E+02  0.21694872404E+03  0.23235833544E+03  0.00000000000E+00 0. -1.
    9900018    1    1    2    0    0 -0.16125180588E+02 -0.16434468441E+02  0.96711580493E+02  0.13490152481E+03  0.91187600000E+02 0.  0.
<mgrwt>
<rscale>  0 0.26356736E+04</rscale>
<asrwt>0</asrwt>
<pdfrwt beam="1">  1        1 0.40837237E+00 0.26356736E+04</pdfrwt>
<pdfrwt beam="2">  1       -1 0.10065612E+00 0.26356736E+04</pdfrwt>
<totfact> 0.87077535E-01</totfact>
</mgrwt>
</event>
<event>
11    1  0.8984545E-014  0.2583402E+04  0.7818608E-02  0.8373861E-01
         -1   -1    0    0    0  501 -0.00000000000E+00  0.00000000000E+00  0.12895177998E+04  0.12895177998E+04  0.00000000000E+00 0.  1.
          1   -1    0    0  501    0  0.00000000000E+00 -0.00000000000E+00 -0.12938876818E+04  0.12938876818E+04  0.00000000000E+00 0. -1.
    9900016    2    1    2    0    0  0.29993978366E+03  0.79574364157E+02  0.53065736918E+02  0.22678190377E+04  0.22458609178E+04 0.  0.
         24    2    3    3    0    0  0.46324635746E+03 -0.28385606327E+03 -0.46807986931E+03  0.72150306395E+03  0.79350204006E+02 0.  0.
        -15    1    4    4    0    0  0.27240486865E+03 -0.19801986360E+03 -0.25127611139E+03  0.42018562921E+03  0.00000000000E+00 0.  1.
        -15    1    3    3    0    0 -0.21289110089E+03  0.28117089830E+03  0.17895919130E+03  0.39548209447E+03  0.00000000000E+00 0.  1.
         15    1    3    3    0    0  0.40868652776E+03 -0.18368128704E+03 -0.18384016512E+02  0.44844338020E+03  0.00000000000E+00 0. -1.
         15    1    3    3    0    0 -0.36358210766E+03  0.26648703058E+03  0.40025815388E+03  0.60283818411E+03  0.00000000000E+00 0. -1.
        -16    1    1    2    0    0 -0.29993978366E+03 -0.79574364157E+02 -0.57435618867E+02  0.31558644389E+03  0.00000000000E+00 0.  1.
         16    1    4    4    0    0  0.19084148881E+03 -0.85836199676E+02 -0.21680375792E+03  0.30131743473E+03  0.00000000000E+00 0. -1.
    9900018    1    3    3    0    0  0.44801069866E+01 -0.54621441380E+00 -0.39687722448E+02  0.99552314969E+02  0.91187600000E+02 0.  0.
<mgrwt>
<rscale>  0 0.25834018E+04</rscale>
<asrwt>0</asrwt>
<pdfrwt beam="1">  1        1 0.19905964E+00 0.25834018E+04</pdfrwt>
<pdfrwt beam="2">  1       -1 0.19838735E+00 0.25834018E+04</pdfrwt>
<totfact> 0.12445319E+00</totfact>
</mgrwt>
</event>
<event>
12    1  0.8984545E-014  0.2695730E+04  0.7818608E-02  0.8336392E-01
         -2   -1    0    0    0  501 -0.00000000000E+00  0.00000000000E+00  0.12331308872E+04  0.12331308872E+04  0.00000000000E+00 0.  1.
          2   -1    0    0  501    0  0.00000000000E+00 -0.00000000000E+00 -0.14732743667E+04  0.14732743667E+04  0.00000000000E+00 0. -1.
    9900016    2    1    2    0    0  0.30129967929E+03 -0.24514442139E+03 -0.34658003479E+03  0.23036571634E+04  0.22440680297E+04 0.  0.
         23    2    3    3    0    0  0.56402726095E+03  0.21463456537E+03  0.53349130422E+03  0.81383212270E+03  0.11625405153E+03 0.  0.
        -24    2    3    3    0    0  0.25657311261E+03 -0.56087999890E+00  0.20987573824E+00  0.26782426597E+03  0.76809613308E+02 0.  0.
        -15    1    4    4    0    0  0.52131072760E+03  0.22453204678E+03  0.51435555463E+03  0.76599030759E+03  0.00000000000E+00 0.  1.
        -15    1    3    3    0    0 -0.51271784311E+03 -0.45782175525E+03 -0.89593115383E+03  0.11292355727E+04  0.00000000000E+00 0.  1.
         15    1    4    4    0    0  0.42716533357E+02 -0.98974814077E+01  0.19135749592E+02  0.47841815107E+02  0.00000000000E+00 0. -1.
         15    1    5    5    0    0  0.13434602035E+02 -0.16063643573E+02  0.11574818065E+02  0.23927089040E+02  0.00000000000E+00 0. -1.
        -16    1    5    5    0    0  0.24313851057E+03  0.15502763574E+02 -0.11364942326E+02  0.24389717693E+03  0.00000000000E+00 0.  1.
         16    1    1    2    0    0 -0.30129967929E+03  0.24514442139E+03  0.10643655523E+03  0.40274809045E+03  0.00000000000E+00 0. -1.
    9900018    1    3    3    0    0 -0.65828511626E+01 -0.13963515114E+01  0.15649939072E+02  0.92765202063E+02  0.91187600000E+02 0.  0.
<mgrwt>
<rscale>  0 0.26957301E+04</rscale>
<asrwt>0</asrwt>
<pdfrwt beam="1">  1        2 0.22665759E+00 0.26957301E+04</pdfrwt>
<pdfrwt beam="2">  1       -2 0.18971244E+00 0.26957301E+04</pdfrwt>
<totfact> 0.17961422E+00</totfact>
</mgrwt>
</event>
<event>
12    1  0.8984545E-014  0.3486025E+04  0.7818608E-02  0.8117110E-01
         -2   -1    0    0    0  501 -0.00000000000E+00  0.00000000000E+00  0.17427117664E+04  0.17427117664E+04  0.00000000000E+00 0.  1.
          2   -1    0    0  501    0  0.00000000000E+00 -0.00000000000E+00 -0.17433136477E+04  0.17433136477E+04  0.00000000000E+00 0. -1.
    9900016    2    1    2    0    0 -0.82379917831E+03 -0.19168155840E+03  0.57340297676E+03  0.24638373281E+04  0.22419448030E+04 0.  0.
         23    2    3    3    0    0 -0.40023174388E+03  0.37657407635E+03 -0.22229766020E+03  0.60382247294E+03  0.11485575868E+03 0.  0.
        -24    2    3    3    0    0 -0.24259258028E+03 -0.41847587644E+03  0.12006906857E+04  0.12970691986E+04  0.82201971084E+02 0.  0.
        -15    1    4    4    0    0 -0.18244950663E+03  0.10433025258E+03 -0.55701567935E+02  0.21742881305E+03  0.00000000000E+00 0.  1.
        -15    1    3    3    0    0 -0.15798622337E+03 -0.12209117705E+03 -0.41878562454E+03  0.46394752032E+03  0.00000000000E+00 0.  1.
         15    1    5    5    0    0 -0.74957531691E+02 -0.15721111057E+03  0.53327020941E+03  0.56099115954E+03  0.00000000000E+00 0. -1.
         15    1    4    4    0    0 -0.21778223725E+03  0.27224382377E+03 -0.16659609227E+03  0.38639365989E+03  0.00000000000E+00 0. -1.
        -16    1    5    5    0    0 -0.16763504859E+03 -0.26126476587E+03  0.66742047629E+03  0.73607803905E+03  0.00000000000E+00 0.  1.
         16    1    1    2    0    0  0.82379917831E+03  0.19168155840E+03 -0.57400485813E+03  0.10221880860E+04  0.00000000000E+00 0. -1.
    9900018    1    3    3    0    0 -0.22988630774E+02 -0.27688581249E+02  0.13795575808E+02  0.98998136256E+02  0.91187600000E+02 0.  0.
<mgrwt>
<rscale>  0 0.34860254E+04</rscale>
<asrwt>0</asrwt>
<pdfrwt beam="1">  1        2 0.26820210E+00 0.34860254E+04</pdfrwt>
<pdfrwt beam="2">  1       -2 0.26810950E+00 0.34860254E+04</pdfrwt>
<totfact> 0.37989022E-01</totfact>
</mgrwt>
</event>
<event>
12    1  0.8984545E-014  0.5319141E+04  0.7818608E-02  0.7781078E-01
          2   -1    0    0  501    0  0.00000000000E+00  0.00000000000E+00  0.25968431133E+04  0.25968431133E+04  0.00000000000E+00 0. -1.
         -2   -1    0    0    0  501 -0.00000000000E+00 -0.00000000000E+00 -0.27238131212E+04  0.27238131212E+04  0.00000000000E+00 0.  1.
    9900016    2    1    2    0    0 -0.81650307155E+03 -0.10433132656E+03 -0.20944150377E+04  0.31879578881E+04  0.22580830044E+04 0.  0.
         23    2    3    3    0    0  0.30452205713E+03 -0.43326209203E+03 -0.17488532263E+04  0.18303466808E+04  0.10597943676E+03 0.  0.
        -24    2    3    3    0    0 -0.29273814058E+03  0.24222990749E+02 -0.28794285606E+03  0.41879830942E+03  0.78730955736E+02 0.  0.
        -15    1    3    3    0    0 -0.74852432125E+03  0.26029685090E+03  0.11207735904E+02  0.79257095798E+03  0.00000000000E+00 0.  1.
        -15    1    4    4    0    0 -0.70342637777E+01 -0.20134131199E+02 -0.98304805358E+02  0.10059174351E+03  0.00000000000E+00 0.  1.
         15    1    5    5    0    0 -0.89582353492E+02 -0.52451099866E+01 -0.43902398702E+02  0.99899598837E+02  0.00000000000E+00 0. -1.
         15    1    4    4    0    0  0.31155632090E+03 -0.41312796083E+03 -0.16505484209E+04  0.17297549373E+04  0.00000000000E+00 0. -1.
        -16    1    5    5    0    0 -0.20315578709E+03  0.29468100736E+02 -0.24404045735E+03  0.31889871059E+03  0.00000000000E+00 0.  1.
         16    1    1    2    0    0  0.81650307155E+03  0.10433132656E+03  0.19674450298E+04  0.21326983464E+04  0.00000000000E+00 0. -1.
    9900018    1    3    3    0    0 -0.79762666843E+02  0.44410923819E+02 -0.68826691224E+02  0.14624193993E+03  0.91187600000E+02 0.  0.
<mgrwt>
<rscale>  0 0.53191410E+04</rscale>
<asrwt>0</asrwt>
<pdfrwt beam="1">  1        2 0.39951433E+00 0.53191410E+04</pdfrwt>
<pdfrwt beam="2">  1       -2 0.41904817E+00 0.53191410E+04</pdfrwt>
<totfact> 0.12088836E-02</totfact>
</mgrwt>
</event>
<event>
12    1  0.8984545E-014  0.2589618E+04  0.7818608E-02  0.8371736E-01
          1   -1    0    0  501    0  0.00000000000E+00  0.00000000000E+00  0.23645406720E+04  0.23645406720E+04  0.00000000000E+00 0. -1.
         -1   -1    0    0    0  501 -0.00000000000E+00 -0.00000000000E+00 -0.70903029195E+03  0.70903029195E+03  0.00000000000E+00 0.  1.
    9900016    2    1    2    0    0  0.22952776201E+03 -0.20601963824E+03  0.15251584307E+04  0.27387296350E+04  0.22537534670E+04 0.  0.
         23    2    3    3    0    0  0.16747084304E+03 -0.58813575473E+02 -0.91892339500E+02  0.23650719767E+03  0.12643548775E+03 0.  0.
         24    2    3    3    0    0 -0.36306044959E+03 -0.34232078230E+03 -0.23257396826E+03  0.55678134570E+03  0.83176968932E+02 0.  0.
        -15    1    4    4    0    0  0.11710109431E+03 -0.87327721206E+02 -0.25259910454E+02  0.14824594516E+03  0.00000000000E+00 0.  1.
        -15    1    5    5    0    0 -0.23811721214E+03 -0.16803970412E+03 -0.13401426925E+03  0.32077558081E+03  0.00000000000E+00 0.  1.
         15    1    3    3    0    0  0.40727253066E+03  0.15536224529E+03  0.17502161351E+04  0.18036809199E+04  0.00000000000E+00 0. -1.
         15    1    4    4    0    0  0.50369748727E+02  0.28514145734E+02 -0.66632429046E+02  0.88261252508E+02  0.00000000000E+00 0. -1.
        -16    1    1    2    0    0 -0.22952776201E+03  0.20601963824E+03  0.13035194930E+03  0.33484132893E+03  0.00000000000E+00 0.  1.
         16    1    5    5    0    0 -0.12494323744E+03 -0.17428107818E+03 -0.98559699019E+02  0.23600576490E+03  0.00000000000E+00 0. -1.
    9900018    1    3    3    0    0  0.17844837896E+02  0.39752474242E+02  0.99408603410E+02  0.14176017168E+03  0.91187600000E+02 0.  0.
<mgrwt>
<rscale>  0 0.25896185E+04</rscale>
<asrwt>0</asrwt>
<pdfrwt beam="1">  1        1 0.36377548E+00 0.25896185E+04</pdfrwt>
<pdfrwt beam="2">  1       -1 0.10908158E+00 0.25896185E+04</pdfrwt>
<totfact> 0.11528876E+00</totfact>
</mgrwt>
</event>
<event>
11    1  0.8984545E-014  0.2770113E+04  0.7818608E-02  0.8312608E-01
          1   -1    0    0  501    0  0.00000000000E+00  0.00000000000E+00  0.11543443863E+04  0.11543443863E+04  0.00000000000E+00 0. -1.
         -1   -1    0    0    0  501 -0.00000000000E+00 -0.00000000000E+00 -0.16618797033E+04  0.16618797033E+04  0.00000000000E+00 0.  1.
    9900016    2    1    2    0    0 -0.25025443178E+03  0.22805349969E+03 -0.74652368740E+03  0.24017954219E+04  0.22575845396E+04 0.  0.
        -24    2    3    3    0    0 -0.26083997771E+03 -0.21469045172E+03  0.10023175107E+03  0.36122624138E+03  0.79426126076E+02 0.  0.
        -15    1    3    3    0    0  0.62306387823E+03  0.79668264466E+03 -0.46978438863E+03  0.11151722757E+04  0.00000000000E+00 0.  1.
        -15    1    3    3    0    0 -0.71389253692E+02 -0.93236347434E+01 -0.55168484573E+02  0.90702356076E+02  0.00000000000E+00 0.  1.
         15    1    4    4    0    0  0.27820944004E+00 -0.20353907805E+02  0.13311514314E+02  0.24321911454E+02  0.00000000000E+00 0. -1.
         15    1    3    3    0    0 -0.55081554257E+03 -0.36193937766E+03 -0.21592661419E+03  0.69355762396E+03  0.00000000000E+00 0. -1.
        -16    1    4    4    0    0 -0.26111818716E+03 -0.19433654391E+03  0.86920236754E+02  0.33690432992E+03  0.00000000000E+00 0.  1.
         16    1    1    2    0    0  0.25025443178E+03 -0.22805349969E+03  0.23898837041E+03  0.41442866761E+03  0.00000000000E+00 0. -1.
    9900018    1    3    3    0    0  0.97264639695E+01  0.17324319154E+02 -0.10587595108E+03  0.14113692481E+03  0.91187600000E+02 0.  0.
<mgrwt>
<rscale>  0 0.27701130E+04</rscale>
<asrwt>0</asrwt>
<pdfrwt beam="1">  1        1 0.17759145E+00 0.27701130E+04</pdfrwt>
<pdfrwt beam="2">  1       -1 0.25567380E+00 0.27701130E+04</pdfrwt>
<totfact> 0.64155395E-01</totfact>
</mgrwt>
</event>
