<event>
11    1  0.5696516E-011  0.1424747E+04  0.7818608E-02  0.9236428E-01
         -1   -1    0    0    0  501 -0.00000000000E+00  0.00000000000E+00  0.80879571020E+03  0.80879571020E+03  0.00000000000E+00 0.  1.
          1   -1    0    0  501    0  0.00000000000E+00 -0.00000000000E+00 -0.14458063669E+04  0.14458063669E+04  0.00000000000E+00 0. -1.
         24    2    1    2    0    0 -0.13872352606E+03 -0.42096687950E+03  0.30712429047E+03  0.54542259077E+03  0.81872720777E+02 0.  0.
         23    2    1    2    0    0  0.31560501296E+03 -0.13438902356E+03 -0.37317237055E+03  0.51480223783E+03  0.89982176469E+02 0.  0.
        -15    1    4    4    0    0  0.22752419423E+03 -0.51360049580E+02 -0.23491973522E+03  0.33104742205E+03  0.00000000000E+00 0. -1.
        -15    1    3    3    0    0 -0.73060144042E+02 -0.11222152799E+03  0.10980649037E+03  0.17317309640E+03  0.00000000000E+00 0.  1.
         15    1    1    2    0    0 -0.18023276309E+03  0.44452561883E+03 -0.67617195313E+03  0.82903280085E+03  0.00000000000E+00 0. -1.
         15    1    4    4    0    0  0.88080818728E+02 -0.83028973977E+02 -0.13825263532E+03  0.18375481578E+03  0.00000000000E+00 0.  1.
        -16    1    1    2    0    0 -0.13311109243E+03  0.12817458538E+03  0.58287569087E+02  0.19376462003E+03  0.00000000000E+00 0.  1.
         16    1    3    3    0    0 -0.65663382015E+02 -0.30874535151E+03  0.19731780011E+03  0.37224949437E+03  0.00000000000E+00 0. -1.
    9900018    1    1    2    0    0  0.13646236862E+03 -0.17344301150E+02  0.46921807435E+02  0.17157982760E+03  0.91187600000E+02 0.  0.
<mgrwt>
<rscale>  0 0.10685213E+04</rscale>
<asrwt>0</asrwt>
<pdfrwt beam="1">  1        1 0.22243175E+00 0.14247469E+04</pdfrwt>
<pdfrwt beam="2">  1       -1 0.12443011E+00 0.14247469E+04</pdfrwt>
<totfact> 0.38852808E+00</totfact>
</mgrwt>
</event>
<event>
11    1  0.5696516E-011  0.2939867E+04  0.7818608E-02  0.8261114E-01
          2   -1    0    0  501    0  0.00000000000E+00  0.00000000000E+00  0.32065107276E+04  0.32065107276E+04  0.00000000000E+00 0.  1.
         -2   -1    0    0    0  501 -0.00000000000E+00 -0.00000000000E+00 -0.67384906966E+03  0.67384906966E+03  0.00000000000E+00 0. -1.
         24    2    1    2    0    0  0.10130466030E+03 -0.96743292767E+03  0.68020264935E+03  0.11897146670E+04  0.80970617195E+02 0.  0.
         23    2    1    2    0    0  0.26550235077E+03 -0.23439346116E+03  0.18751353177E+03  0.41080299357E+03  0.90365823348E+02 0.  0.
        -15    1    4    4    0    0  0.25715902039E+03 -0.21413429919E+03  0.19540603633E+03  0.38751487571E+03  0.00000000000E+00 0. -1.
        -15    1    3    3    0    0  0.39878903549E+02 -0.70724533437E+03  0.47894486392E+03  0.85508740642E+03  0.00000000000E+00 0.  1.
         15    1    1    2    0    0  0.79990175093E+02  0.51394417386E+03  0.31891536181E+03  0.61011806231E+03  0.00000000000E+00 0. -1.
         15    1    4    4    0    0  0.83433303795E+01 -0.20259161969E+02 -0.78925045579E+01  0.23288117865E+02  0.00000000000E+00 0.  1.
        -16    1    1    2    0    0 -0.44973381153E+03  0.62773439391E+03  0.13555081886E+04  0.15600363521E+04  0.00000000000E+00 0.  1.
         16    1    3    3    0    0  0.61425756755E+02 -0.26018759330E+03  0.20125778544E+03  0.33462726054E+03  0.00000000000E+00 0. -1.
    9900018    1    1    2    0    0  0.29366253576E+01  0.60147821061E+02 -0.94780736218E+01  0.10968772229E+03  0.91187600000E+02 0.  0.
<mgrwt>
<rscale>  0 0.29398668E+04</rscale>
<asrwt>0</asrwt>
<pdfrwt beam="1">  1        2 0.49330933E+00 0.29398668E+04</pdfrwt>
<pdfrwt beam="2">  1       -2 0.10366909E+00 0.29398668E+04</pdfrwt>
<totfact> 0.83673156E-01</totfact>
</mgrwt>
</event>
<event>
11    1  0.5696516E-011  0.1380921E+04  0.7818608E-02  0.9155905E-01
         -2   -1    0    0    0  501 -0.00000000000E+00  0.00000000000E+00  0.48295999939E+03  0.48295999939E+03  0.00000000000E+00 0.  1.
          2   -1    0    0  501    0  0.00000000000E+00 -0.00000000000E+00 -0.26496630139E+04  0.26496630139E+04  0.00000000000E+00 0. -1.
        -24    2    1    2    0    0 -0.55434041750E+03 -0.36569472406E+03 -0.14520345745E+03  0.68448024282E+03  0.80020179186E+02 0.  0.
         23    2    1    2    0    0  0.25139093235E+03 -0.21053381816E+03 -0.22943362011E+03  0.41072080238E+03  0.92357468659E+02 0.  0.
        -15    1    1    2    0    0  0.31538003553E+03  0.31958124520E+03 -0.12767978009E+04  0.13534435206E+04  0.00000000000E+00 0.  1.
        -15    1    4    4    0    0  0.12894297756E+03 -0.92616352334E+02 -0.16486603008E+03  0.22887745205E+03  0.00000000000E+00 0. -1.
         15    1    3    3    0    0 -0.20670720624E+03 -0.12576197642E+03 -0.14781729751E+02  0.24240966020E+03  0.00000000000E+00 0. -1.
         15    1    4    4    0    0  0.12244795478E+03 -0.11791746583E+03 -0.64567590029E+02  0.18184335033E+03  0.00000000000E+00 0.  1.
        -16    1    3    3    0    0 -0.34763321126E+03 -0.23993274764E+03 -0.13042172770E+03  0.44207058262E+03  0.00000000000E+00 0.  1.
         16    1    1    2    0    0 -0.29718933648E+02  0.31987245946E+03 -0.45366793330E+03  0.55589225488E+03  0.00000000000E+00 0. -1.
    9900018    1    1    2    0    0  0.17288383262E+02 -0.63225162443E+02 -0.61600202756E+02  0.12808619260E+03  0.91187600000E+02 0.  0.
<mgrwt>
<rscale>  0 0.11520389E+04</rscale>
<asrwt>0</asrwt>
<pdfrwt beam="1">  1        2 0.40764047E+00 0.13809209E+04</pdfrwt>
<pdfrwt beam="2">  1       -2 0.74301537E-01 0.13809209E+04</pdfrwt>
<totfact> 0.45015997E+00</totfact>
</mgrwt>
</event>
<event>
11    1  0.5696516E-011  0.2075518E+04  0.7818608E-02  0.9029599E-01
         -2   -1    0    0    0  501 -0.00000000000E+00  0.00000000000E+00  0.36289162680E+03  0.36289162680E+03  0.00000000000E+00 0.  1.
          2   -1    0    0  501    0  0.00000000000E+00 -0.00000000000E+00 -0.45171245640E+04  0.45171245640E+04  0.00000000000E+00 0. -1.
        -24    2    1    2    0    0 -0.16616562579E+03  0.69289748308E+03 -0.22102730092E+04  0.23236838107E+04  0.80509253238E+02 0.  0.
         23    2    1    2    0    0  0.24525090565E+03 -0.18154234182E+03 -0.11633386397E+03  0.33992758210E+03  0.94401083506E+02 0.  0.
        -15    1    1    2    0    0 -0.53244196996E+03 -0.16656442289E+03 -0.85778651014E+03  0.10232476999E+04  0.00000000000E+00 0.  1.
        -15    1    4    4    0    0  0.15270810326E+03 -0.16114093091E+03 -0.10111835228E+03  0.24394894053E+03  0.00000000000E+00 0. -1.
         15    1    3    3    0    0 -0.94621337252E+02  0.37871787727E+03 -0.13387897002E+04  0.13945387372E+04  0.00000000000E+00 0. -1.
         15    1    4    4    0    0  0.92542802392E+02 -0.20401410908E+02 -0.15215511688E+02  0.95978641569E+02  0.00000000000E+00 0.  1.
        -16    1    3    3    0    0 -0.71544288537E+02  0.31417960582E+03 -0.87148330897E+03  0.92914507358E+03  0.00000000000E+00 0.  1.
         16    1    1    2    0    0  0.48327312605E+03 -0.27027996935E+03 -0.88859172890E+03  0.10469954331E+04  0.00000000000E+00 0. -1.
    9900018    1    1    2    0    0 -0.29916435955E+02 -0.74510749024E+02 -0.81247825036E+02  0.14616166504E+03  0.91187600000E+02 0.  0.
<mgrwt>
<rscale>  0 0.12999573E+04</rscale>
<asrwt>0</asrwt>
<pdfrwt beam="1">  1        2 0.69494223E+00 0.20755182E+04</pdfrwt>
<pdfrwt beam="2">  1       -2 0.55829482E-01 0.20755182E+04</pdfrwt>
<totfact> 0.33155334E-01</totfact>
</mgrwt>
</event>
<event>
12    1  0.5696516E-011  0.4109088E+04  0.7818608E-02  0.8806930E-01
          2   -1    0    0  501    0  0.00000000000E+00  0.00000000000E+00  0.22839654254E+04  0.22839654254E+04  0.00000000000E+00 0. -1.
         -2   -1    0    0    0  501 -0.00000000000E+00 -0.00000000000E+00 -0.19578113809E+04  0.19578113809E+04  0.00000000000E+00 0.  1.
    9900016    2    1    2    0    0  0.87002239807E+03  0.80492455654E+03  0.86184572838E+03  0.22997101501E+04  0.17722996925E+04 0.  0.
         24    2    3    3    0    0  0.86884133692E+03 -0.35908393921E+03  0.21348952967E+03  0.96731271181E+03  0.79306740076E+02 0.  0.
         23    2    1    2    0    0  0.32184087239E+02  0.46876567255E+02  0.75259269375E+02  0.12503615343E+03  0.82078340679E+02 0.  0.
        -15    1    5    5    0    0  0.58772926813E+02  0.41056881393E+02  0.61890236282E+02  0.94711803820E+02  0.00000000000E+00 0.  1.
        -15    1    4    4    0    0  0.41740574194E+03 -0.15308304708E+03  0.13710179762E+03  0.46525141120E+03  0.00000000000E+00 0.  1.
         15    1    3    3    0    0  0.11810611557E+01  0.11640084958E+04  0.64835619871E+03  0.13323974383E+04  0.00000000000E+00 0. -1.
         15    1    5    5    0    0 -0.26588839574E+02  0.58196858621E+01  0.13369033092E+02  0.30324349609E+02  0.00000000000E+00 0. -1.
        -16    1    1    2    0    0  0.20346855265E+03 -0.23558880145E+03  0.14119017171E+03  0.34181310664E+03  0.00000000000E+00 0.  1.
         16    1    4    4    0    0  0.45143559497E+03 -0.20600089213E+03  0.76387732047E+02  0.50206130062E+03  0.00000000000E+00 0. -1.
    9900018    1    1    2    0    0 -0.11056750380E+04 -0.61621232235E+03 -0.75214112496E+03  0.14752173962E+04  0.91187600000E+02 0.  0.
<mgrwt>
<rscale>  0 0.16223570E+04</rscale>
<asrwt>0</asrwt>
<pdfrwt beam="1">  1        2 0.35137930E+00 0.41090881E+04</pdfrwt>
<pdfrwt beam="2">  1       -2 0.30120175E+00 0.41090881E+04</pdfrwt>
<totfact> 0.11261816E-01</totfact>
</mgrwt>
</event>
