<event>
12    1  0.3518770E-012  0.2602071E+04  0.7818608E-02  0.9092828E-01
          2   -1    0    0  501    0  0.00000000000E+00  0.00000000000E+00  0.18667962852E+04  0.18667962852E+04  0.00000000000E+00 0. -1.
         -2   -1    0    0    0  501 -0.00000000000E+00 -0.00000000000E+00 -0.14983577915E+04  0.14983577915E+04  0.00000000000E+00 0.  1.
        -24    2    1    2    0    0 -0.15560883707E+02 -0.96667212477E+02 -0.58141730456E+03  0.59513626106E+03  0.80959225027E+02 0.  0.
    9900016    2    1    2    0    0  0.12271596732E+03  0.25627120494E+03  0.20920380186E+03  0.20048243590E+04  0.19735299189E+04 0.  0.
         23    2    4    4    0    0 -0.14218199910E+03 -0.28530767490E+03 -0.16047376810E+03  0.36875561535E+03  0.92804543931E+02 0.  0.
        -15    1    5    5    0    0 -0.62372475337E+02 -0.18194992629E+03 -0.52678673743E+02  0.19942703935E+03  0.00000000000E+00 0.  1.
        -15    1    1    2    0    0 -0.10715508361E+03 -0.15960399247E+03  0.74065199634E+03  0.76519345661E+03  0.00000000000E+00 0.  1.
         15    1    3    3    0    0  0.20006954640E+02 -0.10164315799E+02 -0.41510073343E+02  0.47187686303E+02  0.00000000000E+00 0. -1.
         15    1    5    5    0    0 -0.79809523768E+02 -0.10335774861E+03 -0.10779509435E+03  0.16932857600E+03  0.00000000000E+00 0. -1.
        -16    1    3    3    0    0 -0.35567838348E+02 -0.86502896677E+02 -0.53990723121E+03  0.54794857475E+03  0.00000000000E+00 0.  1.
         16    1    4    4    0    0 -0.30842767211E+02  0.46990726016E+03  0.90121699710E+03  0.10168363611E+04  0.00000000000E+00 0. -1.
    9900018    1    4    4    0    0  0.29574073363E+03  0.71671619684E+02 -0.53153942714E+03  0.61923238255E+03  0.91187600000E+02 0.  0.
<mgrwt>
<rscale>  0 0.12231534E+04</rscale>
<asrwt>0</asrwt>
<pdfrwt beam="1">  1        2 0.28719943E+00 0.26020708E+04</pdfrwt>
<pdfrwt beam="2">  1       -2 0.23051658E+00 0.26020708E+04</pdfrwt>
<totfact> 0.58061434E-01</totfact>
</mgrwt>
</event>
<event>
12    1  0.3518770E-012  0.2325039E+04  0.7818608E-02  0.9283632E-01
          2   -1    0    0  501    0  0.00000000000E+00  0.00000000000E+00  0.90609505866E+03  0.90609505866E+03  0.00000000000E+00 0. -1.
         -2   -1    0    0    0  501 -0.00000000000E+00 -0.00000000000E+00 -0.16919694276E+04  0.16919694276E+04  0.00000000000E+00 0.  1.
        -24    2    1    2    0    0 -0.47602402026E+00 -0.15487790176E+02 -0.17283332807E+03  0.19356337609E+03  0.85763179917E+02 0.  0.
    9900016    2    1    2    0    0 -0.52929920258E+00  0.18188386292E+03 -0.27371927000E+03  0.20265752869E+04  0.19997507682E+04 0.  0.
         23    2    4    4    0    0 -0.19256474808E+03  0.18653537783E+03 -0.31310355636E+03  0.42213475419E+03  0.91034522596E+02 0.  0.
        -15    1    5    5    0    0 -0.15909004985E+03  0.11231175548E+03 -0.17501254911E+03  0.26182621474E+03  0.00000000000E+00 0.  1.
        -15    1    1    2    0    0  0.10053232228E+01 -0.16639607275E+03 -0.33932177084E+03  0.37792582323E+03  0.00000000000E+00 0.  1.
         15    1    3    3    0    0  0.69698361061E+01  0.23431662324E+02 -0.10747999380E+02  0.26704698187E+02  0.00000000000E+00 0. -1.
         15    1    5    5    0    0 -0.33474698229E+02  0.74223622352E+02 -0.13809100725E+03  0.16030853945E+03  0.00000000000E+00 0. -1.
        -16    1    3    3    0    0 -0.74458601264E+01 -0.38919452500E+02 -0.16208532869E+03  0.16685867790E+03  0.00000000000E+00 0.  1.
         16    1    4    4    0    0  0.18644745056E+03 -0.49654453138E+03 -0.59462598298E+03  0.79680561186E+03  0.00000000000E+00 0. -1.
    9900018    1    4    4    0    0  0.55879983220E+01  0.49189301647E+03  0.63401026934E+03  0.80763492086E+03  0.91187600000E+02 0.  0.
<mgrwt>
<rscale>  0 0.10230378E+04</rscale>
<asrwt>0</asrwt>
<pdfrwt beam="1">  1        2 0.13939924E+00 0.23250390E+04</pdfrwt>
<pdfrwt beam="2">  1       -2 0.26030298E+00 0.23250390E+04</pdfrwt>
<totfact> 0.14526731E+00</totfact>
</mgrwt>
</event>
<event>
12    1  0.3518770E-012  0.4351315E+04  0.7818608E-02  0.8512553E-01
          2   -1    0    0  501    0  0.00000000000E+00  0.00000000000E+00  0.28104543276E+04  0.28104543276E+04  0.00000000000E+00 0. -1.
         -2   -1    0    0    0  501 -0.00000000000E+00 -0.00000000000E+00 -0.20033384065E+04  0.20033384065E+04  0.00000000000E+00 0.  1.
        -24    2    1    2    0    0  0.19831660230E+03 -0.19821589464E+03  0.32361218582E+03  0.43569728324E+03  0.80549737278E+02 0.  0.
    9900016    2    1    2    0    0  0.39979858418E+03 -0.70929775572E+03  0.16609622254E+04  0.25618527551E+04  0.17723859091E+04 0.  0.
         23    2    4    4    0    0  0.58877150645E+03 -0.22219663593E+03 -0.16975107974E+03  0.65804355466E+03  0.90458050639E+02 0.  0.
        -15    1    1    2    0    0 -0.70926742184E+03  0.97861734600E+03 -0.94686031392E+03  0.15353490286E+04  0.00000000000E+00 0.  1.
        -15    1    5    5    0    0  0.73158443900E+02 -0.51666208861E+02 -0.47471389576E+02  0.10136610814E+03  0.00000000000E+00 0. -1.
         15    1    3    3    0    0  0.96565935763E+02 -0.57658000543E+02  0.17066140775E+03  0.20438870094E+03  0.00000000000E+00 0. -1.
         15    1    5    5    0    0  0.51561306255E+03 -0.17053042707E+03 -0.12227969016E+03  0.55667744652E+03  0.00000000000E+00 0.  1.
        -16    1    3    3    0    0  0.10175066654E+03 -0.14055789410E+03  0.15295077807E+03  0.23130858231E+03  0.00000000000E+00 0.  1.
         16    1    4    4    0    0 -0.18897292228E+03 -0.48710111978E+03  0.18307133051E+04  0.19038092005E+04  0.00000000000E+00 0. -1.
    9900018    1    1    2    0    0  0.11115223536E+03 -0.71103695639E+02 -0.23059817615E+03  0.28089366706E+03  0.91187600000E+02 0.  0.
<mgrwt>
<rscale>  0 0.22141717E+04</rscale>
<asrwt>0</asrwt>
<pdfrwt beam="1">  1        2 0.43237759E+00 0.43513152E+04</pdfrwt>
<pdfrwt beam="2">  1       -2 0.30820591E+00 0.43513152E+04</pdfrwt>
<totfact> 0.48738211E-02</totfact>
</mgrwt>
</event>
<event>
12    1  0.3518770E-012  0.2691940E+04  0.7818608E-02  0.8935493E-01
         -1   -1    0    0    0  501 -0.00000000000E+00  0.00000000000E+00  0.20213133160E+04  0.20213133160E+04  0.00000000000E+00 0.  1.
          1   -1    0    0  501    0  0.00000000000E+00 -0.00000000000E+00 -0.10430009181E+04  0.10430009181E+04  0.00000000000E+00 0. -1.
         24    2    1    2    0    0  0.40760826881E+02 -0.19063439870E+03  0.60474098457E+02  0.22020354237E+03  0.82641179278E+02 0.  0.
    9900016    2    1    2    0    0  0.72188968567E+02 -0.86593622053E+02  0.13043483111E+04  0.23552313396E+04  0.19578254375E+04 0.  0.
         23    2    4    4    0    0  0.76265105259E+02 -0.11427166993E+02 -0.28909976763E+03  0.30989082936E+03  0.80664143512E+02 0.  0.
        -15    1    3    3    0    0  0.26900020647E+02 -0.18221330187E+03  0.74574660032E+02  0.19871255221E+03  0.00000000000E+00 0.  1.
        -15    1    5    5    0    0  0.59355342619E+02  0.24217057821E+02 -0.23049875276E+03  0.23924714755E+03  0.00000000000E+00 0. -1.
         15    1    1    2    0    0 -0.11294979545E+03  0.27722802076E+03 -0.38651001166E+03  0.48887935209E+03  0.00000000000E+00 0. -1.
         15    1    5    5    0    0  0.16909762641E+02 -0.35644224814E+02 -0.58601014875E+02  0.70643681809E+02  0.00000000000E+00 0.  1.
        -16    1    4    4    0    0  0.21359297462E+02  0.37630678053E+03 -0.98098535277E+01  0.37704011178E+03  0.00000000000E+00 0.  1.
         16    1    3    3    0    0  0.13860806234E+02 -0.84210968389E+01 -0.14100561575E+02  0.21490990162E+02  0.00000000000E+00 0. -1.
    9900018    1    4    4    0    0 -0.25435434154E+02 -0.45147323559E+03  0.16032579322E+04  0.16683003984E+04  0.91187600000E+02 0.  0.
<mgrwt>
<rscale>  0 0.14256015E+04</rscale>
<asrwt>0</asrwt>
<pdfrwt beam="1">  1        1 0.16046168E+00 0.26919395E+04</pdfrwt>
<pdfrwt beam="2">  1       -1 0.31097128E+00 0.26919395E+04</pdfrwt>
<totfact> 0.34081065E-01</totfact>
</mgrwt>
</event>
<event>
12    1  0.3518770E-012  0.3230776E+04  0.7818608E-02  0.8819153E-01
         -2   -1    0    0    0  501 -0.00000000000E+00  0.00000000000E+00  0.12416556672E+04  0.12416556672E+04  0.00000000000E+00 0.  1.
          2   -1    0    0  501    0  0.00000000000E+00 -0.00000000000E+00 -0.25167918957E+04  0.25167918957E+04  0.00000000000E+00 0. -1.
        -24    2    1    2    0    0 -0.15568417526E+03 -0.87552426841E+02  0.13063336828E+03  0.23508260321E+03  0.79345847717E+02 0.  0.
    9900016    2    1    2    0    0  0.40050706864E+03 -0.77787724371E+03 -0.16694659211E+04  0.25861123176E+04  0.17706952135E+04 0.  0.
         23    2    4    4    0    0 -0.37659204006E+03 -0.25060331776E+03 -0.69186458594E+03  0.83169354336E+03  0.91727625450E+02 0.  0.
        -15    1    1    2    0    0 -0.24482289339E+03  0.86542967055E+03  0.26369632435E+03  0.93725264218E+03  0.00000000000E+00 0.  1.
        -15    1    5    5    0    0 -0.36306054053E+03 -0.25561981877E+03 -0.64811785490E+03  0.78562790281E+03  0.00000000000E+00 0. -1.
         15    1    3    3    0    0 -0.16054661668E+03 -0.77901377817E+02  0.10448056090E+03  0.20678498108E+03  0.00000000000E+00 0. -1.
         15    1    5    5    0    0 -0.13531499534E+02  0.50165010089E+01 -0.43746731042E+02  0.46065640545E+02  0.00000000000E+00 0.  1.
        -16    1    3    3    0    0  0.48624414275E+01 -0.96510490237E+01  0.26152807385E+02  0.28297622127E+02  0.00000000000E+00 0.  1.
         16    1    4    4    0    0  0.64244097048E+03 -0.10443807383E+03  0.28004428312E+02  0.65147675310E+03  0.00000000000E+00 0. -1.
    9900018    1    4    4    0    0  0.13465813822E+03 -0.42283585212E+03 -0.10056057635E+04  0.11029420211E+04  0.91187600000E+02 0.  0.
<mgrwt>
<rscale>  0 0.16022721E+04</rscale>
<asrwt>0</asrwt>
<pdfrwt beam="1">  1        2 0.38719875E+00 0.32307758E+04</pdfrwt>
<pdfrwt beam="2">  1       -2 0.19102395E+00 0.32307758E+04</pdfrwt>
<totfact> 0.43146855E-01</totfact>
</mgrwt>
</event>
<event>
11    1  0.3518770E-012  0.2355972E+04  0.7818608E-02  0.8882012E-01
          2   -1    0    0  501    0  0.00000000000E+00  0.00000000000E+00  0.23562900746E+04  0.23562900746E+04  0.00000000000E+00 0.  1.
         -2   -1    0    0    0  501 -0.00000000000E+00 -0.00000000000E+00 -0.81534645024E+03  0.81534645024E+03  0.00000000000E+00 0. -1.
         24    2    1    2    0    0  0.20359426372E+03 -0.32392286462E+03  0.78713902839E+02  0.39878208889E+03  0.80340708684E+02 0.  0.
         23    2    1    2    0    0 -0.50636556756E+03  0.52701006816E+02 -0.13415898007E+03  0.53416946303E+03  0.90304480360E+02 0.  0.
        -15    1    3    3    0    0  0.58376772838E+02 -0.16376257166E+03  0.21759296989E+02  0.17521271212E+03  0.00000000000E+00 0.  1.
        -15    1    4    4    0    0 -0.69223228774E+02 -0.47783480664E+01  0.10417312158E+02  0.70165578489E+02  0.00000000000E+00 0. -1.
         15    1    4    4    0    0 -0.43714233879E+03  0.57479354883E+02 -0.14457629222E+03  0.46400388454E+03  0.00000000000E+00 0.  1.
         15    1    1    2    0    0  0.70164942361E+02  0.78915499080E+03  0.72193295231E+03  0.10718562899E+04  0.00000000000E+00 0. -1.
        -16    1    1    2    0    0  0.15765732354E+03 -0.60397536383E+03  0.74205869231E+03  0.96968715296E+03  0.00000000000E+00 0.  1.
         16    1    3    3    0    0  0.14521749088E+03 -0.16016029296E+03  0.56954605849E+02  0.22356937677E+03  0.00000000000E+00 0. -1.
    9900018    1    1    2    0    0  0.74949037947E+02  0.86042230841E+02  0.13239705700E+03  0.19714153006E+03  0.91187600000E+02 0.  0.
<mgrwt>
<rscale>  0 0.15036759E+04</rscale>
<asrwt>0</asrwt>
<pdfrwt beam="1">  1        2 0.36250616E+00 0.23559724E+04</pdfrwt>
<pdfrwt beam="2">  1       -2 0.12543792E+00 0.23559724E+04</pdfrwt>
<totfact> 0.17840995E+00</totfact>
</mgrwt>
</event>
<event>
12    1  0.3518770E-012  0.2573090E+04  0.7818608E-02  0.8724352E-01
         -2   -1    0    0    0  501 -0.00000000000E+00  0.00000000000E+00  0.22198680130E+04  0.22198680130E+04  0.00000000000E+00 0.  1.
          2   -1    0    0  501    0  0.00000000000E+00 -0.00000000000E+00 -0.13569206025E+04  0.13569206025E+04  0.00000000000E+00 0. -1.
         24    2    1    2    0    0 -0.66362016874E+02  0.56211062129E+03  0.82474654679E+03  0.10034150615E+04  0.79136915789E+02 0.  0.
    9900016    2    1    2    0    0 -0.55359826293E+03 -0.22754732425E+03  0.72407749757E+02  0.18680697476E+04  0.17681043176E+04 0.  0.
         23    2    4    4    0    0  0.39230858229E+02  0.35418414887E+03 -0.25062395580E+03  0.44521925282E+03  0.91773331152E+02 0.  0.
        -15    1    5    5    0    0 -0.19309418117E+02  0.21291935525E+03 -0.16420237770E+03  0.26957360092E+03  0.00000000000E+00 0. -1.
        -15    1    3    3    0    0 -0.50006430225E+02  0.36533944004E+03  0.59999983256E+03  0.70425375298E+03  0.00000000000E+00 0.  1.
         15    1    1    2    0    0  0.61996027981E+03 -0.33456329704E+03 -0.34206886033E+02  0.70530380640E+03  0.00000000000E+00 0. -1.
         15    1    5    5    0    0  0.58540276345E+02  0.14126479362E+03 -0.86421578101E+02  0.17564565190E+03  0.00000000000E+00 0.  1.
        -16    1    4    4    0    0 -0.85397746143E+03 -0.16077735751E+03  0.29752382777E+03  0.91850274437E+03  0.00000000000E+00 0.  1.
         16    1    3    3    0    0 -0.16355586649E+02  0.19677118125E+03  0.22474671423E+03  0.29916130856E+03  0.00000000000E+00 0. -1.
    9900018    1    4    4    0    0  0.26114834027E+03 -0.42095411561E+03  0.25507877784E+02  0.50434775037E+03  0.91187600000E+02 0.  0.
<mgrwt>
<rscale>  0 0.17664409E+04</rscale>
<asrwt>0</asrwt>
<pdfrwt beam="1">  1        2 0.20875702E+00 0.25730900E+04</pdfrwt>
<pdfrwt beam="2">  1       -2 0.34151815E+00 0.25730900E+04</pdfrwt>
<totfact> 0.23273546E-01</totfact>
</mgrwt>
</event>
<event>
11    1  0.3518770E-012  0.1924646E+04  0.7818608E-02  0.8642685E-01
          2   -1    0    0  501    0  0.00000000000E+00  0.00000000000E+00  0.10695936404E+04  0.10695936404E+04  0.00000000000E+00 0. -1.
         -2   -1    0    0    0  501 -0.00000000000E+00 -0.00000000000E+00 -0.86581105348E+03  0.86581105348E+03  0.00000000000E+00 0.  1.
        -24    2    1    2    0    0  0.58135844437E+01 -0.15413141267E+03  0.30812036025E+02  0.18092106440E+03  0.89402236227E+02 0.  0.
         23    2    1    2    0    0 -0.26065115763E+03 -0.17680363866E+03  0.46532604736E+03  0.56879712983E+03  0.88336243616E+02 0.  0.
        -15    1    4    4    0    0 -0.12065944326E+03 -0.10270192208E+03  0.30339571707E+03  0.34227963303E+03  0.00000000000E+00 0.  1.
        -15    1    1    2    0    0  0.60291777866E+02  0.65418233614E+01 -0.73824578032E+02  0.95540369754E+02  0.00000000000E+00 0.  1.
         15    1    4    4    0    0 -0.13999171437E+03 -0.74101716580E+02  0.16193033029E+03  0.22651749680E+03  0.00000000000E+00 0. -1.
         15    1    3    3    0    0  0.46524102387E+02 -0.10154677890E+03  0.21916541372E+02  0.11382695284E+03  0.00000000000E+00 0. -1.
        -16    1    3    3    0    0 -0.40710517943E+02 -0.52584633770E+02  0.88954946529E+01  0.67094111553E+02  0.00000000000E+00 0.  1.
         16    1    1    2    0    0  0.40833791074E+03  0.58844356642E+03 -0.14686321110E+03  0.73114600661E+03  0.00000000000E+00 0. -1.
    9900018    1    1    2    0    0 -0.21379211542E+03 -0.26405033845E+03 -0.71667707334E+02  0.35900012328E+03  0.91187600000E+02 0.  0.
<mgrwt>
<rscale>  0 0.19246465E+04</rscale>
<asrwt>0</asrwt>
<pdfrwt beam="1">  1        2 0.16455287E+00 0.19246465E+04</pdfrwt>
<pdfrwt beam="2">  1       -2 0.13320170E+00 0.19246465E+04</pdfrwt>
<totfact> 0.86838143E+00</totfact>
</mgrwt>
</event>
