<event>
11    1  0.8468469E-012  0.2976112E+04  0.7818608E-02  0.8250585E-01
          1   -1    0    0  501    0  0.00000000000E+00  0.00000000000E+00  0.24010717349E+04  0.24010717349E+04  0.00000000000E+00 0. -1.
         -1   -1    0    0    0  501 -0.00000000000E+00 -0.00000000000E+00 -0.92221780403E+03  0.92221780403E+03  0.00000000000E+00 0.  1.
    9900016    2    1    2    0    0  0.33839569238E+03 -0.30254136934E+03  0.11837920294E+04  0.25473234086E+04  0.22094003835E+04 0.  0.
         24    2    3    3    0    0  0.63303475733E+03  0.11399945464E+03 -0.46994076153E+03  0.80067882726E+03  0.80705547694E+02 0.  0.
        -15    1    4    4    0    0  0.36514023279E+03  0.10563722883E+03 -0.28324040395E+03  0.47403769908E+03  0.00000000000E+00 0.  1.
        -15    1    3    3    0    0 -0.11879208713E+02  0.35147450821E+01  0.23065337989E+02  0.26181651002E+02  0.00000000000E+00 0.  1.
         15    1    3    3    0    0 -0.31260990076E+03 -0.40651751837E+03  0.15681956875E+04  0.16499148939E+04  0.00000000000E+00 0. -1.
         15    1    3    3    0    0  0.29850044521E+02 -0.13538050680E+02  0.62471765379E+02  0.70548036427E+02  0.00000000000E+00 0. -1.
        -16    1    1    2    0    0 -0.20419528764E+03  0.41204535130E+03  0.50375506351E+02  0.46261731341E+03  0.00000000000E+00 0.  1.
         16    1    4    4    0    0  0.26789452454E+03  0.83622258035E+01 -0.18670035758E+03  0.32664112818E+03  0.00000000000E+00 0. -1.
    9900018    1    1    2    0    0 -0.13420040474E+03 -0.10950398197E+03  0.24468639519E+03  0.31334881695E+03  0.91187600000E+02 0.  0.
<mgrwt>
<rscale>  0 0.29761123E+04</rscale>
<asrwt>0</asrwt>
<pdfrwt beam="1">  1        1 0.36939565E+00 0.29761123E+04</pdfrwt>
<pdfrwt beam="2">  1       -1 0.14187966E+00 0.29761123E+04</pdfrwt>
<totfact> 0.54723333E-01</totfact>
</mgrwt>
</event>
<event>
11    1  0.8468469E-012  0.3412656E+04  0.7818608E-02  0.8134807E-01
         -1   -1    0    0    0  501 -0.00000000000E+00  0.00000000000E+00  0.16668423789E+04  0.16668423789E+04  0.00000000000E+00 0.  1.
          1   -1    0    0  501    0  0.00000000000E+00 -0.00000000000E+00 -0.17467493552E+04  0.17467493552E+04  0.00000000000E+00 0. -1.
    9900016    2    1    2    0    0 -0.66872347084E+03 -0.41965097428E+03  0.31054168146E+03  0.23556006328E+04  0.21975259236E+04 0.  0.
        -24    2    3    3    0    0  0.61366301735E+03 -0.54683277019E+03 -0.31847664326E+03  0.88508358093E+03  0.79606504168E+02 0.  0.
        -15    1    3    3    0    0 -0.12680889023E+04  0.10850564749E+03  0.62202528652E+03  0.14165939421E+04  0.00000000000E+00 0.  1.
        -15    1    3    3    0    0 -0.84367196754E+01 -0.84638941013E+01 -0.14514913428E+02  0.18801554565E+02  0.00000000000E+00 0. -1.
         15    1    4    4    0    0  0.20399982799E+03 -0.17550601927E+03 -0.14450963691E+03  0.30545266046E+03  0.00000000000E+00 0. -1.
         15    1    3    3    0    0 -0.58608662155E+01  0.27140042526E+02  0.21507951625E+02  0.35121555264E+02  0.00000000000E+00 0.  1.
        -16    1    4    4    0    0  0.40966318935E+03 -0.37132675092E+03 -0.17396700635E+03  0.57963092047E+03  0.00000000000E+00 0.  1.
         16    1    1    2    0    0  0.45776420192E+03  0.45353858223E+03 -0.48567404309E+03  0.80692291222E+03  0.00000000000E+00 0. -1.
    9900018    1    1    2    0    0  0.21095926893E+03 -0.33887607955E+02  0.95225385393E+02  0.25106818902E+03  0.91187600000E+02 0.  0.
<mgrwt>
<rscale>  0 0.34126564E+04</rscale>
<asrwt>0</asrwt>
<pdfrwt beam="1">  1        1 0.26873067E+00 0.34126564E+04</pdfrwt>
<pdfrwt beam="2">  1       -1 0.25643729E+00 0.34126564E+04</pdfrwt>
<totfact> 0.23036024E-01</totfact>
</mgrwt>
</event>
<event>
11    1  0.8468469E-012  0.5327199E+04  0.7818608E-02  0.7779925E-01
          1   -1    0    0  501    0  0.00000000000E+00  0.00000000000E+00  0.52912735687E+04  0.52912735687E+04  0.00000000000E+00 0. -1.
         -1   -1    0    0    0  501 -0.00000000000E+00 -0.00000000000E+00 -0.13408422234E+04  0.13408422234E+04  0.00000000000E+00 0.  1.
    9900016    2    1    2    0    0 -0.27833601449E+03  0.13437201237E+03  0.42130845002E+04  0.47645402919E+04  0.22034601002E+04 0.  0.
         24    2    3    3    0    0  0.87739320938E+03 -0.63555671884E+02  0.10187092613E+04  0.13483785957E+04  0.80610861417E+02 0.  0.
        -15    1    4    4    0    0  0.21110463620E+03 -0.14486555057E+02  0.19458305766E+03  0.28746755300E+03  0.00000000000E+00 0.  1.
        -15    1    3    3    0    0 -0.22071848707E+02  0.46108031233E+02  0.95739435050E+02  0.10853182240E+03  0.00000000000E+00 0. -1.
         15    1    3    3    0    0 -0.52562146648E+01 -0.14594776523E+02  0.28249897620E+02  0.32228745088E+02  0.00000000000E+00 0.  1.
         15    1    3    3    0    0 -0.11284011605E+04  0.16641442955E+03  0.30703859062E+04  0.32754011287E+04  0.00000000000E+00 0. -1.
        -16    1    1    2    0    0  0.24958405185E+03  0.14378243225E+02 -0.10403822483E+04  0.10699972688E+04  0.00000000000E+00 0.  1.
         16    1    4    4    0    0  0.66628857318E+03 -0.49069116827E+02  0.82412620367E+03  0.10609110427E+04  0.00000000000E+00 0. -1.
    9900018    1    1    2    0    0  0.28751962640E+02 -0.14875025560E+03  0.77772909342E+03  0.79757823130E+03  0.91187600000E+02 0.  0.
<mgrwt>
<rscale>  0 0.53271993E+04</rscale>
<asrwt>0</asrwt>
<pdfrwt beam="1">  1        1 0.81404208E+00 0.53271993E+04</pdfrwt>
<pdfrwt beam="2">  1       -1 0.20628342E+00 0.53271993E+04</pdfrwt>
<totfact> 0.31697061E-04</totfact>
</mgrwt>
</event>
<event>
11    1  0.8468469E-012  0.3721151E+04  0.7818608E-02  0.8063291E-01
          1   -1    0    0  501    0  0.00000000000E+00  0.00000000000E+00  0.19532499596E+04  0.19532499596E+04  0.00000000000E+00 0. -1.
         -1   -1    0    0    0  501 -0.00000000000E+00 -0.00000000000E+00 -0.17722978647E+04  0.17722978647E+04  0.00000000000E+00 0.  1.
    9900016    2    1    2    0    0 -0.33622815695E+02 -0.41917702363E+03  0.19432926035E+03  0.22455266073E+04  0.21972223400E+04 0.  0.
         24    2    3    3    0    0  0.42235740826E+03 -0.85201683563E+03  0.84896664398E+03  0.12771735409E+04  0.78162794134E+02 0.  0.
        -15    1    3    3    0    0  0.68552250216E+01 -0.17647080335E+02 -0.40590085918E+01  0.19362053227E+02  0.00000000000E+00 0. -1.
        -15    1    4    4    0    0  0.13135362230E+03 -0.28507204905E+03  0.32881318212E+03  0.45457447792E+03  0.00000000000E+00 0.  1.
         15    1    3    3    0    0 -0.44330333950E+03  0.42740821761E+03 -0.67235314281E+03  0.91173153063E+03  0.00000000000E+00 0. -1.
         15    1    3    3    0    0 -0.19532109476E+02  0.23078674721E+02  0.21774767776E+02  0.37259482541E+02  0.00000000000E+00 0.  1.
        -16    1    1    2    0    0  0.39612540868E+03  0.81882382385E+03 -0.13468145874E+03  0.91952536084E+03  0.00000000000E+00 0.  1.
         16    1    4    4    0    0  0.29100378596E+03 -0.56694478658E+03  0.52015346187E+03  0.82259906295E+03  0.00000000000E+00 0. -1.
    9900018    1    1    2    0    0 -0.36250259299E+03 -0.39964680021E+03  0.12130429323E+03  0.56049585618E+03  0.91187600000E+02 0.  0.
<mgrwt>
<rscale>  0 0.37211508E+04</rscale>
<asrwt>0</asrwt>
<pdfrwt beam="1">  1        1 0.30049999E+00 0.37211508E+04</pdfrwt>
<pdfrwt beam="2">  1       -1 0.27266121E+00 0.37211508E+04</pdfrwt>
<totfact> 0.12750325E-01</totfact>
</mgrwt>
</event>
<event>
11    1  0.8468469E-012  0.5324384E+04  0.7818608E-02  0.7780327E-01
          2   -1    0    0  501    0  0.00000000000E+00  0.00000000000E+00  0.22985255446E+04  0.22985255446E+04  0.00000000000E+00 0. -1.
         -2   -1    0    0    0  501 -0.00000000000E+00 -0.00000000000E+00 -0.30833962228E+04  0.30833962228E+04  0.00000000000E+00 0.  1.
    9900016    2    1    2    0    0 -0.13237641433E+03  0.58422022919E+03 -0.20944239247E+03  0.22854564826E+04  0.21955884011E+04 0.  0.
        -24    2    3    3    0    0  0.80207296331E+03  0.27602324202E+02  0.47855809570E+03  0.93775392675E+03  0.79256857138E+02 0.  0.
        -15    1    3    3    0    0 -0.95151511293E+03  0.53379524788E+03 -0.69562732849E+03  0.12939148956E+04  0.00000000000E+00 0.  1.
        -15    1    3    3    0    0  0.21208687288E+02  0.32552749831E+02 -0.27787334142E+01  0.38951396604E+02  0.00000000000E+00 0.  1.
         15    1    3    3    0    0 -0.41429519872E+01 -0.97300927233E+01  0.10405573742E+02  0.14836263696E+02  0.00000000000E+00 0. -1.
         15    1    4    4    0    0  0.25119062534E+03  0.39242652021E+02  0.12749439235E+03  0.28441437389E+03  0.00000000000E+00 0. -1.
        -16    1    4    4    0    0  0.55088233797E+03 -0.11640327819E+02  0.35106370335E+03  0.65333955286E+03  0.00000000000E+00 0.  1.
         16    1    1    2    0    0  0.55471159189E+03 -0.21974052315E+03  0.11419637830E+04  0.12884378640E+04  0.00000000000E+00 0. -1.
    9900018    1    1    2    0    0 -0.42233517757E+03 -0.36447970605E+03 -0.17173920687E+04  0.18080274208E+04  0.91187600000E+02 0.  0.
<mgrwt>
<rscale>  0 0.53243835E+04</rscale>
<asrwt>0</asrwt>
<pdfrwt beam="1">  1        2 0.35361931E+00 0.53243835E+04</pdfrwt>
<pdfrwt beam="2">  1       -2 0.47436865E+00 0.53243835E+04</pdfrwt>
<totfact> 0.77847092E-03</totfact>
</mgrwt>
</event>
<event>
11    1  0.8468469E-012  0.4723637E+04  0.7818608E-02  0.7872613E-01
          1   -1    0    0  501    0  0.00000000000E+00  0.00000000000E+00  0.34448626219E+04  0.34448626219E+04  0.00000000000E+00 0. -1.
         -1   -1    0    0    0  501 -0.00000000000E+00 -0.00000000000E+00 -0.16192767675E+04  0.16192767675E+04  0.00000000000E+00 0.  1.
    9900016    2    1    2    0    0  0.18548206227E+03 -0.39021685992E+02 -0.13200706092E+03  0.22185557509E+04  0.22064989165E+04 0.  0.
        -24    2    3    3    0    0 -0.23904778205E+03 -0.36743422540E+03  0.89662243252E+03  0.10013073177E+04  0.80825775253E+02 0.  0.
        -15    1    3    3    0    0  0.37122189032E+03  0.34772600479E+03 -0.10283227089E+04  0.11472430693E+04  0.00000000000E+00 0.  1.
        -15    1    3    3    0    0  0.46748124423E+02 -0.30993265656E+02  0.31282068628E+01  0.56176109969E+02  0.00000000000E+00 0. -1.
         15    1    4    4    0    0 -0.13332755528E+03 -0.24785470396E+03  0.49988320201E+03  0.57366489079E+03  0.00000000000E+00 0. -1.
         15    1    3    3    0    0  0.65598295721E+01  0.11679800279E+02 -0.34349913592E+01  0.13829253929E+02  0.00000000000E+00 0.  1.
        -16    1    4    4    0    0 -0.10572022677E+03 -0.11957952145E+03  0.39673923051E+03  0.42764242695E+03  0.00000000000E+00 0.  1.
         16    1    1    2    0    0 -0.42200208596E+03  0.34949057342E+03  0.22713924870E+04  0.23365472928E+04  0.00000000000E+00 0. -1.
    9900018    1    1    2    0    0  0.23652002369E+03 -0.31046888743E+03 -0.31379957171E+03  0.50903634572E+03  0.91187600000E+02 0.  0.
<mgrwt>
<rscale>  0 0.47236367E+04</rscale>
<asrwt>0</asrwt>
<pdfrwt beam="1">  1        1 0.52997886E+00 0.47236367E+04</pdfrwt>
<pdfrwt beam="2">  1       -1 0.24911950E+00 0.47236367E+04</pdfrwt>
<totfact> 0.14378115E-02</totfact>
</mgrwt>
</event>
<event>
12    1  0.8468469E-012  0.3938025E+04  0.7818608E-02  0.8916659E-01
          2   -1    0    0  501    0  0.00000000000E+00  0.00000000000E+00  0.23492706798E+04  0.23492706798E+04  0.00000000000E+00 0. -1.
         -2   -1    0    0    0  501 -0.00000000000E+00 -0.00000000000E+00 -0.17122825331E+04  0.17122825331E+04  0.00000000000E+00 0.  1.
         23    2    1    2    0    0  0.46210840027E+01  0.26727609461E+02  0.19106982915E+02  0.75349334155E+02  0.67651502841E+02 0.  0.
    9900016    2    1    2    0    0  0.48435043088E+03  0.14326300663E+03  0.35199136317E+03  0.22548851086E+04  0.21692139831E+04 0.  0.
        -24    2    4    4    0    0 -0.30019449563E+02 -0.42468596510E+03 -0.77748901642E+03  0.89001576095E+03  0.79872071348E+02 0.  0.
        -15    1    3    3    0    0 -0.14856795229E+02  0.36692745715E+02  0.31151973152E+02  0.50373876006E+02  0.00000000000E+00 0. -1.
        -15    1    4    4    0    0  0.51436988044E+03  0.56794897172E+03  0.11294803796E+04  0.13648693477E+04  0.00000000000E+00 0.  1.
         15    1    3    3    0    0  0.19477879232E+02 -0.99651362543E+01 -0.12044990237E+02  0.24975458149E+02  0.00000000000E+00 0.  1.
         15    1    5    5    0    0 -0.51251519516E+02 -0.32059127975E+03 -0.54442110522E+03  0.63387682298E+03  0.00000000000E+00 0. -1.
        -16    1    5    5    0    0  0.21232069954E+02 -0.10409468535E+03 -0.23306791120E+03  0.25613893796E+03  0.00000000000E+00 0.  1.
         16    1    1    2    0    0 -0.97353353974E+03  0.23864837395E+02  0.56202048572E+03  0.11243683159E+04  0.00000000000E+00 0. -1.
    9900018    1    1    2    0    0  0.48456202486E+03 -0.19385545349E+03 -0.29613068506E+03  0.60695045417E+03  0.91187600000E+02 0.  0.
<mgrwt>
<rscale>  0 0.14525152E+04</rscale>
<asrwt>0</asrwt>
<pdfrwt beam="1">  1        2 0.36142626E+00 0.39380254E+04</pdfrwt>
<pdfrwt beam="2">  1       -2 0.26342808E+00 0.39380254E+04</pdfrwt>
<totfact> 0.17865180E-01</totfact>
</mgrwt>
</event>
<event>
12    1  0.8468469E-012  0.4919274E+04  0.7818608E-02  0.7841082E-01
         -1   -1    0    0    0  501 -0.00000000000E+00  0.00000000000E+00  0.19984320176E+04  0.19984320176E+04  0.00000000000E+00 0.  1.
          1   -1    0    0  501    0  0.00000000000E+00 -0.00000000000E+00 -0.30272803201E+04  0.30272803201E+04  0.00000000000E+00 0. -1.
    9900016    2    1    2    0    0  0.28329190932E+03  0.11195757080E+02  0.35237007584E+03  0.22456462537E+04  0.21996324183E+04 0.  0.
         23    2    3    3    0    0  0.23247386773E+02 -0.69104978759E+01  0.22143585093E+02  0.65059253294E+02  0.56162016575E+02 0.  0.
        -24    2    3    3    0    0  0.39608024833E+03  0.44875651185E+03 -0.77757445781E+03  0.98426417438E+03  0.76759087284E+02 0.  0.
        -15    1    3    3    0    0 -0.13603572578E+03 -0.43065025689E+03  0.11078009486E+04  0.11963228260E+04  0.00000000000E+00 0.  1.
        -15    1    4    4    0    0 -0.58138803073E+01  0.16802786648E+02  0.21023704261E+02  0.27534178473E+02  0.00000000000E+00 0. -1.
         15    1    5    5    0    0  0.70472096717E+02  0.12623464189E+03 -0.20521431739E+03  0.25102672625E+03  0.00000000000E+00 0. -1.
         15    1    4    4    0    0  0.29061267080E+02 -0.23713284524E+02  0.11198808323E+01  0.37525074821E+02  0.00000000000E+00 0.  1.
        -16    1    5    5    0    0  0.32560815161E+03  0.32252186996E+03 -0.57236014043E+03  0.73323744813E+03  0.00000000000E+00 0.  1.
         16    1    1    2    0    0 -0.42979615154E+03 -0.77438136204E+01 -0.20473221067E+04  0.20919637920E+04  0.00000000000E+00 0. -1.
    9900018    1    1    2    0    0  0.14650424221E+03 -0.34519434594E+01  0.66610372832E+03  0.68810229194E+03  0.91187600000E+02 0.  0.
<mgrwt>
<rscale>  0 0.49192739E+04</rscale>
<asrwt>0</asrwt>
<pdfrwt beam="1">  1        1 0.46573543E+00 0.49192739E+04</pdfrwt>
<pdfrwt beam="2">  1       -1 0.30745108E+00 0.49192739E+04</pdfrwt>
<totfact> 0.12252700E-02</totfact>
</mgrwt>
</event>
