<event>
12    1  0.1568542E-011  0.2666386E+04  0.7818608E-02  0.9008320E-01
         -1   -1    0    0    0  501 -0.00000000000E+00  0.00000000000E+00  0.92072301900E+03  0.92072301900E+03  0.00000000000E+00 0.  1.
          1   -1    0    0  501    0  0.00000000000E+00 -0.00000000000E+00 -0.23907826058E+04  0.23907826058E+04  0.00000000000E+00 0. -1.
         23    2    1    2    0    0  0.11758628555E+03  0.65251187965E+02  0.12368002885E+03  0.20512143446E+03  0.93240555883E+02 0.  0.
    9900016    2    1    2    0    0 -0.15043399695E+03  0.15512429142E+03 -0.17599627354E+04  0.28284013678E+04  0.22035633719E+04 0.  0.
         24    2    4    4    0    0 -0.41240553426E+03  0.70052091531E+03  0.85064509622E+02  0.82152312599E+03  0.82803371083E+02 0.  0.
        -15    1    3    3    0    0  0.60257965318E+02 -0.62156508668E+01  0.13934924161E+02  0.62159784518E+02  0.00000000000E+00 0. -1.
        -15    1    5    5    0    0 -0.41170057529E+03  0.67388626394E+03  0.88578246687E+02  0.79464845448E+03  0.00000000000E+00 0.  1.
         15    1    4    4    0    0  0.27676160090E+03 -0.56334951988E+03 -0.11924668732E+04  0.13475670332E+04  0.00000000000E+00 0. -1.
         15    1    3    3    0    0  0.57328320229E+02  0.71466838831E+02  0.10974510468E+03  0.14296164994E+03  0.00000000000E+00 0.  1.
        -16    1    1    2    0    0  0.32847711401E+02 -0.22037547939E+03  0.16622311982E+03  0.27798282253E+03  0.00000000000E+00 0.  1.
         16    1    5    5    0    0 -0.70495897598E+00  0.26634651366E+02 -0.35137370650E+01  0.26874671509E+02  0.00000000000E+00 0. -1.
    9900018    1    4    4    0    0 -0.14790063581E+02  0.17952895999E+02 -0.65256037189E+03  0.65931120862E+03  0.91187600000E+02 0.  0.
<mgrwt>
<rscale>  0 0.13271338E+04</rscale>
<asrwt>0</asrwt>
<pdfrwt beam="1">  1        1 0.36781270E+00 0.26663865E+04</pdfrwt>
<pdfrwt beam="2">  1       -1 0.14164970E+00 0.26663865E+04</pdfrwt>
<totfact> 0.56837084E-01</totfact>
</mgrwt>
</event>
<event>
12    1  0.1568542E-011  0.2990596E+04  0.7818608E-02  0.8246421E-01
          1   -1    0    0  501    0  0.00000000000E+00  0.00000000000E+00  0.14468371372E+04  0.14468371372E+04  0.00000000000E+00 0. -1.
         -1   -1    0    0    0  501 -0.00000000000E+00 -0.00000000000E+00 -0.15453825247E+04  0.15453825247E+04  0.00000000000E+00 0.  1.
         23    2    1    2    0    0 -0.51593668799E+02  0.16160319318E+03 -0.16801719584E+03  0.25427851278E+03  0.87465909113E+02 0.  0.
    9900016    2    1    2    0    0  0.19157424550E+03 -0.26661611909E+03  0.47944061054E+03  0.22921870743E+04  0.22173122103E+04 0.  0.
         24    2    4    4    0    0 -0.95509719529E+03 -0.16165969027E+03  0.15609557060E+03  0.98397216990E+03  0.74100580811E+02 0.  0.
        -15    1    3    3    0    0 -0.74203730833E+02  0.12542990156E+03 -0.11164412571E+03  0.18358448921E+03  0.00000000000E+00 0. -1.
        -15    1    5    5    0    0 -0.59645724314E+03 -0.66081018517E+02  0.10723433794E+03  0.60961229248E+03  0.00000000000E+00 0.  1.
         15    1    3    3    0    0  0.22610062034E+02  0.36173291621E+02 -0.56373070128E+02  0.70694023564E+02  0.00000000000E+00 0.  1.
         15    1    4    4    0    0  0.84643185785E+03  0.10279531858E+02  0.48567972871E+01  0.84650820861E+03  0.00000000000E+00 0. -1.
        -16    1    1    2    0    0 -0.13998057670E+03  0.10501292591E+03 -0.40996880225E+03  0.44575407488E+03  0.00000000000E+00 0.  1.
         16    1    5    5    0    0 -0.35863995215E+03 -0.95578671755E+02  0.48861232657E+02  0.37435987743E+03  0.00000000000E+00 0. -1.
    9900018    1    4    4    0    0  0.30023958293E+03 -0.11523596068E+03  0.31848824266E+03  0.46170669575E+03  0.91187600000E+02 0.  0.
<mgrwt>
<rscale>  0 0.29905965E+04</rscale>
<asrwt>0</asrwt>
<pdfrwt beam="1">  1        1 0.22259033E+00 0.29905965E+04</pdfrwt>
<pdfrwt beam="2">  1       -1 0.23775116E+00 0.29905965E+04</pdfrwt>
<totfact> 0.50897266E-01</totfact>
</mgrwt>
</event>
<event>
12    1  0.1568542E-011  0.4552753E+04  0.7818608E-02  0.8396791E-01
         -1   -1    0    0    0  501 -0.00000000000E+00  0.00000000000E+00  0.44402673559E+04  0.44402673559E+04  0.00000000000E+00 0.  1.
          1   -1    0    0  501    0  0.00000000000E+00 -0.00000000000E+00 -0.15587978258E+04  0.15587978258E+04  0.00000000000E+00 0. -1.
         23    2    1    2    0    0 -0.36140152745E+03  0.20834882410E+03 -0.23081849991E+03  0.48418546059E+03  0.84487181261E+02 0.  0.
    9900016    2    1    2    0    0  0.81468532811E+03 -0.79289704497E+03  0.17667447610E+03  0.24875063110E+04  0.22054650007E+04 0.  0.
         24    2    4    4    0    0 -0.44761678894E+03 -0.56513905774E+03  0.65627741364E+03  0.97811860380E+03  0.79202368264E+02 0.  0.
        -15    1    3    3    0    0 -0.10633784066E+02  0.30091935914E+02 -0.13072037144E+02  0.34488840597E+02  0.00000000000E+00 0.  1.
        -15    1    5    5    0    0 -0.33248277956E+03 -0.36011955077E+03  0.44388727261E+03  0.66126152189E+03  0.00000000000E+00 0.  1.
         15    1    3    3    0    0 -0.35076774339E+03  0.17825688818E+03 -0.21774646277E+03  0.44969661999E+03  0.00000000000E+00 0. -1.
         15    1    4    4    0    0  0.84420379214E+03  0.14968155910E+03 -0.23835922176E+03  0.88988748188E+03  0.00000000000E+00 0. -1.
        -16    1    1    2    0    0 -0.45328380066E+03  0.58454822087E+03  0.29356135539E+04  0.30273734101E+04  0.00000000000E+00 0.  1.
         16    1    5    5    0    0 -0.11513400938E+03 -0.20501950696E+03  0.21239014103E+03  0.31685708191E+03  0.00000000000E+00 0. -1.
    9900018    1    4    4    0    0  0.41809832491E+03 -0.37743954633E+03 -0.24124371577E+03  0.61950022536E+03  0.91187600000E+02 0.  0.
<mgrwt>
<rscale>  0 0.25174618E+04</rscale>
<asrwt>0</asrwt>
<pdfrwt beam="1">  1        1 0.23981505E+00 0.45527532E+04</pdfrwt>
<pdfrwt beam="2">  1       -1 0.68311805E+00 0.45527532E+04</pdfrwt>
<totfact> 0.10015672E-03</totfact>
</mgrwt>
</event>
<event>
12    1  0.1568542E-011  0.2757578E+04  0.7818608E-02  0.8783890E-01
          2   -1    0    0  501    0  0.00000000000E+00  0.00000000000E+00  0.17869296320E+04  0.17869296320E+04  0.00000000000E+00 0. -1.
         -2   -1    0    0    0  501 -0.00000000000E+00 -0.00000000000E+00 -0.15105777796E+04  0.15105777796E+04  0.00000000000E+00 0.  1.
         23    2    1    2    0    0  0.35133551077E+03  0.49243016744E+01 -0.31103712761E+03  0.47806345528E+03  0.91321862925E+02 0.  0.
    9900016    2    1    2    0    0 -0.61278315958E+03 -0.29281423049E+03  0.24695947145E+03  0.23025999426E+04  0.21862603095E+04 0.  0.
        -24    2    4    4    0    0 -0.27181773988E+03  0.68207354838E+03 -0.40799218040E+03  0.84369775279E+03  0.79114282411E+02 0.  0.
        -15    1    3    3    0    0  0.18504613959E+03  0.47133826027E+02 -0.15096881211E+03  0.24342402010E+03  0.00000000000E+00 0. -1.
        -15    1    4    4    0    0 -0.12742670069E+02 -0.59215084489E+03  0.73108339609E+03  0.94089740716E+03  0.00000000000E+00 0.  1.
         15    1    5    5    0    0 -0.13204068932E+03  0.22900471665E+03 -0.14441526905E+03  0.30122030778E+03  0.00000000000E+00 0. -1.
         15    1    3    3    0    0  0.16628937118E+03 -0.42209524353E+02 -0.16006831550E+03  0.23463943518E+03  0.00000000000E+00 0.  1.
        -16    1    5    5    0    0 -0.13977705056E+03  0.45306883173E+03 -0.26357691135E+03  0.54247744501E+03  0.00000000000E+00 0.  1.
         16    1    1    2    0    0  0.26144764881E+03  0.28788992882E+03  0.34042950857E+03  0.51684401369E+03  0.00000000000E+00 0. -1.
    9900018    1    4    4    0    0 -0.32822274964E+03 -0.38273693398E+03 -0.76131744243E+02  0.51800478269E+03  0.91187600000E+02 0.  0.
<mgrwt>
<rscale>  0 0.16610609E+04</rscale>
<asrwt>0</asrwt>
<pdfrwt beam="1">  1        2 0.27491225E+00 0.27575784E+04</pdfrwt>
<pdfrwt beam="2">  1       -2 0.23239658E+00 0.27575784E+04</pdfrwt>
<totfact> 0.62161554E-01</totfact>
</mgrwt>
</event>
<event>
12    1  0.1568542E-011  0.3867897E+04  0.7818608E-02  0.8031739E-01
         -2   -1    0    0    0  501 -0.00000000000E+00  0.00000000000E+00  0.13223048271E+04  0.13223048271E+04  0.00000000000E+00 0. -1.
          2   -1    0    0  501    0  0.00000000000E+00 -0.00000000000E+00 -0.28285135586E+04  0.28285135586E+04  0.00000000000E+00 0.  1.
         23    2    1    2    0    0 -0.50521920959E+03  0.66706511401E+02  0.27442261576E+03  0.58597794913E+03  0.91466805082E+02 0.  0.
    9900016    2    1    2    0    0  0.91104741710E+03 -0.15946226414E+03 -0.85037786775E+03  0.25456879948E+04  0.22140346065E+04 0.  0.
         24    2    4    4    0    0 -0.53947851638E+03 -0.61301233442E+03 -0.53049433410E+02  0.82224754959E+03  0.80346740059E+02 0.  0.
        -15    1    3    3    0    0 -0.83130739090E+02 -0.16784063101E+02  0.23986459251E+02  0.88134980474E+02  0.00000000000E+00 0.  1.
        -15    1    5    5    0    0 -0.28942279022E+03 -0.38864344503E+03 -0.30233707117E+02  0.48551349714E+03  0.00000000000E+00 0.  1.
         15    1    3    3    0    0 -0.42208847050E+03  0.83490574502E+02  0.25043615651E+03  0.49784296866E+03  0.00000000000E+00 0. -1.
         15    1    4    4    0    0  0.15206442761E+03  0.17198376131E+02 -0.54091820025E+02  0.16231235097E+03  0.00000000000E+00 0. -1.
        -16    1    1    2    0    0 -0.40582820752E+03  0.92755752735E+02 -0.93025347942E+03  0.10191524418E+04  0.00000000000E+00 0.  1.
         16    1    5    5    0    0 -0.25005572616E+03 -0.22436888940E+03 -0.22815726293E+02  0.33673405245E+03  0.00000000000E+00 0. -1.
    9900018    1    4    4    0    0  0.12984615059E+04  0.43635169416E+03 -0.74323661431E+03  0.15611280942E+04  0.91187600000E+02 0.  0.
<mgrwt>
<rscale>  0 0.38678972E+04</rscale>
<asrwt>0</asrwt>
<pdfrwt beam="1">  1        2 0.43515593E+00 0.38678972E+04</pdfrwt>
<pdfrwt beam="2">  1       -2 0.20343151E+00 0.38678972E+04</pdfrwt>
<totfact> 0.22369081E-01</totfact>
</mgrwt>
</event>
<event>
12    1  0.1568542E-011  0.3841385E+04  0.7818608E-02  0.8037332E-01
          2   -1    0    0  501    0  0.00000000000E+00  0.00000000000E+00  0.12367743666E+04  0.12367743666E+04  0.00000000000E+00 0. -1.
         -2   -1    0    0    0  501 -0.00000000000E+00 -0.00000000000E+00 -0.29828065985E+04  0.29828065985E+04  0.00000000000E+00 0.  1.
         23    2    1    2    0    0  0.25127070820E+03 -0.21766851505E+03 -0.90629338031E+03  0.96952883846E+03  0.90010700399E+02 0.  0.
    9900016    2    1    2    0    0 -0.13408176790E+03 -0.17099457531E+02  0.16703144751E+03  0.22096504331E+04  0.21991783057E+04 0.  0.
         24    2    4    4    0    0  0.30973011317E+03 -0.92623821273E+02 -0.72793955467E+03  0.80108419492E+03  0.85603602892E+02 0.  0.
        -15    1    5    5    0    0  0.68744990717E+02 -0.36789694280E+01 -0.23973957728E+03  0.24942829326E+03  0.00000000000E+00 0.  1.
        -15    1    3    3    0    0  0.38304910114E+02 -0.84805334992E+02 -0.26475831042E+03  0.28063530412E+03  0.00000000000E+00 0.  1.
         15    1    4    4    0    0  0.11590736779E+03  0.27892771872E+03 -0.31226022557E+02  0.30366141452E+03  0.00000000000E+00 0. -1.
         15    1    3    3    0    0  0.21296579809E+03 -0.13286318005E+03 -0.64153506988E+03  0.68889353434E+03  0.00000000000E+00 0. -1.
        -16    1    1    2    0    0 -0.11718894030E+03  0.23476797258E+03 -0.10067702991E+04  0.10404016935E+04  0.00000000000E+00 0.  1.
         16    1    5    5    0    0  0.24098512245E+03 -0.88944851845E+02 -0.48819997740E+03  0.55165590166E+03  0.00000000000E+00 0. -1.
    9900018    1    4    4    0    0 -0.55971924885E+03 -0.20340335498E+03  0.92619702473E+03  0.11049048237E+04  0.91187600000E+02 0.  0.
<mgrwt>
<rscale>  0 0.38413845E+04</rscale>
<asrwt>0</asrwt>
<pdfrwt beam="1">  1        2 0.19027298E+00 0.38413845E+04</pdfrwt>
<pdfrwt beam="2">  1       -2 0.45889332E+00 0.38413845E+04</pdfrwt>
<totfact> 0.43622802E-02</totfact>
</mgrwt>
</event>
<event>
12    1  0.1568542E-011  0.3034573E+04  0.7818608E-02  0.8964266E-01
          1   -1    0    0  501    0  0.00000000000E+00  0.00000000000E+00  0.12588111947E+04  0.12588111947E+04  0.00000000000E+00 0. -1.
         -1   -1    0    0    0  501 -0.00000000000E+00 -0.00000000000E+00 -0.21224526013E+04  0.21224526013E+04  0.00000000000E+00 0.  1.
         23    2    1    2    0    0  0.97497155143E+02  0.83621200662E+01 -0.25376955958E+03  0.28601323014E+03  0.88481399925E+02 0.  0.
    9900016    2    1    2    0    0 -0.10745498974E+03  0.40999576157E+03  0.13583164224E+03  0.22401504725E+04  0.21954910169E+04 0.  0.
         24    2    4    4    0    0 -0.30677196215E+03 -0.41823489324E+03 -0.73456761142E+03  0.90251649338E+03  0.76921923953E+02 0.  0.
        -15    1    3    3    0    0  0.38413552966E+02 -0.14292254103E+02 -0.23581046781E+02  0.47285678023E+02  0.00000000000E+00 0. -1.
        -15    1    5    5    0    0 -0.11315197847E+03 -0.10569885491E+03 -0.18402918904E+03  0.24050438786E+03  0.00000000000E+00 0.  1.
         15    1    3    3    0    0  0.59083602177E+02  0.22654374169E+02 -0.23018851280E+03  0.23872755212E+03  0.00000000000E+00 0.  1.
         15    1    4    4    0    0  0.37112969888E+03  0.40171618889E+03  0.46402256144E+03  0.71723781784E+03  0.00000000000E+00 0. -1.
        -16    1    1    2    0    0  0.99578346008E+01 -0.41835788163E+03 -0.74570348926E+03  0.85510009326E+03  0.00000000000E+00 0.  1.
         16    1    5    5    0    0 -0.19361998368E+03 -0.31253603833E+03 -0.55053842238E+03  0.66201210552E+03  0.00000000000E+00 0. -1.
    9900018    1    4    4    0    0 -0.17181272648E+03  0.42651446592E+03  0.40637669222E+03  0.62039616132E+03  0.91187600000E+02 0.  0.
<mgrwt>
<rscale>  0 0.13856582E+04</rscale>
<asrwt>0</asrwt>
<pdfrwt beam="1">  1        1 0.19366326E+00 0.30345729E+04</pdfrwt>
<pdfrwt beam="2">  1       -1 0.32653117E+00 0.30345729E+04</pdfrwt>
<totfact> 0.18084055E-01</totfact>
</mgrwt>
</event>
<event>
12    1  0.1568542E-011  0.2515426E+04  0.7818608E-02  0.9169535E-01
         -2   -1    0    0    0  501 -0.00000000000E+00  0.00000000000E+00  0.61597259710E+03  0.61597259710E+03  0.00000000000E+00 0.  1.
          2   -1    0    0  501    0  0.00000000000E+00 -0.00000000000E+00 -0.33273463341E+04  0.33273463341E+04  0.00000000000E+00 0. -1.
         23    2    1    2    0    0 -0.53205158458E+02 -0.65511206366E+01  0.11761111472E+03  0.15775086909E+03  0.90439241071E+02 0.  0.
    9900016    2    1    2    0    0 -0.24621914183E+02  0.24250580001E+03 -0.22411655331E+04  0.31473962864E+04  0.21963299240E+04 0.  0.
        -24    2    4    4    0    0  0.59912958469E+03 -0.48784149213E+03 -0.14221009857E+04  0.16204476269E+04  0.80831412524E+02 0.  0.
        -15    1    4    4    0    0 -0.73408824662E+03  0.25070192561E+03 -0.59942994738E+03  0.98033324494E+03  0.00000000000E+00 0.  1.
        -15    1    3    3    0    0 -0.54453652567E+02 -0.34525302950E+02  0.41564198270E+02  0.76712315827E+02  0.00000000000E+00 0. -1.
         15    1    3    3    0    0  0.12484941090E+01  0.27974182314E+02  0.76046916453E+02  0.81038553268E+02  0.00000000000E+00 0.  1.
         15    1    5    5    0    0  0.46643271335E+03 -0.34242189102E+03 -0.10183597113E+04  0.11712680005E+04  0.00000000000E+00 0. -1.
        -16    1    5    5    0    0  0.13269687134E+03 -0.14541960111E+03 -0.40374127445E+03  0.44917962637E+03  0.00000000000E+00 0.  1.
         16    1    1    2    0    0  0.77827072641E+02 -0.23595467937E+03 -0.58781931856E+03  0.63817177564E+03  0.00000000000E+00 0. -1.
    9900018    1    4    4    0    0  0.11033674775E+03  0.47964536653E+03 -0.21963460002E+03  0.54661541458E+03  0.91187600000E+02 0.  0.
<mgrwt>
<rscale>  0 0.11373485E+04</rscale>
<asrwt>0</asrwt>
<pdfrwt beam="1">  1        2 0.51189944E+00 0.25154265E+04</pdfrwt>
<pdfrwt beam="2">  1       -2 0.94765014E-01 0.25154265E+04</pdfrwt>
<totfact> 0.88423809E-01</totfact>
</mgrwt>
</event>
<event>
12    1  0.1568542E-011  0.3452289E+04  0.7818608E-02  0.8732243E-01
         -2   -1    0    0    0  501 -0.00000000000E+00  0.00000000000E+00  0.18126910626E+04  0.18126910626E+04  0.00000000000E+00 0.  1.
          2   -1    0    0  501    0  0.00000000000E+00 -0.00000000000E+00 -0.18987504372E+04  0.18987504372E+04  0.00000000000E+00 0. -1.
         23    2    1    2    0    0 -0.18650171951E+03 -0.99733319395E+02 -0.12095258940E+03  0.25897601023E+03  0.87803295008E+02 0.  0.
    9900016    2    1    2    0    0  0.13149245491E+03 -0.13089256773E+03 -0.97439308677E+03  0.24157045926E+04  0.22026719368E+04 0.  0.
         24    2    4    4    0    0  0.52226412928E+03 -0.96045871527E+03 -0.86786921875E+03  0.13980183709E+04  0.77573320189E+02 0.  0.
        -15    1    3    3    0    0 -0.96798879510E+02 -0.15107040677E+02 -0.87105489405E+02  0.13109390542E+03  0.00000000000E+00 0. -1.
        -15    1    5    5    0    0  0.43536429898E+02 -0.13348827139E+03 -0.11647009015E+03  0.18242757803E+03  0.00000000000E+00 0.  1.
         15    1    3    3    0    0 -0.89702840004E+02 -0.84626278718E+02 -0.33847099992E+02  0.12788210482E+03  0.00000000000E+00 0.  1.
         15    1    4    4    0    0 -0.36841752981E+03  0.56155536710E+03  0.82320892548E+02  0.67664808870E+03  0.00000000000E+00 0. -1.
        -16    1    1    2    0    0  0.55009264606E+02  0.23062588713E+03  0.10092863015E+04  0.10367608969E+04  0.00000000000E+00 0.  1.
         16    1    5    5    0    0  0.47872769938E+03 -0.82697044387E+03 -0.75139912860E+03  0.12155907929E+04  0.00000000000E+00 0. -1.
    9900018    1    4    4    0    0 -0.22354144557E+02  0.26801078043E+03 -0.18884476057E+03  0.34103813305E+03  0.91187600000E+02 0.  0.
<mgrwt>
<rscale>  0 0.17520126E+04</rscale>
<asrwt>0</asrwt>
<pdfrwt beam="1">  1        2 0.29211545E+00 0.34522892E+04</pdfrwt>
<pdfrwt beam="2">  1       -2 0.27887555E+00 0.34522892E+04</pdfrwt>
<totfact> 0.26589195E-01</totfact>
</mgrwt>
</event>
<event>
12    1  0.1568542E-011  0.3702769E+04  0.7818608E-02  0.8711822E-01
         -1   -1    0    0    0  501 -0.00000000000E+00  0.00000000000E+00  0.26307869351E+04  0.26307869351E+04  0.00000000000E+00 0.  1.
          1   -1    0    0  501    0  0.00000000000E+00 -0.00000000000E+00 -0.14597012876E+04  0.14597012876E+04  0.00000000000E+00 0. -1.
         23    2    1    2    0    0 -0.10187958781E+01  0.17916656212E+03  0.14330866444E+03  0.24772598614E+03  0.93429631165E+02 0.  0.
    9900016    2    1    2    0    0 -0.26922290655E+03 -0.52906020617E+03 -0.44557532541E+03  0.23045089528E+04  0.21817054035E+04 0.  0.
         24    2    4    4    0    0  0.16548171762E+03  0.43585011186E+03  0.51675136479E+03  0.70056739840E+03  0.80082381451E+02 0.  0.
        -15    1    5    5    0    0  0.68246067305E+02  0.26396212645E+03  0.26087941567E+03  0.37734811437E+03  0.00000000000E+00 0.  1.
        -15    1    3    3    0    0 -0.94551672603E+01  0.11523241543E+03  0.33489491592E+02  0.12037215542E+03  0.00000000000E+00 0.  1.
         15    1    4    4    0    0 -0.58916905116E+02 -0.15481714944E+03  0.11499828385E+03  0.20165355627E+03  0.00000000000E+00 0. -1.
         15    1    3    3    0    0  0.84363713821E+01  0.63934146696E+02  0.10981917284E+03  0.12735383072E+03  0.00000000000E+00 0. -1.
        -16    1    1    2    0    0  0.27024170243E+03  0.34989364404E+03  0.14733523085E+04  0.15382532837E+04  0.00000000000E+00 0.  1.
         16    1    5    5    0    0  0.97235650315E+02  0.17188798541E+03  0.25587194912E+03  0.32321928403E+03  0.00000000000E+00 0. -1.
    9900018    1    4    4    0    0 -0.37578771906E+03 -0.81009316859E+03 -0.10773249740E+04  0.14022879981E+04  0.91187600000E+02 0.  0.
<mgrwt>
<rscale>  0 0.17896513E+04</rscale>
<asrwt>0</asrwt>
<pdfrwt beam="1">  1        1 0.22456943E+00 0.37027687E+04</pdfrwt>
<pdfrwt beam="2">  1       -1 0.40473645E+00 0.37027687E+04</pdfrwt>
<totfact> 0.36860495E-02</totfact>
</mgrwt>
</event>
<event>
12    1  0.1568542E-011  0.6052563E+04  0.7818608E-02  0.8250288E-01
          2   -1    0    0  501    0  0.00000000000E+00  0.00000000000E+00  0.28147173816E+04  0.28147173816E+04  0.00000000000E+00 0. -1.
         -2   -1    0    0    0  501 -0.00000000000E+00 -0.00000000000E+00 -0.39813052144E+04  0.39813052144E+04  0.00000000000E+00 0.  1.
         23    2    1    2    0    0 -0.34129226060E+03  0.20603909964E+02 -0.62606903480E+03  0.71937274517E+03  0.92896619484E+02 0.  0.
    9900016    2    1    2    0    0 -0.62651345470E+03 -0.21108272075E+04  0.10359229924E+04  0.32854404258E+04  0.22074582072E+04 0.  0.
         24    2    4    4    0    0  0.48441532781E+03  0.13537525758E+02 -0.15464481576E+03  0.51482704886E+03  0.79312021670E+02 0.  0.
        -15    1    3    3    0    0 -0.13161693143E+03 -0.37180571429E+02 -0.24754852404E+03  0.28281740273E+03  0.00000000000E+00 0. -1.
        -15    1    5    5    0    0  0.13620809695E+03 -0.50902653767E+01 -0.80588568078E+02  0.15834479398E+03  0.00000000000E+00 0.  1.
         15    1    4    4    0    0 -0.86449411265E+03 -0.15156900606E+04  0.50406294663E+03  0.18162449958E+04  0.00000000000E+00 0. -1.
         15    1    3    3    0    0 -0.20967532917E+03  0.57784481393E+02 -0.37852051076E+03  0.43655534245E+03  0.00000000000E+00 0.  1.
        -16    1    1    2    0    0  0.96780571531E+03  0.20902232975E+04 -0.15764417904E+04  0.27912094251E+04  0.00000000000E+00 0.  1.
         16    1    5    5    0    0  0.34820723086E+03  0.18627791134E+02 -0.74056247679E+02  0.35648225488E+03  0.00000000000E+00 0. -1.
    9900018    1    4    4    0    0 -0.24643466986E+03 -0.60867467265E+03  0.68650486154E+03  0.95436838115E+03  0.91187600000E+02 0.  0.
<mgrwt>
<rscale>  0 0.29771447E+04</rscale>
<asrwt>0</asrwt>
<pdfrwt beam="1">  1        2 0.43303344E+00 0.60525625E+04</pdfrwt>
<pdfrwt beam="2">  1       -2 0.61250849E+00 0.60525625E+04</pdfrwt>
<totfact> 0.68972565E-04</totfact>
</mgrwt>
</event>
<event>
12    1  0.1568542E-011  0.2543263E+04  0.7818608E-02  0.9135556E-01
         -2   -1    0    0    0  501 -0.00000000000E+00  0.00000000000E+00  0.73777065443E+03  0.73777065443E+03  0.00000000000E+00 0.  1.
          2   -1    0    0  501    0  0.00000000000E+00 -0.00000000000E+00 -0.25984415524E+04  0.25984415524E+04  0.00000000000E+00 0. -1.
         23    2    1    2    0    0 -0.61475789867E+02 -0.36587789586E+02  0.76981871994E+02  0.13891916746E+03  0.90853659181E+02 0.  0.
    9900016    2    1    2    0    0  0.20262529852E+03  0.29478973588E+03 -0.17631715727E+04  0.28551890828E+04  0.22170639829E+04 0.  0.
         24    2    4    4    0    0 -0.41605145524E+03 -0.53168265281E+03 -0.19235169957E+03  0.70650744571E+03  0.79801865983E+02 0.  0.
        -15    1    3    3    0    0 -0.83272710931E+02 -0.33224017634E+02  0.45664771761E+02  0.10061536221E+03  0.00000000000E+00 0.  1.
        -15    1    5    5    0    0 -0.23404056507E+03 -0.34961881265E+03 -0.14313683359E+03  0.44440573060E+03  0.00000000000E+00 0.  1.
         15    1    4    4    0    0 -0.21721657199E+03  0.53276137565E+03 -0.60747476202E+03  0.83668590822E+03  0.00000000000E+00 0. -1.
         15    1    3    3    0    0  0.21796921064E+02 -0.33637719521E+01  0.31317100232E+02  0.38303805249E+02  0.00000000000E+00 0. -1.
        -16    1    1    2    0    0 -0.14114950866E+03 -0.25820194630E+03 -0.17448119731E+03  0.34210395654E+03  0.00000000000E+00 0.  1.
         16    1    5    5    0    0 -0.18201089016E+03 -0.18206384017E+03 -0.49214865979E+02  0.26210171512E+03  0.00000000000E+00 0. -1.
    9900018    1    4    4    0    0  0.83589332575E+03  0.29371101305E+03 -0.96334511108E+03  0.13119957289E+04  0.91187600000E+02 0.  0.
<mgrwt>
<rscale>  0 0.11744087E+04</rscale>
<asrwt>0</asrwt>
<pdfrwt beam="1">  1        2 0.39976024E+00 0.25432626E+04</pdfrwt>
<pdfrwt beam="2">  1       -2 0.11350318E+00 0.25432626E+04</pdfrwt>
<totfact> 0.16385949E+00</totfact>
</mgrwt>
</event>
<event>
12    1  0.1568542E-011  0.2753562E+04  0.7818608E-02  0.8746629E-01
         -2   -1    0    0    0  501 -0.00000000000E+00  0.00000000000E+00  0.15843994711E+04  0.15843994711E+04  0.00000000000E+00 0.  1.
          2   -1    0    0  501    0  0.00000000000E+00 -0.00000000000E+00 -0.16349453942E+04  0.16349453942E+04  0.00000000000E+00 0. -1.
         23    2    1    2    0    0  0.35645483003E+03  0.21339341719E+03 -0.18237363673E+03  0.46262863961E+03  0.90378750079E+02 0.  0.
    9900016    2    1    2    0    0 -0.65923378832E+02 -0.57840057764E+03  0.16947082010E+03  0.22886823008E+04  0.22069103278E+04 0.  0.
         24    2    4    4    0    0 -0.18756749096E+02  0.22594530707E+03  0.68806353615E+03  0.72917061717E+03  0.82796508042E+02 0.  0.
        -15    1    5    5    0    0 -0.31622896275E+02  0.21068369155E+03  0.55261664248E+03  0.59226073566E+03  0.00000000000E+00 0.  1.
        -15    1    3    3    0    0  0.18023770491E+03  0.15740528628E+03 -0.11833265661E+03  0.26695443814E+03  0.00000000000E+00 0.  1.
         15    1    4    4    0    0  0.73676382088E+02  0.13071128652E+03 -0.59077589870E+03  0.60953245376E+03  0.00000000000E+00 0. -1.
         15    1    3    3    0    0  0.17621712512E+03  0.55988130901E+02 -0.64040980113E+02  0.19567420147E+03  0.00000000000E+00 0. -1.
        -16    1    1    2    0    0 -0.29053145120E+03  0.36500716046E+03 -0.37643106499E+02  0.46803392483E+03  0.00000000000E+00 0.  1.
         16    1    5    5    0    0  0.12866147179E+02  0.15261615515E+02  0.13544689367E+03  0.13690988151E+03  0.00000000000E+00 0. -1.
    9900018    1    4    4    0    0 -0.12084301182E+03 -0.93505717123E+03  0.72183182643E+02  0.94997922989E+03  0.91187600000E+02 0.  0.
<mgrwt>
<rscale>  0 0.17260784E+04</rscale>
<asrwt>0</asrwt>
<pdfrwt beam="1">  1        2 0.25153006E+00 0.27535624E+04</pdfrwt>
<pdfrwt beam="2">  1       -2 0.24375377E+00 0.27535624E+04</pdfrwt>
<totfact> 0.64362078E-01</totfact>
</mgrwt>
</event>
<event>
12    1  0.1568542E-011  0.3869010E+04  0.7818608E-02  0.8670956E-01
          2   -1    0    0  501    0  0.00000000000E+00  0.00000000000E+00  0.16935162631E+04  0.16935162631E+04  0.00000000000E+00 0. -1.
         -2   -1    0    0    0  501 -0.00000000000E+00 -0.00000000000E+00 -0.24569212966E+04  0.24569212966E+04  0.00000000000E+00 0.  1.
         23    2    1    2    0    0 -0.18184013378E+03  0.52172792110E+02 -0.51992810164E+02  0.21656554288E+03  0.91703585349E+02 0.  0.
    9900016    2    1    2    0    0  0.97946579595E+03  0.94318853812E+03 -0.62334956632E+03  0.26553158365E+04  0.21938959971E+04 0.  0.
         24    2    4    4    0    0 -0.32113179855E+02 -0.19410769674E+03 -0.97917583671E+03  0.10019442534E+04  0.79986958275E+02 0.  0.
        -15    1    3    3    0    0 -0.15915739318E+03  0.58465215683E+02 -0.73387177074E+02  0.18475642075E+03  0.00000000000E+00 0.  1.
        -15    1    5    5    0    0 -0.40474817372E+02 -0.54343195075E+02 -0.22902414433E+03  0.23883771138E+03  0.00000000000E+00 0.  1.
         15    1    3    3    0    0 -0.22682740595E+02 -0.62924235724E+01  0.21394366909E+02  0.31809122131E+02  0.00000000000E+00 0. -1.
         15    1    4    4    0    0  0.72634449984E+03  0.81838506046E+03  0.48548920010E+03  0.11970923954E+04  0.00000000000E+00 0. -1.
        -16    1    1    2    0    0 -0.79762566217E+03 -0.99536133023E+03 -0.88062656961E+02  0.12785561803E+04  0.00000000000E+00 0.  1.
         16    1    5    5    0    0  0.83616375168E+01 -0.13976450166E+03 -0.75015169238E+03  0.76310654203E+03  0.00000000000E+00 0. -1.
    9900018    1    4    4    0    0  0.28523447596E+03  0.31891117440E+03 -0.12966292971E+03  0.45627918774E+03  0.91187600000E+02 0.  0.
<mgrwt>
<rscale>  0 0.18679898E+04</rscale>
<asrwt>0</asrwt>
<pdfrwt beam="1">  1        2 0.26054096E+00 0.38690104E+04</pdfrwt>
<pdfrwt beam="2">  1       -2 0.37798789E+00 0.38690104E+04</pdfrwt>
<totfact> 0.80679362E-02</totfact>
</mgrwt>
</event>
<event>
12    1  0.1568542E-011  0.3825613E+04  0.7818608E-02  0.8541729E-01
         -1   -1    0    0    0  501 -0.00000000000E+00  0.00000000000E+00  0.50368588748E+04  0.50368588748E+04  0.00000000000E+00 0.  1.
          1   -1    0    0  501    0  0.00000000000E+00 -0.00000000000E+00 -0.93094273929E+03  0.93094273929E+03  0.00000000000E+00 0. -1.
         23    2    1    2    0    0 -0.34201408825E+03 -0.14010140957E+03  0.32203528164E+02  0.37938040774E+03  0.79311947578E+02 0.  0.
    9900016    2    1    2    0    0  0.86005279289E+03 -0.99794346436E+03  0.29541058554E+04  0.39100203264E+04  0.21968012163E+04 0.  0.
         24    2    4    4    0    0  0.37718328780E+03  0.18524146260E+03  0.21080616803E+04  0.21510879987E+04  0.81693927997E+02 0.  0.
        -15    1    3    3    0    0 -0.85443039614E+02 -0.50641439125E+02  0.41157579635E+02  0.10751285847E+03  0.00000000000E+00 0. -1.
        -15    1    5    5    0    0  0.16982257783E+03  0.12666527940E+03  0.98149441722E+03  0.10040991445E+04  0.00000000000E+00 0.  1.
         15    1    4    4    0    0  0.39517095655E+02 -0.53945672611E+03 -0.76574606085E+02  0.54629555232E+03  0.00000000000E+00 0. -1.
         15    1    3    3    0    0 -0.25657104863E+03 -0.89459970447E+02 -0.89540514707E+01  0.27186754927E+03  0.00000000000E+00 0.  1.
        -16    1    1    2    0    0 -0.51803870464E+03  0.11380448739E+04  0.11196067520E+04  0.16784008799E+04  0.00000000000E+00 0.  1.
         16    1    5    5    0    0  0.20736070997E+03  0.58576183193E+02  0.11265672631E+04  0.11469888542E+04  0.00000000000E+00 0. -1.
    9900018    1    4    4    0    0  0.44335240943E+03 -0.64372820085E+03  0.92261878113E+03  0.12126367755E+04  0.91187600000E+02 0.  0.
<mgrwt>
<rscale>  0 0.21448748E+04</rscale>
<asrwt>0</asrwt>
<pdfrwt beam="1">  1        1 0.14322196E+00 0.38256133E+04</pdfrwt>
<pdfrwt beam="2">  1       -1 0.77490135E+00 0.38256133E+04</pdfrwt>
<totfact> 0.13015106E-03</totfact>
</mgrwt>
</event>
<event>
12    1  0.1568542E-011  0.2650014E+04  0.7818608E-02  0.8351408E-01
          1   -1    0    0  501    0  0.00000000000E+00  0.00000000000E+00  0.18894088429E+04  0.18894088429E+04  0.00000000000E+00 0. -1.
         -1   -1    0    0    0  501 -0.00000000000E+00 -0.00000000000E+00 -0.92920225456E+03  0.92920225456E+03  0.00000000000E+00 0.  1.
         23    2    1    2    0    0 -0.27847036967E+03 -0.63387856292E+01  0.11991149357E+03  0.31652322521E+03  0.90676671867E+02 0.  0.
    9900016    2    1    2    0    0  0.31650670857E+03 -0.86018268131E+02  0.77936999307E+03  0.23850901950E+04  0.22301708484E+04 0.  0.
         24    2    4    4    0    0  0.39993949778E+03 -0.39938340948E+03  0.11006972648E+04  0.12400910225E+04  0.82659334287E+02 0.  0.
        -15    1    3    3    0    0 -0.10168624275E+03  0.39336889727E+02  0.59445340432E+02  0.12418225057E+03  0.00000000000E+00 0.  1.
        -15    1    5    5    0    0  0.21529922819E+03 -0.22533616532E+03  0.69341863790E+03  0.76023651086E+03  0.00000000000E+00 0.  1.
         15    1    3    3    0    0 -0.17678412693E+03 -0.45675675356E+02  0.60466153141E+02  0.19234097465E+03  0.00000000000E+00 0. -1.
         15    1    4    4    0    0 -0.44440739352E+03  0.48166407657E+03 -0.33533965396E+03  0.73617314376E+03  0.00000000000E+00 0. -1.
        -16    1    1    2    0    0 -0.38036338902E+02  0.92357053760E+02  0.60925101655E+02  0.11699767719E+03  0.00000000000E+00 0.  1.
         16    1    5    5    0    0  0.18464026959E+03 -0.17404724416E+03  0.40727862695E+03  0.47985451162E+03  0.00000000000E+00 0. -1.
    9900018    1    4    4    0    0  0.36097460431E+03 -0.16829893523E+03  0.14012382187E+02  0.40882602878E+03  0.91187600000E+02 0.  0.
<mgrwt>
<rscale>  0 0.26500136E+04</rscale>
<asrwt>0</asrwt>
<pdfrwt beam="1">  1        1 0.29067828E+00 0.26500136E+04</pdfrwt>
<pdfrwt beam="2">  1       -1 0.14295419E+00 0.26500136E+04</pdfrwt>
<totfact> 0.12323315E+00</totfact>
</mgrwt>
</event>
<event>
12    1  0.1568542E-011  0.3772851E+04  0.7818608E-02  0.8436643E-01
         -2   -1    0    0    0  501 -0.00000000000E+00  0.00000000000E+00  0.15529681557E+04  0.15529681557E+04  0.00000000000E+00 0.  1.
          2   -1    0    0  501    0  0.00000000000E+00 -0.00000000000E+00 -0.41576957424E+04  0.41576957424E+04  0.00000000000E+00 0. -1.
         23    2    1    2    0    0 -0.31675384077E+03  0.53150113144E+03  0.51865279398E+03  0.81271470278E+03  0.93155885689E+02 0.  0.
    9900016    2    1    2    0    0  0.13680303138E+04 -0.29898191753E+03 -0.26480676253E+04  0.37210169021E+04  0.22074436597E+04 0.  0.
         24    2    4    4    0    0 -0.56267517165E+03 -0.12619686298E+03 -0.89976419192E+03  0.10715523435E+04  0.78229321648E+02 0.  0.
        -15    1    3    3    0    0 -0.21458929507E+02  0.75622643174E+02  0.98475766376E+02  0.12600296179E+03  0.00000000000E+00 0. -1.
        -15    1    5    5    0    0 -0.39497416996E+03 -0.96644698014E+02 -0.56681707001E+03  0.69758611185E+03  0.00000000000E+00 0.  1.
         15    1    3    3    0    0 -0.29529491127E+03  0.45587848827E+03  0.42017702760E+03  0.68671174099E+03  0.00000000000E+00 0.  1.
         15    1    4    4    0    0  0.12654388048E+04 -0.31183257716E+03 -0.10926516622E+04  0.17007241339E+04  0.00000000000E+00 0. -1.
        -16    1    1    2    0    0 -0.10512764730E+04 -0.23251921392E+03 -0.47531275533E+03  0.11769322932E+04  0.00000000000E+00 0.  1.
         16    1    5    5    0    0 -0.16770100169E+03 -0.29552164968E+02 -0.33294712191E+03  0.37396623164E+03  0.00000000000E+00 0. -1.
    9900018    1    4    4    0    0  0.66526668060E+03  0.13904752262E+03 -0.65565177126E+03  0.94874042467E+03  0.91187600000E+02 0.  0.
<mgrwt>
<rscale>  0 0.24076552E+04</rscale>
<asrwt>0</asrwt>
<pdfrwt beam="1">  1        2 0.63964549E+00 0.37728506E+04</pdfrwt>
<pdfrwt beam="2">  1       -2 0.23891818E+00 0.37728506E+04</pdfrwt>
<totfact> 0.14632169E-02</totfact>
</mgrwt>
</event>
