<event>
12    1  0.1008652E-015  0.3439307E+04  0.7818608E-02  0.8794884E-01
         -1   -1    0    0    0  501 -0.00000000000E+00  0.00000000000E+00  0.13317081491E+04  0.13317081491E+04  0.00000000000E+00 0.  1.
          1   -1    0    0  501    0  0.00000000000E+00 -0.00000000000E+00 -0.26914593859E+04  0.26914593859E+04  0.00000000000E+00 0. -1.
         23    2    1    2    0    0  0.46002862609E+02  0.15036183841E+03 -0.42194378953E+03  0.45829492654E+03  0.85280316348E+02 0.  0.
    9900016    2    1    2    0    0  0.48042776157E+03 -0.54511315599E+03 -0.14138312879E+04  0.27527417682E+04  0.22473782825E+04 0.  0.
        -24    2    4    4    0    0 -0.26953436649E+03  0.69761030905E+03 -0.85859794175E+03  0.11396815922E+04  0.48731796261E+02 0.  0.
        -15    1    3    3    0    0  0.37629276997E+02  0.51410302487E+02 -0.26516851239E+03  0.27271472577E+03  0.00000000000E+00 0. -1.
        -15    1    4    4    0    0  0.71542506798E+03 -0.12171882142E+04 -0.53745241209E+03  0.15107068782E+04  0.00000000000E+00 0.  1.
         15    1    5    5    0    0 -0.19491300278E+03  0.44584733732E+03 -0.57230832440E+03  0.75120419663E+03  0.00000000000E+00 0. -1.
         15    1    3    3    0    0  0.83735856124E+01  0.98951535920E+02 -0.15677527714E+03  0.18558020077E+03  0.00000000000E+00 0.  1.
        -16    1    5    5    0    0 -0.74621363706E+02  0.25176297173E+03 -0.28628961736E+03  0.38847739556E+03  0.00000000000E+00 0.  1.
         16    1    1    2    0    0 -0.52643062418E+03  0.39475131759E+03  0.47602384069E+03  0.81213084027E+03  0.00000000000E+00 0. -1.
    9900018    1    4    4    0    0  0.34537060080E+02 -0.25535250863E+02 -0.17780934058E+02  0.10235329777E+03  0.91187600000E+02 0.  0.
<mgrwt>
<rscale>  0 0.16424533E+04</rscale>
<asrwt>0</asrwt>
<pdfrwt beam="1">  1        1 0.41407068E+00 0.34393072E+04</pdfrwt>
<pdfrwt beam="2">  1       -1 0.20487818E+00 0.34393072E+04</pdfrwt>
<totfact> 0.11234333E-01</totfact>
</mgrwt>
</event>
<event>
11    1  0.1008652E-015  0.3701594E+04  0.7818608E-02  0.8067609E-01
         -4   -1    0    0    0  501 -0.00000000000E+00  0.00000000000E+00  0.19218331553E+04  0.19218331553E+04  0.00000000000E+00 0.  1.
          4   -1    0    0  501    0  0.00000000000E+00 -0.00000000000E+00 -0.17823861706E+04  0.17823861706E+04  0.00000000000E+00 0. -1.
         23    2    1    2    0    0  0.40003371770E+03 -0.37350721126E+03 -0.32278430642E+03  0.64219637644E+03  0.93230173651E+02 0.  0.
    9900016    2    1    2    0    0 -0.24185219417E+03  0.82445881854E+03  0.61357464502E+03  0.24076192026E+04  0.21637771494E+04 0.  0.
        -15    1    3    3    0    0  0.38590076442E+03 -0.34754174157E+03 -0.32484955353E+03  0.61256174754E+03  0.00000000000E+00 0. -1.
        -15    1    4    4    0    0 -0.11921799760E+03  0.14777197908E+04  0.83997505994E+03  0.17039444863E+04  0.00000000000E+00 0.  1.
         15    1    4    4    0    0 -0.71410680795E+02 -0.41030615032E+03 -0.16445785826E+03  0.44776892418E+03  0.00000000000E+00 0. -1.
         15    1    3    3    0    0  0.14132953274E+02 -0.25965469690E+02  0.20652471088E+01  0.29634628901E+02  0.00000000000E+00 0.  1.
        -16    1    4    4    0    0 -0.51223515769E+02 -0.24295482197E+03 -0.61942556659E+02  0.25590579206E+03  0.00000000000E+00 0.  1.
         16    1    1    2    0    0 -0.16987678714E+03 -0.49583950426E+03 -0.16874467538E+03  0.55062664507E+03  0.00000000000E+00 0. -1.
    9900018    1    1    2    0    0  0.11695263612E+02  0.44887896983E+02  0.17401321524E+02  0.10377710186E+03  0.91187600000E+02 0.  0.
<mgrwt>
<rscale>  0 0.37015936E+04</rscale>
<asrwt>0</asrwt>
<pdfrwt beam="1">  1        4 0.27421326E+00 0.37015936E+04</pdfrwt>
<pdfrwt beam="2">  1       -4 0.29566664E+00 0.37015936E+04</pdfrwt>
<totfact> 0.23340177E-03</totfact>
</mgrwt>
</event>
<event>
12    1  0.1008652E-015  0.2966634E+04  0.7818608E-02  0.8792747E-01
          2   -1    0    0  501    0  0.00000000000E+00  0.00000000000E+00  0.30612309493E+04  0.30612309493E+04  0.00000000000E+00 0. -1.
         -2   -1    0    0    0  501 -0.00000000000E+00 -0.00000000000E+00 -0.88404698850E+03  0.88404698850E+03  0.00000000000E+00 0.  1.
         23    2    1    2    0    0  0.12062836386E+03  0.23706950811E+03  0.29254465698E+02  0.28269443732E+03  0.91143662890E+02 0.  0.
    9900016    2    1    2    0    0  0.20728299244E+03 -0.60813394420E+03  0.14952906609E+04  0.26930838430E+04  0.21456964585E+04 0.  0.
         24    2    4    4    0    0  0.19919140626E+03  0.79991110452E+03  0.58186322892E+03  0.10146899660E+04  0.10721902074E+03 0.  0.
        -15    1    3    3    0    0  0.24622896976E+02  0.13450048736E+03  0.38044291366E+02  0.14192968774E+03  0.00000000000E+00 0. -1.
        -15    1    5    5    0    0  0.65496658326E+02  0.16456348494E+03  0.17194865220E+03  0.24685479906E+03  0.00000000000E+00 0.  1.
         15    1    4    4    0    0  0.80915861744E+01 -0.14080450487E+04  0.91342743199E+03  0.16783938770E+04  0.00000000000E+00 0. -1.
         15    1    3    3    0    0  0.96005466888E+02  0.10256902075E+03 -0.87898256687E+01  0.14076474958E+03  0.00000000000E+00 0.  1.
        -16    1    1    2    0    0 -0.39067192492E+03  0.41537885863E+03  0.62702646751E+03  0.84754135007E+03  0.00000000000E+00 0.  1.
         16    1    5    5    0    0  0.13369474794E+03  0.63534761957E+03  0.40991457672E+03  0.76783516690E+03  0.00000000000E+00 0. -1.
    9900018    1    1    2    0    0  0.62760568620E+02 -0.44314422534E+02  0.25612366648E+02  0.12195830737E+03  0.91187600000E+02 0.  0.
<mgrwt>
<rscale>  0 0.16460491E+04</rscale>
<asrwt>0</asrwt>
<pdfrwt beam="1">  1        2 0.47095860E+00 0.29666339E+04</pdfrwt>
<pdfrwt beam="2">  1       -2 0.13600723E+00 0.29666339E+04</pdfrwt>
<totfact> 0.52366703E-01</totfact>
</mgrwt>
</event>
<event>
11    1  0.1008652E-015  0.2654230E+04  0.7818608E-02  0.9110242E-01
         -2   -1    0    0    0  501 -0.00000000000E+00  0.00000000000E+00  0.10863738691E+04  0.10863738691E+04  0.00000000000E+00 0.  1.
          2   -1    0    0  501    0  0.00000000000E+00 -0.00000000000E+00 -0.18079659762E+04  0.18079659762E+04  0.00000000000E+00 0. -1.
         23    2    1    2    0    0  0.58891310972E+02 -0.29980838574E+02  0.60477562605E+02  0.12728889322E+03  0.90431684539E+02 0.  0.
    9900016    2    1    2    0    0 -0.21608604677E+02  0.35254081757E+03 -0.70757765683E+03  0.22972044559E+04  0.21567870113E+04 0.  0.
        -15    1    3    3    0    0 -0.20397111653E+02  0.99098191494E+01  0.73136779654E+01  0.23827223186E+02  0.00000000000E+00 0. -1.
        -15    1    4    4    0    0 -0.50954613685E+03 -0.17909523808E+03 -0.30098207465E+03  0.61830621793E+03  0.00000000000E+00 0.  1.
         15    1    4    4    0    0  0.87672309364E+03  0.77027292241E+03 -0.22854134095E+03  0.11891992694E+04  0.00000000000E+00 0. -1.
         15    1    3    3    0    0  0.79288422625E+02 -0.39890657723E+02  0.53163884640E+02  0.10346167003E+03  0.00000000000E+00 0.  1.
        -16    1    1    2    0    0 -0.19060491173E+01 -0.35029737041E+03 -0.11996848668E+02  0.35050792447E+03  0.00000000000E+00 0.  1.
         16    1    4    4    0    0 -0.38878556147E+03 -0.23863686676E+03 -0.17805424124E+03  0.48969896856E+03  0.00000000000E+00 0. -1.
    9900018    1    1    2    0    0 -0.35376657179E+02  0.27737391410E+02 -0.62495164233E+02  0.11933857173E+03  0.91187600000E+02 0.  0.
<mgrwt>
<rscale>  0 0.12029912E+04</rscale>
<asrwt>0</asrwt>
<pdfrwt beam="1">  1        2 0.27814861E+00 0.26542302E+04</pdfrwt>
<pdfrwt beam="2">  1       -2 0.16713444E+00 0.26542302E+04</pdfrwt>
<totfact> 0.16720019E+00</totfact>
</mgrwt>
</event>
