<event>
11    1  0.1933587E-012  0.7513523E+03  0.7818608E-02  0.9633231E-01
         -2   -1    0    0    0  501 -0.00000000000E+00  0.00000000000E+00  0.57545312184E+03  0.57545312184E+03  0.00000000000E+00 0.  1.
          2   -1    0    0  501    0  0.00000000000E+00 -0.00000000000E+00 -0.24525467502E+03  0.24525467502E+03  0.00000000000E+00 0. -1.
         23    2    1    2    0    0  0.19043377070E+03  0.66788828362E+02  0.60720903420E+02  0.23019633816E+03  0.92615103357E+02 0.  0.
        -24    2    1    2    0    0 -0.76676877039E+02 -0.42378732501E+02  0.21029253547E+03  0.24146455061E+03  0.80042977744E+02 0.  0.
        -15    1    3    3    0    0  0.53441153762E+02  0.36806186852E+02 -0.20609134520E+02  0.68083689175E+02  0.00000000000E+00 0. -1.
        -15    1    1    2    0    0 -0.10238755579E+03 -0.24599337832E+02  0.82201738041E+02  0.13358691829E+03  0.00000000000E+00 0.  1.
         15    1    4    4    0    0 -0.91274134362E+02 -0.25229888921E+02  0.15337535989E+03  0.18025403163E+03  0.00000000000E+00 0. -1.
         15    1    3    3    0    0  0.13699261694E+03  0.29982641510E+02  0.81330037939E+02  0.16211264898E+03  0.00000000000E+00 0.  1.
        -16    1    4    4    0    0  0.14597257323E+02 -0.17148843580E+02  0.56917175581E+02  0.61210518978E+02  0.00000000000E+00 0.  1.
         16    1    1    2    0    0 -0.61650090434E+01 -0.69980847683E+02 -0.62167837607E+02  0.93809202169E+02  0.00000000000E+00 0. -1.
    9900018    1    1    2    0    0 -0.52043288309E+01  0.70170089654E+02  0.39151107494E+02  0.12165078764E+03  0.91187600000E+02 0.  0.
<mgrwt>
<rscale>  0 0.75135230E+03</rscale>
<asrwt>0</asrwt>
<pdfrwt beam="1">  1        2 0.37731488E-01 0.75135230E+03</pdfrwt>
<pdfrwt beam="2">  1       -2 0.88531249E-01 0.75135230E+03</pdfrwt>
<totfact> 0.15225362E+02</totfact>
</mgrwt>
</event>
<event>
11    1  0.1933587E-012  0.5123233E+03  0.7818608E-02  0.1010611E+00
          2   -1    0    0  501    0  0.00000000000E+00  0.00000000000E+00  0.51771390239E+03  0.51771390239E+03  0.00000000000E+00 0.  1.
         -2   -1    0    0    0  501 -0.00000000000E+00 -0.00000000000E+00 -0.12674720526E+03  0.12674720526E+03  0.00000000000E+00 0. -1.
         23    2    1    2    0    0 -0.98134947851E+01 -0.11710117080E+03  0.72762081049E+02  0.16842410584E+03  0.96246403080E+02 0.  0.
        -24    2    1    2    0    0 -0.33984484281E+02 -0.43404030096E+02  0.27946836282E+02  0.10028826502E+03  0.78980095230E+02 0.  0.
        -15    1    1    2    0    0  0.76584578107E+01  0.16244489730E+02  0.67706508940E+02  0.70047889158E+02  0.00000000000E+00 0.  1.
        -15    1    3    3    0    0 -0.16158788241E+02 -0.22817413567E+02  0.68323324045E+02  0.73822878621E+02  0.00000000000E+00 0.  1.
         15    1    4    4    0    0  0.11144843809E+02 -0.43269721173E+02  0.32027123523E+02  0.54974657389E+02  0.00000000000E+00 0. -1.
         15    1    3    3    0    0  0.63452934556E+01 -0.94283757237E+02  0.44387570045E+01  0.94601227220E+02  0.00000000000E+00 0. -1.
        -16    1    4    4    0    0 -0.45129328090E+02 -0.13430892323E+00 -0.40802872415E+01  0.45313607633E+02  0.00000000000E+00 0.  1.
         16    1    1    2    0    0  0.29058029901E+02 -0.67080115266E+01  0.53733025472E+02  0.61454084866E+02  0.00000000000E+00 0. -1.
    9900018    1    1    2    0    0  0.70814913546E+01  0.15096872270E+03  0.16881824539E+03  0.24424676277E+03  0.91187600000E+02 0.  0.
<mgrwt>
<rscale>  0 0.51232330E+03</rscale>
<asrwt>0</asrwt>
<pdfrwt beam="1">  1        2 0.79648292E-01 0.51232330E+03</pdfrwt>
<pdfrwt beam="2">  1       -2 0.19499570E-01 0.51232330E+03</pdfrwt>
<totfact> 0.13194392E+03</totfact>
</mgrwt>
</event>
<event>
11    1  0.1933587E-012  0.2127484E+04  0.7818608E-02  0.8962588E-01
         -1   -1    0    0    0  501 -0.00000000000E+00  0.00000000000E+00  0.13137812501E+04  0.13137812501E+04  0.00000000000E+00 0.  1.
          1   -1    0    0  501    0  0.00000000000E+00 -0.00000000000E+00 -0.12015920891E+04  0.12015920891E+04  0.00000000000E+00 0. -1.
         23    2    1    2    0    0 -0.68705019224E+03 -0.32138617535E+03 -0.31549377003E+03  0.82667394400E+03  0.92338780519E+02 0.  0.
        -24    2    1    2    0    0 -0.34016519677E+03 -0.16240558283E+03  0.17615048398E+02  0.38578851725E+03  0.80215682307E+02 0.  0.
        -15    1    1    2    0    0  0.66967185865E+03  0.38617845492E+03  0.23537939755E+03  0.80808270499E+03  0.00000000000E+00 0.  1.
        -15    1    3    3    0    0 -0.63660183907E+03 -0.27839409965E+03 -0.26616016442E+03  0.74404731661E+03  0.00000000000E+00 0.  1.
         15    1    4    4    0    0 -0.44165918205E+02 -0.54151471740E+02 -0.29845235517E+01  0.69942244769E+02  0.00000000000E+00 0. -1.
         15    1    3    3    0    0 -0.50448353169E+02 -0.42992075700E+02 -0.49333605613E+02  0.82626627387E+02  0.00000000000E+00 0. -1.
        -16    1    4    4    0    0 -0.29599927856E+03 -0.10825411109E+03  0.20599571950E+02  0.31584627248E+03  0.00000000000E+00 0.  1.
         16    1    1    2    0    0  0.81344274567E+02 -0.32238337384E+02  0.15212974825E+03  0.17549832394E+03  0.00000000000E+00 0. -1.
    9900018    1    1    2    0    0  0.27619925579E+03  0.12985164064E+03  0.22558736844E+02  0.31932984902E+03  0.91187600000E+02 0.  0.
<mgrwt>
<rscale>  0 0.13879499E+04</rscale>
<asrwt>0</asrwt>
<pdfrwt beam="1">  1        1 0.18486032E+00 0.21274838E+04</pdfrwt>
<pdfrwt beam="2">  1       -1 0.20212019E+00 0.21274838E+04</pdfrwt>
<totfact> 0.14068454E+00</totfact>
</mgrwt>
</event>
<event>
11    1  0.1933587E-012  0.2107749E+04  0.7818608E-02  0.8759945E-01
         -2   -1    0    0    0  501 -0.00000000000E+00  0.00000000000E+00  0.86487590930E+03  0.86487590930E+03  0.00000000000E+00 0.  1.
          2   -1    0    0  501    0  0.00000000000E+00 -0.00000000000E+00 -0.26162167032E+04  0.26162167032E+04  0.00000000000E+00 0. -1.
         23    2    1    2    0    0 -0.27927041857E+03 -0.37073672784E+03 -0.24786427523E+03  0.53406242088E+03  0.91368935683E+02 0.  0.
        -24    2    1    2    0    0  0.86996078178E+03 -0.20065816054E+03 -0.60080868986E+03  0.10797740926E+04  0.88575109647E+02 0.  0.
        -15    1    3    3    0    0 -0.19841874320E+03 -0.27170102400E+03 -0.13162205302E+03  0.36126971772E+03  0.00000000000E+00 0. -1.
        -15    1    1    2    0    0 -0.31026000107E+03  0.74156159495E+03  0.53388819116E+02  0.80562102342E+03  0.00000000000E+00 0.  1.
         15    1    3    3    0    0 -0.80851675374E+02 -0.99035703837E+02 -0.11624222220E+03  0.17279270317E+03  0.00000000000E+00 0.  1.
         15    1    4    4    0    0  0.55650936788E+03 -0.14108554744E+03 -0.43429394317E+03  0.71987432050E+03  0.00000000000E+00 0. -1.
        -16    1    4    4    0    0  0.31345141390E+03 -0.59572613101E+02 -0.16651474669E+03  0.35989977212E+03  0.00000000000E+00 0.  1.
         16    1    1    2    0    0 -0.26351456605E+03 -0.22147241839E+03 -0.61857934145E+03  0.70790561538E+03  0.00000000000E+00 0. -1.
    9900018    1    1    2    0    0 -0.16915796094E+02  0.51305711824E+02 -0.33747730651E+03  0.35372946022E+03  0.91187600000E+02 0.  0.
<mgrwt>
<rscale>  0 0.17024907E+04</rscale>
<asrwt>0</asrwt>
<pdfrwt beam="1">  1        2 0.40249487E+00 0.21077492E+04</pdfrwt>
<pdfrwt beam="2">  1       -2 0.13305783E+00 0.21077492E+04</pdfrwt>
<totfact> 0.10980089E+00</totfact>
</mgrwt>
</event>
<event>
11    1  0.1933587E-012  0.2328910E+04  0.7818608E-02  0.9035752E-01
          2   -1    0    0  501    0  0.00000000000E+00  0.00000000000E+00  0.12382049777E+04  0.12382049777E+04  0.00000000000E+00 0.  1.
         -2   -1    0    0    0  501 -0.00000000000E+00 -0.00000000000E+00 -0.13136088394E+04  0.13136088394E+04  0.00000000000E+00 0. -1.
         23    2    1    2    0    0  0.16888727499E+03  0.10890630034E+03 -0.27074499642E+02  0.22240230061E+03  0.91357872581E+02 0.  0.
        -24    2    1    2    0    0 -0.45433261328E+03 -0.32597647006E+03  0.30875639243E+03  0.64411498388E+03  0.82914534718E+02 0.  0.
        -15    1    3    3    0    0  0.15015575942E+03  0.55241198527E+02 -0.38180171958E+02  0.16448728714E+03  0.00000000000E+00 0.  1.
        -15    1    1    2    0    0 -0.53565013791E+03  0.12216235802E+03 -0.54629040296E+03  0.77477604269E+03  0.00000000000E+00 0.  1.
         15    1    3    3    0    0  0.18731515567E+02  0.53665101810E+02  0.11105672315E+02  0.57915013470E+02  0.00000000000E+00 0. -1.
         15    1    4    4    0    0 -0.26892341744E+03 -0.20489508376E+03  0.14103047746E+03  0.36632143722E+03  0.00000000000E+00 0. -1.
        -16    1    4    4    0    0 -0.18540919584E+03 -0.12108138630E+03  0.16772591497E+03  0.27779354666E+03  0.00000000000E+00 0.  1.
         16    1    1    2    0    0  0.32115133180E+03 -0.30919924766E+02 -0.64070012284E+02  0.32893644696E+03  0.00000000000E+00 0. -1.
    9900018    1    1    2    0    0  0.49994414441E+03  0.12582773647E+03  0.25327466071E+03  0.58158404289E+03  0.91187600000E+02 0.  0.
<mgrwt>
<rscale>  0 0.12922270E+04</rscale>
<asrwt>0</asrwt>
<pdfrwt beam="1">  1        2 0.19049307E+00 0.23289101E+04</pdfrwt>
<pdfrwt beam="2">  1       -2 0.20209367E+00 0.23289101E+04</pdfrwt>
<totfact> 0.20789897E+00</totfact>
</mgrwt>
</event>
<event>
11    1  0.1933587E-012  0.2825656E+04  0.7818608E-02  0.8295347E-01
          1   -1    0    0  501    0  0.00000000000E+00  0.00000000000E+00  0.20782328364E+04  0.20782328364E+04  0.00000000000E+00 0. -1.
         -1   -1    0    0    0  501 -0.00000000000E+00 -0.00000000000E+00 -0.96047146261E+03  0.96047146261E+03  0.00000000000E+00 0.  1.
         23    2    1    2    0    0  0.34445737994E+03 -0.52689968435E+03  0.49156844933E+03  0.80407135866E+03  0.92828042484E+02 0.  0.
         24    2    1    2    0    0 -0.18248225555E+03  0.87364372902E+03 -0.29130367367E+03  0.94226864256E+03  0.80369307715E+02 0.  0.
        -15    1    4    4    0    0 -0.74173290652E+02  0.48261540693E+03 -0.12711699616E+03  0.50455727005E+03  0.00000000000E+00 0.  1.
        -15    1    3    3    0    0  0.23313166695E+02 -0.13590995200E+02  0.53223149986E+01  0.27505379998E+02  0.00000000000E+00 0.  1.
         15    1    1    2    0    0  0.30981916784E+03 -0.23858668392E+03  0.45938291697E+03  0.60327786874E+03  0.00000000000E+00 0. -1.
         15    1    3    3    0    0  0.32114421324E+03 -0.51330868915E+03  0.48624613433E+03  0.77656597866E+03  0.00000000000E+00 0. -1.
        -16    1    1    2    0    0 -0.13714056736E+03 -0.79654156149E+02  0.89364371272E+02  0.18203931076E+03  0.00000000000E+00 0.  1.
         16    1    4    4    0    0 -0.10830896490E+03  0.39102832209E+03 -0.16418667751E+03  0.43771137251E+03  0.00000000000E+00 0. -1.
    9900018    1    1    2    0    0 -0.33465372486E+03 -0.28503204596E+02  0.36874930991E+03  0.50704711831E+03  0.91187600000E+02 0.  0.
<mgrwt>
<rscale>  0 0.28256563E+04</rscale>
<asrwt>0</asrwt>
<pdfrwt beam="1">  1        1 0.31972813E+00 0.28256563E+04</pdfrwt>
<pdfrwt beam="2">  1       -1 0.14776484E+00 0.28256563E+04</pdfrwt>
<totfact> 0.82735470E-01</totfact>
</mgrwt>
</event>
<event>
11    1  0.2163975E-012  0.2353257E+04  0.7818608E-02  0.8457214E-01
          1   -1    0    0  501    0  0.00000000000E+00  0.00000000000E+00  0.10032804306E+04  0.10032804306E+04  0.00000000000E+00 0. -1.
         -1   -1    0    0    0  501 -0.00000000000E+00 -0.00000000000E+00 -0.13799275223E+04  0.13799275223E+04  0.00000000000E+00 0.  1.
         23    2    1    2    0    0  0.18925750579E+03 -0.33915017830E+03 -0.14863877287E+03  0.42325288081E+03  0.78792571781E+02 0.  0.
        -24    2    1    2    0    0 -0.22275586792E+03  0.52950813442E+03 -0.74312884743E+03  0.94263862962E+03  0.79549110925E+02 0.  0.
        -15    1    3    3    0    0  0.96243463484E+02 -0.10608792753E+03 -0.75258499424E+02  0.16180634835E+03  0.00000000000E+00 0.  1.
        -15    1    1    2    0    0 -0.18084520763E+03 -0.34149920883E+03  0.15948210841E+03  0.41804454506E+03  0.00000000000E+00 0.  1.
         15    1    4    4    0    0 -0.71137230435E+02  0.18597089658E+03 -0.32024458781E+03  0.37709717043E+03  0.00000000000E+00 0. -1.
         15    1    3    3    0    0  0.93014042311E+02 -0.23306225077E+03 -0.73380273448E+02  0.26144653246E+03  0.00000000000E+00 0. -1.
        -16    1    4    4    0    0 -0.15161863749E+03  0.34353723785E+03 -0.42288425962E+03  0.56554145919E+03  0.00000000000E+00 0.  1.
         16    1    1    2    0    0  0.23750083542E+03  0.12173164041E+02  0.39110283701E+02  0.24100715143E+03  0.00000000000E+00 0. -1.
    9900018    1    1    2    0    0 -0.23157265665E+02  0.13896808867E+03  0.31652813646E+03  0.35826474595E+03  0.91187600000E+02 0.  0.
<mgrwt>
<rscale>  0 0.23532567E+04</rscale>
<asrwt>0</asrwt>
<pdfrwt beam="1">  1        1 0.15435083E+00 0.23532567E+04</pdfrwt>
<pdfrwt beam="2">  1       -1 0.21229654E+00 0.23532567E+04</pdfrwt>
<totfact> 0.16785021E+00</totfact>
</mgrwt>
</event>
<event>
11    1  0.1933587E-012  0.9787653E+03  0.7818608E-02  0.9332146E-01
          1   -1    0    0  501    0  0.00000000000E+00  0.00000000000E+00  0.12279314514E+04  0.12279314514E+04  0.00000000000E+00 0. -1.
         -1   -1    0    0    0  501 -0.00000000000E+00 -0.00000000000E+00 -0.19503970266E+03  0.19503970266E+03  0.00000000000E+00 0.  1.
         23    2    1    2    0    0 -0.65994402679E+02  0.11139949475E+02  0.16380964282E+03  0.19989004656E+03  0.92968123434E+02 0.  0.
         24    2    1    2    0    0  0.17620080139E+03  0.47631783512E+02  0.67594480689E+03  0.70512134907E+03  0.83541760475E+02 0.  0.
        -15    1    3    3    0    0 -0.58364096148E+02  0.46507155604E+02  0.84620209704E+02  0.11282669512E+03  0.00000000000E+00 0.  1.
        -15    1    4    4    0    0  0.14983681603E+03  0.63400621976E+02  0.62315062432E+03  0.64403991405E+03  0.00000000000E+00 0.  1.
         15    1    1    2    0    0 -0.42202820231E+02  0.56313925022E+02  0.35574007970E+02  0.78853320982E+02  0.00000000000E+00 0. -1.
         15    1    3    3    0    0 -0.76303065313E+01 -0.35367206129E+02  0.79189433116E+02  0.87063351442E+02  0.00000000000E+00 0. -1.
        -16    1    1    2    0    0  0.57378011436E+02 -0.90829523645E+02 -0.93907712187E+02  0.14269161493E+03  0.00000000000E+00 0.  1.
         16    1    4    4    0    0  0.26363985357E+02 -0.15768838464E+02  0.52794182572E+02  0.61081435018E+02  0.00000000000E+00 0. -1.
    9900018    1    1    2    0    0 -0.12538158991E+03 -0.24256134364E+02  0.25147100329E+03  0.29641482256E+03  0.91187600000E+02 0.  0.
<mgrwt>
<rscale>  0 0.97876531E+03</rscale>
<asrwt>0</asrwt>
<pdfrwt beam="1">  1        1 0.18891253E+00 0.97876531E+03</pdfrwt>
<pdfrwt beam="2">  1       -1 0.30006109E-01 0.97876531E+03</pdfrwt>
<totfact> 0.10428293E+02</totfact>
</mgrwt>
</event>
<event>
11    1  0.1933587E-012  0.5993628E+03  0.7818608E-02  0.1050050E+00
          1   -1    0    0  501    0  0.00000000000E+00  0.00000000000E+00  0.35715518694E+03  0.35715518694E+03  0.00000000000E+00 0. -1.
         -1   -1    0    0    0  501 -0.00000000000E+00 -0.00000000000E+00 -0.34169823905E+03  0.34169823905E+03  0.00000000000E+00 0.  1.
         23    2    1    2    0    0 -0.16731199315E+03 -0.58938677429E+02 -0.74320616364E+02  0.21409941960E+03  0.94063471706E+02 0.  0.
         24    2    1    2    0    0 -0.58338619172E+02  0.70113806859E+01  0.10277409313E+01  0.99316973848E+02  0.80064043721E+02 0.  0.
        -15    1    4    4    0    0  0.39288611808E+01 -0.25541855794E+02  0.11485286309E+02  0.28279571234E+02  0.00000000000E+00 0.  1.
        -15    1    3    3    0    0 -0.27225129137E+02 -0.29011643389E+01 -0.55713079173E+02  0.62077142347E+02  0.00000000000E+00 0.  1.
         15    1    1    2    0    0  0.11181937338E+03  0.67756220810E+02  0.14021952556E+03  0.19171852563E+03  0.00000000000E+00 0. -1.
         15    1    3    3    0    0 -0.14008686401E+03 -0.56037513090E+02 -0.18607537191E+02  0.15202227725E+03  0.00000000000E+00 0. -1.
        -16    1    1    2    0    0  0.92174054020E+01 -0.31482839136E+02 -0.42617037382E+02  0.53780494583E+02  0.00000000000E+00 0.  1.
         16    1    4    4    0    0 -0.62267480353E+02  0.32553236480E+02 -0.10457545377E+02  0.71037402614E+02  0.00000000000E+00 0. -1.
    9900018    1    1    2    0    0  0.10461383354E+03  0.15653915069E+02 -0.88526648493E+01  0.13993801233E+03  0.91187600000E+02 0.  0.
<mgrwt>
<rscale>  0 0.38239957E+03</rscale>
<asrwt>0</asrwt>
<pdfrwt beam="1">  1        1 0.54946952E-01 0.59936279E+03</pdfrwt>
<pdfrwt beam="2">  1       -1 0.52568960E-01 0.59936279E+03</pdfrwt>
<totfact> 0.25892736E+02</totfact>
</mgrwt>
</event>
<event>
11    1  0.1933587E-012  0.1131728E+04  0.7818608E-02  0.9174807E-01
          2   -1    0    0  501    0  0.00000000000E+00  0.00000000000E+00  0.67674866065E+03  0.67674866065E+03  0.00000000000E+00 0.  1.
         -2   -1    0    0    0  501 -0.00000000000E+00 -0.00000000000E+00 -0.47314799879E+03  0.47314799879E+03  0.00000000000E+00 0. -1.
         23    2    1    2    0    0  0.28291620327E+02  0.22991030210E+03 -0.19616715521E+02  0.24992207758E+03  0.91744572262E+02 0.  0.
        -24    2    1    2    0    0 -0.11741008295E+03  0.71336522782E+01 -0.17559913161E+03  0.22581262845E+03  0.79500135664E+02 0.  0.
        -15    1    3    3    0    0  0.34056893010E+02  0.62343829718E+02 -0.39165512932E+02  0.81120666100E+02  0.00000000000E+00 0.  1.
        -15    1    1    2    0    0 -0.10219894825E+03 -0.82739107056E+02  0.18800411667E+03  0.22942522256E+03  0.00000000000E+00 0.  1.
         15    1    3    3    0    0 -0.57652726829E+01  0.16756647238E+03  0.19548797412E+02  0.16880141147E+03  0.00000000000E+00 0. -1.
         15    1    4    4    0    0 -0.39470679292E+02  0.32395980461E+02 -0.31347988463E+02  0.59917697340E+02  0.00000000000E+00 0. -1.
        -16    1    4    4    0    0 -0.77939403662E+02 -0.25262328183E+02 -0.14425114315E+03  0.16589493111E+03  0.00000000000E+00 0.  1.
         16    1    1    2    0    0  0.16723834649E+03 -0.22016029820E+03  0.15322817784E+03  0.31609823778E+03  0.00000000000E+00 0. -1.
    9900018    1    1    2    0    0  0.24079064385E+02  0.65855450880E+02  0.57584214471E+02  0.12863849308E+03  0.91187600000E+02 0.  0.
<mgrwt>
<rscale>  0 0.11317284E+04</rscale>
<asrwt>0</asrwt>
<pdfrwt beam="1">  1        2 0.10411518E+00 0.11317284E+04</pdfrwt>
<pdfrwt beam="2">  1       -2 0.72792000E-01 0.11317284E+04</pdfrwt>
<totfact> 0.72325595E+01</totfact>
</mgrwt>
</event>
<event>
11    1  0.1933587E-012  0.2759729E+04  0.7818608E-02  0.8912755E-01
         -2   -1    0    0    0  501 -0.00000000000E+00  0.00000000000E+00  0.72856006160E+03  0.72856006160E+03  0.00000000000E+00 0.  1.
          2   -1    0    0  501    0  0.00000000000E+00 -0.00000000000E+00 -0.31838627165E+04  0.31838627165E+04  0.00000000000E+00 0. -1.
         23    2    1    2    0    0 -0.18084678688E+03  0.72266363160E+02  0.51161862050E+01  0.21515805144E+03  0.91317162512E+02 0.  0.
         24    2    1    2    0    0  0.16630606494E+03 -0.47425918914E+03 -0.74414548670E+03  0.90149198375E+03  0.79723306867E+02 0.  0.
        -15    1    3    3    0    0 -0.10987914194E+03  0.89546935858E+02  0.88401464243E+01  0.14202192698E+03  0.00000000000E+00 0.  1.
        -15    1    4    4    0    0  0.51165277705E+02 -0.82632525621E+02 -0.18776929959E+03  0.21143161968E+03  0.00000000000E+00 0.  1.
         15    1    1    2    0    0 -0.57122883109E+03  0.74512425928E+03 -0.11261662469E+04  0.14662069959E+04  0.00000000000E+00 0. -1.
         15    1    3    3    0    0 -0.70967644936E+02 -0.17280572698E+02 -0.37239602194E+01  0.73136124455E+02  0.00000000000E+00 0. -1.
        -16    1    1    2    0    0  0.61075042596E+03 -0.35511441231E+03 -0.81900787601E+03  0.10816174137E+04  0.00000000000E+00 0.  1.
         16    1    4    4    0    0  0.11514078723E+03 -0.39162666352E+03 -0.55637618711E+03  0.69006036406E+03  0.00000000000E+00 0. -1.
    9900018    1    1    2    0    0 -0.24980872930E+02  0.11982979012E+02  0.22890076847E+03  0.24794833333E+03  0.91187600000E+02 0.  0.
<mgrwt>
<rscale>  0 0.14581713E+04</rscale>
<asrwt>0</asrwt>
<pdfrwt beam="1">  1        2 0.48982504E+00 0.27597293E+04</pdfrwt>
<pdfrwt beam="2">  1       -2 0.11208616E+00 0.27597293E+04</pdfrwt>
<totfact> 0.72186119E-01</totfact>
</mgrwt>
</event>
<event>
11    1  0.1933587E-012  0.4617664E+03  0.7818608E-02  0.1084798E+00
          3   -1    0    0  501    0  0.00000000000E+00  0.00000000000E+00  0.57518402162E+03  0.57518402162E+03  0.00000000000E+00 0. -1.
         -3   -1    0    0    0  501 -0.00000000000E+00 -0.00000000000E+00 -0.15056546700E+03  0.15056546700E+03  0.00000000000E+00 0.  1.
         23    2    1    2    0    0 -0.95659177635E+02  0.11119422507E+03  0.12566745819E+03  0.21396319159E+03  0.92049461447E+02 0.  0.
        -24    2    1    2    0    0 -0.24131449158E+02  0.72472906763E+01 -0.19036478358E+02  0.85391747703E+02  0.79337966995E+02 0.  0.
        -15    1    3    3    0    0  0.18439432183E+01  0.60143442345E+02  0.63834681212E+02  0.87724000759E+02  0.00000000000E+00 0. -1.
        -15    1    1    2    0    0  0.10037091161E+03 -0.28793405447E+02  0.47496081620E+02  0.11471380851E+03  0.00000000000E+00 0.  1.
         15    1    4    4    0    0 -0.12845815054E+02 -0.36120244158E+02 -0.10804999257E+02  0.39830076719E+02  0.00000000000E+00 0. -1.
         15    1    3    3    0    0 -0.97503120853E+02  0.51050782724E+02  0.61832776981E+02  0.12623919083E+03  0.00000000000E+00 0.  1.
        -16    1    4    4    0    0 -0.11285634104E+02  0.43367534835E+02 -0.82314791008E+01  0.45561670985E+02  0.00000000000E+00 0.  1.
         16    1    1    2    0    0  0.32020346033E+02 -0.33419452222E+02  0.95284577529E+02  0.10593069934E+03  0.00000000000E+00 0. -1.
    9900018    1    1    2    0    0 -0.12600630847E+02 -0.56228658076E+02  0.17520691564E+03  0.20575004148E+03  0.91187600000E+02 0.  0.
<mgrwt>
<rscale>  0 0.30088705E+03</rscale>
<asrwt>0</asrwt>
<pdfrwt beam="1">  1        3 0.88489848E-01 0.46176644E+03</pdfrwt>
<pdfrwt beam="2">  1       -3 0.23163918E-01 0.46176644E+03</pdfrwt>
<totfact> 0.52967135E+01</totfact>
</mgrwt>
</event>
<event>
11    1  0.1933587E-012  0.2279967E+04  0.7818608E-02  0.8485862E-01
         -2   -1    0    0    0  501 -0.00000000000E+00  0.00000000000E+00  0.38828953488E+03  0.38828953488E+03  0.00000000000E+00 0.  1.
          2   -1    0    0  501    0  0.00000000000E+00 -0.00000000000E+00 -0.33468896516E+04  0.33468896516E+04  0.00000000000E+00 0. -1.
         23    2    1    2    0    0  0.16577960798E+03 -0.11917167020E+03 -0.11836515336E+03  0.25334940371E+03  0.92145783563E+02 0.  0.
         24    2    1    2    0    0  0.57174910524E+03 -0.29100117319E+03 -0.12203432476E+04  0.13815962484E+04  0.89397032194E+02 0.  0.
        -15    1    4    4    0    0  0.47976642791E+03 -0.22689273094E+03 -0.93670551044E+03  0.10766026890E+04  0.00000000000E+00 0.  1.
        -15    1    3    3    0    0  0.37752036663E+02 -0.32633845466E+02  0.11828480793E+02  0.51284472309E+02  0.00000000000E+00 0.  1.
         15    1    3    3    0    0  0.12802757132E+03 -0.86537824735E+02 -0.13019363415E+03  0.20206493140E+03  0.00000000000E+00 0. -1.
         15    1    1    2    0    0 -0.21999071134E+02  0.37564641733E+03 -0.11835932150E+03  0.39446561189E+03  0.00000000000E+00 0. -1.
        -16    1    1    2    0    0 -0.44622986203E+02  0.54896297440E+02 -0.15202534444E+02  0.72359736206E+02  0.00000000000E+00 0.  1.
         16    1    4    4    0    0  0.91982677322E+02 -0.64108442249E+02 -0.28363773721E+03  0.30499355938E+03  0.00000000000E+00 0. -1.
    9900018    1    1    2    0    0 -0.67090665588E+03 -0.20369871377E+02 -0.14863298597E+04  0.16334081862E+04  0.91187600000E+02 0.  0.
<mgrwt>
<rscale>  0 0.22799669E+04</rscale>
<asrwt>0</asrwt>
<pdfrwt beam="1">  1        2 0.51490608E+00 0.22799669E+04</pdfrwt>
<pdfrwt beam="2">  1       -2 0.59736854E-01 0.22799669E+04</pdfrwt>
<totfact> 0.24645194E+00</totfact>
</mgrwt>
</event>
<event>
11    1  0.1933587E-012  0.2522395E+04  0.7818608E-02  0.8911454E-01
         -1   -1    0    0    0  501 -0.00000000000E+00  0.00000000000E+00  0.11990829644E+04  0.11990829644E+04  0.00000000000E+00 0.  1.
          1   -1    0    0  501    0  0.00000000000E+00 -0.00000000000E+00 -0.17137357469E+04  0.17137357469E+04  0.00000000000E+00 0. -1.
         23    2    1    2    0    0 -0.17450486444E+03 -0.20392273042E+03 -0.24791349572E+03  0.37635922597E+03  0.90270360101E+02 0.  0.
         24    2    1    2    0    0  0.65071204828E+03  0.70396381966E+03 -0.17903731590E+03  0.97918347741E+03  0.88060733495E+02 0.  0.
        -15    1    4    4    0    0  0.43168456224E+03  0.45376642199E+03 -0.15838391538E+03  0.64601934310E+03  0.00000000000E+00 0.  1.
        -15    1    3    3    0    0 -0.72327657705E+02 -0.59902690886E+02 -0.14262777297E+03  0.17076973990E+03  0.00000000000E+00 0. -1.
         15    1    3    3    0    0 -0.10217720674E+03 -0.14402003954E+03 -0.10528572275E+03  0.20558948606E+03  0.00000000000E+00 0.  1.
         15    1    1    2    0    0 -0.39434479380E+03 -0.64081911790E+03  0.27458243484E+03  0.80096970716E+03  0.00000000000E+00 0. -1.
        -16    1    1    2    0    0 -0.14900099319E+03  0.29261229427E+03 -0.44215120143E+03  0.55074579949E+03  0.00000000000E+00 0.  1.
         16    1    4    4    0    0  0.21902748605E+03  0.25019739766E+03 -0.20653400520E+02  0.33316413431E+03  0.00000000000E+00 0. -1.
    9900018    1    1    2    0    0  0.67138603146E+02 -0.15183426561E+03  0.79866795632E+02  0.20556050127E+03  0.91187600000E+02 0.  0.
<mgrwt>
<rscale>  0 0.14600630E+04</rscale>
<asrwt>0</asrwt>
<pdfrwt beam="1">  1        1 0.26365165E+00 0.25223951E+04</pdfrwt>
<pdfrwt beam="2">  1       -1 0.18447430E+00 0.25223951E+04</pdfrwt>
<totfact> 0.79083163E-01</totfact>
</mgrwt>
</event>
<event>
11    1  0.1933587E-012  0.2984289E+04  0.7818608E-02  0.8248231E-01
          2   -1    0    0  501    0  0.00000000000E+00  0.00000000000E+00  0.42010696498E+04  0.42010696498E+04  0.00000000000E+00 0. -1.
         -2   -1    0    0    0  501 -0.00000000000E+00 -0.00000000000E+00 -0.52998304887E+03  0.52998304887E+03  0.00000000000E+00 0.  1.
         23    2    1    2    0    0 -0.34330887134E+03 -0.58530461216E+01  0.26918015087E+03  0.44558562795E+03  0.90517174721E+02 0.  0.
        -24    2    1    2    0    0  0.64261531967E+03  0.13972710333E+03  0.23175098896E+02  0.66300419677E+03  0.80989920660E+02 0.  0.
        -15    1    1    2    0    0 -0.13657816815E+03 -0.20032792857E+03  0.31771145403E+03  0.39965665640E+03  0.00000000000E+00 0.  1.
        -15    1    3    3    0    0 -0.29804052546E+03 -0.20483951771E+01  0.26692519156E+03  0.40010174785E+03  0.00000000000E+00 0.  1.
         15    1    4    4    0    0  0.39914359901E+03  0.10920667148E+03 -0.17958804592E+02  0.41420312455E+03  0.00000000000E+00 0. -1.
         15    1    3    3    0    0 -0.45268345883E+02 -0.38046509445E+01  0.22549593115E+01  0.45483880103E+02  0.00000000000E+00 0. -1.
        -16    1    4    4    0    0  0.24347172066E+03  0.30520431850E+02  0.41133903487E+02  0.24880107222E+03  0.00000000000E+00 0.  1.
         16    1    1    2    0    0 -0.47688602529E+03 -0.25274680803E+03  0.14126381966E+04  0.15122327547E+04  0.00000000000E+00 0. -1.
    9900018    1    1    2    0    0  0.31415774512E+03  0.31920067939E+03  0.16483817006E+04  0.17105734628E+04  0.91187600000E+02 0.  0.
<mgrwt>
<rscale>  0 0.29842893E+04</rscale>
<asrwt>0</asrwt>
<pdfrwt beam="1">  1        2 0.64631839E+00 0.29842893E+04</pdfrwt>
<pdfrwt beam="2">  1       -2 0.81535856E-01 0.29842893E+04</pdfrwt>
<totfact> 0.26324559E-01</totfact>
</mgrwt>
</event>
<event>
11    1  0.1933587E-012  0.2702311E+04  0.7818608E-02  0.8334256E-01
          2   -1    0    0  501    0  0.00000000000E+00  0.00000000000E+00  0.21337750326E+04  0.21337750326E+04  0.00000000000E+00 0. -1.
         -2   -1    0    0    0  501 -0.00000000000E+00 -0.00000000000E+00 -0.85558264219E+03  0.85558264219E+03  0.00000000000E+00 0.  1.
         23    2    1    2    0    0 -0.28879944106E+03 -0.37433175639E+03  0.37840607510E+03  0.61234823156E+03  0.90828508902E+02 0.  0.
        -24    2    1    2    0    0 -0.39742198892E+03  0.49398155115E+03  0.50458464519E+03  0.81423093707E+03  0.80027148927E+02 0.  0.
        -15    1    3    3    0    0 -0.18048971866E+03 -0.29188884873E+03  0.29620996197E+03  0.45333870354E+03  0.00000000000E+00 0. -1.
        -15    1    1    2    0    0  0.38527919260E+03  0.10101155475E+03 -0.33847328595E+03  0.52269260157E+03  0.00000000000E+00 0.  1.
         15    1    3    3    0    0 -0.10830972240E+03 -0.82442907655E+02  0.82196113137E+02  0.15900952803E+03  0.00000000000E+00 0.  1.
         15    1    4    4    0    0 -0.29183732886E+03  0.31861877043E+03  0.37376381142E+03  0.57130231412E+03  0.00000000000E+00 0. -1.
        -16    1    4    4    0    0 -0.10558466006E+03  0.17536278072E+03  0.13082083377E+03  0.24292862295E+03  0.00000000000E+00 0.  1.
         16    1    1    2    0    0  0.44424009907E+03 -0.37434157471E+02  0.29289314901E+03  0.53342007696E+03  0.00000000000E+00 0. -1.
    9900018    1    1    2    0    0 -0.14329786169E+03 -0.18322719204E+03  0.44078180705E+03  0.50666582763E+03  0.91187600000E+02 0.  0.
<mgrwt>
<rscale>  0 0.27023108E+04</rscale>
<asrwt>0</asrwt>
<pdfrwt beam="1">  1        2 0.32827308E+00 0.27023108E+04</pdfrwt>
<pdfrwt beam="2">  1       -2 0.13162810E+00 0.27023108E+04</pdfrwt>
<totfact> 0.20762916E+00</totfact>
</mgrwt>
</event>
<event>
11    1  0.1933587E-012  0.9283519E+03  0.7818608E-02  0.9873204E-01
         -1   -1    0    0    0  501 -0.00000000000E+00  0.00000000000E+00  0.22400809562E+03  0.22400809562E+03  0.00000000000E+00 0. -1.
          1   -1    0    0  501    0  0.00000000000E+00 -0.00000000000E+00 -0.14063263866E+04  0.14063263866E+04  0.00000000000E+00 0.  1.
         23    2    1    2    0    0  0.27120728032E+03 -0.11308173739E+03 -0.21374502853E+03  0.37506033981E+03  0.92964794657E+02 0.  0.
         24    2    1    2    0    0 -0.93580737603E+02  0.13144431088E+03 -0.29928361935E+03  0.34908995015E+03  0.79108451964E+02 0.  0.
        -15    1    3    3    0    0  0.19336933635E+02 -0.42387525244E+02 -0.32508463013E+02  0.56810381677E+02  0.00000000000E+00 0. -1.
        -15    1    4    4    0    0 -0.42489436652E+02  0.34567977559E+02 -0.17530491568E+03  0.18366303591E+03  0.00000000000E+00 0.  1.
         15    1    3    3    0    0  0.25187034668E+03 -0.70694212141E+02 -0.18123656552E+03  0.31824995813E+03  0.00000000000E+00 0.  1.
         15    1    1    2    0    0 -0.15905194901E+03 -0.11667910951E+03 -0.33003154735E+03  0.38448973891E+03  0.00000000000E+00 0. -1.
        -16    1    1    2    0    0 -0.26349510567E+02 -0.12061150591E+03 -0.21817374594E+02  0.12536917443E+03  0.00000000000E+00 0.  1.
         16    1    4    4    0    0 -0.51091300951E+02  0.96876333319E+02 -0.12397870367E+03  0.16542691424E+03  0.00000000000E+00 0. -1.
    9900018    1    1    2    0    0  0.77749168605E+01  0.21892804193E+03 -0.31744072116E+03  0.39632527893E+03  0.91187600000E+02 0.  0.
<mgrwt>
<rscale>  0 0.61577673E+03</rscale>
<asrwt>0</asrwt>
<pdfrwt beam="1">  1        1 0.21635790E+00 0.92835194E+03</pdfrwt>
<pdfrwt beam="2">  1       -1 0.34462785E-01 0.92835194E+03</pdfrwt>
<totfact> 0.61210693E+01</totfact>
</mgrwt>
</event>
<event>
11    1  0.1933587E-012  0.6431221E+03  0.7818608E-02  0.1049456E+00
         -2   -1    0    0    0  501 -0.00000000000E+00  0.00000000000E+00  0.56468801962E+03  0.56468801962E+03  0.00000000000E+00 0.  1.
          2   -1    0    0  501    0  0.00000000000E+00 -0.00000000000E+00 -0.23862789065E+03  0.23862789065E+03  0.00000000000E+00 0. -1.
         23    2    1    2    0    0  0.14565937722E+03  0.54808336561E+02 -0.57141420234E+02  0.18911189502E+03  0.90981091464E+02 0.  0.
        -24    2    1    2    0    0 -0.70051836504E+01  0.17717209062E+02  0.80982273161E+02  0.11507962400E+03  0.79512383940E+02 0.  0.
        -15    1    1    2    0    0 -0.97858371635E+02 -0.93503230757E+02  0.54236688840E+02  0.14581060825E+03  0.00000000000E+00 0.  1.
        -15    1    3    3    0    0  0.14851918210E+03  0.32832877517E+02 -0.65255987415E+02  0.16551220255E+03  0.00000000000E+00 0. -1.
         15    1    3    3    0    0 -0.28598048883E+01  0.21975459043E+02  0.81145671814E+01  0.23599692471E+02  0.00000000000E+00 0.  1.
         15    1    4    4    0    0 -0.14123818279E+02 -0.70311176642E+01  0.87177053378E+02  0.88593213590E+02  0.00000000000E+00 0. -1.
        -16    1    4    4    0    0  0.71186346291E+01  0.24748326726E+02 -0.61947802173E+01  0.26486410415E+02  0.00000000000E+00 0.  1.
         16    1    1    2    0    0  0.69479014416E+02  0.71639505628E+02  0.94291051104E+02  0.13729659329E+03  0.00000000000E+00 0. -1.
    9900018    1    1    2    0    0 -0.11027483635E+03 -0.50661820494E+02  0.15369153610E+03  0.21601718971E+03  0.91187600000E+02 0.  0.
<mgrwt>
<rscale>  0 0.38402483E+03</rscale>
<asrwt>0</asrwt>
<pdfrwt beam="1">  1        2 0.36711983E-01 0.64312210E+03</pdfrwt>
<pdfrwt beam="2">  1       -2 0.86875080E-01 0.64312210E+03</pdfrwt>
<totfact> 0.16452760E+02</totfact>
</mgrwt>
</event>
<event>
11    1  0.1933587E-012  0.7150427E+03  0.7818608E-02  0.9691848E-01
         -1   -1    0    0    0  501 -0.00000000000E+00  0.00000000000E+00  0.25213472126E+03  0.25213472126E+03  0.00000000000E+00 0.  1.
          1   -1    0    0  501    0  0.00000000000E+00 -0.00000000000E+00 -0.50695716801E+03  0.50695716801E+03  0.00000000000E+00 0. -1.
         23    2    1    2    0    0 -0.18151847839E+03  0.66474416741E+01 -0.11460169339E+03  0.23262963218E+03  0.89385967351E+02 0.  0.
         24    2    1    2    0    0 -0.65902620226E+02  0.80653018774E+01  0.55355242254E+02  0.11745972444E+03  0.79525967925E+02 0.  0.
        -15    1    3    3    0    0 -0.11482900037E+03  0.45444188095E+02 -0.55258444183E+02  0.13529364069E+03  0.00000000000E+00 0.  1.
        -15    1    4    4    0    0 -0.60665920157E+02 -0.28230810878E+02  0.36658516943E+02  0.76296654027E+02  0.00000000000E+00 0.  1.
         15    1    1    2    0    0  0.56461583032E+02  0.79496395120E+01 -0.10111839256E+03  0.11608633184E+03  0.00000000000E+00 0. -1.
         15    1    3    3    0    0 -0.66689478018E+02 -0.38796746421E+02 -0.59343249210E+02  0.97335991483E+02  0.00000000000E+00 0. -1.
        -16    1    1    2    0    0  0.27125885496E+02  0.42106066421E+02 -0.79523426017E+02  0.93982497194E+02  0.00000000000E+00 0.  1.
         16    1    4    4    0    0 -0.52367000693E+01  0.36296112755E+02  0.18696725311E+02  0.41163070417E+02  0.00000000000E+00 0. -1.
    9900018    1    1    2    0    0  0.16383363009E+03 -0.64768449484E+02 -0.14934177035E+02  0.19893370362E+03  0.91187600000E+02 0.  0.
<mgrwt>
<rscale>  0 0.71504267E+03</rscale>
<asrwt>0</asrwt>
<pdfrwt beam="1">  1        1 0.77993411E-01 0.71504267E+03</pdfrwt>
<pdfrwt beam="2">  1       -1 0.38789957E-01 0.71504267E+03</pdfrwt>
<totfact> 0.28360412E+02</totfact>
</mgrwt>
</event>
<event>
11    1  0.1933587E-012  0.2480615E+04  0.7818608E-02  0.8409924E-01
          2   -1    0    0  501    0  0.00000000000E+00  0.00000000000E+00  0.15599962762E+04  0.15599962762E+04  0.00000000000E+00 0.  1.
         -2   -1    0    0    0  501 -0.00000000000E+00 -0.00000000000E+00 -0.98613199801E+03  0.98613199801E+03  0.00000000000E+00 0. -1.
         23    2    1    2    0    0 -0.12728899077E+03 -0.19964232606E+03  0.24233246869E+03  0.35092864729E+03  0.91467724239E+02 0.  0.
         24    2    1    2    0    0  0.78076583293E+03  0.54124954656E+03 -0.22424120082E+02  0.95357287304E+03  0.79069750872E+02 0.  0.
        -15    1    4    4    0    0  0.36068207626E+03  0.28603263984E+03  0.15355370970E+02  0.46058877386E+03  0.00000000000E+00 0.  1.
        -15    1    3    3    0    0 -0.12630059249E+03 -0.16899651532E+03  0.24091105240E+03  0.32023397231E+03  0.00000000000E+00 0.  1.
         15    1    1    2    0    0 -0.39220117144E+03 -0.14961206690E+03 -0.20762269946E+03  0.46830835437E+03  0.00000000000E+00 0. -1.
         15    1    3    3    0    0 -0.98839827744E+00 -0.30645810747E+02  0.14214162871E+01  0.30694674974E+02  0.00000000000E+00 0. -1.
        -16    1    1    2    0    0 -0.15650949033E+03  0.11369713596E+03  0.17035606149E+03  0.25776626423E+03  0.00000000000E+00 0.  1.
         16    1    4    4    0    0  0.42008375667E+03  0.25521690672E+03 -0.37779491052E+02  0.49298409918E+03  0.00000000000E+00 0. -1.
    9900018    1    1    2    0    0 -0.10476618040E+03 -0.30569228955E+03  0.39122256753E+03  0.51555213528E+03  0.91187600000E+02 0.  0.
<mgrwt>
<rscale>  0 0.24806146E+04</rscale>
<asrwt>0</asrwt>
<pdfrwt beam="1">  1        2 0.23999943E+00 0.24806146E+04</pdfrwt>
<pdfrwt beam="2">  1       -2 0.15171261E+00 0.24806146E+04</pdfrwt>
<totfact> 0.30501306E+00</totfact>
</mgrwt>
</event>
<event>
11    1  0.1933587E-012  0.6213315E+03  0.7818608E-02  0.1053050E+00
          2   -1    0    0  501    0  0.00000000000E+00  0.00000000000E+00  0.53321416733E+03  0.53321416733E+03  0.00000000000E+00 0. -1.
         -2   -1    0    0    0  501 -0.00000000000E+00 -0.00000000000E+00 -0.26689398368E+03  0.26689398368E+03  0.00000000000E+00 0.  1.
         23    2    1    2    0    0  0.14740211227E+02  0.14327273099E+03 -0.10457435184E+03  0.19963935535E+03  0.90419731631E+02 0.  0.
         24    2    1    2    0    0 -0.28416193309E+01  0.16038339579E+02  0.14578500308E+03  0.16719302281E+03  0.80218056671E+02 0.  0.
        -15    1    3    3    0    0 -0.30394064674E+02  0.28065165045E+02 -0.48631482482E+02  0.63847268891E+02  0.00000000000E+00 0.  1.
        -15    1    4    4    0    0  0.36145826319E+02  0.35106991369E+00  0.92621378529E+02  0.99425166689E+02  0.00000000000E+00 0.  1.
         15    1    3    3    0    0  0.45134275901E+02  0.11520756594E+03 -0.55942869360E+02  0.13579208646E+03  0.00000000000E+00 0. -1.
         15    1    1    2    0    0  0.11133326581E+03 -0.14866917889E+02  0.11655318396E+02  0.11292461101E+03  0.00000000000E+00 0. -1.
        -16    1    1    2    0    0 -0.62331152461E+02 -0.10489504416E+03  0.10125065385E+03  0.15855547219E+03  0.00000000000E+00 0.  1.
         16    1    4    4    0    0 -0.38987445650E+02  0.15687269665E+02  0.53163624556E+02  0.67767856125E+02  0.00000000000E+00 0. -1.
    9900018    1    1    2    0    0 -0.60900705247E+02 -0.39549108518E+02  0.11220356015E+03  0.16179568965E+03  0.91187600000E+02 0.  0.
<mgrwt>
<rscale>  0 0.37432930E+03</rscale>
<asrwt>0</asrwt>
<pdfrwt beam="1">  1        2 0.82032949E-01 0.62133150E+03</pdfrwt>
<pdfrwt beam="2">  1       -2 0.41060613E-01 0.62133150E+03</pdfrwt>
<totfact> 0.32461312E+02</totfact>
</mgrwt>
</event>
<event>
12    1  0.1933587E-012  0.2500165E+04  0.7818608E-02  0.8402927E-01
          2   -1    0    0  501    0  0.00000000000E+00  0.00000000000E+00  0.82485473925E+03  0.82485473925E+03  0.00000000000E+00 0. -1.
         -2   -1    0    0    0  501 -0.00000000000E+00 -0.00000000000E+00 -0.18945226921E+04  0.18945226921E+04  0.00000000000E+00 0.  1.
         23    2    1    2    0    0  0.56348698196E+02  0.54862717473E+02  0.19534845375E+03  0.22962099114E+03  0.91540633785E+02 0.  0.
    9900016    2    1    2    0    0 -0.97033645414E+02 -0.35817258874E+01 -0.12543244496E+04  0.24234290479E+04  0.20712919080E+04 0.  0.
         24    2    4    4    0    0 -0.67554812491E+03  0.48646001726E+03 -0.29535450128E+03  0.88696256541E+03  0.80372218717E+02 0.  0.
        -15    1    5    5    0    0 -0.33553293648E+03  0.24234724923E+03 -0.18946973244E+03  0.45520689821E+03  0.00000000000E+00 0.  1.
        -15    1    3    3    0    0 -0.31940774386E+01 -0.13413657429E+02 -0.53932019729E+00  0.13799246450E+02  0.00000000000E+00 0.  1.
         15    1    3    3    0    0  0.59542775635E+02  0.68276374902E+02  0.19588777394E+03  0.21582174469E+03  0.00000000000E+00 0. -1.
         15    1    4    4    0    0  0.59080986917E+03 -0.71456841921E+03 -0.88757580156E+03  0.12835322866E+04  0.00000000000E+00 0. -1.
        -16    1    1    2    0    0  0.40684947218E+02 -0.51280991585E+02 -0.10691956993E+02  0.66327392324E+02  0.00000000000E+00 0.  1.
         16    1    5    5    0    0 -0.34001518843E+03  0.24411276803E+03 -0.10588476884E+03  0.43175566719E+03  0.00000000000E+00 0. -1.
    9900018    1    4    4    0    0 -0.12295389676E+02  0.22452667606E+03 -0.71394146788E+02  0.25293419591E+03  0.91187600000E+02 0.  0.
<mgrwt>
<rscale>  0 0.25001648E+04</rscale>
<asrwt>0</asrwt>
<pdfrwt beam="1">  1        2 0.12690073E+00 0.25001648E+04</pdfrwt>
<pdfrwt beam="2">  1       -2 0.29146502E+00 0.25001648E+04</pdfrwt>
<totfact> 0.10569853E+00</totfact>
</mgrwt>
</event>
<event>
11    1  0.1933587E-012  0.1752744E+04  0.7818608E-02  0.9259033E-01
          2   -1    0    0  501    0  0.00000000000E+00  0.00000000000E+00  0.15392419425E+04  0.15392419425E+04  0.00000000000E+00 0. -1.
         -2   -1    0    0    0  501 -0.00000000000E+00 -0.00000000000E+00 -0.10999838241E+04  0.10999838241E+04  0.00000000000E+00 0.  1.
         23    2    1    2    0    0  0.38013600323E+03  0.26318099205E+02  0.14202785933E+03  0.41685179026E+03  0.91637759209E+02 0.  0.
        -24    2    1    2    0    0 -0.30404391293E+02  0.20477141124E+03 -0.57329676069E+03  0.61502700861E+03  0.82056612347E+02 0.  0.
        -15    1    3    3    0    0  0.15777065206E+03  0.45241553709E+02  0.28924899962E+02  0.16665841314E+03  0.00000000000E+00 0.  1.
        -15    1    1    2    0    0 -0.23295634615E+03 -0.23339490525E+03  0.11099599786E+04  0.11579088890E+04  0.00000000000E+00 0.  1.
         15    1    4    4    0    0  0.25832651815E+02  0.88259949408E+02 -0.27210867875E+03  0.28722861560E+03  0.00000000000E+00 0. -1.
         15    1    3    3    0    0  0.22236535117E+03 -0.18923454503E+02  0.11310295937E+03  0.25019337711E+03  0.00000000000E+00 0. -1.
        -16    1    4    4    0    0 -0.56237043108E+02  0.11651146183E+03 -0.30118808194E+03  0.32779839301E+03  0.00000000000E+00 0.  1.
         16    1    1    2    0    0 -0.18125840883E+03  0.75902491348E+02 -0.24680616298E+03  0.31548229910E+03  0.00000000000E+00 0. -1.
    9900018    1    1    2    0    0  0.64483143045E+02 -0.73597096546E+02  0.73732041241E+01  0.13395577961E+03  0.91187600000E+02 0.  0.
<mgrwt>
<rscale>  0 0.10464348E+04</rscale>
<asrwt>0</asrwt>
<pdfrwt beam="1">  1        2 0.23680645E+00 0.17527445E+04</pdfrwt>
<pdfrwt beam="2">  1       -2 0.16922828E+00 0.17527445E+04</pdfrwt>
<totfact> 0.24141642E+00</totfact>
</mgrwt>
</event>
<event>
11    1  0.1933587E-012  0.7025174E+03  0.7818608E-02  0.1033930E+00
         -4   -1    0    0    0  501 -0.00000000000E+00  0.00000000000E+00  0.84967008519E+03  0.84967008519E+03  0.00000000000E+00 0.  1.
          4   -1    0    0  501    0  0.00000000000E+00 -0.00000000000E+00 -0.21361357395E+03  0.21361357395E+03  0.00000000000E+00 0. -1.
         23    2    1    2    0    0 -0.15286275417E+03 -0.80313085417E+02 -0.33722106134E+01  0.19274217410E+03  0.85562611994E+02 0.  0.
        -24    2    1    2    0    0  0.58104852704E+02 -0.13571141906E+02  0.23400832695E+03  0.25385579375E+03  0.78246515172E+02 0.  0.
        -15    1    1    2    0    0  0.41753578353E+02 -0.11912165847E+03  0.27606916507E+03  0.30355809119E+03  0.00000000000E+00 0.  1.
        -15    1    3    3    0    0 -0.59162659557E+02 -0.79380870330E+02 -0.10248829834E+01  0.99008046366E+02  0.00000000000E+00 0. -1.
         15    1    3    3    0    0 -0.93700094609E+02 -0.93221508788E+00 -0.23473276300E+01  0.93734127732E+02  0.00000000000E+00 0.  1.
         15    1    4    4    0    0  0.68908545035E+02 -0.58291382583E+01  0.22969910631E+03  0.23988340058E+03  0.00000000000E+00 0. -1.
        -16    1    4    4    0    0 -0.10803692331E+02 -0.77420036480E+01  0.43092206428E+01  0.13972393175E+02  0.00000000000E+00 0.  1.
         16    1    1    2    0    0  0.90110969851E+02  0.10049671008E+03  0.72191668033E+02  0.15307257285E+03  0.00000000000E+00 0. -1.
    9900018    1    1    2    0    0 -0.37106646742E+02  0.11250917571E+03  0.57159561794E+02  0.16005502726E+03  0.91187600000E+02 0.  0.
<mgrwt>
<rscale>  0 0.42977715E+03</rscale>
<asrwt>0</asrwt>
<pdfrwt beam="1">  1        4 0.32863627E-01 0.70251742E+03</pdfrwt>
<pdfrwt beam="2">  1       -4 0.13071847E+00 0.70251742E+03</pdfrwt>
<totfact> 0.76076606E+00</totfact>
</mgrwt>
</event>
<event>
11    1  0.1933587E-012  0.4144848E+03  0.7818608E-02  0.1091601E+00
         -2   -1    0    0    0  501 -0.00000000000E+00  0.00000000000E+00  0.43522785583E+03  0.43522785583E+03  0.00000000000E+00 0. -1.
          2   -1    0    0  501    0  0.00000000000E+00 -0.00000000000E+00 -0.15792221157E+03  0.15792221157E+03  0.00000000000E+00 0.  1.
         23    2    1    2    0    0  0.62241964120E+01 -0.32013968854E+02  0.30563237572E+01  0.96148692938E+02  0.90396876141E+02 0.  0.
        -24    2    1    2    0    0 -0.45481850453E+02 -0.24882445884E+02  0.18815775412E+01  0.10045485916E+03  0.86022692128E+02 0.  0.
        -15    1    1    2    0    0  0.18588474868E+02 -0.43159620969E+02  0.75715675250E+02  0.89113117770E+02  0.00000000000E+00 0.  1.
        -15    1    3    3    0    0 -0.28545209410E+02  0.18034743574E+02  0.89284249875E+01  0.34925602769E+02  0.00000000000E+00 0.  1.
         15    1    3    3    0    0  0.34769405822E+02 -0.50048712428E+02 -0.58721012303E+01  0.61223090169E+02  0.00000000000E+00 0. -1.
         15    1    4    4    0    0 -0.57144839647E+00  0.12017969691E+02 -0.31294568982E+02  0.33527722805E+02  0.00000000000E+00 0. -1.
        -16    1    4    4    0    0 -0.44910402057E+02 -0.36900415575E+02  0.33176146523E+02  0.66927136354E+02  0.00000000000E+00 0.  1.
         16    1    1    2    0    0  0.79774671644E+02  0.61822863138E+02  0.15494959406E+03  0.18492009448E+03  0.00000000000E+00 0. -1.
    9900018    1    1    2    0    0 -0.59105492470E+02  0.38233172569E+02  0.41702473654E+02  0.12251330306E+03  0.91187600000E+02 0.  0.
<mgrwt>
<rscale>  0 0.28761561E+03</rscale>
<asrwt>0</asrwt>
<pdfrwt beam="1">  1        2 0.24295725E-01 0.41448483E+03</pdfrwt>
<pdfrwt beam="2">  1       -2 0.66958131E-01 0.41448483E+03</pdfrwt>
<totfact> 0.46803589E+02</totfact>
</mgrwt>
</event>
<event>
11    1  0.1933587E-012  0.1345938E+04  0.7818608E-02  0.8993908E-01
         -4   -1    0    0    0  501 -0.00000000000E+00  0.00000000000E+00  0.10524707583E+04  0.10524707583E+04  0.00000000000E+00 0.  1.
          4   -1    0    0  501    0  0.00000000000E+00 -0.00000000000E+00 -0.43030882622E+03  0.43030882622E+03  0.00000000000E+00 0. -1.
         23    2    1    2    0    0  0.18468395589E+02  0.24179636700E+03  0.22352632223E+03  0.34208648189E+03  0.90843709894E+02 0.  0.
         24    2    1    2    0    0  0.77554973589E+02 -0.53643917261E+03 -0.20759442759E+02  0.54850195835E+03  0.81496527636E+02 0.  0.
        -15    1    4    4    0    0  0.67617469073E+02 -0.19350999523E+03 -0.11432124520E+02  0.20530205515E+03  0.00000000000E+00 0.  1.
        -15    1    3    3    0    0 -0.16027943537E+02  0.15110907794E+03  0.18050122079E+03  0.23594817040E+03  0.00000000000E+00 0.  1.
         15    1    1    2    0    0  0.33583011351E+01  0.45412003893E+02  0.17569159113E+03  0.18149673131E+03  0.00000000000E+00 0. -1.
         15    1    3    3    0    0  0.34496339126E+02  0.90687289063E+02  0.43025101447E+02  0.10613831149E+03  0.00000000000E+00 0. -1.
        -16    1    1    2    0    0 -0.11347025043E+03  0.12663452008E+03  0.17011304372E+03  0.24052078299E+03  0.00000000000E+00 0.  1.
         16    1    4    4    0    0  0.99375045156E+01 -0.34292917737E+03 -0.93273182384E+01  0.34319990320E+03  0.00000000000E+00 0. -1.
    9900018    1    1    2    0    0  0.14088580117E+02  0.12259628163E+03  0.73590417764E+02  0.17017362998E+03  0.91187600000E+02 0.  0.
<mgrwt>
<rscale>  0 0.13459383E+04</rscale>
<asrwt>0</asrwt>
<pdfrwt beam="1">  1        4 0.66201358E-01 0.13459383E+04</pdfrwt>
<pdfrwt beam="2">  1       -4 0.16191858E+00 0.13459383E+04</pdfrwt>
<totfact> 0.10005342E+00</totfact>
</mgrwt>
</event>
