<event>
11    1  0.1913377E-008  0.5110297E+04  0.7818608E-02  0.7811715E-01
         -2   -1    0    0    0  501 -0.00000000000E+00  0.00000000000E+00  0.19768771729E+04  0.19768771729E+04  0.00000000000E+00 0.  1.
          2   -1    0    0  501    0  0.00000000000E+00 -0.00000000000E+00 -0.33025741413E+04  0.33025741413E+04  0.00000000000E+00 0. -1.
    9900016    2    1    2    0    0 -0.77427016864E+03  0.65896114205E+03 -0.95531750611E+03  0.23134380650E+04  0.18454376344E+04 0.  0.
         24    2    3    3    0    0 -0.46424321372E+03 -0.68862368861E+01  0.20275592934E+03  0.51318114816E+03  0.81705215228E+02 0.  0.
        -15    1    3    3    0    0 -0.48941583352E+03  0.53703164078E+03 -0.16584910527E+03  0.74527630247E+03  0.00000000000E+00 0.  1.
        -15    1    4    4    0    0 -0.16281862914E+03  0.27924604118E+02  0.98547688331E+02  0.19235731436E+03  0.00000000000E+00 0.  1.
         15    1    3    3    0    0 -0.37151023293E+02 -0.56813601800E+02 -0.12766478461E+03  0.14459004499E+03  0.00000000000E+00 0. -1.
         15    1    3    3    0    0  0.21653990189E+03  0.18562933995E+03 -0.86455954557E+03  0.91039056937E+03  0.00000000000E+00 0. -1.
        -16    1    1    2    0    0  0.92664206450E+03 -0.36107299729E+03  0.10838663702E+04  0.14709879447E+04  0.00000000000E+00 0.  1.
         16    1    4    4    0    0 -0.30142458458E+03 -0.34810841004E+02  0.10420824101E+03  0.32082383380E+03  0.00000000000E+00 0. -1.
    9900018    1    1    2    0    0 -0.15237189587E+03 -0.29788814476E+03 -0.14542458324E+04  0.14950253045E+04  0.91187600000E+02 0.  0.
<mgrwt>
<rscale>  0 0.51102968E+04</rscale>
<asrwt>0</asrwt>
<pdfrwt beam="1">  1        2 0.50808833E+00 0.51102968E+04</pdfrwt>
<pdfrwt beam="2">  1       -2 0.30413495E+00 0.51102968E+04</pdfrwt>
<totfact> 0.23975623E-02</totfact>
</mgrwt>
</event>
<event>
11    1  0.1913377E-008  0.2864191E+04  0.7818608E-02  0.8283612E-01
         -2   -1    0    0    0  501 -0.00000000000E+00  0.00000000000E+00  0.18028469118E+04  0.18028469118E+04  0.00000000000E+00 0.  1.
          2   -1    0    0  501    0  0.00000000000E+00 -0.00000000000E+00 -0.11375885283E+04  0.11375885283E+04  0.00000000000E+00 0. -1.
    9900016    2    1    2    0    0  0.23714707385E+03  0.23523937834E+03  0.53527872662E+03  0.19485087503E+04  0.18435256264E+04 0.  0.
         24    2    3    3    0    0  0.40656183303E+03 -0.21150224675E+03  0.18876237307E+03  0.50203068506E+03  0.79861447512E+02 0.  0.
        -15    1    3    3    0    0 -0.26577263835E+03 -0.12552546761E+03  0.42324360909E+03  0.51529301465E+03  0.00000000000E+00 0.  1.
        -15    1    4    4    0    0  0.17235373201E+03 -0.70005589620E+02  0.11472119663E+03  0.21855787442E+03  0.00000000000E+00 0.  1.
         15    1    3    3    0    0  0.51026883368E+02  0.18722625549E+03 -0.38811113750E+03  0.43392127008E+03  0.00000000000E+00 0. -1.
         15    1    3    3    0    0  0.45330995808E+02  0.38504083720E+03  0.31138388196E+03  0.49726378054E+03  0.00000000000E+00 0. -1.
        -16    1    1    2    0    0 -0.29334687269E+03 -0.27994440932E+03  0.47697098381E+03  0.62603720291E+03  0.00000000000E+00 0.  1.
         16    1    4    4    0    0  0.23420810102E+03 -0.14149665714E+03  0.74041176441E+02  0.28347281064E+03  0.00000000000E+00 0. -1.
    9900018    1    1    2    0    0  0.56199798840E+02  0.44705030988E+02 -0.34699132701E+03  0.36588948687E+03  0.91187600000E+02 0.  0.
<mgrwt>
<rscale>  0 0.28641913E+04</rscale>
<asrwt>0</asrwt>
<pdfrwt beam="1">  1        2 0.17501362E+00 0.28641913E+04</pdfrwt>
<pdfrwt beam="2">  1       -2 0.27736106E+00 0.28641913E+04</pdfrwt>
<totfact> 0.78147798E-01</totfact>
</mgrwt>
</event>
<event>
11    1  0.1913377E-008  0.2886058E+04  0.7818608E-02  0.8277038E-01
          2   -1    0    0  501    0  0.00000000000E+00  0.00000000000E+00  0.14368224259E+04  0.14368224259E+04  0.00000000000E+00 0. -1.
         -2   -1    0    0    0  501 -0.00000000000E+00 -0.00000000000E+00 -0.14492619754E+04  0.14492619754E+04  0.00000000000E+00 0.  1.
    9900016    2    1    2    0    0  0.24610013883E+03  0.38704041847E+02  0.57864567323E+03  0.19675206765E+04  0.18639322724E+04 0.  0.
        -24    2    3    3    0    0  0.42880076805E+02  0.21064012741E+03 -0.44427926852E+03  0.49994645705E+03  0.79714661258E+02 0.  0.
        -15    1    3    3    0    0  0.12606056245E+03 -0.17817664624E+03  0.11856517906E+04  0.12055738681E+04  0.00000000000E+00 0.  1.
        -15    1    3    3    0    0  0.11207990359E+03 -0.58901530492E+02 -0.74505505506E+02  0.14690937830E+03  0.00000000000E+00 0.  1.
         15    1    4    4    0    0 -0.15103553091E+02  0.19666556216E+02 -0.89614207377E+02  0.92981702034E+02  0.00000000000E+00 0. -1.
         15    1    3    3    0    0 -0.34920404010E+02  0.65142091165E+02 -0.88221343393E+02  0.11509097309E+03  0.00000000000E+00 0. -1.
        -16    1    4    4    0    0  0.57983629896E+02  0.19097357120E+03 -0.35466506114E+03  0.40696475501E+03  0.00000000000E+00 0.  1.
         16    1    1    2    0    0 -0.38619453761E+03 -0.17419027131E+03 -0.55839704075E+03  0.70092490798E+03  0.00000000000E+00 0. -1.
    9900018    1    1    2    0    0  0.14009439878E+03  0.13548622946E+03 -0.32688182046E+02  0.21763881681E+03  0.91187600000E+02 0.  0.
<mgrwt>
<rscale>  0 0.28860576E+04</rscale>
<asrwt>0</asrwt>
<pdfrwt beam="1">  1        2 0.22104960E+00 0.28860576E+04</pdfrwt>
<pdfrwt beam="2">  1       -2 0.22296338E+00 0.28860576E+04</pdfrwt>
<totfact> 0.11276559E+00</totfact>
</mgrwt>
</event>
<event>
11    1  0.1913377E-008  0.3463524E+04  0.7818608E-02  0.8122489E-01
          1   -1    0    0  501    0  0.00000000000E+00  0.00000000000E+00  0.15793551844E+04  0.15793551844E+04  0.00000000000E+00 0. -1.
         -1   -1    0    0    0  501 -0.00000000000E+00 -0.00000000000E+00 -0.18988761170E+04  0.18988761170E+04  0.00000000000E+00 0.  1.
    9900016    2    1    2    0    0  0.29142096932E+03 -0.70349427311E+02  0.62048727793E+03  0.19494710173E+04  0.18236111324E+04 0.  0.
        -24    2    3    3    0    0  0.74524388062E+02 -0.89888418691E+02  0.13269728067E+03  0.19323680921E+03  0.78090229245E+02 0.  0.
        -15    1    3    3    0    0  0.14120399076E+03 -0.32903779371E+03 -0.44785293431E+03  0.57339051917E+03  0.00000000000E+00 0.  1.
        -15    1    3    3    0    0 -0.27493034770E+03  0.12673519157E+03  0.32069862971E+03  0.44101713795E+03  0.00000000000E+00 0.  1.
         15    1    3    3    0    0  0.35062293820E+03  0.22184159352E+03  0.61494430186E+03  0.74182655102E+03  0.00000000000E+00 0. -1.
         15    1    4    4    0    0  0.10332664576E+02 -0.70070351996E+02  0.86040709988E+02  0.11144335764E+03  0.00000000000E+00 0. -1.
        -16    1    4    4    0    0  0.64191723486E+02 -0.19818066695E+02  0.46656570684E+02  0.81793451569E+02  0.00000000000E+00 0.  1.
         16    1    1    2    0    0  0.32543264570E+03  0.38310624382E+03 -0.32341119456E+03  0.59772201039E+03  0.00000000000E+00 0. -1.
    9900018    1    1    2    0    0 -0.61685361503E+03 -0.31275681650E+03 -0.61659701598E+03  0.93103827373E+03  0.91187600000E+02 0.  0.
<mgrwt>
<rscale>  0 0.34635241E+04</rscale>
<asrwt>0</asrwt>
<pdfrwt beam="1">  1        1 0.24297772E+00 0.34635241E+04</pdfrwt>
<pdfrwt beam="2">  1       -1 0.29213479E+00 0.34635241E+04</pdfrwt>
<totfact> 0.17520969E-01</totfact>
</mgrwt>
</event>
<event>
11    1  0.1913377E-008  0.3632041E+04  0.7818608E-02  0.8083192E-01
          2   -1    0    0  501    0  0.00000000000E+00  0.00000000000E+00  0.25507391505E+04  0.25507391505E+04  0.00000000000E+00 0. -1.
         -2   -1    0    0    0  501 -0.00000000000E+00 -0.00000000000E+00 -0.12929309802E+04  0.12929309802E+04  0.00000000000E+00 0.  1.
    9900016    2    1    2    0    0  0.12378185226E+03 -0.30609804979E+03  0.17465545599E+04  0.25619033272E+04  0.18449601253E+04 0.  0.
         24    2    3    3    0    0 -0.33753219078E+03  0.45030439768E+03  0.60909409058E+03  0.83277829858E+03  0.76302378923E+02 0.  0.
        -15    1    4    4    0    0 -0.27480331218E+03  0.31789862316E+03  0.47460408044E+03  0.63389701701E+03  0.00000000000E+00 0.  1.
        -15    1    3    3    0    0  0.27367862807E+03 -0.39993037136E+03  0.25835403327E+03  0.54917310559E+03  0.00000000000E+00 0.  1.
         15    1    3    3    0    0 -0.20791436159E+03  0.56033520949E+02  0.25304533180E+03  0.33226507065E+03  0.00000000000E+00 0. -1.
         15    1    3    3    0    0  0.39554977657E+03 -0.41250559706E+03  0.62606110427E+03  0.84768685234E+03  0.00000000000E+00 0. -1.
        -16    1    1    2    0    0  0.14432582647E+03  0.15563880962E+03 -0.80431888962E+03  0.83185471053E+03  0.00000000000E+00 0.  1.
         16    1    4    4    0    0 -0.62728878601E+02  0.13240577452E+03  0.13449001013E+03  0.19888128157E+03  0.00000000000E+00 0. -1.
    9900018    1    1    2    0    0 -0.26810767873E+03  0.15045924017E+03  0.31557249995E+03  0.44991209305E+03  0.91187600000E+02 0.  0.
<mgrwt>
<rscale>  0 0.36320406E+04</rscale>
<asrwt>0</asrwt>
<pdfrwt beam="1">  1        2 0.39242141E+00 0.36320406E+04</pdfrwt>
<pdfrwt beam="2">  1       -2 0.19891246E+00 0.36320406E+04</pdfrwt>
<totfact> 0.35742430E-01</totfact>
</mgrwt>
</event>
<event>
11    1  0.1913377E-008  0.3945515E+04  0.7818608E-02  0.8015629E-01
         -1   -1    0    0    0  501 -0.00000000000E+00  0.00000000000E+00  0.18188538889E+04  0.18188538889E+04  0.00000000000E+00 0.  1.
          1   -1    0    0  501    0  0.00000000000E+00 -0.00000000000E+00 -0.21396840535E+04  0.21396840535E+04  0.00000000000E+00 0. -1.
    9900016    2    1    2    0    0 -0.78368139133E+03  0.84818263560E+03 -0.82979623653E+03  0.23264384609E+04  0.18412451797E+04 0.  0.
        -24    2    3    3    0    0 -0.58352300282E+02  0.57746401965E+02  0.18455034253E+03  0.21727327125E+03  0.80057526732E+02 0.  0.
        -15    1    3    3    0    0  0.21142396855E+03  0.26958509025E+03 -0.26514093266E+03  0.43321580019E+03  0.00000000000E+00 0.  1.
        -15    1    3    3    0    0 -0.10161565255E+04  0.34823280063E+03 -0.92465357068E+03  0.14173300228E+04  0.00000000000E+00 0.  1.
         15    1    3    3    0    0  0.79403465910E+02  0.17261834275E+03  0.17544792429E+03  0.25861936662E+03  0.00000000000E+00 0. -1.
         15    1    4    4    0    0 -0.56582619273E+02  0.19707106407E+02  0.51912435108E+02  0.79277132678E+02  0.00000000000E+00 0. -1.
        -16    1    4    4    0    0 -0.17696810082E+01  0.38039295558E+02  0.13263790742E+03  0.13799613858E+03  0.00000000000E+00 0.  1.
         16    1    1    2    0    0  0.81388567962E+03 -0.40201049703E+03 -0.51616851403E+02  0.90922309615E+03  0.00000000000E+00 0. -1.
    9900018    1    1    2    0    0 -0.30204288292E+02 -0.44617213857E+03  0.56058292333E+03  0.72287638541E+03  0.91187600000E+02 0.  0.
<mgrwt>
<rscale>  0 0.39455153E+04</rscale>
<asrwt>0</asrwt>
<pdfrwt beam="1">  1        1 0.32918216E+00 0.39455153E+04</pdfrwt>
<pdfrwt beam="2">  1       -1 0.27982367E+00 0.39455153E+04</pdfrwt>
<totfact> 0.84016075E-02</totfact>
</mgrwt>
</event>
<event>
11    1  0.1913377E-008  0.4312323E+04  0.7818608E-02  0.7944343E-01
         -2   -1    0    0    0  501 -0.00000000000E+00  0.00000000000E+00  0.22114678828E+04  0.22114678828E+04  0.00000000000E+00 0.  1.
          2   -1    0    0  501    0  0.00000000000E+00 -0.00000000000E+00 -0.21022381491E+04  0.21022381491E+04  0.00000000000E+00 0. -1.
    9900016    2    1    2    0    0 -0.19422009454E+02 -0.31655909196E+03  0.31163064369E+03  0.18998242197E+04  0.18470602412E+04 0.  0.
        -24    2    3    3    0    0 -0.70183192914E+02  0.81924764410E+02  0.21783367296E+03  0.25649679890E+03  0.81864224039E+02 0.  0.
        -15    1    3    3    0    0  0.99285215498E+02  0.29374047917E+03  0.48107940765E+03  0.57234466852E+03  0.00000000000E+00 0. -1.
        -15    1    3    3    0    0  0.73785896123E+02 -0.68825301925E+03 -0.53811011199E+03  0.87675485148E+03  0.00000000000E+00 0.  1.
         15    1    3    3    0    0 -0.12230992816E+03 -0.39713162960E+01  0.15082767507E+03  0.19422790080E+03  0.00000000000E+00 0. -1.
         15    1    4    4    0    0  0.16676459466E+02  0.17766877557E+02  0.64544922077E+02  0.68991399496E+02  0.00000000000E+00 0.  1.
        -16    1    4    4    0    0 -0.86859652380E+02  0.64157886853E+02  0.15328875088E+03  0.18750539940E+03  0.00000000000E+00 0.  1.
         16    1    1    2    0    0 -0.55410582691E+03  0.10711098301E+04 -0.64082712174E+03  0.13656386548E+04  0.00000000000E+00 0. -1.
    9900018    1    1    2    0    0  0.57352783637E+03 -0.75455073810E+03  0.43842621173E+03  0.10482431574E+04  0.91187600000E+02 0.  0.
<mgrwt>
<rscale>  0 0.43123229E+04</rscale>
<asrwt>0</asrwt>
<pdfrwt beam="1">  1        2 0.32342125E+00 0.43123229E+04</pdfrwt>
<pdfrwt beam="2">  1       -2 0.34022583E+00 0.43123229E+04</pdfrwt>
<totfact> 0.80772878E-02</totfact>
</mgrwt>
</event>
<event>
11    1  0.1913377E-008  0.3367632E+04  0.7818608E-02  0.8145897E-01
          1   -1    0    0  501    0  0.00000000000E+00  0.00000000000E+00  0.12266154279E+04  0.12266154279E+04  0.00000000000E+00 0. -1.
         -1   -1    0    0    0  501 -0.00000000000E+00 -0.00000000000E+00 -0.23114301447E+04  0.23114301447E+04  0.00000000000E+00 0.  1.
    9900016    2    1    2    0    0  0.41523287696E+03 -0.72285767563E+02 -0.14816710068E+04  0.24008180355E+04  0.18414490742E+04 0.  0.
         24    2    3    3    0    0  0.28138101032E+03  0.20492919914E+03 -0.84559025688E+03  0.91775010719E+03  0.77917437652E+02 0.  0.
        -15    1    4    4    0    0  0.91877524588E+02  0.92355569970E+02 -0.23653600290E+03  0.27003761126E+03  0.00000000000E+00 0.  1.
        -15    1    3    3    0    0  0.69504876817E+00 -0.34573255170E+03  0.79670272685E+02  0.35479407090E+03  0.00000000000E+00 0.  1.
         15    1    3    3    0    0  0.21706856087E+03 -0.21931083418E+03 -0.76459289410E+03  0.82451094341E+03  0.00000000000E+00 0. -1.
         15    1    3    3    0    0 -0.83911742997E+02  0.28782841918E+03  0.48841871506E+02  0.30376291398E+03  0.00000000000E+00 0. -1.
        -16    1    1    2    0    0 -0.55566930926E+03 -0.27490622122E+03  0.55652218435E+02  0.62244596644E+03  0.00000000000E+00 0.  1.
         16    1    4    4    0    0  0.18950348573E+03  0.11257362917E+03 -0.60905425399E+03  0.64771249593E+03  0.00000000000E+00 0. -1.
    9900018    1    1    2    0    0  0.14043643230E+03  0.34719198878E+03  0.34120407157E+03  0.51478157061E+03  0.91187600000E+02 0.  0.
<mgrwt>
<rscale>  0 0.33676317E+04</rscale>
<asrwt>0</asrwt>
<pdfrwt beam="1">  1        1 0.18871007E+00 0.33676317E+04</pdfrwt>
<pdfrwt beam="2">  1       -1 0.35560464E+00 0.33676317E+04</pdfrwt>
<totfact> 0.12015417E-01</totfact>
</mgrwt>
</event>
<event>
11    1  0.1913377E-008  0.3449886E+04  0.7818608E-02  0.8125770E-01
          2   -1    0    0  501    0  0.00000000000E+00  0.00000000000E+00  0.33854294614E+04  0.33854294614E+04  0.00000000000E+00 0. -1.
         -2   -1    0    0    0  501 -0.00000000000E+00 -0.00000000000E+00 -0.87889238897E+03  0.87889238897E+03  0.00000000000E+00 0.  1.
    9900016    2    1    2    0    0  0.98927319150E+03 -0.20577745157E+03  0.18259146092E+04  0.27939233182E+04  0.18576968377E+04 0.  0.
        -24    2    3    3    0    0 -0.23330842868E+03  0.17676596342E+03  0.18547726589E+03  0.35592569705E+03  0.81254273382E+02 0.  0.
        -15    1    3    3    0    0  0.43127761910E+03  0.35514907528E+03  0.72407686205E+03  0.91455921217E+03  0.00000000000E+00 0.  1.
        -15    1    3    3    0    0  0.33563497530E+03 -0.67891160798E+03  0.58480241615E+03  0.95685196035E+03  0.00000000000E+00 0.  1.
         15    1    4    4    0    0 -0.22391293607E+03  0.17116808201E+03  0.19391792646E+03  0.34211062164E+03  0.00000000000E+00 0. -1.
         15    1    3    3    0    0  0.45566902579E+03 -0.58780882285E+02  0.33155806515E+03  0.56658644861E+03  0.00000000000E+00 0. -1.
        -16    1    4    4    0    0 -0.93954926132E+01  0.55978814042E+01 -0.84406605703E+01  0.13815075408E+02  0.00000000000E+00 0.  1.
         16    1    1    2    0    0 -0.93650698104E+03  0.41295460075E+03  0.69556552721E+03  0.12374927194E+04  0.00000000000E+00 0. -1.
    9900018    1    1    2    0    0 -0.52766210458E+02 -0.20717714918E+03 -0.14943063991E+02  0.23290581286E+03  0.91187600000E+02 0.  0.
<mgrwt>
<rscale>  0 0.34498859E+04</rscale>
<asrwt>0</asrwt>
<pdfrwt beam="1">  1        2 0.52083530E+00 0.34498859E+04</pdfrwt>
<pdfrwt beam="2">  1       -2 0.13521422E+00 0.34498859E+04</pdfrwt>
<totfact> 0.31580873E-01</totfact>
</mgrwt>
</event>
<event>
11    1  0.1913377E-008  0.2976140E+04  0.7818608E-02  0.8250577E-01
         -1   -1    0    0    0  501 -0.00000000000E+00  0.00000000000E+00  0.13880528912E+04  0.13880528912E+04  0.00000000000E+00 0.  1.
          1   -1    0    0  501    0  0.00000000000E+00 -0.00000000000E+00 -0.15952939496E+04  0.15952939496E+04  0.00000000000E+00 0. -1.
    9900016    2    1    2    0    0 -0.36117834302E+02  0.31741459659E+03  0.12956698082E+02  0.18737092661E+04  0.18462291336E+04 0.  0.
        -24    2    3    3    0    0  0.42318569620E+02  0.13078838130E+03  0.13387242962E+03  0.20764944512E+03  0.79372555885E+02 0.  0.
        -15    1    3    3    0    0  0.16373457616E+03 -0.54563239500E+03  0.14823740247E+03  0.58864084924E+03  0.00000000000E+00 0.  1.
        -15    1    3    3    0    0 -0.46179464122E+03  0.36166849252E+03 -0.36188565956E+02  0.58768018637E+03  0.00000000000E+00 0.  1.
         15    1    3    3    0    0  0.21962366114E+03  0.37059011777E+03 -0.23296456806E+03  0.48973878536E+03  0.00000000000E+00 0. -1.
         15    1    4    4    0    0  0.27959942099E+02  0.76216672075E+02  0.12710063562E+03  0.15081548673E+03  0.00000000000E+00 0. -1.
        -16    1    4    4    0    0  0.14358627521E+02  0.54571709221E+02  0.67717940066E+01  0.56833958385E+02  0.00000000000E+00 0.  1.
         16    1    1    2    0    0 -0.19594435267E+03  0.19459301781E+03 -0.42295835855E+03  0.50512810750E+03  0.00000000000E+00 0. -1.
    9900018    1    1    2    0    0  0.23206218697E+03 -0.51200761440E+03  0.20276060206E+03  0.60450946723E+03  0.91187600000E+02 0.  0.
<mgrwt>
<rscale>  0 0.29761400E+04</rscale>
<asrwt>0</asrwt>
<pdfrwt beam="1">  1        1 0.24542984E+00 0.29761400E+04</pdfrwt>
<pdfrwt beam="2">  1       -1 0.21354660E+00 0.29761400E+04</pdfrwt>
<totfact> 0.58317460E-01</totfact>
</mgrwt>
</event>
<event>
11    1  0.1913377E-008  0.3664050E+04  0.7818608E-02  0.8075976E-01
          2   -1    0    0  501    0  0.00000000000E+00  0.00000000000E+00  0.30229395927E+04  0.30229395927E+04  0.00000000000E+00 0.  1.
         -2   -1    0    0    0  501 -0.00000000000E+00 -0.00000000000E+00 -0.11102820807E+04  0.11102820807E+04  0.00000000000E+00 0. -1.
    9900016    2    1    2    0    0 -0.10993115188E+03 -0.65230685662E+02  0.91933542567E+03  0.20642014284E+04  0.18437489015E+04 0.  0.
        -24    2    3    3    0    0  0.17111500006E+03  0.12358297736E+02 -0.36164996166E+03  0.40811911333E+03  0.79608072043E+02 0.  0.
        -15    1    3    3    0    0 -0.15559020089E+03  0.64444202582E+02 -0.27402235818E+02  0.17062311797E+03  0.00000000000E+00 0.  1.
        -15    1    3    3    0    0 -0.19685391311E+03 -0.18359078894E+03  0.13611006433E+04  0.13874624327E+04  0.00000000000E+00 0.  1.
         15    1    4    4    0    0  0.98462055019E+02 -0.13399941695E+02 -0.12776383547E+03  0.16185775350E+03  0.00000000000E+00 0. -1.
         15    1    3    3    0    0  0.71397962068E+02  0.41557602955E+02 -0.52713020148E+02  0.97996764456E+02  0.00000000000E+00 0. -1.
        -16    1    4    4    0    0  0.72652945038E+02  0.25758239431E+02 -0.23388612619E+03  0.24626135983E+03  0.00000000000E+00 0.  1.
         16    1    1    2    0    0  0.90899574081E+03 -0.17992486680E+03  0.28451899237E+03  0.96932825788E+03  0.00000000000E+00 0. -1.
    9900018    1    1    2    0    0 -0.79906458893E+03  0.24515555247E+03  0.70880309389E+03  0.10996919871E+04  0.91187600000E+02 0.  0.
<mgrwt>
<rscale>  0 0.36640500E+04</rscale>
<asrwt>0</asrwt>
<pdfrwt beam="1">  1        2 0.46506763E+00 0.36640500E+04</pdfrwt>
<pdfrwt beam="2">  1       -2 0.17081263E+00 0.36640500E+04</pdfrwt>
<totfact> 0.28699757E-01</totfact>
</mgrwt>
</event>
<event>
11    1  0.1913377E-008  0.3863636E+04  0.7818608E-02  0.8032635E-01
         -2   -1    0    0    0  501 -0.00000000000E+00  0.00000000000E+00  0.16200194352E+04  0.16200194352E+04  0.00000000000E+00 0.  1.
          2   -1    0    0  501    0  0.00000000000E+00 -0.00000000000E+00 -0.23036267161E+04  0.23036267161E+04  0.00000000000E+00 0. -1.
    9900016    2    1    2    0    0  0.36220158446E+03  0.87600610994E+03 -0.57712140601E+03  0.21523771114E+04  0.18442021093E+04 0.  0.
         24    2    3    3    0    0 -0.13293778529E+03 -0.38728848890E+02  0.18369590821E+03  0.24342656386E+03  0.79623657339E+02 0.  0.
        -15    1    4    4    0    0 -0.94646490414E+02 -0.58072776722E+02  0.10025971226E+03  0.14960753807E+03  0.00000000000E+00 0.  1.
        -15    1    3    3    0    0  0.95563533568E+02  0.35514735313E+03  0.13621832745E+01  0.36778239072E+03  0.00000000000E+00 0.  1.
         15    1    3    3    0    0  0.23667964810E+03  0.12160155121E+03 -0.98725896016E+03  0.10224893386E+04  0.00000000000E+00 0. -1.
         15    1    3    3    0    0  0.16289618808E+03  0.43798605449E+03  0.22507946266E+03  0.51867881828E+03  0.00000000000E+00 0. -1.
        -16    1    1    2    0    0 -0.83126247547E+02 -0.88110165084E+03  0.55700256317E+03  0.10457064347E+04  0.00000000000E+00 0.  1.
         16    1    4    4    0    0 -0.38291294876E+02  0.19343927832E+02  0.83436195950E+02  0.93819025799E+02  0.00000000000E+00 0. -1.
    9900018    1    1    2    0    0 -0.27907533691E+03  0.50955408979E+01 -0.66348843808E+03  0.72556260520E+03  0.91187600000E+02 0.  0.
<mgrwt>
<rscale>  0 0.38636356E+04</rscale>
<asrwt>0</asrwt>
<pdfrwt beam="1">  1        2 0.35440411E+00 0.38636356E+04</pdfrwt>
<pdfrwt beam="2">  1       -2 0.24923376E+00 0.38636356E+04</pdfrwt>
<totfact> 0.23382531E-01</totfact>
</mgrwt>
</event>
<event>
11    1  0.1913377E-008  0.3468665E+04  0.7818608E-02  0.8121256E-01
          1   -1    0    0  501    0  0.00000000000E+00  0.00000000000E+00  0.97798034307E+03  0.97798034307E+03  0.00000000000E+00 0. -1.
         -1   -1    0    0    0  501 -0.00000000000E+00 -0.00000000000E+00 -0.30756331799E+04  0.30756331799E+04  0.00000000000E+00 0.  1.
    9900016    2    1    2    0    0  0.11252121007E+04 -0.17198974409E+00 -0.17755406175E+04  0.27963765965E+04  0.18442004457E+04 0.  0.
        -24    2    3    3    0    0  0.18251976865E+03 -0.57244874604E+03 -0.49728622290E+03  0.78401645491E+03  0.79857255764E+02 0.  0.
        -15    1    3    3    0    0  0.88070779582E+03  0.25500052105E+03 -0.11322939150E+04  0.14569697997E+04  0.00000000000E+00 0.  1.
        -15    1    3    3    0    0 -0.17721282057E+03  0.19137329097E+03 -0.34865088664E+02  0.26314196678E+03  0.00000000000E+00 0.  1.
         15    1    3    3    0    0  0.23919735678E+03  0.12590294427E+03 -0.11109539095E+03  0.29224837512E+03  0.00000000000E+00 0. -1.
         15    1    4    4    0    0  0.20641886329E+02 -0.21709143707E+02 -0.40716294598E+02  0.50548897490E+02  0.00000000000E+00 0. -1.
        -16    1    4    4    0    0  0.16187788232E+03 -0.55073960233E+03 -0.45656992830E+03  0.73346755742E+03  0.00000000000E+00 0.  1.
         16    1    1    2    0    0 -0.77876249030E+03  0.51679225635E+02 -0.11919821633E+02  0.78056635900E+03  0.00000000000E+00 0. -1.
    9900018    1    1    2    0    0 -0.34644961039E+03 -0.51507235891E+02 -0.31019239771E+03  0.47667056745E+03  0.91187600000E+02 0.  0.
<mgrwt>
<rscale>  0 0.34686648E+04</rscale>
<asrwt>0</asrwt>
<pdfrwt beam="1">  1        1 0.15045852E+00 0.34686648E+04</pdfrwt>
<pdfrwt beam="2">  1       -1 0.47317433E+00 0.34686648E+04</pdfrwt>
<totfact> 0.28898173E-02</totfact>
</mgrwt>
</event>
<event>
11    1  0.1913377E-008  0.2879577E+04  0.7818608E-02  0.8278980E-01
         -2   -1    0    0    0  501 -0.00000000000E+00  0.00000000000E+00  0.16591296456E+04  0.16591296456E+04  0.00000000000E+00 0.  1.
          2   -1    0    0  501    0  0.00000000000E+00 -0.00000000000E+00 -0.12494451170E+04  0.12494451170E+04  0.00000000000E+00 0. -1.
    9900016    2    1    2    0    0 -0.11894066876E+02  0.48144943302E+03  0.30353721156E+02  0.19150206665E+04  0.18532263162E+04 0.  0.
         24    2    3    3    0    0 -0.56936907317E+03  0.31253106929E+03 -0.47583743726E+03  0.80909654529E+03  0.79744229525E+02 0.  0.
        -15    1    3    3    0    0  0.12201455107E+03  0.96739260051E+02  0.28625551967E+03  0.32586539806E+03  0.00000000000E+00 0.  1.
        -15    1    4    4    0    0 -0.26035296323E+03  0.12215459228E+03 -0.16718123407E+03  0.33264842537E+03  0.00000000000E+00 0.  1.
         15    1    3    3    0    0  0.29356339401E+03  0.22519889630E+03 -0.11323088854E+03  0.38693054069E+03  0.00000000000E+00 0. -1.
         15    1    3    3    0    0  0.14189706122E+03 -0.15301979262E+03  0.33316652729E+03  0.39312818243E+03  0.00000000000E+00 0. -1.
        -16    1    1    2    0    0  0.10225304191E+03 -0.55400007290E+03  0.53656548192E+03  0.77799375430E+03  0.00000000000E+00 0.  1.
         16    1    4    4    0    0 -0.30901610994E+03  0.19037647701E+03 -0.30865620319E+03  0.47644811991E+03  0.00000000000E+00 0. -1.
    9900018    1    1    2    0    0 -0.90358975038E+02  0.72550639873E+02 -0.15723467451E+03  0.21556034185E+03  0.91187600000E+02 0.  0.
<mgrwt>
<rscale>  0 0.28795774E+04</rscale>
<asrwt>0</asrwt>
<pdfrwt beam="1">  1        2 0.19222233E+00 0.28795774E+04</pdfrwt>
<pdfrwt beam="2">  1       -2 0.25525072E+00 0.28795774E+04</pdfrwt>
<totfact> 0.91295098E-01</totfact>
</mgrwt>
</event>
