<event>
12    1  0.7257978E-016  0.7839923E+04  0.7818608E-02  0.7496516E-01
          1   -1    0    0  501    0  0.00000000000E+00  0.00000000000E+00  0.43884624626E+04  0.43884624626E+04  0.00000000000E+00 0. -1.
         -1   -1    0    0    0  501 -0.00000000000E+00 -0.00000000000E+00 -0.35014763974E+04  0.35014763974E+04  0.00000000000E+00 0.  1.
    9900016    2    1    2    0    0 -0.15468126119E+04 -0.10212545744E+04 -0.21754671518E+04  0.36582203742E+04  0.22834904895E+04 0.  0.
    9900016    2    1    2    0    0  0.14777265528E+04  0.97406156479E+03  0.29349386066E+04  0.40540243161E+04  0.21653583616E+04 0.  0.
         24    2    4    4    0    0 -0.11384496311E+02  0.85082482152E+03  0.11312575338E+03  0.86102153029E+03  0.67291573587E+02 0.  0.
        -15    1    3    3    0    0  0.23808510711E+03  0.11044554281E+03 -0.34390547793E+02  0.26469878339E+03  0.00000000000E+00 0.  1.
        -15    1    5    5    0    0 -0.13231455191E+02  0.44060292663E+03  0.25481763385E+02  0.44153746231E+03  0.00000000000E+00 0.  1.
         15    1    3    3    0    0  0.26310676433E+03  0.41953403398E+02 -0.15198736268E+03  0.30673346069E+03  0.00000000000E+00 0. -1.
         15    1    4    4    0    0  0.14891110492E+04  0.12323674327E+03  0.28218128532E+04  0.31930027858E+04  0.00000000000E+00 0. -1.
        -16    1    3    3    0    0 -0.20480044833E+04 -0.11736535206E+04 -0.19890892413E+04  0.30867881301E+04  0.00000000000E+00 0.  1.
         16    1    5    5    0    0  0.18469588801E+01  0.41022189489E+03  0.87643989996E+02  0.41948406798E+03  0.00000000000E+00 0. -1.
    9900018    1    1    2    0    0  0.69086059027E+02  0.47193009603E+02  0.12751461032E+03  0.17769416970E+03  0.91187600000E+02 0.  0.
<mgrwt>
<rscale>  0 0.78399229E+04</rscale>
<asrwt>0</asrwt>
<pdfrwt beam="1">  1        1 0.67514807E+00 0.78399229E+04</pdfrwt>
<pdfrwt beam="2">  1       -1 0.53868868E+00 0.78399229E+04</pdfrwt>
<totfact> 0.21428070E-05</totfact>
</mgrwt>
</event>
<event>
12    1  0.7257978E-016  0.5488094E+04  0.7818608E-02  0.7757330E-01
         -1   -1    0    0    0  501 -0.00000000000E+00  0.00000000000E+00  0.30978828829E+04  0.30978828829E+04  0.00000000000E+00 0.  1.
          1   -1    0    0  501    0  0.00000000000E+00 -0.00000000000E+00 -0.24306255607E+04  0.24306255607E+04  0.00000000000E+00 0. -1.
    9900016    2    1    2    0    0 -0.14633483200E+03  0.14198433115E+03 -0.11728115791E+04  0.26154505471E+04  0.23288454502E+04 0.  0.
         23    2    3    3    0    0 -0.38951661847E+02  0.21578843433E+03  0.69738562283E+03  0.74071969570E+03  0.11931923700E+03 0.  0.
    9900016    2    1    2    0    0  0.14633483200E+03 -0.14198433115E+03  0.18400689013E+04  0.29130578965E+04  0.22491063366E+04 0.  0.
        -15    1    4    4    0    0 -0.35439195770E+01  0.21405376816E+03  0.59062269357E+03  0.62822507208E+03  0.00000000000E+00 0.  1.
        -15    1    5    5    0    0  0.10981593841E+04  0.52689461058E+02  0.61889250633E+03  0.12616489792E+04  0.00000000000E+00 0.  1.
         15    1    4    4    0    0 -0.35407742270E+02  0.17346661694E+01  0.10676292927E+03  0.11249462363E+03  0.00000000000E+00 0. -1.
         15    1    5    5    0    0 -0.70814638200E+03 -0.15720298011E+03  0.74828365688E+03  0.10421672162E+04  0.00000000000E+00 0. -1.
        -16    1    5    5    0    0 -0.25509496855E+03 -0.19385042026E+02  0.44185041306E+03  0.51056930025E+03  0.00000000000E+00 0.  1.
         16    1    3    3    0    0 -0.10738317015E+03 -0.73804103183E+02 -0.18701972020E+04  0.18747308514E+04  0.00000000000E+00 0. -1.
    9900018    1    5    5    0    0  0.11416798441E+02 -0.18085770069E+02  0.31042324998E+02  0.98672400907E+02  0.91187600000E+02 0.  0.
<mgrwt>
<rscale>  0 0.54880938E+04</rscale>
<asrwt>0</asrwt>
<pdfrwt beam="1">  1        1 0.37394239E+00 0.54880938E+04</pdfrwt>
<pdfrwt beam="2">  1       -1 0.47659737E+00 0.54880938E+04</pdfrwt>
<totfact> 0.22510568E-03</totfact>
</mgrwt>
</event>
<event>
12    1  0.7257978E-016  0.4317652E+04  0.7818608E-02  0.7943362E-01
          2   -1    0    0  501    0  0.00000000000E+00  0.00000000000E+00  0.30654724225E+04  0.30654724225E+04  0.00000000000E+00 0.  1.
         -2   -1    0    0    0  501 -0.00000000000E+00 -0.00000000000E+00 -0.15203299328E+04  0.15203299328E+04  0.00000000000E+00 0. -1.
         23    2    1    2    0    0 -0.31097621222E+03  0.17885428648E+03  0.15886345392E+04  0.16323674642E+04  0.11031218803E+03 0.  0.
    9900016    2    1    2    0    0  0.19327151002E+03  0.16311210731E+03  0.48105491401E+03  0.22237812901E+04  0.21563464377E+04 0.  0.
        -24    2    4    4    0    0 -0.24085300390E+03 -0.45126505250E+03 -0.67194635367E+03  0.84706951507E+03  0.66064695982E+02 0.  0.
        -15    1    4    4    0    0  0.43412451392E+03  0.61437715982E+03  0.11530012677E+04  0.13767117750E+04  0.00000000000E+00 0.  1.
        -15    1    3    3    0    0 -0.20267871441E+03  0.62547602168E+02  0.78382493387E+03  0.81201748181E+03  0.00000000000E+00 0.  1.
         15    1    3    3    0    0 -0.10829749782E+03  0.11630668432E+03  0.80480960530E+03  0.82034998241E+03  0.00000000000E+00 0. -1.
         15    1    5    5    0    0 -0.64938547288E+02 -0.17643641095E+03 -0.21555110616E+03  0.28602290363E+03  0.00000000000E+00 0. -1.
        -16    1    5    5    0    0 -0.17591445661E+03 -0.27482864155E+03 -0.45639524751E+03  0.56104661144E+03  0.00000000000E+00 0.  1.
         16    1    1    2    0    0  0.99617873850E+02 -0.36034899170E+03 -0.51213527398E+03  0.63408016486E+03  0.00000000000E+00 0. -1.
    9900018    1    1    2    0    0  0.18086828349E+02  0.18382597900E+02 -0.12411689562E+02  0.95573436146E+02  0.91187600000E+02 0.  0.
<mgrwt>
<rscale>  0 0.43176519E+04</rscale>
<asrwt>0</asrwt>
<pdfrwt beam="1">  1        2 0.47161114E+00 0.43176519E+04</pdfrwt>
<pdfrwt beam="2">  1       -2 0.23389691E+00 0.43176519E+04</pdfrwt>
<totfact> 0.98334334E-02</totfact>
</mgrwt>
</event>
