<event>
12    1  0.2554408E-011  0.1771336E+04  0.7818608E-02  0.8721693E-01
         -1   -1    0    0    0  501 -0.00000000000E+00  0.00000000000E+00  0.85817371772E+03  0.85817371772E+03  0.00000000000E+00 0.  1.
          1   -1    0    0  501    0  0.00000000000E+00 -0.00000000000E+00 -0.91404317852E+03  0.91404317852E+03  0.00000000000E+00 0. -1.
    9900016    2    1    2    0    0 -0.34535691318E+02  0.20673081409E+02 -0.36818317544E+03  0.80277910610E+03  0.71223265318E+03 0.  0.
         23    2    3    3    0    0  0.14071937374E+02 -0.14021375092E+03  0.33950226298E+02  0.17195107177E+03  0.92502096470E+02 0.  0.
         23    2    3    3    0    0  0.92644899209E+02  0.24852617947E+03 -0.13865383446E+03  0.31929245984E+03  0.11124050462E+03 0.  0.
        -15    1    4    4    0    0 -0.22344874257E+02 -0.26117848337E+02 -0.20893971604E+02  0.40224289387E+02  0.00000000000E+00 0.  1.
        -15    1    5    5    0    0  0.14405651394E+02  0.14399043973E+03 -0.11878300445E+03  0.18721691076E+03  0.00000000000E+00 0. -1.
         15    1    5    5    0    0  0.78239247815E+02  0.10453573973E+03 -0.19870830017E+02  0.13207554908E+03  0.00000000000E+00 0.  1.
         15    1    4    4    0    0  0.36416811631E+02 -0.11409590258E+03  0.54844197902E+02  0.13172678239E+03  0.00000000000E+00 0. -1.
        -16    1    1    2    0    0 -0.32895059920E+03 -0.13944282058E+01  0.46055724929E+03  0.56597121925E+03  0.00000000000E+00 0.  1.
         16    1    3    3    0    0 -0.14125252790E+03 -0.87639347141E+02 -0.26347956727E+03  0.31153557449E+03  0.00000000000E+00 0. -1.
    9900018    1    1    2    0    0  0.36348629052E+03 -0.19278653203E+02 -0.14824353465E+03  0.40346657089E+03  0.91187600000E+02 0.  0.
<mgrwt>
<rscale>  0 0.17713360E+04</rscale>
<asrwt>0</asrwt>
<pdfrwt beam="1">  1        1 0.14062203E+00 0.17713360E+04</pdfrwt>
<pdfrwt beam="2">  1       -1 0.13202673E+00 0.17713360E+04</pdfrwt>
<totfact> 0.81752848E+00</totfact>
</mgrwt>
</event>
<event>
12    1  0.2554408E-011  0.1611965E+04  0.7818608E-02  0.8813231E-01
          2   -1    0    0  501    0  0.00000000000E+00  0.00000000000E+00  0.22157074480E+04  0.22157074480E+04  0.00000000000E+00 0. -1.
         -2   -1    0    0    0  501 -0.00000000000E+00 -0.00000000000E+00 -0.29318294785E+03  0.29318294785E+03  0.00000000000E+00 0.  1.
    9900016    2    1    2    0    0  0.27520489529E+03  0.34737239763E+03  0.94354796725E+03  0.12614241214E+04  0.71028355648E+03 0.  0.
         23    2    3    3    0    0  0.45339222054E+02  0.22570717558E+03  0.17992653344E+03  0.30421426982E+03  0.84695869807E+02 0.  0.
         23    2    3    3    0    0 -0.92792700104E+02 -0.12430176417E+03  0.27933693991E+03  0.32543484797E+03  0.61784306303E+02 0.  0.
        -15    1    4    4    0    0  0.21421320814E+02  0.14606442965E+03  0.62468731439E+02  0.16029982221E+03  0.00000000000E+00 0. -1.
        -15    1    5    5    0    0 -0.53724560866E+01 -0.55399014734E+02  0.92773145225E+02  0.10818858809E+03  0.00000000000E+00 0.  1.
         15    1    5    5    0    0 -0.87420244018E+02 -0.68902749436E+02  0.18656379469E+03  0.21724625988E+03  0.00000000000E+00 0. -1.
         15    1    4    4    0    0  0.23917901239E+02  0.79642745929E+02  0.11745780200E+03  0.14391444761E+03  0.00000000000E+00 0.  1.
        -16    1    1    2    0    0 -0.33756602057E+03 -0.22230240542E+02  0.19236211797E+03  0.38916344415E+03  0.00000000000E+00 0.  1.
         16    1    3    3    0    0  0.32265837334E+03  0.24596698623E+03  0.48428449389E+03  0.63177500364E+03  0.00000000000E+00 0. -1.
    9900018    1    1    2    0    0  0.62361125275E+02 -0.32514215709E+03  0.78661441493E+03  0.85830283026E+03  0.91187600000E+02 0.  0.
<mgrwt>
<rscale>  0 0.16119648E+04</rscale>
<asrwt>0</asrwt>
<pdfrwt beam="1">  1        2 0.34087806E+00 0.16119648E+04</pdfrwt>
<pdfrwt beam="2">  1       -2 0.45105070E-01 0.16119648E+04</pdfrwt>
<totfact> 0.22613563E+01</totfact>
</mgrwt>
</event>
<event>
11    1  0.2554408E-011  0.1590560E+04  0.7818608E-02  0.8826369E-01
          1   -1    0    0  501    0  0.00000000000E+00  0.00000000000E+00  0.11333605204E+04  0.11333605204E+04  0.00000000000E+00 0. -1.
         -1   -1    0    0    0  501 -0.00000000000E+00 -0.00000000000E+00 -0.55804840426E+03  0.55804840426E+03  0.00000000000E+00 0.  1.
    9900016    2    1    2    0    0  0.29287995367E+03 -0.17827263479E+03  0.14170468167E+03  0.79618841910E+03  0.70446858150E+03 0.  0.
         23    2    3    3    0    0  0.81963128994E+02  0.14887658167E+03 -0.51226053441E+02  0.20383381446E+03  0.10020940216E+03 0.  0.
        -15    1    3    3    0    0  0.11521806418E+03 -0.16852916875E+03  0.93115642645E+02  0.22438316768E+03  0.00000000000E+00 0.  1.
        -15    1    4    4    0    0  0.63428354058E+02  0.72602776934E+02  0.19289168260E+02  0.98317807793E+02  0.00000000000E+00 0.  1.
         15    1    4    4    0    0  0.18534774936E+02  0.76273804737E+02 -0.70515221701E+02  0.10551600667E+03  0.00000000000E+00 0. -1.
         15    1    3    3    0    0  0.24979707857E+02 -0.23045540120E+03  0.85065020843E+01  0.23196128626E+03  0.00000000000E+00 0. -1.
        -16    1    1    2    0    0 -0.49964887813E+03  0.23132597558E+03  0.31912567149E+03  0.63639759789E+03  0.00000000000E+00 0.  1.
         16    1    3    3    0    0  0.70719052642E+02  0.71835353484E+02  0.91308590384E+02  0.13601015070E+03  0.00000000000E+00 0. -1.
    9900018    1    1    2    0    0  0.20676892446E+03 -0.53053340794E+02  0.11448176297E+03  0.25882290768E+03  0.91187600000E+02 0.  0.
<mgrwt>
<rscale>  0 0.15905597E+04</rscale>
<asrwt>0</asrwt>
<pdfrwt beam="1">  1        1 0.17436316E+00 0.15905597E+04</pdfrwt>
<pdfrwt beam="2">  1       -1 0.85853601E-01 0.15905597E+04</pdfrwt>
<totfact> 0.15399367E+01</totfact>
</mgrwt>
</event>
<event>
11    1  0.2554408E-011  0.1205202E+04  0.7818608E-02  0.9108316E-01
          2   -1    0    0  501    0  0.00000000000E+00  0.00000000000E+00  0.73297857169E+03  0.73297857169E+03  0.00000000000E+00 0. -1.
         -2   -1    0    0    0  501 -0.00000000000E+00 -0.00000000000E+00 -0.49541399407E+03  0.49541399407E+03  0.00000000000E+00 0.  1.
    9900016    2    1    2    0    0 -0.15955765222E+03 -0.22228304020E+02  0.28969259793E+03  0.78591682889E+03  0.71259435779E+03 0.  0.
         23    2    3    3    0    0 -0.13307865023E+03  0.10898067346E+03 -0.39576091339E+02  0.19778645942E+03  0.89255264207E+02 0.  0.
        -15    1    4    4    0    0 -0.48156102618E+00  0.40314078355E+02 -0.25721194586E+02  0.47822972153E+02  0.00000000000E+00 0.  1.
        -15    1    3    3    0    0  0.59781629560E+02 -0.45914929233E+01  0.16609702022E+03  0.17658750003E+03  0.00000000000E+00 0.  1.
         15    1    3    3    0    0  0.41236248736E+02 -0.16583927860E+02  0.22709739114E+03  0.23140587706E+03  0.00000000000E+00 0. -1.
         15    1    4    4    0    0 -0.13259708920E+03  0.68666595100E+02 -0.13854896754E+02  0.14996348726E+03  0.00000000000E+00 0. -1.
        -16    1    1    2    0    0  0.59030221952E+02 -0.16791785252E+03 -0.99776636016E+02  0.20404986986E+03  0.00000000000E+00 0.  1.
         16    1    3    3    0    0 -0.12749688029E+03 -0.11003355669E+03 -0.63925722093E+02  0.18013699239E+03  0.00000000000E+00 0. -1.
    9900018    1    1    2    0    0  0.10052743027E+03  0.19014615654E+03  0.47648615710E+02  0.23842586700E+03  0.91187600000E+02 0.  0.
<mgrwt>
<rscale>  0 0.12052018E+04</rscale>
<asrwt>0</asrwt>
<pdfrwt beam="1">  1        2 0.11276593E+00 0.12052018E+04</pdfrwt>
<pdfrwt beam="2">  1       -2 0.76217538E-01 0.12052018E+04</pdfrwt>
<totfact> 0.58737407E+01</totfact>
</mgrwt>
</event>
<event>
12    1  0.2554408E-011  0.1943026E+04  0.7818608E-02  0.8633731E-01
         -1   -1    0    0    0  501 -0.00000000000E+00  0.00000000000E+00  0.12049246660E+04  0.12049246660E+04  0.00000000000E+00 0.  1.
          1   -1    0    0  501    0  0.00000000000E+00 -0.00000000000E+00 -0.78331690341E+03  0.78331690341E+03  0.00000000000E+00 0. -1.
    9900016    2    1    2    0    0 -0.28747917453E+03 -0.43388012588E+03 -0.12365350681E+03  0.88906181728E+03  0.71010174325E+03 0.  0.
         23    2    3    3    0    0  0.40590525802E+02 -0.19076869545E+03 -0.11239408655E+03  0.24361777753E+03  0.93149905448E+02 0.  0.
         23    2    3    3    0    0 -0.38545618305E+02 -0.32290629394E+03  0.27453728371E+02  0.34264027130E+03  0.10437628540E+03 0.  0.
        -15    1    5    5    0    0  0.27969654599E+02 -0.12495503647E+03 -0.16890572247E+02  0.12915631672E+03  0.00000000000E+00 0.  1.
        -15    1    4    4    0    0  0.57189427539E+02 -0.54944212202E+02 -0.41056717091E+02  0.89303701463E+02  0.00000000000E+00 0.  1.
         15    1    5    5    0    0 -0.66515272904E+02 -0.19795125747E+03  0.44344300618E+02  0.21348395458E+03  0.00000000000E+00 0. -1.
         15    1    4    4    0    0 -0.16598901737E+02 -0.13582448325E+03 -0.71337369462E+02  0.15431407606E+03  0.00000000000E+00 0. -1.
        -16    1    1    2    0    0  0.44389000359E+03  0.22703817108E+03  0.63742266049E+03  0.80925417177E+03  0.00000000000E+00 0.  1.
         16    1    3    3    0    0 -0.28952408202E+03  0.79794863511E+02 -0.38713148627E+02  0.30280376845E+03  0.00000000000E+00 0. -1.
    9900018    1    1    2    0    0 -0.15641082906E+03  0.20684195481E+03 -0.92161391138E+02  0.28992558032E+03  0.91187600000E+02 0.  0.
<mgrwt>
<rscale>  0 0.19430264E+04</rscale>
<asrwt>0</asrwt>
<pdfrwt beam="1">  1        1 0.12051029E+00 0.19430264E+04</pdfrwt>
<pdfrwt beam="2">  1       -1 0.18537303E+00 0.19430264E+04</pdfrwt>
<totfact> 0.40608239E+00</totfact>
</mgrwt>
</event>
<event>
12    1  0.2554408E-011  0.1694600E+04  0.7818608E-02  0.8764450E-01
         -2   -1    0    0    0  501 -0.00000000000E+00  0.00000000000E+00  0.25159098699E+03  0.25159098699E+03  0.00000000000E+00 0. -1.
          2   -1    0    0  501    0  0.00000000000E+00 -0.00000000000E+00 -0.28535105321E+04  0.28535105321E+04  0.00000000000E+00 0.  1.
    9900016    2    1    2    0    0 -0.11924710938E+03 -0.28277632668E+03 -0.10654407516E+04  0.13193223109E+04  0.71502799995E+03 0.  0.
         23    2    3    3    0    0  0.27696587426E+02 -0.21560397240E+02  0.13885398056E+02  0.10210392182E+03  0.94870727247E+02 0.  0.
         23    2    3    3    0    0 -0.29124508037E+03 -0.49730631469E+02 -0.63585692319E+03  0.70515015590E+03  0.75005886757E+02 0.  0.
        -15    1    5    5    0    0 -0.16965610517E+02 -0.17505831136E+02 -0.92236081741E+02  0.95403253817E+02  0.00000000000E+00 0.  1.
        -15    1    4    4    0    0 -0.22817272388E+02  0.12920301065E+02  0.29007063932E+02  0.39102069725E+02  0.00000000000E+00 0.  1.
         15    1    4    4    0    0  0.50513859814E+02 -0.34480698305E+02 -0.15121665876E+02  0.63001852098E+02  0.00000000000E+00 0. -1.
         15    1    5    5    0    0 -0.27427946985E+03 -0.32224800333E+02 -0.54362084145E+03  0.60974690208E+03  0.00000000000E+00 0. -1.
        -16    1    1    2    0    0 -0.19810360699E+03  0.31562842718E+03 -0.13596278789E+04  0.14097710141E+04  0.00000000000E+00 0.  1.
         16    1    3    3    0    0  0.14430138356E+03 -0.21148529797E+03 -0.44346922648E+03  0.51206823314E+03  0.00000000000E+00 0. -1.
    9900018    1    1    2    0    0  0.31735071636E+03 -0.32852100505E+02 -0.17685091467E+03  0.37600819419E+03  0.91187600000E+02 0.  0.
<mgrwt>
<rscale>  0 0.16946003E+04</rscale>
<asrwt>0</asrwt>
<pdfrwt beam="1">  1        2 0.43900160E+00 0.16946003E+04</pdfrwt>
<pdfrwt beam="2">  1       -2 0.38706307E-01 0.16946003E+04</pdfrwt>
<totfact> 0.12929403E+01</totfact>
</mgrwt>
</event>
<event>
12    1  0.2554408E-011  0.9070405E+03  0.7818608E-02  0.9416823E-01
         -2   -1    0    0    0  501 -0.00000000000E+00  0.00000000000E+00  0.32924773011E+03  0.32924773011E+03  0.00000000000E+00 0. -1.
          2   -1    0    0  501    0  0.00000000000E+00 -0.00000000000E+00 -0.62469865590E+03  0.62469865590E+03  0.00000000000E+00 0.  1.
    9900016    2    1    2    0    0  0.22692016412E+02 -0.32605938508E+02 -0.20960731471E+03  0.73695737170E+03  0.70540262722E+03 0.  0.
         23    2    3    3    0    0  0.43714610175E+02 -0.68774962867E+02 -0.25709647904E+03  0.28567665311E+03  0.94189107322E+02 0.  0.
         23    2    3    3    0    0  0.12520040014E+03  0.15134238714E+02  0.18245984195E+03  0.25117896955E+03  0.11787745944E+03 0.  0.
        -15    1    5    5    0    0  0.11477817476E+03 -0.24231466584E+02  0.82989158393E+02  0.14369548978E+03  0.00000000000E+00 0. -1.
        -15    1    4    4    0    0  0.16102357313E+02 -0.71840055754E+02 -0.89954625352E+02  0.11624161967E+03  0.00000000000E+00 0.  1.
         15    1    5    5    0    0  0.10422225380E+02  0.39365705298E+02  0.99470683555E+02  0.10748347976E+03  0.00000000000E+00 0.  1.
         15    1    4    4    0    0  0.27612252862E+02  0.30650928870E+01 -0.16714185369E+03  0.16943503344E+03  0.00000000000E+00 0. -1.
        -16    1    3    3    0    0 -0.14622299390E+03  0.21034785645E+02 -0.13497067762E+03  0.20010174904E+03  0.00000000000E+00 0.  1.
         16    1    1    2    0    0  0.50409747211E+02 -0.29168831661E+02 -0.57394950148E+02  0.81768842824E+02  0.00000000000E+00 0. -1.
    9900018    1    1    2    0    0 -0.73101763623E+02  0.61774770169E+02 -0.28448660922E+02  0.13522017148E+03  0.91187600000E+02 0.  0.
<mgrwt>
<rscale>  0 0.90704049E+03</rscale>
<asrwt>0</asrwt>
<pdfrwt beam="1">  1        2 0.96107485E-01 0.90704049E+03</pdfrwt>
<pdfrwt beam="2">  1       -2 0.50653497E-01 0.90704049E+03</pdfrwt>
<totfact> 0.17452894E+02</totfact>
</mgrwt>
</event>
<event>
12    1  0.2554408E-011  0.1300476E+04  0.7818608E-02  0.9029188E-01
         -1   -1    0    0    0  501 -0.00000000000E+00  0.00000000000E+00  0.10130572250E+04  0.10130572250E+04  0.00000000000E+00 0.  1.
          1   -1    0    0  501    0  0.00000000000E+00 -0.00000000000E+00 -0.41735995688E+03  0.41735995688E+03  0.00000000000E+00 0. -1.
    9900016    2    1    2    0    0 -0.16508625787E+03 -0.24202650647E+03  0.34062388646E+03  0.84556667689E+03  0.71632958244E+03 0.  0.
         23    2    3    3    0    0  0.13232379900E+02  0.30496021358E+02  0.47543408603E+01  0.97167514179E+02  0.91180145088E+02 0.  0.
         23    2    3    3    0    0 -0.68164750471E+02  0.15727498828E+03  0.19025010243E+03  0.28142506711E+03  0.11671808675E+03 0.  0.
        -15    1    5    5    0    0 -0.95404953509E+02  0.77942787510E+02  0.12058781113E+03  0.17239084509E+03  0.00000000000E+00 0. -1.
        -15    1    4    4    0    0 -0.12032949005E+02  0.41020911560E+02  0.35814415790E+02  0.55768982646E+02  0.00000000000E+00 0. -1.
         15    1    5    5    0    0  0.27240203038E+02  0.79332200770E+02  0.69662291305E+02  0.10903422202E+03  0.00000000000E+00 0.  1.
         15    1    4    4    0    0  0.25265328906E+02 -0.10524890202E+02 -0.31060074930E+02  0.41398531533E+02  0.00000000000E+00 0.  1.
        -16    1    1    2    0    0 -0.40123663995E+02 -0.95950290260E+02  0.11625424368E+03  0.15598530632E+03  0.00000000000E+00 0.  1.
         16    1    3    3    0    0 -0.11015388730E+03 -0.42979751611E+03  0.14561944317E+03  0.46697409561E+03  0.00000000000E+00 0. -1.
    9900018    1    1    2    0    0  0.20520992186E+03  0.33797679673E+03  0.13881913796E+03  0.42886519865E+03  0.91187600000E+02 0.  0.
<mgrwt>
<rscale>  0 0.13004761E+04</rscale>
<asrwt>0</asrwt>
<pdfrwt beam="1">  1        1 0.64209224E-01 0.13004761E+04</pdfrwt>
<pdfrwt beam="2">  1       -1 0.15585496E+00 0.13004761E+04</pdfrwt>
<totfact> 0.17504565E+01</totfact>
</mgrwt>
</event>
<event>
12    1  0.2554408E-011  0.1935792E+04  0.7818608E-02  0.8637243E-01
         -2   -1    0    0    0  501 -0.00000000000E+00  0.00000000000E+00  0.17706192768E+04  0.17706192768E+04  0.00000000000E+00 0.  1.
          2   -1    0    0  501    0  0.00000000000E+00 -0.00000000000E+00 -0.52909301580E+03  0.52909301580E+03  0.00000000000E+00 0. -1.
    9900016    2    1    2    0    0  0.12777878163E+03 -0.94778133079E+02  0.43608422810E+03  0.84654109824E+03  0.70792094577E+03 0.  0.
         23    2    3    3    0    0  0.12139886685E+03  0.10163447282E+03 -0.66266312046E+02  0.19426188031E+03  0.90990126337E+02 0.  0.
         23    2    3    3    0    0 -0.30211640895E+02 -0.14745988448E+03  0.55756484055E+02  0.20152256316E+03  0.12184168897E+03 0.  0.
        -15    1    4    4    0    0  0.77109668952E+02  0.27892605638E+02  0.55739431628E+01  0.82188608319E+02  0.00000000000E+00 0. -1.
        -15    1    5    5    0    0 -0.68488375843E+02 -0.13749989284E+03  0.38457788455E+02  0.15835365373E+03  0.00000000000E+00 0.  1.
         15    1    5    5    0    0  0.38276734948E+02 -0.99599916366E+01  0.17298695600E+02  0.43168909428E+02  0.00000000000E+00 0. -1.
         15    1    4    4    0    0  0.44289197902E+02  0.73741867181E+02 -0.71840255209E+02  0.11207327199E+03  0.00000000000E+00 0.  1.
        -16    1    1    2    0    0 -0.59106395337E+03  0.57919687262E+02  0.77799190203E+03  0.97876589988E+03  0.00000000000E+00 0.  1.
         16    1    3    3    0    0  0.36591555675E+02 -0.48952721418E+02  0.44659405609E+03  0.45075665477E+03  0.00000000000E+00 0. -1.
    9900018    1    1    2    0    0  0.46328517173E+03  0.36858445818E+02  0.27450130882E+02  0.47440529451E+03  0.91187600000E+02 0.  0.
<mgrwt>
<rscale>  0 0.19357916E+04</rscale>
<asrwt>0</asrwt>
<pdfrwt beam="1">  1        2 0.81398926E-01 0.19357916E+04</pdfrwt>
<pdfrwt beam="2">  1       -2 0.27240296E+00 0.19357916E+04</pdfrwt>
<totfact> 0.25228890E+00</totfact>
</mgrwt>
</event>
<event>
12    1  0.2554408E-011  0.1891967E+04  0.7818608E-02  0.8658865E-01
          2   -1    0    0  501    0  0.00000000000E+00  0.00000000000E+00  0.10535176004E+04  0.10535176004E+04  0.00000000000E+00 0. -1.
         -2   -1    0    0    0  501 -0.00000000000E+00 -0.00000000000E+00 -0.84942563100E+03  0.84942563100E+03  0.00000000000E+00 0.  1.
    9900016    2    1    2    0    0  0.35088722150E+03 -0.35908142186E+03 -0.89726905630E+02  0.87304758527E+03  0.70859004990E+03 0.  0.
         23    2    3    3    0    0  0.12915911242E+03 -0.59542828643E+01  0.78723916555E+02  0.17537801284E+03  0.88557679180E+02 0.  0.
         23    2    3    3    0    0 -0.15842437812E+03 -0.17064808302E+03 -0.71865850742E+02  0.26506909151E+03  0.10429703231E+03 0.  0.
        -15    1    4    4    0    0  0.12067076023E+03 -0.26352704254E+02  0.87749060106E+02  0.15151169904E+03  0.00000000000E+00 0. -1.
        -15    1    5    5    0    0 -0.15147684984E+02 -0.88897638138E+02 -0.26057536721E+02  0.93868192945E+02  0.00000000000E+00 0.  1.
         15    1    5    5    0    0 -0.14327669314E+03 -0.81750444884E+02 -0.45808314021E+02  0.17120089856E+03  0.00000000000E+00 0. -1.
         15    1    4    4    0    0  0.84883521947E+01  0.20398421390E+02 -0.90251435507E+01  0.23866313798E+02  0.00000000000E+00 0.  1.
        -16    1    3    3    0    0  0.38015248719E+03 -0.18247905598E+03 -0.96584971443E+02  0.43260048093E+03  0.00000000000E+00 0.  1.
         16    1    1    2    0    0 -0.40331221230E+03  0.37819597038E+03  0.53296097096E+03  0.76794552487E+03  0.00000000000E+00 0. -1.
    9900018    1    1    2    0    0  0.52424990799E+02 -0.19114548518E+02 -0.23914209590E+03  0.26195012130E+03  0.91187600000E+02 0.  0.
<mgrwt>
<rscale>  0 0.18919671E+04</rscale>
<asrwt>0</asrwt>
<pdfrwt beam="1">  1        2 0.16207963E+00 0.18919671E+04</pdfrwt>
<pdfrwt beam="2">  1       -2 0.13068087E+00 0.18919671E+04</pdfrwt>
<totfact> 0.93547345E+00</totfact>
</mgrwt>
</event>
<event>
11    1  0.2554408E-011  0.9585946E+03  0.7818608E-02  0.9355161E-01
          1   -1    0    0  501    0  0.00000000000E+00  0.00000000000E+00  0.35234756868E+03  0.35234756868E+03  0.00000000000E+00 0. -1.
         -1   -1    0    0    0  501 -0.00000000000E+00 -0.00000000000E+00 -0.65198661530E+03  0.65198661530E+03  0.00000000000E+00 0.  1.
    9900016    2    1    2    0    0 -0.71260079158E+02 -0.53129364779E+02 -0.17678716056E+03  0.72761750206E+03  0.70019483065E+03 0.  0.
         23    2    3    3    0    0  0.52928143321E+01 -0.87079676057E+02 -0.98360788255E+02  0.15996889026E+03  0.91128027078E+02 0.  0.
        -15    1    4    4    0    0  0.22690428302E+02  0.48258863543E+01 -0.48981885423E+02  0.54197507463E+02  0.00000000000E+00 0.  1.
        -15    1    3    3    0    0 -0.45256530013E+02  0.17615540405E+03 -0.15723438629E+03  0.24041949197E+03  0.00000000000E+00 0.  1.
         15    1    3    3    0    0  0.43056490389E+02 -0.19663043141E+03  0.11070133644E+03  0.22972194891E+03  0.00000000000E+00 0. -1.
         15    1    4    4    0    0 -0.17397613970E+02 -0.91905562411E+02 -0.49378902832E+02  0.10577138280E+03  0.00000000000E+00 0. -1.
        -16    1    1    2    0    0  0.16300016588E+02  0.11433183800E+03 -0.97901954925E+02  0.15140096598E+03  0.00000000000E+00 0.  1.
         16    1    3    3    0    0 -0.74352853866E+02  0.54425338636E+02 -0.31893322455E+02  0.97507170921E+02  0.00000000000E+00 0. -1.
    9900018    1    1    2    0    0  0.54960062570E+02 -0.61202473220E+02 -0.24949931139E+02  0.12531571595E+03  0.91187600000E+02 0.  0.
<mgrwt>
<rscale>  0 0.95859459E+03</rscale>
<asrwt>0</asrwt>
<pdfrwt beam="1">  1        1 0.54207319E-01 0.95859459E+03</pdfrwt>
<pdfrwt beam="2">  1       -1 0.10030563E+00 0.95859459E+03</pdfrwt>
<totfact> 0.67560870E+01</totfact>
</mgrwt>
</event>
<event>
11    1  0.2554408E-011  0.2139548E+04  0.7818608E-02  0.8544020E-01
          1   -1    0    0  501    0  0.00000000000E+00  0.00000000000E+00  0.10353102429E+04  0.10353102429E+04  0.00000000000E+00 0. -1.
         -1   -1    0    0    0  501 -0.00000000000E+00 -0.00000000000E+00 -0.11053845155E+04  0.11053845155E+04  0.00000000000E+00 0.  1.
    9900016    2    1    2    0    0 -0.25464957849E+03 -0.19572042175E+03 -0.15886613247E+03  0.78692788004E+03  0.70061697740E+03 0.  0.
         23    2    3    3    0    0 -0.20834367045E+03  0.82510797427E+02  0.13395738428E+03  0.27664129621E+03  0.91491580257E+02 0.  0.
        -15    1    4    4    0    0 -0.66179023660E+02  0.44394694623E+02  0.95757091734E+02  0.12457918245E+03  0.00000000000E+00 0.  1.
        -15    1    3    3    0    0  0.50168595314E+02 -0.12050010384E+03 -0.24081939039E+03  0.27391812968E+03  0.00000000000E+00 0.  1.
         15    1    4    4    0    0 -0.14216464679E+03  0.38116102804E+02  0.38200292541E+02  0.15206211376E+03  0.00000000000E+00 0. -1.
         15    1    3    3    0    0  0.14569412653E+01 -0.12544501770E+02 -0.59749484191E+02  0.61069534661E+02  0.00000000000E+00 0. -1.
        -16    1    3    3    0    0 -0.97931444619E+02 -0.14518661357E+03  0.77453578420E+01  0.17529891949E+03  0.00000000000E+00 0.  1.
         16    1    1    2    0    0  0.15476302439E+01  0.65140632482E+03  0.37552842309E+03  0.75190038683E+03  0.00000000000E+00 0. -1.
    9900018    1    1    2    0    0  0.25310194825E+03 -0.45568590306E+03 -0.28673656323E+03  0.60186649146E+03  0.91187600000E+02 0.  0.
<mgrwt>
<rscale>  0 0.21395475E+04</rscale>
<asrwt>0</asrwt>
<pdfrwt beam="1">  1        1 0.15927850E+00 0.21395475E+04</pdfrwt>
<pdfrwt beam="2">  1       -1 0.17005916E+00 0.21395475E+04</pdfrwt>
<totfact> 0.32003282E+00</totfact>
</mgrwt>
</event>
<event>
11    1  0.2554408E-011  0.2060088E+04  0.7818608E-02  0.8579031E-01
          1   -1    0    0  501    0  0.00000000000E+00  0.00000000000E+00  0.11500585962E+04  0.11500585962E+04  0.00000000000E+00 0. -1.
         -1   -1    0    0    0  501 -0.00000000000E+00 -0.00000000000E+00 -0.92255392368E+03  0.92255392368E+03  0.00000000000E+00 0.  1.
    9900016    2    1    2    0    0 -0.15650753737E+03  0.68904356689E+02  0.43612260033E+03  0.85256570446E+03  0.71233625366E+03 0.  0.
         23    2    3    3    0    0 -0.69112411999E+02  0.11714467830E+02  0.81035767887E+02  0.14069264758E+03  0.91180431884E+02 0.  0.
        -15    1    4    4    0    0 -0.19962354732E+02  0.37839436652E+02  0.48975445479E+00  0.42785025792E+02  0.00000000000E+00 0.  1.
        -15    1    3    3    0    0 -0.84821282994E+02 -0.11023311392E+03  0.15024222635E+03  0.20474060670E+03  0.00000000000E+00 0. -1.
         15    1    3    3    0    0 -0.19479702283E+03 -0.12339345348E+02  0.12627918401E+03  0.23247488437E+03  0.00000000000E+00 0.  1.
         15    1    4    4    0    0 -0.49150057268E+02 -0.26124968822E+02  0.80546013432E+02  0.97907621793E+02  0.00000000000E+00 0. -1.
        -16    1    1    2    0    0  0.65578729010E+03  0.10562833789E+03 -0.89077277193E+02  0.67018585253E+03  0.00000000000E+00 0.  1.
         16    1    3    3    0    0  0.19222318045E+03  0.17976234813E+03  0.78565422081E+02  0.27465756581E+03  0.00000000000E+00 0. -1.
    9900018    1    1    2    0    0 -0.49927975273E+03 -0.17453269458E+03 -0.11954065062E+03  0.54986096288E+03  0.91187600000E+02 0.  0.
<mgrwt>
<rscale>  0 0.20600884E+04</rscale>
<asrwt>0</asrwt>
<pdfrwt beam="1">  1        1 0.17693209E+00 0.20600884E+04</pdfrwt>
<pdfrwt beam="2">  1       -1 0.14193137E+00 0.20600884E+04</pdfrwt>
<totfact> 0.43405569E+00</totfact>
</mgrwt>
</event>
<event>
12    1  0.2554408E-011  0.1793671E+04  0.7818608E-02  0.8709672E-01
         -1   -1    0    0    0  501 -0.00000000000E+00  0.00000000000E+00  0.72012580479E+03  0.72012580479E+03  0.00000000000E+00 0.  1.
          1   -1    0    0  501    0  0.00000000000E+00 -0.00000000000E+00 -0.11169076249E+04  0.11169076249E+04  0.00000000000E+00 0. -1.
    9900016    2    1    2    0    0 -0.43588176392E+03 -0.29066270220E+03  0.12878772901E+03  0.87946561476E+03  0.69454716891E+03 0.  0.
         23    2    3    3    0    0 -0.13039068616E+03 -0.92477382424E+02 -0.33049426024E+02  0.18999455692E+03  0.97220727224E+02 0.  0.
         23    2    3    3    0    0  0.63437168882E+02  0.11633786947E+03  0.13559949427E+03  0.20395967529E+03  0.75190105934E+02 0.  0.
        -15    1    5    5    0    0  0.53319309367E+02  0.84037321439E+02  0.13786565837E+03  0.17003576066E+03  0.00000000000E+00 0. -1.
        -15    1    4    4    0    0 -0.23143940422E+01  0.11747381277E+02 -0.21321599601E+02  0.24453384146E+02  0.00000000000E+00 0.  1.
         15    1    5    5    0    0  0.10117859514E+02  0.32300548029E+02 -0.22661640982E+01  0.33923914630E+02  0.00000000000E+00 0.  1.
         15    1    4    4    0    0 -0.12807629212E+03 -0.10422476370E+03 -0.11727826422E+02  0.16554117278E+03  0.00000000000E+00 0. -1.
        -16    1    3    3    0    0 -0.36892824663E+03 -0.31452318925E+03  0.26237660758E+02  0.48551138254E+03  0.00000000000E+00 0.  1.
         16    1    1    2    0    0  0.30037048169E+03 -0.67539557775E+02 -0.46729065841E+03  0.55959322510E+03  0.00000000000E+00 0. -1.
    9900018    1    1    2    0    0  0.13551128223E+03  0.35820225998E+03 -0.58278890724E+02  0.39797458984E+03  0.91187600000E+02 0.  0.
<mgrwt>
<rscale>  0 0.17936711E+04</rscale>
<asrwt>0</asrwt>
<pdfrwt beam="1">  1        1 0.17183194E+00 0.17936711E+04</pdfrwt>
<pdfrwt beam="2">  1       -1 0.11078859E+00 0.17936711E+04</pdfrwt>
<totfact> 0.87241247E+00</totfact>
</mgrwt>
</event>
<event>
12    1  0.2554408E-011  0.2178461E+04  0.7818608E-02  0.8527447E-01
          1   -1    0    0  501    0  0.00000000000E+00  0.00000000000E+00  0.15645581462E+04  0.15645581462E+04  0.00000000000E+00 0. -1.
         -1   -1    0    0    0  501 -0.00000000000E+00 -0.00000000000E+00 -0.75831175998E+03  0.75831175998E+03  0.00000000000E+00 0.  1.
    9900016    2    1    2    0    0  0.43053821488E+03 -0.32190127820E+03  0.93564100960E+02  0.89429631436E+03  0.70853939165E+03 0.  0.
         23    2    3    3    0    0  0.13122027176E+03 -0.16298988872E+02  0.32116328891E+02  0.16198383046E+03  0.87879952148E+02 0.  0.
         23    2    3    3    0    0  0.22127241760E+03  0.82375362118E+01 -0.20711364519E+03  0.31194148706E+03  0.73362725776E+02 0.  0.
        -15    1    5    5    0    0  0.11687480274E+03 -0.24174323176E+02 -0.77128644413E+02  0.14210188319E+03  0.00000000000E+00 0.  1.
        -15    1    4    4    0    0  0.27862499035E+02 -0.43365623735E+02  0.15727936036E+02  0.53891225133E+02  0.00000000000E+00 0.  1.
         15    1    5    5    0    0  0.10439761486E+03  0.32411859388E+02 -0.12998500077E+03  0.16983960387E+03  0.00000000000E+00 0. -1.
         15    1    4    4    0    0  0.10335777273E+03  0.27066634863E+02  0.16388392855E+02  0.10809260533E+03  0.00000000000E+00 0. -1.
        -16    1    1    2    0    0 -0.77520879472E+03  0.26413361433E+03  0.28125889721E+03  0.86592251899E+03  0.00000000000E+00 0.  1.
         16    1    3    3    0    0  0.78045525517E+02 -0.31383982554E+03  0.26856141726E+03  0.42037099685E+03  0.00000000000E+00 0. -1.
    9900018    1    1    2    0    0  0.34467057985E+03  0.57767663871E+02  0.43142338806E+03  0.56265107283E+03  0.91187600000E+02 0.  0.
<mgrwt>
<rscale>  0 0.21784608E+04</rscale>
<asrwt>0</asrwt>
<pdfrwt beam="1">  1        1 0.24070125E+00 0.21784608E+04</pdfrwt>
<pdfrwt beam="2">  1       -1 0.11666335E+00 0.21784608E+04</pdfrwt>
<totfact> 0.35748695E+00</totfact>
</mgrwt>
</event>
<event>
12    1  0.2554408E-011  0.1690831E+04  0.7818608E-02  0.8766611E-01
         -2   -1    0    0    0  501 -0.00000000000E+00  0.00000000000E+00  0.33180886254E+03  0.33180886254E+03  0.00000000000E+00 0.  1.
          2   -1    0    0  501    0  0.00000000000E+00 -0.00000000000E+00 -0.21540327054E+04  0.21540327054E+04  0.00000000000E+00 0. -1.
    9900016    2    1    2    0    0  0.14997177017E+02 -0.22695322287E+03 -0.71163411844E+03  0.10329000541E+04  0.71325081324E+03 0.  0.
         23    2    3    3    0    0 -0.28128128014E+02  0.71665121674E+02 -0.18491593141E+03  0.21945861150E+03  0.89672176416E+02 0.  0.
         23    2    3    3    0    0  0.25635213627E+03 -0.15686028806E+03 -0.11816493803E+03  0.33128297758E+03  0.73918136596E+02 0.  0.
        -15    1    5    5    0    0  0.22598887732E+03 -0.15894443230E+03 -0.11902938269E+03  0.30083600047E+03  0.00000000000E+00 0.  1.
        -15    1    4    4    0    0  0.18660879603E+02  0.43003285823E+02 -0.14277435366E+03  0.15027317486E+03  0.00000000000E+00 0. -1.
         15    1    4    4    0    0 -0.46789007618E+02  0.28661835851E+02 -0.42141577748E+02  0.69185436641E+02  0.00000000000E+00 0.  1.
         15    1    5    5    0    0  0.30363258946E+02  0.20841442407E+01  0.86444466145E+00  0.30446977117E+02  0.00000000000E+00 0. -1.
        -16    1    1    2    0    0  0.30260917911E+03  0.98170357795E+02 -0.34597810337E+02  0.32001053563E+03  0.00000000000E+00 0.  1.
         16    1    3    3    0    0 -0.21322683123E+03 -0.14175805648E+03 -0.40855324900E+03  0.48215846503E+03  0.00000000000E+00 0. -1.
    9900018    1    1    2    0    0 -0.31760635613E+03  0.12878286507E+03 -0.10759919141E+04  0.11329309782E+04  0.91187600000E+02 0.  0.
<mgrwt>
<rscale>  0 0.16908307E+04</rscale>
<asrwt>0</asrwt>
<pdfrwt beam="1">  1        2 0.33138964E+00 0.16908307E+04</pdfrwt>
<pdfrwt beam="2">  1       -2 0.51047519E-01 0.16908307E+04</pdfrwt>
<totfact> 0.18935438E+01</totfact>
</mgrwt>
</event>
<event>
11    1  0.2554408E-011  0.1087372E+04  0.7818608E-02  0.9217588E-01
          2   -1    0    0  501    0  0.00000000000E+00  0.00000000000E+00  0.14753854977E+04  0.14753854977E+04  0.00000000000E+00 0. -1.
         -2   -1    0    0    0  501 -0.00000000000E+00 -0.00000000000E+00 -0.20035062969E+03  0.20035062969E+03  0.00000000000E+00 0.  1.
    9900016    2    1    2    0    0  0.11802837817E+02  0.10555409457E+03  0.95029104928E+03  0.11863637726E+04  0.70222855884E+03 0.  0.
         23    2    3    3    0    0  0.21118266332E+03 -0.78569675343E+02  0.20558940809E+03  0.31862968067E+03  0.92122513600E+02 0.  0.
        -15    1    3    3    0    0 -0.30813027370E+02  0.93993295757E+01  0.55059031545E+02  0.63790963364E+02  0.00000000000E+00 0.  1.
        -15    1    4    4    0    0  0.77350250627E+02 -0.50882777640E+02  0.32574924733E+02  0.98149090947E+02  0.00000000000E+00 0. -1.
         15    1    3    3    0    0 -0.18753908577E+03  0.50485810627E+02  0.13821814040E+03  0.23837780958E+03  0.00000000000E+00 0. -1.
         15    1    4    4    0    0  0.13383241269E+03 -0.27686897703E+02  0.17301448335E+03  0.22048058972E+03  0.00000000000E+00 0.  1.
        -16    1    1    2    0    0  0.60078617264E+02 -0.60012775521E+02 -0.47144209243E+02  0.97126463661E+02  0.00000000000E+00 0.  1.
         16    1    3    3    0    0  0.18972287635E+02  0.12423862971E+03  0.55142446925E+03  0.56556531904E+03  0.00000000000E+00 0. -1.
    9900018    1    1    2    0    0 -0.71881455081E+02 -0.45541319051E+02  0.37188802795E+03  0.39224589106E+03  0.91187600000E+02 0.  0.
<mgrwt>
<rscale>  0 0.10873719E+04</rscale>
<asrwt>0</asrwt>
<pdfrwt beam="1">  1        2 0.22698238E+00 0.10873719E+04</pdfrwt>
<pdfrwt beam="2">  1       -2 0.30823175E-01 0.10873719E+04</pdfrwt>
<totfact> 0.12684501E+02</totfact>
</mgrwt>
</event>
<event>
12    1  0.2554408E-011  0.2197888E+04  0.7818608E-02  0.8519308E-01
         -1   -1    0    0    0  501 -0.00000000000E+00  0.00000000000E+00  0.21531348022E+04  0.21531348022E+04  0.00000000000E+00 0.  1.
          1   -1    0    0  501    0  0.00000000000E+00 -0.00000000000E+00 -0.56089270806E+03  0.56089270806E+03  0.00000000000E+00 0. -1.
    9900016    2    1    2    0    0  0.52912730671E+03 -0.93030567887E+02  0.90942209677E+03  0.12741492669E+04  0.71258502026E+03 0.  0.
         23    2    3    3    0    0 -0.49837500803E+01 -0.88115255145E+02  0.92550621021E+01  0.12969550241E+03  0.94583990283E+02 0.  0.
         23    2    3    3    0    0  0.34919362579E+03  0.10829223108E+03  0.84030318806E+03  0.91952247636E+03  0.75820452864E+02 0.  0.
        -15    1    5    5    0    0  0.95703764413E+02 -0.40765253574E+01  0.23245192618E+03  0.25141544615E+03  0.00000000000E+00 0.  1.
        -15    1    4    4    0    0 -0.42960315345E+01 -0.58551076716E+02 -0.40844701653E+02  0.71519047286E+02  0.00000000000E+00 0.  1.
         15    1    4    4    0    0 -0.68771854578E+00 -0.29564178429E+02  0.50099763755E+02  0.58176455129E+02  0.00000000000E+00 0. -1.
         15    1    5    5    0    0  0.25348986138E+03  0.11236875643E+03  0.60785126189E+03  0.66810703021E+03  0.00000000000E+00 0. -1.
        -16    1    3    3    0    0  0.18491743100E+03 -0.11320754382E+03  0.59863846608E+02  0.22493128817E+03  0.00000000000E+00 0.  1.
         16    1    1    2    0    0 -0.65459657078E+03  0.35636035065E+03  0.61968412430E+02  0.74788331586E+03  0.00000000000E+00 0. -1.
    9900018    1    1    2    0    0  0.12546926408E+03 -0.26332978276E+03  0.62085158494E+03  0.69199492747E+03  0.91187600000E+02 0.  0.
<mgrwt>
<rscale>  0 0.21978877E+04</rscale>
<asrwt>0</asrwt>
<pdfrwt beam="1">  1        1 0.86291187E-01 0.21978877E+04</pdfrwt>
<pdfrwt beam="2">  1       -1 0.33125150E+00 0.21978877E+04</pdfrwt>
<totfact> 0.71117501E-01</totfact>
</mgrwt>
</event>
<event>
11    1  0.2554408E-011  0.2015948E+04  0.7818608E-02  0.8599200E-01
         -2   -1    0    0    0  501 -0.00000000000E+00  0.00000000000E+00  0.50826107330E+03  0.50826107330E+03  0.00000000000E+00 0.  1.
          2   -1    0    0  501    0  0.00000000000E+00 -0.00000000000E+00 -0.19989962790E+04  0.19989962790E+04  0.00000000000E+00 0. -1.
    9900016    2    1    2    0    0 -0.13251680805E+03  0.49270341991E+02 -0.53611530022E+02  0.73077674438E+03  0.71496306405E+03 0.  0.
         23    2    3    3    0    0  0.23430417955E+02  0.10698941687E+03  0.14773833364E+03  0.20966323369E+03  0.10067937489E+03 0.  0.
        -15    1    4    4    0    0  0.14499826338E+02  0.21173486863E+02 -0.11833615497E+02  0.28259440289E+02  0.00000000000E+00 0.  1.
        -15    1    3    3    0    0 -0.13922999930E+03  0.23651933255E+02 -0.17763346807E+03  0.22693183036E+03  0.00000000000E+00 0.  1.
         15    1    4    4    0    0  0.89305916176E+01  0.85815930009E+02  0.15957194914E+03  0.18140379340E+03  0.00000000000E+00 0. -1.
         15    1    3    3    0    0 -0.11995833563E+03 -0.12525760166E+03 -0.46825567056E+02  0.17964437868E+03  0.00000000000E+00 0. -1.
        -16    1    3    3    0    0  0.10324110892E+03  0.43886593527E+02  0.23109171461E+02  0.11453730165E+03  0.00000000000E+00 0.  1.
         16    1    1    2    0    0 -0.93825176114E+02 -0.20253283932E+03 -0.14696394516E+04  0.14864934686E+04  0.00000000000E+00 0. -1.
    9900018    1    1    2    0    0  0.22634198417E+03  0.15326249733E+03  0.32515775872E+02  0.28998713930E+03  0.91187600000E+02 0.  0.
<mgrwt>
<rscale>  0 0.20159484E+04</rscale>
<asrwt>0</asrwt>
<pdfrwt beam="1">  1        2 0.30753789E+00 0.20159484E+04</pdfrwt>
<pdfrwt beam="2">  1       -2 0.78194010E-01 0.20159484E+04</pdfrwt>
<totfact> 0.90308785E+00</totfact>
</mgrwt>
</event>
<event>
12    1  0.2554408E-011  0.1440064E+04  0.7818608E-02  0.8925318E-01
         -2   -1    0    0    0  501 -0.00000000000E+00  0.00000000000E+00  0.21483432205E+03  0.21483432205E+03  0.00000000000E+00 0. -1.
          2   -1    0    0  501    0  0.00000000000E+00 -0.00000000000E+00 -0.24132352794E+04  0.24132352794E+04  0.00000000000E+00 0.  1.
    9900016    2    1    2    0    0  0.10618660103E+03 -0.14116095478E+03 -0.93347958522E+03  0.11613328752E+04  0.66791309440E+03 0.  0.
         23    2    3    3    0    0 -0.59066206453E+01 -0.58290411259E+02 -0.35065618504E+02  0.11450402981E+03  0.91917979904E+02 0.  0.
         23    2    3    3    0    0  0.30127423216E+03 -0.11962098955E+03 -0.50974268401E+03  0.61300236396E+03  0.10420628686E+03 0.  0.
        -15    1    4    4    0    0 -0.19209055604E+02  0.12227952290E+02  0.14763941965E+02  0.27138250068E+02  0.00000000000E+00 0.  1.
        -15    1    5    5    0    0  0.16002687949E+03 -0.71951715594E+02 -0.36615065547E+03  0.40601964735E+03  0.00000000000E+00 0. -1.
         15    1    4    4    0    0  0.13302434959E+02 -0.70518363549E+02 -0.49829560469E+02  0.87365779742E+02  0.00000000000E+00 0. -1.
         15    1    5    5    0    0  0.14124735267E+03 -0.47669273954E+02 -0.14359202854E+03  0.20698271661E+03  0.00000000000E+00 0.  1.
        -16    1    1    2    0    0 -0.29550352052E+03 -0.28393486999E+02 -0.17660055978E+03  0.34542188474E+03  0.00000000000E+00 0.  1.
         16    1    3    3    0    0 -0.18918101048E+03  0.36750446030E+02 -0.38867128271E+03  0.43382648146E+03  0.00000000000E+00 0. -1.
    9900018    1    1    2    0    0  0.18931691949E+03  0.16955444178E+03 -0.10883208124E+04  0.11213148415E+04  0.91187600000E+02 0.  0.
<mgrwt>
<rscale>  0 0.14400636E+04</rscale>
<asrwt>0</asrwt>
<pdfrwt beam="1">  1        2 0.37126697E+00 0.14400636E+04</pdfrwt>
<pdfrwt beam="2">  1       -2 0.33051433E-01 0.14400636E+04</pdfrwt>
<totfact> 0.32481961E+01</totfact>
</mgrwt>
</event>
<event>
12    1  0.2554408E-011  0.1874380E+04  0.7818608E-02  0.8667715E-01
          2   -1    0    0  501    0  0.00000000000E+00  0.00000000000E+00  0.19826105635E+04  0.19826105635E+04  0.00000000000E+00 0. -1.
         -2   -1    0    0    0  501 -0.00000000000E+00 -0.00000000000E+00 -0.44301464883E+03  0.44301464883E+03  0.00000000000E+00 0.  1.
    9900016    2    1    2    0    0  0.21513428600E+03  0.10129443844E+03  0.50623932720E+03  0.92252433460E+03  0.73364130694E+03 0.  0.
         23    2    3    3    0    0 -0.10144575197E+03 -0.50399809210E+02  0.15080605186E+03  0.20889776329E+03  0.89802165173E+02 0.  0.
         23    2    3    3    0    0  0.28721321932E+03  0.97510396409E+02  0.48108424192E+03  0.57367491832E+03  0.75240636193E+02 0.  0.
        -15    1    4    4    0    0 -0.76217982269E+02 -0.39345749514E+01  0.40097421687E+02  0.86211744717E+02  0.00000000000E+00 0. -1.
        -15    1    5    5    0    0  0.15369085955E+03  0.91332195444E+02  0.26962084326E+03  0.32350865422E+03  0.00000000000E+00 0.  1.
         15    1    5    5    0    0  0.13352235977E+03  0.61782009654E+01  0.21146339866E+03  0.25016626411E+03  0.00000000000E+00 0. -1.
         15    1    4    4    0    0 -0.25227769696E+02 -0.46465234259E+02  0.11070863017E+03  0.12268601857E+03  0.00000000000E+00 0.  1.
        -16    1    3    3    0    0  0.29366818643E+02  0.54183851241E+02 -0.12565096657E+03  0.13995165299E+03  0.00000000000E+00 0.  1.
         16    1    1    2    0    0 -0.36588682529E+03  0.10798454763E+03  0.11455646380E+04  0.12074154924E+04  0.00000000000E+00 0. -1.
    9900018    1    1    2    0    0  0.15075253929E+03 -0.20927898607E+03 -0.11220805051E+03  0.29568538535E+03  0.91187600000E+02 0.  0.
<mgrwt>
<rscale>  0 0.18743805E+04</rscale>
<asrwt>0</asrwt>
<pdfrwt beam="1">  1        2 0.30501700E+00 0.18743805E+04</pdfrwt>
<pdfrwt beam="2">  1       -2 0.68156101E-01 0.18743805E+04</pdfrwt>
<totfact> 0.12631913E+01</totfact>
</mgrwt>
</event>
<event>
12    1  0.2554408E-011  0.1002103E+04  0.7818608E-02  0.9306241E-01
          1   -1    0    0  501    0  0.00000000000E+00  0.00000000000E+00  0.25127733738E+03  0.25127733738E+03  0.00000000000E+00 0. -1.
         -1   -1    0    0    0  501 -0.00000000000E+00 -0.00000000000E+00 -0.99910628461E+03  0.99910628461E+03  0.00000000000E+00 0.  1.
    9900016    2    1    2    0    0 -0.77415100092E+02 -0.14863919427E+03 -0.47688655924E+03  0.87301622048E+03  0.71179338508E+03 0.  0.
         23    2    3    3    0    0  0.25286119986E+02  0.17610497283E+02 -0.51116154938E+03  0.52228468754E+03  0.10269200454E+03 0.  0.
         23    2    3    3    0    0 -0.13015881177E+03 -0.17129755466E+03 -0.59914006817E+02  0.25249219556E+03  0.11780684230E+03 0.  0.
        -15    1    4    4    0    0  0.16999413650E+02 -0.41957546572E+02 -0.26796072440E+03  0.27175791727E+03  0.00000000000E+00 0.  1.
        -15    1    5    5    0    0  0.11937299429E+02 -0.65352386053E+02 -0.29364397252E+02  0.72634023064E+02  0.00000000000E+00 0.  1.
         15    1    4    4    0    0  0.82867063352E+01  0.59568043855E+02 -0.24320082498E+03  0.25052677027E+03  0.00000000000E+00 0. -1.
         15    1    5    5    0    0 -0.14209611120E+03 -0.10594516860E+03 -0.30549609565E+02  0.17985817250E+03  0.00000000000E+00 0. -1.
        -16    1    1    2    0    0  0.10819666458E+03  0.11110385777E+03 -0.19501928571E+03  0.24916481942E+03  0.00000000000E+00 0.  1.
         16    1    3    3    0    0  0.27457591694E+02  0.50478631026E+01  0.94188996952E+02  0.98239337388E+02  0.00000000000E+00 0. -1.
    9900018    1    1    2    0    0 -0.30781564492E+02  0.37535336505E+02 -0.75923102286E+02  0.12820258209E+03  0.91187600000E+02 0.  0.
<mgrwt>
<rscale>  0 0.10021033E+04</rscale>
<asrwt>0</asrwt>
<pdfrwt beam="1">  1        1 0.38658051E-01 0.10021033E+04</pdfrwt>
<pdfrwt beam="2">  1       -1 0.15370866E+00 0.10021033E+04</pdfrwt>
<totfact> 0.36174107E+01</totfact>
</mgrwt>
</event>
<event>
12    1  0.2554408E-011  0.1340014E+04  0.7818608E-02  0.8998422E-01
          1   -1    0    0  501    0  0.00000000000E+00  0.00000000000E+00  0.91772799384E+03  0.91772799384E+03  0.00000000000E+00 0. -1.
         -1   -1    0    0    0  501 -0.00000000000E+00 -0.00000000000E+00 -0.48915287336E+03  0.48915287336E+03  0.00000000000E+00 0.  1.
    9900016    2    1    2    0    0  0.25441094552E+03 -0.12073767135E+03  0.21120486507E+03  0.80474260984E+03  0.72367165108E+03 0.  0.
         23    2    3    3    0    0  0.24231376605E+02  0.92510867800E+01 -0.13118018764E+00  0.94622256987E+02  0.90997868603E+02 0.  0.
         23    2    3    3    0    0 -0.15488729767E+03 -0.57600201901E+01  0.24941574279E+03  0.30372235281E+03  0.77561601549E+02 0.  0.
        -15    1    5    5    0    0 -0.10062296982E+03  0.29500472503E+02  0.12242271135E+03  0.16119112937E+03  0.00000000000E+00 0.  1.
        -15    1    4    4    0    0  0.96301801532E+01 -0.95206985719E+01  0.43156896620E+02  0.45231645968E+02  0.00000000000E+00 0. -1.
         15    1    4    4    0    0  0.14601196452E+02  0.18771785352E+02 -0.43288076808E+02  0.49390611019E+02  0.00000000000E+00 0.  1.
         15    1    5    5    0    0 -0.54264327851E+02 -0.35260492693E+02  0.12699303144E+03  0.14253122345E+03  0.00000000000E+00 0. -1.
        -16    1    1    2    0    0 -0.19486108528E+03  0.29066263121E+03  0.19077936688E+03  0.39856288658E+03  0.00000000000E+00 0.  1.
         16    1    3    3    0    0  0.38506686659E+03 -0.12422873794E+03 -0.38079697533E+02  0.40639800004E+03  0.00000000000E+00 0. -1.
    9900018    1    1    2    0    0 -0.59549860243E+02 -0.16992495985E+03  0.26590888532E+02  0.20357537077E+03  0.91187600000E+02 0.  0.
<mgrwt>
<rscale>  0 0.13400139E+04</rscale>
<asrwt>0</asrwt>
<pdfrwt beam="1">  1        1 0.14118892E+00 0.13400139E+04</pdfrwt>
<pdfrwt beam="2">  1       -1 0.75254288E-01 0.13400139E+04</pdfrwt>
<totfact> 0.30613696E+01</totfact>
</mgrwt>
</event>
<event>
12    1  0.2554408E-011  0.1423844E+04  0.7818608E-02  0.8936738E-01
          1   -1    0    0  501    0  0.00000000000E+00  0.00000000000E+00  0.16368360114E+04  0.16368360114E+04  0.00000000000E+00 0. -1.
         -1   -1    0    0    0  501 -0.00000000000E+00 -0.00000000000E+00 -0.30964186865E+03  0.30964186865E+03  0.00000000000E+00 0.  1.
    9900016    2    1    2    0    0  0.26212303188E+01  0.62911533099E+02  0.62180072544E+03  0.93746833359E+03  0.69874602144E+03 0.  0.
         23    2    3    3    0    0  0.43499665006E+02  0.20106955433E+02  0.10071141706E+03  0.14245101030E+03  0.88617099346E+02 0.  0.
         23    2    3    3    0    0 -0.24622324081E+03  0.16607444013E+03  0.15279159685E+03  0.35569380615E+03  0.12233645282E+03 0.  0.
        -15    1    4    4    0    0  0.18860974053E+02  0.12825461809E+02  0.11206464590E+03  0.11436220387E+03  0.00000000000E+00 0.  1.
        -15    1    5    5    0    0 -0.20939610036E+03  0.15446271510E+03  0.17265081448E+03  0.31227193429E+03  0.00000000000E+00 0. -1.
         15    1    4    4    0    0  0.24638690954E+02  0.72814936242E+01 -0.11353228844E+02  0.28088806427E+02  0.00000000000E+00 0. -1.
         15    1    5    5    0    0 -0.36827140448E+02  0.11611725031E+02 -0.19859217625E+02  0.43421871867E+02  0.00000000000E+00 0.  1.
        -16    1    1    2    0    0  0.12851067774E+03 -0.30197263035E+03  0.10708951580E+03  0.34521099080E+03  0.00000000000E+00 0.  1.
         16    1    3    3    0    0  0.20534480612E+03 -0.12326986246E+03  0.36829771153E+03  0.43932351714E+03  0.00000000000E+00 0. -1.
    9900018    1    1    2    0    0 -0.13113190806E+03  0.23906109725E+03  0.59830390147E+03  0.66379855562E+03  0.91187600000E+02 0.  0.
<mgrwt>
<rscale>  0 0.14238440E+04</rscale>
<asrwt>0</asrwt>
<pdfrwt beam="1">  1        1 0.25182092E+00 0.14238440E+04</pdfrwt>
<pdfrwt beam="2">  1       -1 0.47637212E-01 0.14238440E+04</pdfrwt>
<totfact> 0.22545966E+01</totfact>
</mgrwt>
</event>
<event>
12    1  0.2554408E-011  0.1449955E+04  0.7818608E-02  0.8918432E-01
          1   -1    0    0  501    0  0.00000000000E+00  0.00000000000E+00  0.17196121220E+04  0.17196121220E+04  0.00000000000E+00 0. -1.
         -1   -1    0    0    0  501 -0.00000000000E+00 -0.00000000000E+00 -0.30564587135E+03  0.30564587135E+03  0.00000000000E+00 0.  1.
    9900016    2    1    2    0    0 -0.14903258179E+03 -0.24344446025E+03  0.91448177723E+03  0.11903046604E+04  0.70645052768E+03 0.  0.
         23    2    3    3    0    0  0.35308440135E+02 -0.13327391038E+03  0.52250068825E+02  0.17296087579E+03  0.90425514817E+02 0.  0.
         23    2    3    3    0    0 -0.27094107703E+03  0.68954086081E+02  0.71407912956E+03  0.76928251927E+03  0.61015227406E+02 0.  0.
        -15    1    5    5    0    0 -0.65979412936E+02  0.55900149202E+00  0.22772527167E+03  0.23709153247E+03  0.00000000000E+00 0. -1.
        -15    1    4    4    0    0 -0.15366590993E+02 -0.10511156997E+03  0.26257426034E+02  0.10942589585E+03  0.00000000000E+00 0. -1.
         15    1    5    5    0    0 -0.20496166410E+03  0.68395084589E+02  0.48635385789E+03  0.53219098680E+03  0.00000000000E+00 0.  1.
         15    1    4    4    0    0  0.50675031128E+02 -0.28162340410E+02  0.25992642792E+02  0.63534979944E+02  0.00000000000E+00 0.  1.
        -16    1    1    2    0    0 -0.18965761729E+03 -0.45091979589E+01  0.19311649550E+02  0.19069159517E+03  0.00000000000E+00 0.  1.
         16    1    3    3    0    0  0.86600055112E+02 -0.17912463595E+03  0.14815257885E+03  0.24806126536E+03  0.00000000000E+00 0. -1.
    9900018    1    1    2    0    0  0.33869019908E+03  0.24795365821E+03  0.48017282385E+03  0.64426173775E+03  0.91187600000E+02 0.  0.
<mgrwt>
<rscale>  0 0.14499550E+04</rscale>
<asrwt>0</asrwt>
<pdfrwt beam="1">  1        1 0.26455570E+00 0.14499550E+04</pdfrwt>
<pdfrwt beam="2">  1       -1 0.47022443E-01 0.14499550E+04</pdfrwt>
<totfact> 0.20242686E+01</totfact>
</mgrwt>
</event>
<event>
12    1  0.2554408E-011  0.1129155E+04  0.7818608E-02  0.9177232E-01
          1   -1    0    0  501    0  0.00000000000E+00  0.00000000000E+00  0.21911954265E+04  0.21911954265E+04  0.00000000000E+00 0. -1.
         -1   -1    0    0    0  501 -0.00000000000E+00 -0.00000000000E+00 -0.14546757971E+03  0.14546757971E+03  0.00000000000E+00 0.  1.
    9900016    2    1    2    0    0  0.14983232562E+03 -0.20614573270E+03  0.14167053022E+04  0.16073469616E+04  0.71523741013E+03 0.  0.
         23    2    3    3    0    0  0.21115268898E+02 -0.11153505809E+03  0.25381877603E+03  0.29284201600E+03  0.91905122312E+02 0.  0.
         23    2    3    3    0    0  0.96371874423E+02 -0.99682008692E+02  0.30416838187E+02  0.18156208588E+03  0.11320585651E+03 0.  0.
        -15    1    4    4    0    0  0.34173337925E+02 -0.46750456963E+02  0.19813168383E+03  0.20642089620E+03  0.00000000000E+00 0.  1.
        -15    1    5    5    0    0 -0.23970923009E+02 -0.16442922955E+02 -0.82451562080E+01  0.30215186018E+02  0.00000000000E+00 0. -1.
         15    1    4    4    0    0 -0.13058069028E+02 -0.64784601126E+02  0.55687092199E+02  0.86421119799E+02  0.00000000000E+00 0. -1.
         15    1    5    5    0    0  0.12034279743E+03 -0.83239085737E+02  0.38661994395E+02  0.15134689987E+03  0.00000000000E+00 0.  1.
        -16    1    1    2    0    0 -0.38582971291E+02  0.20324949969E+03  0.25366892897E+03  0.32733305718E+03  0.00000000000E+00 0.  1.
         16    1    3    3    0    0  0.32345182304E+02  0.50713340786E+01  0.11324696879E+04  0.11329428597E+04  0.00000000000E+00 0. -1.
    9900018    1    1    2    0    0 -0.11124935433E+03  0.28962330109E+01  0.37535361571E+03  0.40198298748E+03  0.91187600000E+02 0.  0.
<mgrwt>
<rscale>  0 0.11291553E+04</rscale>
<asrwt>0</asrwt>
<pdfrwt beam="1">  1        1 0.33710696E+00 0.11291553E+04</pdfrwt>
<pdfrwt beam="2">  1       -1 0.22379629E-01 0.11291553E+04</pdfrwt>
<totfact> 0.37338169E+01</totfact>
</mgrwt>
</event>
<event>
12    1  0.2554408E-011  0.1905791E+04  0.7818608E-02  0.8651979E-01
          1   -1    0    0  501    0  0.00000000000E+00  0.00000000000E+00  0.11323510654E+04  0.11323510654E+04  0.00000000000E+00 0. -1.
         -1   -1    0    0    0  501 -0.00000000000E+00 -0.00000000000E+00 -0.80188000912E+03  0.80188000912E+03  0.00000000000E+00 0.  1.
    9900016    2    1    2    0    0  0.15936693617E+03 -0.37024156737E+03  0.44088896751E+03  0.92372299623E+03  0.70455975868E+03 0.  0.
         23    2    3    3    0    0  0.14662305051E+03 -0.42518023102E+03  0.24279737957E+03  0.51867321755E+03  0.88288115198E+02 0.  0.
         23    2    3    3    0    0  0.98884221470E+02 -0.80615226100E+02  0.17824110935E+03  0.24321944783E+03  0.10539877991E+03 0.  0.
        -15    1    4    4    0    0  0.76250096206E+02 -0.30240272470E+03  0.13073648530E+03  0.33816196366E+03  0.00000000000E+00 0.  1.
        -15    1    5    5    0    0 -0.17799293190E+02  0.61482416997E+01  0.31077458497E+02  0.36337640825E+02  0.00000000000E+00 0. -1.
         15    1    4    4    0    0  0.70372954307E+02 -0.12277750632E+03  0.11206089427E+03  0.18051125389E+03  0.00000000000E+00 0. -1.
         15    1    5    5    0    0  0.11668351466E+03 -0.86763467800E+02  0.14716365086E+03  0.20688180701E+03  0.00000000000E+00 0.  1.
        -16    1    1    2    0    0  0.16635310266E+02  0.36500936424E+03 -0.47273209486E+03  0.59748155038E+03  0.00000000000E+00 0.  1.
         16    1    3    3    0    0 -0.86140335815E+02  0.13555388975E+03  0.19850478579E+02  0.16183033085E+03  0.00000000000E+00 0. -1.
    9900018    1    1    2    0    0 -0.17600224643E+03  0.52322031296E+01  0.36231418369E+03  0.41302652795E+03  0.91187600000E+02 0.  0.
<mgrwt>
<rscale>  0 0.19057908E+04</rscale>
<asrwt>0</asrwt>
<pdfrwt beam="1">  1        1 0.17420786E+00 0.19057908E+04</pdfrwt>
<pdfrwt beam="2">  1       -1 0.12336615E+00 0.19057908E+04</pdfrwt>
<totfact> 0.64840714E+00</totfact>
</mgrwt>
</event>
<event>
12    1  0.2554408E-011  0.8695036E+03  0.7818608E-02  0.9464527E-01
          1   -1    0    0  501    0  0.00000000000E+00  0.00000000000E+00  0.42715849644E+03  0.42715849644E+03  0.00000000000E+00 0. -1.
         -1   -1    0    0    0  501 -0.00000000000E+00 -0.00000000000E+00 -0.44248005892E+03  0.44248005892E+03  0.00000000000E+00 0.  1.
    9900016    2    1    2    0    0  0.36864009940E+01 -0.32130275549E+02  0.84318887344E+02  0.69966861588E+03  0.69381593605E+03 0.  0.
         23    2    3    3    0    0 -0.21234889317E+02  0.74927905055E+02 -0.14523772916E+03  0.18958090092E+03  0.93711304231E+02 0.  0.
         23    2    3    3    0    0  0.14032034851E+03 -0.15707913296E+03  0.28684426081E+03  0.37188166409E+03  0.10794761653E+03 0.  0.
        -15    1    5    5    0    0  0.66336123855E+02 -0.28939873149E+02  0.16511278397E+03  0.18027819895E+03  0.00000000000E+00 0.  1.
        -15    1    4    4    0    0 -0.31312722448E+02  0.53272661203E+02 -0.24451308557E+02  0.66455470120E+02  0.00000000000E+00 0. -1.
         15    1    5    5    0    0  0.73984224653E+02 -0.12813925981E+03  0.12173147683E+03  0.19160346514E+03  0.00000000000E+00 0. -1.
         15    1    4    4    0    0  0.10077833131E+02  0.21655243852E+02 -0.12078642060E+03  0.12312543080E+03  0.00000000000E+00 0.  1.
        -16    1    1    2    0    0 -0.27014173235E+02  0.17484569511E+02 -0.57320957095E+02  0.65735590427E+02  0.00000000000E+00 0.  1.
         16    1    3    3    0    0 -0.11539905820E+03  0.50020952354E+02 -0.57287644303E+02  0.13820605087E+03  0.00000000000E+00 0. -1.
    9900018    1    1    2    0    0  0.23327772241E+02  0.14645706038E+02 -0.42319492733E+02  0.10423434905E+03  0.91187600000E+02 0.  0.
<mgrwt>
<rscale>  0 0.86950357E+03</rscale>
<asrwt>0</asrwt>
<pdfrwt beam="1">  1        1 0.65716692E-01 0.86950357E+03</pdfrwt>
<pdfrwt beam="2">  1       -1 0.68073855E-01 0.86950357E+03</pdfrwt>
<totfact> 0.12119327E+02</totfact>
</mgrwt>
</event>
<event>
12    1  0.2554408E-011  0.1670416E+04  0.7818608E-02  0.8778420E-01
          2   -1    0    0  501    0  0.00000000000E+00  0.00000000000E+00  0.62199982037E+03  0.62199982037E+03  0.00000000000E+00 0. -1.
         -2   -1    0    0    0  501 -0.00000000000E+00 -0.00000000000E+00 -0.11214988390E+04  0.11214988390E+04  0.00000000000E+00 0.  1.
    9900016    2    1    2    0    0 -0.10440779865E+03  0.25712596769E+03 -0.73603817607E+03  0.10598906903E+04  0.71035295957E+03 0.  0.
         23    2    3    3    0    0  0.10120738434E+03 -0.91866588841E+01 -0.25237616605E+03  0.28674970411E+03  0.90577780245E+02 0.  0.
         23    2    3    3    0    0  0.14079646543E+03  0.11294518741E+03 -0.25334505243E+03  0.32978052058E+03  0.10950441143E+03 0.  0.
        -15    1    5    5    0    0  0.42334955710E+02  0.14685051551E+02 -0.14983148241E+03  0.15638853007E+03  0.00000000000E+00 0.  1.
        -15    1    4    4    0    0  0.97643775133E+02  0.18803343719E+02 -0.14565216058E+03  0.17635879462E+03  0.00000000000E+00 0.  1.
         15    1    5    5    0    0  0.98461509718E+02  0.98260135859E+02 -0.10351357002E+03  0.17339199051E+03  0.00000000000E+00 0. -1.
         15    1    4    4    0    0  0.35636092049E+01 -0.27990002603E+02 -0.10672400547E+03  0.11039090950E+03  0.00000000000E+00 0. -1.
        -16    1    3    3    0    0 -0.34641164841E+03  0.15336743916E+03 -0.23031695759E+03  0.44336046565E+03  0.00000000000E+00 0.  1.
         16    1    1    2    0    0  0.91265174454E+02 -0.42995642387E+03  0.20590174028E+03  0.48537344916E+03  0.00000000000E+00 0. -1.
    9900018    1    1    2    0    0  0.13142624192E+02  0.17283045618E+03  0.30637417142E+02  0.19823451989E+03  0.91187600000E+02 0.  0.
<mgrwt>
<rscale>  0 0.16704156E+04</rscale>
<asrwt>0</asrwt>
<pdfrwt beam="1">  1        2 0.95692280E-01 0.16704156E+04</pdfrwt>
<pdfrwt beam="2">  1       -2 0.17253828E+00 0.16704156E+04</pdfrwt>
<totfact> 0.92494721E+00</totfact>
</mgrwt>
</event>
<event>
11    1  0.2554408E-011  0.1804549E+04  0.7818608E-02  0.8703884E-01
         -1   -1    0    0    0  501 -0.00000000000E+00  0.00000000000E+00  0.14447495879E+04  0.14447495879E+04  0.00000000000E+00 0.  1.
          1   -1    0    0  501    0  0.00000000000E+00 -0.00000000000E+00 -0.56348790223E+03  0.56348790223E+03  0.00000000000E+00 0. -1.
    9900016    2    1    2    0    0 -0.51644661996E+03  0.34709884718E+03  0.36579440008E+03  0.10073828481E+04  0.70272323036E+03 0.  0.
         23    2    3    3    0    0 -0.94774102238E+02  0.11871741106E+03  0.11378170753E+02  0.17780429175E+03  0.91700323085E+02 0.  0.
        -15    1    4    4    0    0 -0.59399525629E+02  0.65090727399E+01  0.54396417431E+01  0.60002178087E+02  0.00000000000E+00 0.  1.
        -15    1    3    3    0    0 -0.14644604703E+01  0.24787889572E+02 -0.76517041028E+02  0.80445271344E+02  0.00000000000E+00 0.  1.
         15    1    4    4    0    0 -0.35374576609E+02  0.11220833832E+03  0.59385290098E+01  0.11780211367E+03  0.00000000000E+00 0. -1.
         15    1    3    3    0    0  0.50958642693E+02 -0.54913191142E+02  0.43644602146E+02  0.86701171405E+02  0.00000000000E+00 0. -1.
        -16    1    1    2    0    0  0.59664513942E+02 -0.97769185272E+01  0.41212203690E+03  0.41653333079E+03  0.00000000000E+00 0.  1.
         16    1    3    3    0    0 -0.47116669995E+03  0.25850673770E+03  0.38728866820E+03  0.66243211357E+03  0.00000000000E+00 0. -1.
    9900018    1    1    2    0    0  0.45678210602E+03 -0.33732192866E+03  0.10334524866E+03  0.58432131122E+03  0.91187600000E+02 0.  0.
<mgrwt>
<rscale>  0 0.18045486E+04</rscale>
<asrwt>0</asrwt>
<pdfrwt beam="1">  1        1 0.86690447E-01 0.18045486E+04</pdfrwt>
<pdfrwt beam="2">  1       -1 0.22226917E+00 0.18045486E+04</pdfrwt>
<totfact> 0.37562551E+00</totfact>
</mgrwt>
</event>
<event>
12    1  0.2554408E-011  0.2714437E+04  0.7818608E-02  0.8330336E-01
          1   -1    0    0  501    0  0.00000000000E+00  0.00000000000E+00  0.27244049511E+04  0.27244049511E+04  0.00000000000E+00 0. -1.
         -1   -1    0    0    0  501 -0.00000000000E+00 -0.00000000000E+00 -0.67612662771E+03  0.67612662771E+03  0.00000000000E+00 0.  1.
    9900016    2    1    2    0    0 -0.75731893701E+03  0.81572279040E+01  0.38414364414E+03  0.11079889917E+04  0.71167039686E+03 0.  0.
         23    2    3    3    0    0 -0.42497363123E+02  0.80019690427E+01  0.90939950627E+02  0.13715251526E+03  0.93116488552E+02 0.  0.
         23    2    3    3    0    0  0.91222255560E+01 -0.88819836857E+02  0.18738868275E+03  0.23381001230E+03  0.10761238317E+03 0.  0.
        -15    1    4    4    0    0 -0.69210787567E+02  0.56983064196E+01  0.41473486326E+02  0.80886673066E+02  0.00000000000E+00 0. -1.
        -15    1    5    5    0    0  0.27226474414E+02  0.14835384063E+02  0.22906055322E+02  0.38549408552E+02  0.00000000000E+00 0. -1.
         15    1    5    5    0    0 -0.18104248858E+02 -0.10365522092E+03  0.16448262742E+03  0.19526060374E+03  0.00000000000E+00 0.  1.
         15    1    4    4    0    0  0.26713424444E+02  0.23036626231E+01  0.49466464301E+02  0.56265842191E+02  0.00000000000E+00 0.  1.
        -16    1    3    3    0    0 -0.72394379945E+03  0.88975095718E+02  0.10581501077E+03  0.73702646419E+03  0.00000000000E+00 0.  1.
         16    1    1    2    0    0 -0.79410499183E+02 -0.70877334498E+02  0.14058727149E+04  0.14098963489E+04  0.00000000000E+00 0. -1.
    9900018    1    1    2    0    0  0.83672943620E+03  0.62720106594E+02  0.25826196428E+03  0.88264623817E+03  0.91187600000E+02 0.  0.
<mgrwt>
<rscale>  0 0.27144375E+04</rscale>
<asrwt>0</asrwt>
<pdfrwt beam="1">  1        1 0.41913922E+00 0.27144375E+04</pdfrwt>
<pdfrwt beam="2">  1       -1 0.10401948E+00 0.27144375E+04</pdfrwt>
<totfact> 0.71534940E-01</totfact>
</mgrwt>
</event>
<event>
12    1  0.2554408E-011  0.2174018E+04  0.7818608E-02  0.8529321E-01
          2   -1    0    0  501    0  0.00000000000E+00  0.00000000000E+00  0.15328837145E+04  0.15328837145E+04  0.00000000000E+00 0.  1.
         -2   -1    0    0    0  501 -0.00000000000E+00 -0.00000000000E+00 -0.77082743901E+03  0.77082743901E+03  0.00000000000E+00 0. -1.
    9900016    2    1    2    0    0  0.39068340523E+02 -0.34687043143E+03 -0.55421194587E+02  0.80297076994E+03  0.72100285515E+03 0.  0.
         23    2    3    3    0    0  0.12438601172E+03 -0.17091608799E+03 -0.82114819317E+02  0.24414536742E+03  0.90442953480E+02 0.  0.
         23    2    3    3    0    0 -0.15953933079E+03 -0.32255977041E+03 -0.63133816660E+02  0.37155294007E+03  0.67587757107E+02 0.  0.
        -15    1    5    5    0    0 -0.95888891767E+02 -0.25799179331E+03 -0.41562178336E+02  0.27835563520E+03  0.00000000000E+00 0. -1.
        -15    1    4    4    0    0  0.64215528313E+02 -0.14962335861E+03 -0.77009847984E+02  0.18011468625E+03  0.00000000000E+00 0. -1.
         15    1    5    5    0    0 -0.63650439020E+02 -0.64567977098E+02 -0.21571638324E+02  0.93197304864E+02  0.00000000000E+00 0.  1.
         15    1    4    4    0    0  0.60170483406E+02 -0.21292729381E+02 -0.51049713338E+01  0.64030681162E+02  0.00000000000E+00 0.  1.
        -16    1    1    2    0    0 -0.46757696520E+03  0.43246801978E+03  0.83955523202E+03  0.10538072851E+04  0.00000000000E+00 0.  1.
         16    1    3    3    0    0  0.74221659590E+02  0.14660542697E+03  0.89827441390E+02  0.18727246246E+03  0.00000000000E+00 0. -1.
    9900018    1    1    2    0    0  0.42850862467E+03 -0.85597588348E+02 -0.22077761929E+02  0.44693309848E+03  0.91187600000E+02 0.  0.
<mgrwt>
<rscale>  0 0.21740182E+04</rscale>
<asrwt>0</asrwt>
<pdfrwt beam="1">  1        2 0.23582826E+00 0.21740182E+04</pdfrwt>
<pdfrwt beam="2">  1       -2 0.11858884E+00 0.21740182E+04</pdfrwt>
<totfact> 0.60933582E+00</totfact>
</mgrwt>
</event>
<event>
11    1  0.2554408E-011  0.1065650E+04  0.7818608E-02  0.9239334E-01
          2   -1    0    0  501    0  0.00000000000E+00  0.00000000000E+00  0.14373324037E+04  0.14373324037E+04  0.00000000000E+00 0. -1.
         -2   -1    0    0    0  501 -0.00000000000E+00 -0.00000000000E+00 -0.19752034130E+03  0.19752034130E+03  0.00000000000E+00 0.  1.
    9900016    2    1    2    0    0 -0.10198781119E+03  0.16878940421E+03  0.89875754781E+03  0.11599203196E+04  0.70622846259E+03 0.  0.
         23    2    3    3    0    0 -0.16972777615E+03 -0.95383004136E+02  0.51353106471E+03  0.55652162366E+03  0.89981818711E+02 0.  0.
        -15    1    4    4    0    0 -0.17837846972E+03 -0.88911764879E+02  0.50449206132E+03  0.54243563703E+03  0.00000000000E+00 0. -1.
        -15    1    3    3    0    0  0.31725628729E+02  0.22826177487E+03  0.51594797230E+02  0.23616091227E+03  0.00000000000E+00 0.  1.
         15    1    4    4    0    0  0.86506935694E+01 -0.64712392564E+01  0.90390033956E+01  0.14085986623E+02  0.00000000000E+00 0.  1.
         15    1    3    3    0    0  0.19482588459E+02  0.85087136590E+02  0.12640339968E+03  0.15361383895E+03  0.00000000000E+00 0. -1.
        -16    1    3    3    0    0  0.16531747778E+02 -0.49176503116E+02  0.20722828619E+03  0.21362394468E+03  0.00000000000E+00 0.  1.
         16    1    1    2    0    0  0.40636080527E+02 -0.58995302034E+02  0.30784673729E+03  0.31607174876E+03  0.00000000000E+00 0. -1.
    9900018    1    1    2    0    0  0.61351730658E+02 -0.10979410217E+03  0.33207777290E+02  0.15886067667E+03  0.91187600000E+02 0.  0.
<mgrwt>
<rscale>  0 0.10656498E+04</rscale>
<asrwt>0</asrwt>
<pdfrwt beam="1">  1        2 0.22112806E+00 0.10656498E+04</pdfrwt>
<pdfrwt beam="2">  1       -2 0.30387746E-01 0.10656498E+04</pdfrwt>
<totfact> 0.13707775E+02</totfact>
</mgrwt>
</event>
<event>
12    1  0.2554408E-011  0.1538973E+04  0.7818608E-02  0.8858942E-01
          2   -1    0    0  501    0  0.00000000000E+00  0.00000000000E+00  0.49465264242E+03  0.49465264242E+03  0.00000000000E+00 0. -1.
         -2   -1    0    0    0  501 -0.00000000000E+00 -0.00000000000E+00 -0.11970200061E+04  0.11970200061E+04  0.00000000000E+00 0.  1.
    9900016    2    1    2    0    0  0.32088325515E+02  0.18177361149E+03 -0.75528834911E+03  0.10553803911E+04  0.71364975519E+03 0.  0.
         23    2    3    3    0    0  0.20081692125E+03  0.20291500860E+03 -0.57472646988E+03  0.64980017191E+03  0.10211665713E+03 0.  0.
         23    2    3    3    0    0 -0.25611709691E+03 -0.14746285052E+02 -0.96038851271E+02  0.28383544576E+03  0.74334911465E+02 0.  0.
        -15    1    5    5    0    0 -0.20183104892E+03 -0.39875743360E+02 -0.61350118426E+02  0.21468508157E+03  0.00000000000E+00 0. -1.
        -15    1    4    4    0    0  0.17593721691E+03  0.18510252019E+03 -0.41585168607E+03  0.48800560661E+03  0.00000000000E+00 0.  1.
         15    1    5    5    0    0 -0.54286047988E+02  0.25129458308E+02 -0.34688732845E+02  0.69150364189E+02  0.00000000000E+00 0.  1.
         15    1    4    4    0    0  0.24879704344E+02  0.17812488405E+02 -0.15887478380E+03  0.16179456530E+03  0.00000000000E+00 0. -1.
        -16    1    3    3    0    0  0.87388501169E+02 -0.63951120602E+01 -0.84523027962E+02  0.12174477340E+03  0.00000000000E+00 0.  1.
         16    1    1    2    0    0 -0.73305133315E+02 -0.30324312776E+03  0.23869392100E+03  0.39281652845E+03  0.00000000000E+00 0. -1.
    9900018    1    1    2    0    0  0.41216807801E+02  0.12146951627E+03 -0.18577293557E+03  0.24347572900E+03  0.91187600000E+02 0.  0.
<mgrwt>
<rscale>  0 0.15389725E+04</rscale>
<asrwt>0</asrwt>
<pdfrwt beam="1">  1        2 0.76100407E-01 0.15389725E+04</pdfrwt>
<pdfrwt beam="2">  1       -2 0.18415692E+00 0.15389725E+04</pdfrwt>
<totfact> 0.10188163E+01</totfact>
</mgrwt>
</event>
<event>
12    1  0.2554408E-011  0.1097084E+04  0.7818608E-02  0.9208039E-01
          2   -1    0    0  501    0  0.00000000000E+00  0.00000000000E+00  0.12264882068E+04  0.12264882068E+04  0.00000000000E+00 0. -1.
         -2   -1    0    0    0  501 -0.00000000000E+00 -0.00000000000E+00 -0.24533309640E+03  0.24533309640E+03  0.00000000000E+00 0.  1.
    9900016    2    1    2    0    0  0.53278190429E+02  0.76875677607E+02  0.61224985497E+03  0.93680510514E+03  0.70285523738E+03 0.  0.
         23    2    3    3    0    0  0.20014026295E+03  0.24764634710E+03  0.34516749506E+03  0.47798803755E+03  0.89146656208E+02 0.  0.
         23    2    3    3    0    0 -0.10154558951E+03 -0.13851824910E+03  0.32254978212E+03  0.38026493724E+03  0.10518673141E+03 0.  0.
        -15    1    4    4    0    0  0.69289034955E+02  0.35892576280E+02  0.11490638300E+03  0.13889825143E+03  0.00000000000E+00 0.  1.
        -15    1    5    5    0    0 -0.73831068293E+02 -0.14799492368E+03  0.23070769478E+03  0.28386539858E+03  0.00000000000E+00 0.  1.
         15    1    4    4    0    0  0.13085122800E+03  0.21175377082E+03  0.23026111206E+03  0.33908978612E+03  0.00000000000E+00 0. -1.
         15    1    5    5    0    0 -0.27714521215E+02  0.94766745722E+01  0.91842087345E+02  0.96399538666E+02  0.00000000000E+00 0. -1.
        -16    1    1    2    0    0 -0.13380803150E+03 -0.15857020226E+03  0.31836048679E+03  0.38000328668E+03  0.00000000000E+00 0.  1.
         16    1    3    3    0    0 -0.45316483016E+02 -0.32252420392E+02 -0.55467422210E+02  0.78552130338E+02  0.00000000000E+00 0. -1.
    9900018    1    1    2    0    0  0.80529841073E+02  0.81694524651E+02  0.50544768612E+02  0.15501291136E+03  0.91187600000E+02 0.  0.
<mgrwt>
<rscale>  0 0.10970837E+04</rscale>
<asrwt>0</asrwt>
<pdfrwt beam="1">  1        2 0.18869049E+00 0.10970837E+04</pdfrwt>
<pdfrwt beam="2">  1       -2 0.37743554E-01 0.10970837E+04</pdfrwt>
<totfact> 0.12002138E+02</totfact>
</mgrwt>
</event>
<event>
12    1  0.2554408E-011  0.1502075E+04  0.7818608E-02  0.8883074E-01
          1   -1    0    0  501    0  0.00000000000E+00  0.00000000000E+00  0.12200663307E+04  0.12200663307E+04  0.00000000000E+00 0. -1.
         -1   -1    0    0    0  501 -0.00000000000E+00 -0.00000000000E+00 -0.46231692136E+03  0.46231692136E+03  0.00000000000E+00 0.  1.
    9900016    2    1    2    0    0  0.21066681677E+03  0.26102444709E+02  0.49314755370E+03  0.89011905143E+03  0.70996871106E+03 0.  0.
         23    2    3    3    0    0  0.19129524345E+03 -0.14373264225E+03  0.30922742217E+02  0.25655538852E+03  0.87243961254E+02 0.  0.
         23    2    3    3    0    0  0.18150899811E+03 -0.10176338715E+01  0.19156850968E+03  0.27476841428E+03  0.76502520295E+02 0.  0.
        -15    1    5    5    0    0  0.47554706150E+02 -0.84765842443E+01  0.10368504475E+03  0.11438483755E+03  0.00000000000E+00 0.  1.
        -15    1    4    4    0    0  0.10015306783E+03 -0.81639972998E+02 -0.26975553847E+02  0.13199773745E+03  0.00000000000E+00 0. -1.
         15    1    5    5    0    0  0.13395429196E+03  0.74589503728E+01  0.87883464928E+02  0.16038357672E+03  0.00000000000E+00 0. -1.
         15    1    4    4    0    0  0.91142175621E+02 -0.62092669254E+02  0.57898296064E+02  0.12455765107E+03  0.00000000000E+00 0.  1.
        -16    1    1    2    0    0 -0.32115719613E+02 -0.35737036949E+03  0.14498929798E+03  0.38699728289E+03  0.00000000000E+00 0.  1.
         16    1    3    3    0    0 -0.16213742479E+03  0.17085272083E+03  0.27065630181E+03  0.35879524863E+03  0.00000000000E+00 0. -1.
    9900018    1    1    2    0    0 -0.17855109716E+03  0.33126792478E+03  0.11961255769E+03  0.40526691777E+03  0.91187600000E+02 0.  0.
<mgrwt>
<rscale>  0 0.15020750E+04</rscale>
<asrwt>0</asrwt>
<pdfrwt beam="1">  1        1 0.18770251E+00 0.15020750E+04</pdfrwt>
<pdfrwt beam="2">  1       -1 0.71125680E-01 0.15020750E+04</pdfrwt>
<totfact> 0.19949867E+01</totfact>
</mgrwt>
</event>
<event>
12    1  0.2554408E-011  0.1003074E+04  0.7818608E-02  0.9305180E-01
          2   -1    0    0  501    0  0.00000000000E+00  0.00000000000E+00  0.64153627904E+03  0.64153627904E+03  0.00000000000E+00 0. -1.
         -2   -1    0    0    0  501 -0.00000000000E+00 -0.00000000000E+00 -0.39208891333E+03  0.39208891333E+03  0.00000000000E+00 0.  1.
    9900016    2    1    2    0    0 -0.85816426773E+02 -0.83755225053E+02  0.18248106103E+03  0.74287285496E+03  0.71005728231E+03 0.  0.
         23    2    3    3    0    0 -0.89690523874E+02 -0.12936571244E+03  0.23298719620E+03  0.29631547148E+03  0.93487685906E+02 0.  0.
         23    2    3    3    0    0  0.16582564366E+03  0.50159646965E+02  0.99967776332E+02  0.22544339403E+03  0.10400496780E+03 0.  0.
        -15    1    4    4    0    0 -0.88355603195E+02 -0.48112267238E+02  0.14565742627E+03  0.17702426021E+03  0.00000000000E+00 0. -1.
        -15    1    5    5    0    0  0.16620761135E+03  0.37095521764E+02  0.55527433544E+02  0.17912103082E+03  0.00000000000E+00 0.  1.
         15    1    5    5    0    0 -0.38196768575E+00  0.13064125201E+02  0.44440342788E+02  0.46322363214E+02  0.00000000000E+00 0. -1.
         15    1    4    4    0    0 -0.13349206788E+01 -0.81253445197E+02  0.87329769933E+02  0.11929121127E+03  0.00000000000E+00 0.  1.
        -16    1    1    2    0    0  0.71864324540E+02  0.56378519102E+02 -0.75724700774E+02  0.11864758263E+03  0.00000000000E+00 0.  1.
         16    1    3    3    0    0 -0.16195154656E+03 -0.45491595828E+01 -0.15047391150E+03  0.22111398945E+03  0.00000000000E+00 0. -1.
    9900018    1    1    2    0    0  0.13952102234E+02  0.27376705951E+02  0.14269100545E+03  0.17210475477E+03  0.91187600000E+02 0.  0.
<mgrwt>
<rscale>  0 0.10030738E+04</rscale>
<asrwt>0</asrwt>
<pdfrwt beam="1">  1        2 0.98697889E-01 0.10030738E+04</pdfrwt>
<pdfrwt beam="2">  1       -2 0.60321371E-01 0.10030738E+04</pdfrwt>
<totfact> 0.11688287E+02</totfact>
</mgrwt>
</event>
<event>
12    1  0.2554408E-011  0.1274416E+04  0.7818608E-02  0.9050103E-01
         -2   -1    0    0    0  501 -0.00000000000E+00  0.00000000000E+00  0.45855123779E+03  0.45855123779E+03  0.00000000000E+00 0.  1.
          2   -1    0    0  501    0  0.00000000000E+00 -0.00000000000E+00 -0.88547174313E+03  0.88547174313E+03  0.00000000000E+00 0. -1.
    9900016    2    1    2    0    0 -0.45509971645E+02 -0.12397320238E+03 -0.49443852822E+03  0.87730758521E+03  0.71257184090E+03 0.  0.
         23    2    3    3    0    0 -0.44110037976E+02 -0.18250820650E+03 -0.17330296192E+03  0.27196765365E+03  0.93153352767E+02 0.  0.
         23    2    3    3    0    0  0.20085616857E+03  0.80490123387E+02 -0.18808667174E+02  0.24093478328E+03  0.10427820201E+03 0.  0.
        -15    1    4    4    0    0 -0.55349093677E+02 -0.58221420320E+02 -0.95975274214E+02  0.12515793709E+03  0.00000000000E+00 0. -1.
        -15    1    5    5    0    0  0.47118110495E+02  0.72057829335E+02 -0.10619407771E+02  0.86748019727E+02  0.00000000000E+00 0.  1.
         15    1    5    5    0    0  0.15373805808E+03  0.84322940517E+01 -0.81892594028E+01  0.15418676355E+03  0.00000000000E+00 0. -1.
         15    1    4    4    0    0  0.11239055701E+02 -0.12428678618E+03 -0.77327687705E+02  0.14680971656E+03  0.00000000000E+00 0.  1.
        -16    1    3    3    0    0 -0.20225610224E+03 -0.21955119270E+02 -0.30232689913E+03  0.36440514828E+03  0.00000000000E+00 0.  1.
         16    1    1    2    0    0  0.17307511976E+02  0.11486617103E+03 -0.17266371249E+03  0.20810224609E+03  0.00000000000E+00 0. -1.
    9900018    1    1    2    0    0  0.28202459669E+02  0.91070313492E+01  0.24018173538E+03  0.25861314961E+03  0.91187600000E+02 0.  0.
<mgrwt>
<rscale>  0 0.12744162E+04</rscale>
<asrwt>0</asrwt>
<pdfrwt beam="1">  1        2 0.13622642E+00 0.12744162E+04</pdfrwt>
<pdfrwt beam="2">  1       -2 0.70546345E-01 0.12744162E+04</pdfrwt>
<totfact> 0.53846814E+01</totfact>
</mgrwt>
</event>
<event>
12    1  0.2554408E-011  0.1585069E+04  0.7818608E-02  0.8829773E-01
         -2   -1    0    0    0  501 -0.00000000000E+00  0.00000000000E+00  0.91468190310E+03  0.91468190310E+03  0.00000000000E+00 0.  1.
          2   -1    0    0  501    0  0.00000000000E+00 -0.00000000000E+00 -0.68669912635E+03  0.68669912635E+03  0.00000000000E+00 0. -1.
    9900016    2    1    2    0    0  0.33742529790E+03  0.73410924338E+01  0.46433103577E+03  0.92225935858E+03  0.72183744044E+03 0.  0.
         23    2    3    3    0    0  0.89291409946E+02  0.20499803917E+01  0.61230383961E+02  0.14125945141E+03  0.90707851827E+02 0.  0.
         23    2    3    3    0    0 -0.23443765857E+02  0.13678511425E+03  0.44345436518E+03  0.47657665436E+03  0.10589502279E+03 0.  0.
        -15    1    4    4    0    0  0.77228199218E+02  0.97320100923E+01 -0.55449350940E+00  0.77840954760E+02  0.00000000000E+00 0. -1.
        -15    1    5    5    0    0  0.20770520335E+02  0.12498210740E+03  0.29057355313E+03  0.31699358269E+03  0.00000000000E+00 0.  1.
         15    1    4    4    0    0  0.12063210728E+02 -0.76820297006E+01  0.61784877470E+02  0.63418496650E+02  0.00000000000E+00 0.  1.
         15    1    5    5    0    0 -0.44214286192E+02  0.11803006854E+02  0.15288081204E+03  0.15958307168E+03  0.00000000000E+00 0. -1.
        -16    1    3    3    0    0  0.27157765381E+03 -0.13149400221E+03 -0.40353713371E+02  0.30442325281E+03  0.00000000000E+00 0.  1.
         16    1    1    2    0    0 -0.30151545765E+03 -0.18082501772E+03 -0.30796677936E+03  0.46738934030E+03  0.00000000000E+00 0. -1.
    9900018    1    1    2    0    0 -0.35909840250E+02  0.17348392529E+03  0.71618520341E+02  0.21173233057E+03  0.91187600000E+02 0.  0.
<mgrwt>
<rscale>  0 0.15850694E+04</rscale>
<asrwt>0</asrwt>
<pdfrwt beam="1">  1        2 0.10564602E+00 0.15850694E+04</pdfrwt>
<pdfrwt beam="2">  1       -2 0.14072029E+00 0.15850694E+04</pdfrwt>
<totfact> 0.14275754E+01</totfact>
</mgrwt>
</event>
<event>
12    1  0.2598128E-011  0.1647143E+04  0.7818608E-02  0.8792099E-01
         -2   -1    0    0    0  501 -0.00000000000E+00  0.00000000000E+00  0.31658503011E+03  0.31658503011E+03  0.00000000000E+00 0.  1.
          2   -1    0    0  501    0  0.00000000000E+00 -0.00000000000E+00 -0.21424573314E+04  0.21424573314E+04  0.00000000000E+00 0. -1.
    9900016    2    1    2    0    0  0.54517111047E+02 -0.55272278268E+02 -0.10744765147E+04  0.12944962478E+04  0.71776988977E+03 0.  0.
         23    2    3    3    0    0 -0.21438807482E+03  0.51798208505E+01 -0.34795892778E+03  0.41944449835E+03  0.94176401517E+02 0.  0.
         23    2    3    3    0    0 -0.67875693029E+02 -0.10692185280E+03 -0.25097336209E+03  0.29048087418E+03  0.73158167509E+02 0.  0.
        -15    1    5    5    0    0  0.37832995776E+01 -0.24010535808E+02 -0.10598613513E+03  0.10873766608E+03  0.00000000000E+00 0.  1.
        -15    1    4    4    0    0 -0.47565876864E+02  0.25126074742E+02 -0.34818590181E+02  0.64079376526E+02  0.00000000000E+00 0. -1.
         15    1    4    4    0    0 -0.16682219795E+03 -0.19946253891E+02 -0.31314033760E+03  0.35536512182E+03  0.00000000000E+00 0. -1.
         15    1    5    5    0    0 -0.71658992606E+02 -0.82911316992E+02 -0.14498722697E+03  0.18174320810E+03  0.00000000000E+00 0.  1.
        -16    1    1    2    0    0 -0.16909340474E+02  0.12076950860E+03  0.18451691523E+03  0.22117344327E+03  0.00000000000E+00 0.  1.
         16    1    3    3    0    0  0.33678087889E+03  0.46469753682E+02 -0.47554422484E+03  0.58457087523E+03  0.00000000000E+00 0. -1.
    9900018    1    1    2    0    0 -0.37607770573E+02 -0.65497230329E+02 -0.93591270179E+03  0.94337267045E+03  0.91187600000E+02 0.  0.
<mgrwt>
<rscale>  0 0.16471429E+04</rscale>
<asrwt>0</asrwt>
<pdfrwt beam="1">  1        2 0.32960881E+00 0.16471429E+04</pdfrwt>
<pdfrwt beam="2">  1       -2 0.48705390E-01 0.16471429E+04</pdfrwt>
<totfact> 0.21228663E+01</totfact>
</mgrwt>
</event>
<event>
11    1  0.2554408E-011  0.1100027E+04  0.7818608E-02  0.9205165E-01
          1   -1    0    0  501    0  0.00000000000E+00  0.00000000000E+00  0.53832485715E+03  0.53832485715E+03  0.00000000000E+00 0. -1.
         -1   -1    0    0    0  501 -0.00000000000E+00 -0.00000000000E+00 -0.56195626215E+03  0.56195626215E+03  0.00000000000E+00 0.  1.
    9900016    2    1    2    0    0 -0.96522429960E+01 -0.84712608159E+02 -0.22036915873E+02  0.71592282252E+03  0.71048608035E+03 0.  0.
         23    2    3    3    0    0  0.12402702532E+03 -0.13031336739E+03 -0.12983278426E+02  0.19991320683E+03  0.86211646634E+02 0.  0.
        -15    1    4    4    0    0  0.85367362644E+02 -0.74209386266E+02 -0.48506171302E+02  0.12307505137E+03  0.00000000000E+00 0.  1.
        -15    1    3    3    0    0  0.17318470736E+03 -0.15746073757E+02  0.30203196567E+02  0.17650244980E+03  0.00000000000E+00 0. -1.
         15    1    4    4    0    0  0.38659662675E+02 -0.56103981128E+02  0.35522892876E+02  0.76838155462E+02  0.00000000000E+00 0.  1.
         15    1    3    3    0    0 -0.21795627935E+02 -0.63357429498E+01  0.30795159209E+02  0.38256148088E+02  0.00000000000E+00 0. -1.
        -16    1    3    3    0    0 -0.28506834774E+03  0.67682575943E+02 -0.70051993223E+02  0.30125101780E+03  0.00000000000E+00 0.  1.
         16    1    1    2    0    0  0.14206749318E+03  0.43560472954E+02  0.10955584859E+03  0.18461628147E+03  0.00000000000E+00 0. -1.
    9900018    1    1    2    0    0 -0.13241525018E+03  0.41152135204E+02 -0.11115033771E+03  0.19974201531E+03  0.91187600000E+02 0.  0.
<mgrwt>
<rscale>  0 0.11000273E+04</rscale>
<asrwt>0</asrwt>
<pdfrwt beam="1">  1        1 0.82819208E-01 0.11000273E+04</pdfrwt>
<pdfrwt beam="2">  1       -1 0.86454810E-01 0.11000273E+04</pdfrwt>
<totfact> 0.52600763E+01</totfact>
</mgrwt>
</event>
<event>
12    1  0.2825547E-011  0.1000445E+04  0.7818608E-02  0.9308057E-01
          1   -1    0    0  501    0  0.00000000000E+00  0.00000000000E+00  0.18272070156E+04  0.18272070156E+04  0.00000000000E+00 0. -1.
         -1   -1    0    0    0  501 -0.00000000000E+00 -0.00000000000E+00 -0.13694267338E+03  0.13694267338E+03  0.00000000000E+00 0.  1.
    9900016    2    1    2    0    0  0.10123695761E+01 -0.57427898581E+02  0.13514597039E+04  0.15241950307E+04  0.70244442620E+03 0.  0.
         23    2    3    3    0    0  0.25691426982E+02  0.44193632120E+02  0.12781834829E+03  0.16512550020E+03  0.91190866408E+02 0.  0.
         23    2    3    3    0    0  0.29400471668E+02 -0.31190017018E+03  0.98708600637E+03  0.10379774332E+04  0.70087545119E+02 0.  0.
        -15    1    5    5    0    0  0.47338629624E+02 -0.14116590110E+03  0.43082684236E+03  0.45582949179E+03  0.00000000000E+00 0.  1.
        -15    1    4    4    0    0 -0.32864984776E+02  0.17386828970E+02  0.66574267939E+02  0.76253145493E+02  0.00000000000E+00 0. -1.
         15    1    5    5    0    0 -0.17938157956E+02 -0.17073426908E+03  0.55625916402E+03  0.58214794142E+03  0.00000000000E+00 0. -1.
         15    1    4    4    0    0  0.58556411758E+02  0.26806803151E+02  0.61244080354E+02  0.88872354709E+02  0.00000000000E+00 0.  1.
        -16    1    1    2    0    0 -0.98419472390E+02  0.37674030675E+02  0.41092261091E+02  0.11311188733E+03  0.00000000000E+00 0.  1.
         16    1    3    3    0    0 -0.54079529074E+02  0.21027863948E+03  0.23655534924E+03  0.32109209729E+03  0.00000000000E+00 0. -1.
    9900018    1    1    2    0    0  0.97407102814E+02  0.19753867906E+02  0.29771237719E+03  0.32684277092E+03  0.91187600000E+02 0.  0.
<mgrwt>
<rscale>  0 0.10004451E+04</rscale>
<asrwt>0</asrwt>
<pdfrwt beam="1">  1        1 0.28110875E+00 0.10004451E+04</pdfrwt>
<pdfrwt beam="2">  1       -1 0.21068105E-01 0.10004451E+04</pdfrwt>
<totfact> 0.73560525E+01</totfact>
</mgrwt>
</event>
<event>
12    1  0.2554408E-011  0.1672525E+04  0.7818608E-02  0.8777191E-01
          2   -1    0    0  501    0  0.00000000000E+00  0.00000000000E+00  0.11603961647E+04  0.11603961647E+04  0.00000000000E+00 0. -1.
         -2   -1    0    0    0  501 -0.00000000000E+00 -0.00000000000E+00 -0.60266927525E+03  0.60266927525E+03  0.00000000000E+00 0.  1.
    9900016    2    1    2    0    0  0.10832932774E+01  0.98671126798E+02  0.38794448884E+03  0.81055470034E+03  0.70481262123E+03 0.  0.
         23    2    3    3    0    0  0.20251201733E+02 -0.13869845711E+03 -0.35814245277E+02  0.17081228091E+03  0.90811904338E+02 0.  0.
         23    2    3    3    0    0  0.13840387120E+02  0.34006954932E+03  0.39858668615E+03  0.52897029988E+03  0.71409922890E+02 0.  0.
        -15    1    5    5    0    0 -0.27720963045E+02  0.19086324094E+03  0.22297879055E+03  0.29481650152E+03  0.00000000000E+00 0.  1.
        -15    1    4    4    0    0  0.31177032771E+02 -0.11757943109E+02  0.10977020201E+02  0.35082069082E+02  0.00000000000E+00 0.  1.
         15    1    4    4    0    0 -0.10925831038E+02 -0.12694051400E+03 -0.46791265478E+02  0.13573021183E+03  0.00000000000E+00 0. -1.
         15    1    5    5    0    0  0.41561350165E+02  0.14920630838E+03  0.17560789560E+03  0.23415379836E+03  0.00000000000E+00 0. -1.
        -16    1    3    3    0    0 -0.33008295576E+02 -0.10269996541E+03  0.25172047965E+02  0.11077211955E+03  0.00000000000E+00 0.  1.
         16    1    1    2    0    0 -0.18278967438E+03 -0.97848139960E+02  0.51315939986E+03  0.55346083260E+03  0.00000000000E+00 0. -1.
    9900018    1    1    2    0    0  0.18170638111E+03 -0.82298683799E+00 -0.34337699927E+03  0.39904990698E+03  0.91187600000E+02 0.  0.
<mgrwt>
<rscale>  0 0.16725252E+04</rscale>
<asrwt>0</asrwt>
<pdfrwt beam="1">  1        2 0.17852249E+00 0.16725252E+04</pdfrwt>
<pdfrwt beam="2">  1       -2 0.92718350E-01 0.16725252E+04</pdfrwt>
<totfact> 0.18824547E+01</totfact>
</mgrwt>
</event>
<event>
11    1  0.2554408E-011  0.1199525E+04  0.7818608E-02  0.9113272E-01
          2   -1    0    0  501    0  0.00000000000E+00  0.00000000000E+00  0.61559906944E+03  0.61559906944E+03  0.00000000000E+00 0. -1.
         -2   -1    0    0    0  501 -0.00000000000E+00 -0.00000000000E+00 -0.58433354740E+03  0.58433354740E+03  0.00000000000E+00 0.  1.
    9900016    2    1    2    0    0 -0.15549938952E+02  0.51492192257E+02 -0.93414436412E+02  0.71873021014E+03  0.71060088065E+03 0.  0.
         23    2    3    3    0    0 -0.56649570606E+02  0.76047048705E+02 -0.12225679588E+03  0.17887031281E+03  0.89752644532E+02 0.  0.
        -15    1    4    4    0    0 -0.43341383895E+02  0.95318158543E+02 -0.85012315547E+02  0.13487446274E+03  0.00000000000E+00 0.  1.
        -15    1    3    3    0    0  0.18885742714E+02  0.37084324290E+02 -0.23649130669E+03  0.24012508517E+03  0.00000000000E+00 0.  1.
         15    1    4    4    0    0 -0.13308186711E+02 -0.19271109839E+02 -0.37244480336E+02  0.43995850070E+02  0.00000000000E+00 0. -1.
         15    1    3    3    0    0  0.60196769223E+02 -0.74122951676E+02  0.15147357238E+03  0.17905894594E+03  0.00000000000E+00 0. -1.
        -16    1    3    3    0    0 -0.37982880284E+02  0.12483770937E+02  0.11386009378E+03  0.12067586622E+03  0.00000000000E+00 0.  1.
         16    1    1    2    0    0  0.15420983667E+03 -0.19151303540E+03  0.87016397412E+02  0.26082517109E+03  0.00000000000E+00 0. -1.
    9900018    1    1    2    0    0 -0.13865989772E+03  0.14002084315E+03  0.37663561040E+02  0.22037723561E+03  0.91187600000E+02 0.  0.
<mgrwt>
<rscale>  0 0.11995252E+04</rscale>
<asrwt>0</asrwt>
<pdfrwt beam="1">  1        2 0.94707549E-01 0.11995252E+04</pdfrwt>
<pdfrwt beam="2">  1       -2 0.89897469E-01 0.11995252E+04</pdfrwt>
<totfact> 0.50284948E+01</totfact>
</mgrwt>
</event>
