<event>
12    1  0.2148376E-013  0.8961538E+03  0.7818608E-02  0.9430402E-01
          1   -1    0    0  501    0  0.00000000000E+00  0.00000000000E+00  0.87151538127E+03  0.87151538127E+03  0.00000000000E+00 0. -1.
         -1   -1    0    0    0  501 -0.00000000000E+00 -0.00000000000E+00 -0.23037217679E+03  0.23037217679E+03  0.00000000000E+00 0.  1.
    9900016    2    1    2    0    0  0.12115367122E+03 -0.27308804387E+01  0.37374142164E+03  0.80830727395E+03  0.70639389090E+03 0.  0.
         23    2    3    3    0    0 -0.12973848819E+02  0.17413696886E+03  0.23894363095E+02  0.20688420895E+03  0.10834265387E+03 0.  0.
         23    2    3    3    0    0 -0.16594109996E+02 -0.10595750499E+03  0.26421592524E+03  0.29477965126E+03  0.74717001413E+02 0.  0.
        -15    1    4    4    0    0  0.19982515654E+02  0.13550008055E+02 -0.26043597649E+02  0.35512992393E+02  0.00000000000E+00 0. -1.
        -15    1    5    5    0    0  0.24554164622E+02 -0.40340783762E+02  0.14602763819E+03  0.15347428759E+03  0.00000000000E+00 0.  1.
         15    1    4    4    0    0 -0.32956364472E+02  0.16058696081E+03  0.49937960745E+02  0.17137121656E+03  0.00000000000E+00 0.  1.
         15    1    5    5    0    0 -0.41148274618E+02 -0.65616721229E+02  0.11818828704E+03  0.14130536367E+03  0.00000000000E+00 0. -1.
        -16    1    3    3    0    0  0.17553769493E+02 -0.12343121923E+03  0.33643824570E+02  0.12913290687E+03  0.00000000000E+00 0.  1.
         16    1    1    2    0    0 -0.12115367122E+03  0.27308804387E+01  0.26740178284E+03  0.29358028412E+03  0.00000000000E+00 0. -1.
    9900018    1    3    3    0    0  0.13316786054E+03  0.52520874923E+02  0.51987308737E+02  0.17751050687E+03  0.91187600000E+02 0.  0.
<mgrwt>
<rscale>  0 0.89615377E+03</rscale>
<asrwt>0</asrwt>
<pdfrwt beam="1">  1        1 0.13407929E+00 0.89615377E+03</pdfrwt>
<pdfrwt beam="2">  1       -1 0.35441874E-01 0.89615377E+03</pdfrwt>
<totfact> 0.14671421E+02</totfact>
</mgrwt>
</event>
<event>
12    1  0.2407974E-013  0.8716168E+03  0.7818608E-02  0.9461774E-01
          1   -1    0    0  501    0  0.00000000000E+00  0.00000000000E+00  0.84137038882E+03  0.84137038882E+03  0.00000000000E+00 0. -1.
         -1   -1    0    0    0  501 -0.00000000000E+00 -0.00000000000E+00 -0.22573764776E+03  0.22573764776E+03  0.00000000000E+00 0.  1.
    9900016    2    1    2    0    0 -0.58033351682E+02 -0.12807384653E+03  0.50351606957E+03  0.88727220006E+03  0.71690497600E+03 0.  0.
         23    2    3    3    0    0  0.12506197431E+03 -0.20074708280E+03  0.27733268260E+03  0.37261287426E+03  0.77376020504E+02 0.  0.
         23    2    3    3    0    0 -0.54465870501E+02 -0.68974746060E+02  0.83970400732E+02  0.16341359973E+03  0.10921963987E+03 0.  0.
        -15    1    4    4    0    0  0.71858317794E+02 -0.57942769082E+02  0.72868430133E+02  0.11760438102E+03  0.00000000000E+00 0. -1.
        -15    1    5    5    0    0  0.15604621341E+02 -0.49966189792E+02 -0.81694857865E-01  0.52346260646E+02  0.00000000000E+00 0.  1.
         15    1    4    4    0    0  0.53203656515E+02 -0.14280431372E+03  0.20446425247E+03  0.25500849324E+03  0.00000000000E+00 0.  1.
         15    1    5    5    0    0 -0.70070491842E+02 -0.19008556268E+02  0.84052095590E+02  0.11106733909E+03  0.00000000000E+00 0. -1.
        -16    1    3    3    0    0 -0.29147455764E+02  0.16543344235E+03  0.22870958650E+02  0.16953135042E+03  0.00000000000E+00 0.  1.
         16    1    1    2    0    0  0.58033351682E+02  0.12807384653E+03  0.11211667149E+03  0.17983583652E+03  0.00000000000E+00 0. -1.
    9900018    1    3    3    0    0 -0.99481999726E+02 -0.23785460016E+02  0.11934202758E+03  0.18171437565E+03  0.91187600000E+02 0.  0.
<mgrwt>
<rscale>  0 0.87161683E+03</rscale>
<asrwt>0</asrwt>
<pdfrwt beam="1">  1        1 0.12944160E+00 0.87161683E+03</pdfrwt>
<pdfrwt beam="2">  1       -1 0.34728869E-01 0.87161683E+03</pdfrwt>
<totfact> 0.16148183E+02</totfact>
</mgrwt>
</event>
<event>
11    1  0.2148376E-013  0.8999181E+03  0.7818608E-02  0.9425684E-01
         -2   -1    0    0    0  501 -0.00000000000E+00  0.00000000000E+00  0.42264186315E+03  0.42264186315E+03  0.00000000000E+00 0.  1.
          2   -1    0    0  501    0  0.00000000000E+00 -0.00000000000E+00 -0.47904191388E+03  0.47904191388E+03  0.00000000000E+00 0. -1.
    9900016    2    1    2    0    0 -0.54155673672E+02 -0.13739759131E+03 -0.11961033366E+03  0.74103983859E+03  0.71625587283E+03 0.  0.
         23    2    3    3    0    0  0.12240820844E+03 -0.19984656168E+03 -0.70003779608E+02  0.25682199337E+03  0.78323619747E+02 0.  0.
        -15    1    3    3    0    0  0.42048769242E+02  0.53400360095E+02  0.46766603885E+02  0.82503410184E+02  0.00000000000E+00 0.  1.
        -15    1    4    4    0    0  0.71916854572E+02 -0.17126504851E+03 -0.70825881865E+02  0.19879651997E+03  0.00000000000E+00 0.  1.
         15    1    3    3    0    0 -0.92910390599E+02 -0.21568018458E+02 -0.15368436740E+02  0.96611122286E+02  0.00000000000E+00 0. -1.
         15    1    4    4    0    0  0.50491353867E+02 -0.28581513169E+02  0.82210225730E+00  0.58025473393E+02  0.00000000000E+00 0. -1.
        -16    1    3    3    0    0 -0.14209115254E+03  0.59946749140E+02 -0.12491577932E+03  0.19846274281E+03  0.00000000000E+00 0.  1.
         16    1    1    2    0    0  0.54155673672E+02  0.13739759131E+03  0.63210282927E+02  0.16064393844E+03  0.00000000000E+00 0. -1.
    9900018    1    3    3    0    0  0.16388891788E+02 -0.29330120417E+02  0.43911058121E+02  0.10664056994E+03  0.91187600000E+02 0.  0.
<mgrwt>
<rscale>  0 0.89991815E+03</rscale>
<asrwt>0</asrwt>
<pdfrwt beam="1">  1        2 0.73698756E-01 0.89991815E+03</pdfrwt>
<pdfrwt beam="2">  1       -2 0.65021825E-01 0.89991815E+03</pdfrwt>
<totfact> 0.14175222E+02</totfact>
</mgrwt>
</event>
<event>
12    1  0.2148376E-013  0.1437708E+04  0.7818608E-02  0.8926967E-01
         -2   -1    0    0    0  501 -0.00000000000E+00  0.00000000000E+00  0.54456142072E+03  0.54456142072E+03  0.00000000000E+00 0.  1.
          2   -1    0    0  501    0  0.00000000000E+00 -0.00000000000E+00 -0.94893048679E+03  0.94893048679E+03  0.00000000000E+00 0. -1.
    9900016    2    1    2    0    0 -0.16294634266E+03  0.52491090168E+03 -0.23743396603E+03  0.91907890895E+03  0.69731498432E+03 0.  0.
         23    2    3    3    0    0 -0.20571782103E+02  0.67060485957E+01  0.60286746491E+02  0.96606703491E+02  0.72320080547E+02 0.  0.
         23    2    3    3    0    0 -0.35138456590E+02 -0.93832339289E+02 -0.37362266734E+02  0.12471431655E+03  0.64175561924E+02 0.  0.
        -15    1    5    5    0    0 -0.53622779402E+02 -0.60354665185E+02 -0.24601349013E+02  0.84399730175E+02  0.00000000000E+00 0.  1.
        -15    1    4    4    0    0  0.10803407401E+02  0.67677616818E+00  0.63573845369E+02  0.64488800985E+02  0.00000000000E+00 0.  1.
         15    1    5    5    0    0  0.18484322812E+02 -0.33477674105E+02 -0.12760917721E+02  0.40314586372E+02  0.00000000000E+00 0. -1.
         15    1    4    4    0    0 -0.31375189503E+02  0.60292724276E+01 -0.32870988782E+01  0.32117902506E+02  0.00000000000E+00 0. -1.
        -16    1    3    3    0    0 -0.31070340685E+02  0.95270226702E+02 -0.10516630867E+03  0.14526436124E+03  0.00000000000E+00 0.  1.
         16    1    1    2    0    0  0.16294634266E+03 -0.52491090168E+03 -0.16693510004E+03  0.57441299856E+03  0.00000000000E+00 0. -1.
    9900018    1    3    3    0    0 -0.76165763281E+02  0.51676696567E+03 -0.15519213711E+03  0.55249352767E+03  0.91187600000E+02 0.  0.
<mgrwt>
<rscale>  0 0.14377078E+04</rscale>
<asrwt>0</asrwt>
<pdfrwt beam="1">  1        2 0.14598931E+00 0.14377078E+04</pdfrwt>
<pdfrwt beam="2">  1       -2 0.83778680E-01 0.14377078E+04</pdfrwt>
<totfact> 0.32879020E+01</totfact>
</mgrwt>
</event>
<event>
12    1  0.2148376E-013  0.9596050E+03  0.7818608E-02  0.9353994E-01
          2   -1    0    0  501    0  0.00000000000E+00  0.00000000000E+00  0.40663461234E+03  0.40663461234E+03  0.00000000000E+00 0.  1.
         -2   -1    0    0    0  501 -0.00000000000E+00 -0.00000000000E+00 -0.56613582689E+03  0.56613582689E+03  0.00000000000E+00 0. -1.
    9900016    2    1    2    0    0  0.12810114234E+03 -0.71068267602E+02  0.37212374275E+02  0.72750153097E+03  0.71162709015E+03 0.  0.
         23    2    3    3    0    0  0.20437125417E+03  0.19191871504E+02  0.41165786248E+02  0.22345487691E+03  0.78112243547E+02 0.  0.
         23    2    3    3    0    0 -0.12048428543E+01 -0.23697570553E+02 -0.16440244970E+02  0.74045211912E+02  0.68186400815E+02 0.  0.
        -15    1    5    5    0    0 -0.33402399901E+02 -0.30009241761E+01 -0.11490283481E+02  0.35450704923E+02  0.00000000000E+00 0. -1.
        -15    1    4    4    0    0  0.12881216843E+03 -0.57726590026E+01  0.59166158610E+02  0.14186801138E+03  0.00000000000E+00 0.  1.
         15    1    4    4    0    0  0.75559085746E+02  0.24964530507E+02 -0.18000372361E+02  0.81586865532E+02  0.00000000000E+00 0. -1.
         15    1    5    5    0    0  0.32197557047E+02 -0.20696646377E+02 -0.49499614897E+01  0.38594506990E+02  0.00000000000E+00 0.  1.
        -16    1    1    2    0    0 -0.12810114234E+03  0.71068267602E+02 -0.19671358883E+03  0.24526890826E+03  0.00000000000E+00 0.  1.
         16    1    3    3    0    0  0.62004714532E+02 -0.78309477282E+02 -0.16168437105E+03  0.19004945330E+03  0.00000000000E+00 0. -1.
    9900018    1    3    3    0    0 -0.13706998351E+03  0.11746908728E+02  0.17417120405E+03  0.23995198886E+03  0.91187600000E+02 0.  0.
<mgrwt>
<rscale>  0 0.95960497E+03</rscale>
<asrwt>0</asrwt>
<pdfrwt beam="1">  1        2 0.62559171E-01 0.95960497E+03</pdfrwt>
<pdfrwt beam="2">  1       -2 0.87097820E-01 0.95960497E+03</pdfrwt>
<totfact> 0.89041621E+01</totfact>
</mgrwt>
</event>
<event>
11    1  0.2148376E-013  0.1136317E+04  0.7818608E-02  0.9170500E-01
         -1   -1    0    0    0  501 -0.00000000000E+00  0.00000000000E+00  0.25158316721E+03  0.25158316721E+03  0.00000000000E+00 0.  1.
          1   -1    0    0  501    0  0.00000000000E+00 -0.00000000000E+00 -0.12830917483E+04  0.12830917483E+04  0.00000000000E+00 0. -1.
    9900016    2    1    2    0    0 -0.93017842510E+02 -0.34170951481E+03 -0.74550182564E+03  0.10794633431E+04  0.69573732503E+03 0.  0.
         23    2    3    3    0    0 -0.97657063819E+02 -0.16534241377E+03 -0.18997304907E+03  0.28009944493E+03  0.74100767690E+02 0.  0.
        -15    1    3    3    0    0 -0.14522203904E+03 -0.38460012629E+02 -0.28112499274E+03  0.31874735252E+03  0.00000000000E+00 0.  1.
        -15    1    4    4    0    0 -0.96282227159E+02 -0.11397604402E+03 -0.11133705362E+03  0.18616322243E+03  0.00000000000E+00 0.  1.
         15    1    3    3    0    0 -0.19152340344E+02 -0.48553223254E+02 -0.85966606529E+01  0.52897355354E+02  0.00000000000E+00 0. -1.
         15    1    4    4    0    0 -0.13748366607E+01 -0.51366369748E+02 -0.78635995447E+02  0.93936222497E+02  0.00000000000E+00 0. -1.
        -16    1    1    2    0    0  0.93017842510E+02  0.34170951481E+03 -0.28600675547E+03  0.45521157247E+03  0.00000000000E+00 0.  1.
         16    1    3    3    0    0  0.17519395602E+03 -0.98174316846E+02 -0.72144680482E+02  0.21339159692E+03  0.00000000000E+00 0. -1.
    9900018    1    3    3    0    0 -0.61803553267E+01  0.88204516886E+01 -0.19366244269E+03  0.21432759333E+03  0.91187600000E+02 0.  0.
<mgrwt>
<rscale>  0 0.11363174E+04</rscale>
<asrwt>0</asrwt>
<pdfrwt beam="1">  1        1 0.19739874E+00 0.11363174E+04</pdfrwt>
<pdfrwt beam="2">  1       -1 0.38705101E-01 0.11363174E+04</pdfrwt>
<totfact> 0.59777630E+01</totfact>
</mgrwt>
</event>
<event>
12    1  0.2148376E-013  0.1702050E+04  0.7818608E-02  0.8760196E-01
          1   -1    0    0  501    0  0.00000000000E+00  0.00000000000E+00  0.53489028622E+03  0.53489028622E+03  0.00000000000E+00 0. -1.
         -1   -1    0    0    0  501 -0.00000000000E+00 -0.00000000000E+00 -0.13540032123E+04  0.13540032123E+04  0.00000000000E+00 0.  1.
    9900016    2    1    2    0    0  0.27698889614E+03 -0.33281815566E+03  0.13540148125E+03  0.84075775963E+03  0.70784834247E+03 0.  0.
         23    2    3    3    0    0 -0.15560332523E+02 -0.10087442527E+03 -0.15188542938E+03  0.21246120075E+03  0.10794815675E+03 0.  0.
         23    2    3    3    0    0  0.12507888714E+03  0.27370896050E+01 -0.43986570152E+02  0.17152002812E+03  0.10877537416E+03 0.  0.
        -15    1    4    4    0    0 -0.61617603062E+02 -0.47198691889E+02 -0.85193813154E+02  0.11524943090E+03  0.00000000000E+00 0. -1.
        -15    1    5    5    0    0 -0.77241164704E+01  0.23663317136E+02  0.97546504993E+01  0.26735140910E+02  0.00000000000E+00 0.  1.
         15    1    5    5    0    0  0.13280300361E+03 -0.20926227531E+02 -0.53741220651E+02  0.14478488721E+03  0.00000000000E+00 0. -1.
         15    1    4    4    0    0  0.46057270539E+02 -0.53675733378E+02 -0.66691616223E+02  0.97211769852E+02  0.00000000000E+00 0.  1.
        -16    1    1    2    0    0 -0.27698889614E+03  0.33281815566E+03 -0.95451440733E+03  0.10481357389E+04  0.00000000000E+00 0.  1.
         16    1    3    3    0    0  0.77202420818E+02 -0.80334238556E+02  0.92201541341E+02  0.14461994292E+03  0.00000000000E+00 0. -1.
    9900018    1    3    3    0    0  0.90267920704E+02 -0.15434658144E+03  0.23907193944E+03  0.31215658784E+03  0.91187600000E+02 0.  0.
<mgrwt>
<rscale>  0 0.17020495E+04</rscale>
<asrwt>0</asrwt>
<pdfrwt beam="1">  1        1 0.82290815E-01 0.17020495E+04</pdfrwt>
<pdfrwt beam="2">  1       -1 0.20830818E+00 0.17020495E+04</pdfrwt>
<totfact> 0.50664289E+00</totfact>
</mgrwt>
</event>
<event>
11    1  0.2148376E-013  0.1245320E+04  0.7818608E-02  0.9074087E-01
          1   -1    0    0  501    0  0.00000000000E+00  0.00000000000E+00  0.59772635971E+03  0.59772635971E+03  0.00000000000E+00 0. -1.
         -1   -1    0    0    0  501 -0.00000000000E+00 -0.00000000000E+00 -0.64863377455E+03  0.64863377455E+03  0.00000000000E+00 0.  1.
    9900016    2    1    2    0    0  0.13842101092E+03 -0.56936771115E+02 -0.42594584447E+03  0.84255820773E+03  0.71138758693E+03 0.  0.
         23    2    3    3    0    0  0.32173189830E+02  0.68091441544E+02 -0.17333471273E+03  0.21849111023E+03  0.10964435259E+03 0.  0.
        -15    1    3    3    0    0  0.16757163475E+02 -0.49834853562E+02 -0.21579723550E+02  0.56833085662E+02  0.00000000000E+00 0.  1.
        -15    1    4    4    0    0  0.51770780115E+01  0.46769701324E+02 -0.17769078564E+03  0.18381572947E+03  0.00000000000E+00 0.  1.
         15    1    3    3    0    0 -0.89854899489E+01  0.80151392137E+01 -0.19897726437E+02  0.23257278508E+02  0.00000000000E+00 0. -1.
         15    1    4    4    0    0  0.26996111818E+02  0.21321740219E+02  0.43560729108E+01  0.34675380755E+02  0.00000000000E+00 0. -1.
        -16    1    3    3    0    0 -0.41402404431E+02 -0.38369810631E+02  0.14089552424E+03  0.15178257545E+03  0.00000000000E+00 0.  1.
         16    1    1    2    0    0 -0.13842101092E+03  0.56936771115E+02  0.37503842963E+03  0.40380192653E+03  0.00000000000E+00 0. -1.
    9900018    1    3    3    0    0  0.13987855199E+03 -0.44838687679E+02 -0.35202920599E+03  0.39219415789E+03  0.91187600000E+02 0.  0.
<mgrwt>
<rscale>  0 0.12453200E+04</rscale>
<asrwt>0</asrwt>
<pdfrwt beam="1">  1        1 0.91957902E-01 0.12453200E+04</pdfrwt>
<pdfrwt beam="2">  1       -1 0.99789811E-01 0.12453200E+04</pdfrwt>
<totfact> 0.32553655E+01</totfact>
</mgrwt>
</event>
<event>
12    1  0.2148376E-013  0.1442391E+04  0.7818608E-02  0.8923693E-01
          2   -1    0    0  501    0  0.00000000000E+00  0.00000000000E+00  0.55972088696E+03  0.55972088696E+03  0.00000000000E+00 0. -1.
         -2   -1    0    0    0  501 -0.00000000000E+00 -0.00000000000E+00 -0.92925369149E+03  0.92925369149E+03  0.00000000000E+00 0.  1.
    9900016    2    1    2    0    0 -0.49971005578E+03 -0.13910930294E+03 -0.39527317077E+03  0.96962488464E+03  0.71754442328E+03 0.  0.
         23    2    3    3    0    0 -0.19211400632E+02 -0.66560869956E+02 -0.29689191622E+03  0.32203236258E+03  0.10373333748E+03 0.  0.
         23    2    3    3    0    0 -0.21423930551E+02  0.16640906431E+02 -0.24960264498E+02  0.11348630735E+03  0.10733229982E+03 0.  0.
        -15    1    5    5    0    0 -0.59121628720E+02  0.27642053451E+02 -0.33407598833E+02  0.73317922510E+02  0.00000000000E+00 0.  1.
        -15    1    4    4    0    0  0.23134906353E+02  0.18303254425E+02 -0.81873524956E+02  0.87025899037E+02  0.00000000000E+00 0.  1.
         15    1    4    4    0    0 -0.42346306985E+02 -0.84864124381E+02 -0.21501839127E+03  0.23500646354E+03  0.00000000000E+00 0. -1.
         15    1    5    5    0    0  0.37697698169E+02 -0.11001147020E+02  0.84473343357E+01  0.40168384836E+02  0.00000000000E+00 0. -1.
        -16    1    3    3    0    0 -0.33571577149E+03 -0.19657396011E+02  0.28078125542E+02  0.33746092156E+03  0.00000000000E+00 0.  1.
         16    1    1    2    0    0  0.49971005578E+03  0.13910930294E+03  0.25740366242E+02  0.51934969381E+03  0.00000000000E+00 0. -1.
    9900018    1    3    3    0    0 -0.12335895310E+03 -0.69531943399E+02 -0.10149911559E+03  0.19664529316E+03  0.91187600000E+02 0.  0.
<mgrwt>
<rscale>  0 0.14423907E+04</rscale>
<asrwt>0</asrwt>
<pdfrwt beam="1">  1        2 0.86110906E-01 0.14423907E+04</pdfrwt>
<pdfrwt beam="2">  1       -2 0.14296211E+00 0.14423907E+04</pdfrwt>
<totfact> 0.17778577E+01</totfact>
</mgrwt>
</event>
<event>
12    1  0.2148376E-013  0.1192481E+04  0.7818608E-02  0.9119463E-01
          1   -1    0    0  501    0  0.00000000000E+00  0.00000000000E+00  0.65541192754E+03  0.65541192754E+03  0.00000000000E+00 0. -1.
         -1   -1    0    0    0  501 -0.00000000000E+00 -0.00000000000E+00 -0.54241142163E+03  0.54241142163E+03  0.00000000000E+00 0.  1.
    9900016    2    1    2    0    0 -0.15236625836E+03  0.34890160624E+02  0.41722412207E+03  0.85579292855E+03  0.73066597602E+03 0.  0.
         23    2    3    3    0    0 -0.27892171288E+03  0.10233513640E+03  0.18199270160E+02  0.30562823033E+03  0.69336856580E+02 0.  0.
         23    2    3    3    0    0  0.80654159250E+02  0.25737461124E+02  0.13217442323E+03  0.18930740726E+03  0.10582866330E+03 0.  0.
        -15    1    5    5    0    0 -0.16817532348E+02  0.70477167684E+01  0.69672591356E+02  0.72019231405E+02  0.00000000000E+00 0. -1.
        -15    1    4    4    0    0 -0.14952401106E+03  0.18024503699E+02  0.65632879058E+01  0.15074942576E+03  0.00000000000E+00 0.  1.
         15    1    4    4    0    0 -0.12939770182E+03  0.84310632702E+02  0.11635982254E+02  0.15487880457E+03  0.00000000000E+00 0.  1.
         15    1    5    5    0    0  0.97471691597E+02  0.18689744356E+02  0.62501831878E+02  0.11728817585E+03  0.00000000000E+00 0. -1.
        -16    1    1    2    0    0  0.15236625836E+03 -0.34890160624E+02 -0.30422361617E+03  0.34203042062E+03  0.00000000000E+00 0.  1.
         16    1    3    3    0    0  0.39770304001E+01 -0.84637613024E+02  0.10439689602E+02  0.85371713279E+02  0.00000000000E+00 0. -1.
    9900018    1    3    3    0    0  0.41924264871E+02 -0.85448238761E+01  0.25641073908E+03  0.27548557768E+03  0.91187600000E+02 0.  0.
<mgrwt>
<rscale>  0 0.11924813E+04</rscale>
<asrwt>0</asrwt>
<pdfrwt beam="1">  1        1 0.10083260E+00 0.11924813E+04</pdfrwt>
<pdfrwt beam="2">  1       -1 0.83447911E-01 0.11924813E+04</pdfrwt>
<totfact> 0.42468319E+01</totfact>
</mgrwt>
</event>
<event>
11    1  0.2148376E-013  0.1538469E+04  0.7818608E-02  0.8859267E-01
         -2   -1    0    0    0  501 -0.00000000000E+00  0.00000000000E+00  0.23188997151E+03  0.23188997151E+03  0.00000000000E+00 0.  1.
          2   -1    0    0  501    0  0.00000000000E+00 -0.00000000000E+00 -0.25517338417E+04  0.25517338417E+04  0.00000000000E+00 0. -1.
    9900016    2    1    2    0    0 -0.97441656976E+02 -0.20478615217E+03 -0.41265041316E+03  0.86299393549E+03  0.72321914008E+03 0.  0.
         23    2    3    3    0    0 -0.27040080062E+03 -0.25188238803E+03 -0.21206045180E+03  0.43289988362E+03  0.76624693444E+02 0.  0.
        -15    1    3    3    0    0  0.43004744312E+02  0.64919911975E+02 -0.40315270738E+01  0.77975997683E+02  0.00000000000E+00 0.  1.
        -15    1    4    4    0    0 -0.17020148938E+03 -0.20407511146E+03 -0.16098091248E+03  0.31069285844E+03  0.00000000000E+00 0.  1.
         15    1    4    4    0    0 -0.10019931124E+03 -0.47807276573E+02 -0.51079539321E+02  0.12220702518E+03  0.00000000000E+00 0. -1.
         15    1    3    3    0    0  0.23622351795E+01  0.64477794580E+02 -0.13417101490E+01  0.64535000852E+02  0.00000000000E+00 0. -1.
        -16    1    3    3    0    0  0.28809638118E+02 -0.17197951371E+02 -0.11131410358E+03  0.11626088954E+03  0.00000000000E+00 0.  1.
         16    1    1    2    0    0  0.97441656976E+02  0.20478615217E+03 -0.19071934570E+04  0.19206298777E+04  0.00000000000E+00 0. -1.
    9900018    1    3    3    0    0  0.98782526035E+02 -0.65103519318E+02 -0.83902620555E+02  0.17132216379E+03  0.91187600000E+02 0.  0.
<mgrwt>
<rscale>  0 0.15384687E+04</rscale>
<asrwt>0</asrwt>
<pdfrwt beam="1">  1        2 0.39257445E+00 0.15384687E+04</pdfrwt>
<pdfrwt beam="2">  1       -2 0.35675379E-01 0.15384687E+04</pdfrwt>
<totfact> 0.23174388E+01</totfact>
</mgrwt>
</event>
<event>
12    1  0.2148376E-013  0.8331864E+03  0.7818608E-02  0.9513186E-01
          1   -1    0    0  501    0  0.00000000000E+00  0.00000000000E+00  0.17957542153E+03  0.17957542153E+03  0.00000000000E+00 0. -1.
         -1   -1    0    0    0  501 -0.00000000000E+00 -0.00000000000E+00 -0.96644574193E+03  0.96644574193E+03  0.00000000000E+00 0.  1.
    9900016    2    1    2    0    0  0.18929268841E+02  0.22868894015E+02 -0.53126874931E+03  0.88870138832E+03  0.71180219870E+03 0.  0.
         23    2    3    3    0    0 -0.14705685175E+03 -0.86591614890E+02 -0.39664103026E+03  0.43546047116E+03  0.56372773887E+02 0.  0.
         23    2    3    3    0    0  0.16896498216E+03 -0.64978454617E+02 -0.45787193176E+02  0.21711462356E+03  0.11077422059E+03 0.  0.
        -15    1    5    5    0    0 -0.95114445053E+01  0.11270113143E+02 -0.14212863332E+02  0.20481418675E+02  0.00000000000E+00 0.  1.
        -15    1    4    4    0    0 -0.10520349163E+03 -0.54008028474E+02 -0.20550365978E+03  0.23709997042E+03  0.00000000000E+00 0.  1.
         15    1    4    4    0    0 -0.41853360121E+02 -0.32583586415E+02 -0.19113737048E+03  0.19836050073E+03  0.00000000000E+00 0. -1.
         15    1    5    5    0    0  0.17847642666E+03 -0.76248567760E+02 -0.31574329845E+02  0.19663320489E+03  0.00000000000E+00 0. -1.
        -16    1    1    2    0    0 -0.18929268841E+02 -0.22868894015E+02 -0.25560157109E+03  0.25731977514E+03  0.00000000000E+00 0.  1.
         16    1    3    3    0    0 -0.10605711883E+02  0.20355788024E+02 -0.46693893332E+02  0.52030365222E+02  0.00000000000E+00 0. -1.
    9900018    1    3    3    0    0  0.76268503143E+01  0.15408317550E+03 -0.42146632538E+02  0.18409592838E+03  0.91187600000E+02 0.  0.
<mgrwt>
<rscale>  0 0.83318642E+03</rscale>
<asrwt>0</asrwt>
<pdfrwt beam="1">  1        1 0.27626988E-01 0.83318642E+03</pdfrwt>
<pdfrwt beam="2">  1       -1 0.14868396E+00 0.83318642E+03</pdfrwt>
<totfact> 0.61969274E+01</totfact>
</mgrwt>
</event>
<event>
12    1  0.2148376E-013  0.9758178E+03  0.7818608E-02  0.9335472E-01
         -1   -1    0    0    0  501 -0.00000000000E+00  0.00000000000E+00  0.62452043403E+03  0.62452043403E+03  0.00000000000E+00 0.  1.
          1   -1    0    0  501    0  0.00000000000E+00 -0.00000000000E+00 -0.38118065680E+03  0.38118065680E+03  0.00000000000E+00 0. -1.
    9900016    2    1    2    0    0  0.11040639346E+03 -0.67248549603E+02 -0.38094119567E+01  0.72678414824E+03  0.71518441494E+03 0.  0.
         23    2    3    3    0    0  0.55860511940E+02 -0.14358464659E+03  0.19154268665E+03  0.26691036041E+03  0.10399803919E+03 0.  0.
         23    2    3    3    0    0 -0.35030546564E+02  0.13231310307E+03  0.25316078440E+01  0.14953726596E+03  0.60175480343E+02 0.  0.
        -15    1    4    4    0    0  0.23740157628E+02 -0.10411603801E+02  0.97144854198E+02  0.10054411606E+03  0.00000000000E+00 0.  1.
        -15    1    5    5    0    0  0.12366480100E+02  0.26865570233E+02 -0.14052521453E+02  0.32743885738E+02  0.00000000000E+00 0.  1.
         15    1    5    5    0    0 -0.47397026664E+02  0.10544753284E+03  0.16584129297E+02  0.11679338022E+03  0.00000000000E+00 0. -1.
         15    1    4    4    0    0  0.32120354312E+02 -0.13317304279E+03  0.94397832453E+02  0.16636624435E+03  0.00000000000E+00 0. -1.
        -16    1    1    2    0    0 -0.11040639346E+03  0.67248549603E+02  0.24714918919E+03  0.27891694258E+03  0.00000000000E+00 0.  1.
         16    1    3    3    0    0 -0.25795992502E+02 -0.35824713790E+02 -0.14690414479E+03  0.15339384311E+03  0.00000000000E+00 0. -1.
    9900018    1    3    3    0    0  0.11537242059E+03 -0.20152292296E+02 -0.50979561662E+02  0.15694267877E+03  0.91187600000E+02 0.  0.
<mgrwt>
<rscale>  0 0.97581783E+03</rscale>
<asrwt>0</asrwt>
<pdfrwt beam="1">  1        1 0.58643178E-01 0.97581783E+03</pdfrwt>
<pdfrwt beam="2">  1       -1 0.96080067E-01 0.97581783E+03</pdfrwt>
<totfact> 0.67082597E+01</totfact>
</mgrwt>
</event>
<event>
11    1  0.2148376E-013  0.1044690E+04  0.7818608E-02  0.9260843E-01
          1   -1    0    0  501    0  0.00000000000E+00  0.00000000000E+00  0.26854517375E+04  0.26854517375E+04  0.00000000000E+00 0.  1.
         -1   -1    0    0    0  501 -0.00000000000E+00 -0.00000000000E+00 -0.10160090087E+03  0.10160090087E+03  0.00000000000E+00 0. -1.
    9900016    2    1    2    0    0  0.60646640409E+02 -0.14555041319E+03  0.12441204392E+04  0.14380750716E+04  0.70381908659E+03 0.  0.
         23    2    3    3    0    0  0.66428686611E+02 -0.13744242177E+03  0.24609689196E+03  0.31097533959E+03  0.11330839288E+03 0.  0.
        -15    1    4    4    0    0 -0.17517179299E+02  0.54705884560E+01  0.61598672718E+01  0.19357760032E+02  0.00000000000E+00 0. -1.
        -15    1    3    3    0    0  0.43960180628E+02  0.76361651770E+02  0.50857769045E+02  0.10173550026E+03  0.00000000000E+00 0.  1.
         15    1    3    3    0    0  0.18685830703E+02  0.84259679604E+02  0.29172668011E+03  0.30422575460E+03  0.00000000000E+00 0.  1.
         15    1    4    4    0    0  0.83945865910E+02 -0.14291301023E+03  0.23993702468E+03  0.29161757956E+03  0.00000000000E+00 0. -1.
        -16    1    1    2    0    0 -0.60646640409E+02  0.14555041319E+03  0.13397303974E+04  0.13489775668E+04  0.00000000000E+00 0.  1.
         16    1    3    3    0    0  0.14973365131E+02 -0.82226286035E+01 -0.13771048951E+02  0.21942084534E+02  0.00000000000E+00 0. -1.
    9900018    1    3    3    0    0 -0.83401422664E+02 -0.16050669419E+03  0.66921014704E+03  0.69919639264E+03  0.91187600000E+02 0.  0.
<mgrwt>
<rscale>  0 0.10446900E+04</rscale>
<asrwt>0</asrwt>
<pdfrwt beam="1">  1        1 0.41314637E+00 0.10446900E+04</pdfrwt>
<pdfrwt beam="2">  1       -1 0.15630910E-01 0.10446900E+04</pdfrwt>
<totfact> 0.31345862E+01</totfact>
</mgrwt>
</event>
<event>
12    1  0.2148376E-013  0.1555722E+04  0.7818608E-02  0.8848221E-01
          1   -1    0    0  501    0  0.00000000000E+00  0.00000000000E+00  0.83543560737E+03  0.83543560737E+03  0.00000000000E+00 0. -1.
         -1   -1    0    0    0  501 -0.00000000000E+00 -0.00000000000E+00 -0.72425422204E+03  0.72425422204E+03  0.00000000000E+00 0.  1.
    9900016    2    1    2    0    0 -0.38681874979E+03 -0.41764312299E+03  0.29688937804E+03  0.96090607718E+03  0.71494241936E+03 0.  0.
         23    2    3    3    0    0  0.10420927869E+03 -0.10507759268E+03  0.21747027034E+03  0.28321372867E+03  0.10495629269E+03 0.  0.
         23    2    3    3    0    0 -0.57060802462E+02  0.45282088046E+02  0.11819634668E+02  0.10302667247E+03  0.71891507149E+02 0.  0.
        -15    1    4    4    0    0  0.81909553571E+02 -0.10467363044E+03  0.10732895503E+03  0.17083690604E+03  0.00000000000E+00 0.  1.
        -15    1    5    5    0    0 -0.88855541862E+01 -0.13376016363E+02 -0.15534762546E+02  0.22342778123E+02  0.00000000000E+00 0.  1.
         15    1    5    5    0    0 -0.48175248276E+02  0.58658104408E+02  0.27354397214E+02  0.80683894342E+02  0.00000000000E+00 0. -1.
         15    1    4    4    0    0  0.22299725122E+02 -0.40396223190E+00  0.11014131531E+03  0.11237682263E+03  0.00000000000E+00 0. -1.
        -16    1    1    2    0    0  0.38681874979E+03  0.41764312299E+03 -0.18570799271E+03  0.59878375222E+03  0.00000000000E+00 0.  1.
         16    1    3    3    0    0 -0.10586007141E+01 -0.37601989446E+01  0.14125547685E+01  0.41539189387E+01  0.00000000000E+00 0. -1.
    9900018    1    3    3    0    0 -0.43290862531E+03 -0.35408741942E+03  0.66186918263E+02  0.57051175711E+03  0.91187600000E+02 0.  0.
<mgrwt>
<rscale>  0 0.15557220E+04</rscale>
<asrwt>0</asrwt>
<pdfrwt beam="1">  1        1 0.12852855E+00 0.15557220E+04</pdfrwt>
<pdfrwt beam="2">  1       -1 0.11142373E+00 0.15557220E+04</pdfrwt>
<totfact> 0.14693777E+01</totfact>
</mgrwt>
</event>
<event>
12    1  0.2148376E-013  0.9285339E+03  0.7818608E-02  0.9390599E-01
          1   -1    0    0  501    0  0.00000000000E+00  0.00000000000E+00  0.11906221092E+03  0.11906221092E+03  0.00000000000E+00 0. -1.
         -1   -1    0    0    0  501 -0.00000000000E+00 -0.00000000000E+00 -0.18103459596E+04  0.18103459596E+04  0.00000000000E+00 0.  1.
    9900016    2    1    2    0    0  0.12066358885E+03 -0.98072892673E+02 -0.15776042831E+04  0.17367919333E+04  0.70953009209E+03 0.  0.
         23    2    3    3    0    0 -0.11483115634E+03 -0.10448614435E+03 -0.48129652120E+03  0.51007812833E+03  0.66556794236E+02 0.  0.
         23    2    3    3    0    0  0.12334893709E+03 -0.37491857811E+02 -0.25936053185E+03  0.31170810883E+03  0.11521050276E+03 0.  0.
        -15    1    5    5    0    0  0.86899483441E+02 -0.73404973427E+02 -0.21807359397E+03  0.24595914850E+03  0.00000000000E+00 0.  1.
        -15    1    4    4    0    0 -0.49740605429E+02 -0.37781222539E+02 -0.29767502823E+03  0.30415780615E+03  0.00000000000E+00 0.  1.
         15    1    4    4    0    0 -0.65090550908E+02 -0.66704921810E+02 -0.18362149296E+03  0.20592032218E+03  0.00000000000E+00 0. -1.
         15    1    5    5    0    0  0.36449453651E+02  0.35913115616E+02 -0.41286937887E+02  0.65748960332E+02  0.00000000000E+00 0. -1.
        -16    1    3    3    0    0 -0.53529822098E+02 -0.93417492975E+02 -0.45216969047E+03  0.46481146590E+03  0.00000000000E+00 0.  1.
         16    1    1    2    0    0 -0.12066358885E+03  0.98072892673E+02 -0.11367946563E+03  0.19261623726E+03  0.00000000000E+00 0. -1.
    9900018    1    3    3    0    0  0.16567563019E+03  0.13732260246E+03 -0.38477753958E+03  0.45019423024E+03  0.91187600000E+02 0.  0.
<mgrwt>
<rscale>  0 0.92853388E+03</rscale>
<asrwt>0</asrwt>
<pdfrwt beam="1">  1        1 0.18317264E-01 0.92853388E+03</pdfrwt>
<pdfrwt beam="2">  1       -1 0.27851475E+00 0.92853388E+03</pdfrwt>
<totfact> 0.13680952E+01</totfact>
</mgrwt>
</event>
<event>
12    1  0.2148376E-013  0.1137831E+04  0.7818608E-02  0.9169084E-01
         -2   -1    0    0    0  501 -0.00000000000E+00  0.00000000000E+00  0.57070519822E+03  0.57070519822E+03  0.00000000000E+00 0. -1.
          2   -1    0    0  501    0  0.00000000000E+00 -0.00000000000E+00 -0.56713109644E+03  0.56713109644E+03  0.00000000000E+00 0.  1.
    9900016    2    1    2    0    0  0.32165957283E+03  0.21675352464E+02 -0.13098544271E+03  0.78849266338E+03  0.70755126478E+03 0.  0.
         23    2    3    3    0    0  0.16098936976E+03 -0.13784447163E+02  0.66835146267E+02  0.18672364460E+03  0.65507209650E+02 0.  0.
         23    2    3    3    0    0  0.83679245038E+02 -0.31111351865E+02  0.10114484182E+03  0.15103913192E+03  0.67914711803E+02 0.  0.
        -15    1    5    5    0    0  0.94128359036E+02 -0.27242392155E+02  0.99716012647E+02  0.13980550448E+03  0.00000000000E+00 0. -1.
        -15    1    4    4    0    0  0.29882753366E+02 -0.28004686404E+02  0.26648783759E+02  0.48861018053E+02  0.00000000000E+00 0.  1.
         15    1    4    4    0    0  0.13110661639E+03  0.14220239241E+02  0.40186362507E+02  0.13786262654E+03  0.00000000000E+00 0.  1.
         15    1    5    5    0    0 -0.10449113998E+02 -0.38689597097E+01  0.14288291702E+01  0.11233627436E+02  0.00000000000E+00 0. -1.
        -16    1    3    3    0    0 -0.19232576758E+02  0.11690461444E+03  0.14986949785E+01  0.11848555597E+03  0.00000000000E+00 0.  1.
         16    1    1    2    0    0 -0.32165957283E+03 -0.21675352464E+02  0.13455954449E+03  0.34934363128E+03  0.00000000000E+00 0. -1.
    9900018    1    3    3    0    0  0.96223534795E+02 -0.50333462950E+02 -0.30046412577E+03  0.33224433089E+03  0.91187600000E+02 0.  0.
<mgrwt>
<rscale>  0 0.11378307E+04</rscale>
<asrwt>0</asrwt>
<pdfrwt beam="1">  1        2 0.87250938E-01 0.11378307E+04</pdfrwt>
<pdfrwt beam="2">  1       -2 0.87800799E-01 0.11378307E+04</pdfrwt>
<totfact> 0.58852188E+01</totfact>
</mgrwt>
</event>
<event>
12    1  0.2148376E-013  0.1182583E+04  0.7818608E-02  0.9128239E-01
         -2   -1    0    0    0  501 -0.00000000000E+00  0.00000000000E+00  0.15711703395E+03  0.15711703395E+03  0.00000000000E+00 0.  1.
          2   -1    0    0  501    0  0.00000000000E+00 -0.00000000000E+00 -0.22252578439E+04  0.22252578439E+04  0.00000000000E+00 0. -1.
    9900016    2    1    2    0    0  0.80705266474E+02  0.22640580103E+03 -0.82093885515E+03  0.11122230590E+04  0.71086327966E+03 0.  0.
         23    2    3    3    0    0  0.18669328372E+03 -0.60568393578E+02 -0.15816849984E+03  0.26133215047E+03  0.68951476003E+02 0.  0.
         23    2    3    3    0    0  0.68092874016E+02  0.10628405782E+03 -0.19552601651E+03  0.26187218663E+03  0.12005698047E+03 0.  0.
        -15    1    5    5    0    0 -0.11610445708E+02  0.19398746785E+02  0.10162487746E+02  0.24786891365E+02  0.00000000000E+00 0.  1.
        -15    1    4    4    0    0  0.12503533478E+03 -0.31323678753E+02 -0.61025761341E+02  0.14261539658E+03  0.00000000000E+00 0.  1.
         15    1    5    5    0    0  0.79703319724E+02  0.86885311033E+02 -0.20568850426E+03  0.23708529527E+03  0.00000000000E+00 0. -1.
         15    1    4    4    0    0  0.61657948940E+02 -0.29244714825E+02 -0.97142738494E+02  0.11871675389E+03  0.00000000000E+00 0. -1.
        -16    1    3    3    0    0 -0.42904359848E+02 -0.19506742452E+02 -0.24627916429E+03  0.25074832773E+03  0.00000000000E+00 0.  1.
         16    1    1    2    0    0 -0.80705266474E+02 -0.22640580103E+03 -0.12472019548E+04  0.12701518188E+04  0.00000000000E+00 0. -1.
    9900018    1    3    3    0    0 -0.13117653141E+03  0.20019687924E+03 -0.22096517451E+03  0.33827039420E+03  0.91187600000E+02 0.  0.
<mgrwt>
<rscale>  0 0.11825835E+04</rscale>
<asrwt>0</asrwt>
<pdfrwt beam="1">  1        2 0.34234733E+00 0.11825835E+04</pdfrwt>
<pdfrwt beam="2">  1       -2 0.24171853E-01 0.11825835E+04</pdfrwt>
<totfact> 0.75536723E+01</totfact>
</mgrwt>
</event>
<event>
12    1  0.2148376E-013  0.8471143E+03  0.7818608E-02  0.9494218E-01
         -2   -1    0    0    0  501 -0.00000000000E+00  0.00000000000E+00  0.15377157192E+04  0.15377157192E+04  0.00000000000E+00 0.  1.
          2   -1    0    0  501    0  0.00000000000E+00 -0.00000000000E+00 -0.11666698834E+03  0.11666698834E+03  0.00000000000E+00 0. -1.
    9900016    2    1    2    0    0  0.24057749532E+02  0.74859017167E+02  0.10375597727E+04  0.12629156862E+04  0.71571160447E+03 0.  0.
         23    2    3    3    0    0 -0.96399278473E+02  0.27103809055E+03  0.63640474948E+03  0.70677239950E+03  0.10845161184E+03 0.  0.
         23    2    3    3    0    0  0.27810523805E+01 -0.21185991206E+03  0.26002316307E+03  0.34309028945E+03  0.72156391207E+02 0.  0.
        -15    1    5    5    0    0 -0.17372911102E+02 -0.87183498614E+01  0.18258107491E+02  0.26668073676E+02  0.00000000000E+00 0.  1.
        -15    1    4    4    0    0 -0.80395209383E+02  0.11573676871E+03  0.39398720828E+03  0.41843077039E+03  0.00000000000E+00 0.  1.
         15    1    5    5    0    0  0.20153963482E+02 -0.20314156220E+03  0.24176505558E+03  0.31642221577E+03  0.00000000000E+00 0. -1.
         15    1    4    4    0    0 -0.16004069090E+02  0.15530132185E+03  0.24241754121E+03  0.28834162911E+03  0.00000000000E+00 0. -1.
        -16    1    1    2    0    0 -0.24057749532E+02 -0.74859017167E+02  0.38348895814E+03  0.39146702132E+03  0.00000000000E+00 0.  1.
         16    1    3    3    0    0  0.11880443272E+01  0.51273328985E+01  0.22574062464E+02  0.23179501463E+02  0.00000000000E+00 0. -1.
    9900018    1    3    3    0    0  0.11648793130E+03  0.10553505773E+02  0.11855779773E+03  0.18987349583E+03  0.91187600000E+02 0.  0.
<mgrwt>
<rscale>  0 0.84711431E+03</rscale>
<asrwt>0</asrwt>
<pdfrwt beam="1">  1        2 0.17948769E-01 0.84711431E+03</pdfrwt>
<pdfrwt beam="2">  1       -2 0.23657163E+00 0.84711431E+03</pdfrwt>
<totfact> 0.25551131E+01</totfact>
</mgrwt>
</event>
<event>
12    1  0.2148376E-013  0.1416506E+04  0.7818608E-02  0.8941957E-01
         -1   -1    0    0    0  501 -0.00000000000E+00  0.00000000000E+00  0.28978640463E+03  0.28978640463E+03  0.00000000000E+00 0.  1.
          1   -1    0    0  501    0  0.00000000000E+00 -0.00000000000E+00 -0.17310069405E+04  0.17310069405E+04  0.00000000000E+00 0. -1.
    9900016    2    1    2    0    0 -0.21562709920E+03 -0.24892482467E+03 -0.30214524819E+03  0.83506524593E+03  0.70539605875E+03 0.  0.
         23    2    3    3    0    0  0.39710209284E+02  0.86175224693E+01 -0.52595761604E+02  0.13270996272E+03  0.11486713042E+03 0.  0.
         23    2    3    3    0    0 -0.32443490597E+02  0.60353362033E+02 -0.12087337493E+03  0.15576151165E+03  0.70400052215E+02 0.  0.
        -15    1    4    4    0    0 -0.21944096878E+02  0.34242591138E+02  0.92398501571E+01  0.41706993018E+02  0.00000000000E+00 0.  1.
        -15    1    5    5    0    0 -0.53512806799E+02  0.51875493110E+02 -0.82573353486E+02  0.11123419431E+03  0.00000000000E+00 0.  1.
         15    1    4    4    0    0  0.61654306162E+02 -0.25625068669E+02 -0.61835611761E+02  0.91002969701E+02  0.00000000000E+00 0. -1.
         15    1    5    5    0    0  0.21069316202E+02  0.84778689235E+01 -0.38300021449E+02  0.44527317342E+02  0.00000000000E+00 0. -1.
        -16    1    3    3    0    0 -0.99206154744E+02 -0.12646536433E+03 -0.23035640589E+03  0.28089041146E+03  0.00000000000E+00 0.  1.
         16    1    1    2    0    0  0.21562709920E+03  0.24892482467E+03 -0.11390752877E+04  0.11857280992E+04  0.00000000000E+00 0. -1.
    9900018    1    3    3    0    0 -0.12368766314E+03 -0.19143034484E+03  0.10168029424E+03  0.26570336010E+03  0.91187600000E+02 0.  0.
<mgrwt>
<rscale>  0 0.14165060E+04</rscale>
<asrwt>0</asrwt>
<pdfrwt beam="1">  1        1 0.26630877E+00 0.14165060E+04</pdfrwt>
<pdfrwt beam="2">  1       -1 0.44582523E-01 0.14165060E+04</pdfrwt>
<totfact> 0.22033241E+01</totfact>
</mgrwt>
</event>
<event>
12    1  0.2148376E-013  0.1482089E+04  0.7818608E-02  0.8896452E-01
         -2   -1    0    0    0  501 -0.00000000000E+00  0.00000000000E+00  0.46241985549E+03  0.46241985549E+03  0.00000000000E+00 0.  1.
          2   -1    0    0  501    0  0.00000000000E+00 -0.00000000000E+00 -0.11875507972E+04  0.11875507972E+04  0.00000000000E+00 0. -1.
    9900016    2    1    2    0    0 -0.36351472643E+03  0.41829322804E+03 -0.47831398236E+03  0.10433152378E+04  0.74337758831E+03 0.  0.
         23    2    3    3    0    0 -0.38095974782E+02  0.50256986151E+02  0.12355885042E+03  0.15650652213E+03  0.72459878561E+02 0.  0.
         23    2    3    3    0    0  0.76508574956E+01 -0.37717115367E+02 -0.67903792360E+02  0.10568272752E+03  0.71251648871E+02 0.  0.
        -15    1    5    5    0    0  0.27402519666E+02 -0.21418619971E+01 -0.11566419505E+01  0.27510424887E+02  0.00000000000E+00 0.  1.
        -15    1    4    4    0    0 -0.19886063427E+01  0.53942800199E+02  0.46178067393E+02  0.71036569151E+02  0.00000000000E+00 0.  1.
         15    1    5    5    0    0 -0.19751662171E+02 -0.35575253370E+02 -0.66747150410E+02  0.78172302631E+02  0.00000000000E+00 0. -1.
         15    1    4    4    0    0 -0.36107368439E+02 -0.36858140482E+01  0.77380783024E+02  0.85469952979E+02  0.00000000000E+00 0. -1.
        -16    1    1    2    0    0  0.36351472643E+03 -0.41829322804E+03 -0.24681695933E+03  0.60665541485E+03  0.00000000000E+00 0.  1.
         16    1    3    3    0    0 -0.19388769312E+03  0.11521286619E+03 -0.28734018877E+03  0.36528184483E+03  0.00000000000E+00 0. -1.
    9900018    1    3    3    0    0 -0.13918191602E+03  0.29054049107E+03 -0.24662885165E+03  0.41584414335E+03  0.91187600000E+02 0.  0.
<mgrwt>
<rscale>  0 0.14820892E+04</rscale>
<asrwt>0</asrwt>
<pdfrwt beam="1">  1        2 0.18270012E+00 0.14820892E+04</pdfrwt>
<pdfrwt beam="2">  1       -2 0.71141517E-01 0.14820892E+04</pdfrwt>
<totfact> 0.33452186E+01</totfact>
</mgrwt>
</event>
<event>
12    1  0.2148376E-013  0.1293732E+04  0.7818608E-02  0.9034551E-01
          2   -1    0    0  501    0  0.00000000000E+00  0.00000000000E+00  0.46117229438E+03  0.46117229438E+03  0.00000000000E+00 0. -1.
         -2   -1    0    0    0  501 -0.00000000000E+00 -0.00000000000E+00 -0.90732997901E+03  0.90732997901E+03  0.00000000000E+00 0.  1.
    9900016    2    1    2    0    0 -0.18748666509E+03 -0.38985496763E+03 -0.13140031729E+03  0.83351596920E+03  0.70024615826E+03 0.  0.
         23    2    3    3    0    0  0.64577554579E+02  0.66646351865E+02 -0.13223487111E+02  0.12209538097E+03  0.78233143037E+02 0.  0.
         23    2    3    3    0    0 -0.15525709075E+02 -0.20332397160E+03 -0.11095660025E+03  0.24084059372E+03  0.64118167282E+02 0.  0.
        -15    1    5    5    0    0  0.13302316330E+02 -0.64890617692E+01 -0.85986025426E+01  0.17117111558E+02  0.00000000000E+00 0. -1.
        -15    1    4    4    0    0  0.31619842577E+02  0.45359456939E+02 -0.45250688213E+02  0.71448719808E+02  0.00000000000E+00 0.  1.
         15    1    4    4    0    0  0.32957712001E+02  0.21286894926E+02  0.32027201102E+02  0.50646661157E+02  0.00000000000E+00 0. -1.
         15    1    5    5    0    0 -0.28828025405E+02 -0.19683490983E+03 -0.10235799770E+03  0.22372348216E+03  0.00000000000E+00 0.  1.
        -16    1    1    2    0    0  0.18748666509E+03  0.38985496763E+03 -0.31475736734E+03  0.53498630419E+03  0.00000000000E+00 0.  1.
         16    1    3    3    0    0  0.29759472463E+02 -0.28109500355E+02 -0.91693463015E+02  0.10041643975E+03  0.00000000000E+00 0. -1.
    9900018    1    3    3    0    0 -0.26629798306E+03 -0.22506784754E+03  0.84473233082E+02  0.37016355477E+03  0.91187600000E+02 0.  0.
<mgrwt>
<rscale>  0 0.12937317E+04</rscale>
<asrwt>0</asrwt>
<pdfrwt beam="1">  1        2 0.70949585E-01 0.12937317E+04</pdfrwt>
<pdfrwt beam="2">  1       -2 0.13958923E+00 0.12937317E+04</pdfrwt>
<totfact> 0.23978208E+01</totfact>
</mgrwt>
</event>
<event>
12    1  0.2148376E-013  0.8900721E+03  0.7818608E-02  0.9438078E-01
          2   -1    0    0  501    0  0.00000000000E+00  0.00000000000E+00  0.99948285799E+03  0.99948285799E+03  0.00000000000E+00 0. -1.
         -2   -1    0    0    0  501 -0.00000000000E+00 -0.00000000000E+00 -0.19815955694E+03  0.19815955694E+03  0.00000000000E+00 0.  1.
    9900016    2    1    2    0    0  0.51696999527E+02 -0.12342626979E+03  0.53566187753E+03  0.90018213895E+03  0.71097652030E+03 0.  0.
         23    2    3    3    0    0 -0.13120088476E+03 -0.76257739292E+02  0.31989716875E+03  0.36032404315E+03  0.66860321071E+02 0.  0.
         23    2    3    3    0    0  0.21363418936E+03  0.77281268941E+02  0.10700860469E+03  0.26296325755E+03  0.78018407772E+02 0.  0.
        -15    1    4    4    0    0 -0.38600323768E+02 -0.39333802725E+02  0.18203317181E+03  0.19019255682E+03  0.00000000000E+00 0.  1.
        -15    1    5    5    0    0  0.14622027611E+03  0.53020755430E+02  0.11119293044E+03  0.19119476309E+03  0.00000000000E+00 0. -1.
         15    1    4    4    0    0 -0.92600560991E+02 -0.36923936567E+02  0.13786399695E+03  0.17013148633E+03  0.00000000000E+00 0. -1.
         15    1    5    5    0    0  0.67413913252E+02  0.24260513511E+02 -0.41843257508E+01  0.71768494465E+02  0.00000000000E+00 0.  1.
        -16    1    3    3    0    0 -0.10400720069E+03 -0.65877861023E+02  0.63026846603E+02  0.13831042535E+03  0.00000000000E+00 0.  1.
         16    1    1    2    0    0 -0.51696999527E+02  0.12342626979E+03  0.26566142353E+03  0.29746027598E+03  0.00000000000E+00 0. -1.
    9900018    1    3    3    0    0  0.73270895614E+02 -0.58571938417E+02  0.45729257483E+02  0.13858441290E+03  0.91187600000E+02 0.  0.
<mgrwt>
<rscale>  0 0.89007209E+03</rscale>
<asrwt>0</asrwt>
<pdfrwt beam="1">  1        2 0.15376659E+00 0.89007209E+03</pdfrwt>
<pdfrwt beam="2">  1       -2 0.30486086E-01 0.89007209E+03</pdfrwt>
<totfact> 0.25121677E+02</totfact>
</mgrwt>
</event>
<event>
12    1  0.2148376E-013  0.1273967E+04  0.7818608E-02  0.9050468E-01
         -2   -1    0    0    0  501 -0.00000000000E+00  0.00000000000E+00  0.22235066126E+03  0.22235066126E+03  0.00000000000E+00 0.  1.
          2   -1    0    0  501    0  0.00000000000E+00 -0.00000000000E+00 -0.18248106165E+04  0.18248106165E+04  0.00000000000E+00 0. -1.
    9900016    2    1    2    0    0 -0.41627269529E+03  0.11610433581E+03 -0.11553318488E+04  0.14253198855E+04  0.71413018517E+03 0.  0.
         23    2    3    3    0    0 -0.34648832735E+03  0.15276374673E+03 -0.74576499223E+03  0.84527140001E+03  0.12217770966E+03 0.  0.
         23    2    3    3    0    0 -0.19907527697E+02 -0.76128273877E+02 -0.31636592979E+03  0.34236139585E+03  0.10455668364E+03 0.  0.
        -15    1    5    5    0    0 -0.49195602562E+01  0.22050869507E+02 -0.21381241886E+02  0.31106276276E+02  0.00000000000E+00 0.  1.
        -15    1    4    4    0    0 -0.25424644107E+03  0.16378914344E+03 -0.60865382238E+03  0.67965256698E+03  0.00000000000E+00 0.  1.
         15    1    4    4    0    0 -0.92241886277E+02 -0.11025396708E+02 -0.13711116984E+03  0.16561883303E+03  0.00000000000E+00 0. -1.
         15    1    5    5    0    0 -0.14987967441E+02 -0.98179143385E+02 -0.29498468791E+03  0.31125511958E+03  0.00000000000E+00 0. -1.
        -16    1    3    3    0    0 -0.89435904713E+02 -0.14722068762E+02 -0.84868145868E+02  0.12416973280E+03  0.00000000000E+00 0.  1.
         16    1    1    2    0    0  0.41627269529E+03 -0.11610433581E+03 -0.44712810646E+03  0.62184139234E+03  0.00000000000E+00 0. -1.
    9900018    1    3    3    0    0  0.39559064470E+02  0.54190931716E+02 -0.83327809181E+01  0.11351735679E+03  0.91187600000E+02 0.  0.
<mgrwt>
<rscale>  0 0.12739668E+04</rscale>
<asrwt>0</asrwt>
<pdfrwt beam="1">  1        2 0.28074010E+00 0.12739668E+04</pdfrwt>
<pdfrwt beam="2">  1       -2 0.34207794E-01 0.12739668E+04</pdfrwt>
<totfact> 0.65708277E+01</totfact>
</mgrwt>
</event>
<event>
12    1  0.2148376E-013  0.9255902E+03  0.7818608E-02  0.9394146E-01
          2   -1    0    0  501    0  0.00000000000E+00  0.00000000000E+00  0.34963410484E+03  0.34963410484E+03  0.00000000000E+00 0.  1.
         -2   -1    0    0    0  501 -0.00000000000E+00 -0.00000000000E+00 -0.61258130512E+03  0.61258130512E+03  0.00000000000E+00 0. -1.
    9900016    2    1    2    0    0  0.14282381025E+02 -0.13656816975E+03 -0.34331036655E+03  0.80311453036E+03  0.71293484253E+03 0.  0.
         23    2    3    3    0    0 -0.59401186880E+02 -0.18690369678E+03 -0.63245875251E+02  0.23358297608E+03  0.10999760499E+03 0.  0.
         23    2    3    3    0    0 -0.63041785335E+02  0.41862436916E+02 -0.10837325816E+03  0.15300697325E+03  0.77069062895E+02 0.  0.
        -15    1    4    4    0    0 -0.88785406917E+02 -0.14876213799E+03 -0.65921448406E+02  0.18536089000E+03  0.00000000000E+00 0.  1.
        -15    1    5    5    0    0 -0.24858964860E+02  0.26768799156E+02  0.62035237933E+00  0.36536578647E+02  0.00000000000E+00 0.  1.
         15    1    4    4    0    0  0.29384220037E+02 -0.38141558785E+02  0.26755731551E+01  0.48222086075E+02  0.00000000000E+00 0. -1.
         15    1    5    5    0    0 -0.38182820476E+02  0.15093637759E+02 -0.10899361054E+03  0.11647039460E+03  0.00000000000E+00 0. -1.
        -16    1    1    2    0    0 -0.14282381025E+02  0.13656816975E+03  0.80363166272E+02  0.15910087961E+03  0.00000000000E+00 0.  1.
         16    1    3    3    0    0  0.24059855304E+03  0.95680479636E+01 -0.98939600289E+02  0.26032336770E+03  0.00000000000E+00 0. -1.
    9900018    1    3    3    0    0 -0.10387319980E+03 -0.10949578540E+01 -0.72751632850E+02  0.15620121333E+03  0.91187600000E+02 0.  0.
<mgrwt>
<rscale>  0 0.92559023E+03</rscale>
<asrwt>0</asrwt>
<pdfrwt beam="1">  1        2 0.53789863E-01 0.92559023E+03</pdfrwt>
<pdfrwt beam="2">  1       -2 0.94243277E-01 0.92559023E+03</pdfrwt>
<totfact> 0.88068729E+01</totfact>
</mgrwt>
</event>
<event>
11    1  0.2148376E-013  0.1284703E+04  0.7818608E-02  0.9041784E-01
         -1   -1    0    0    0  501 -0.00000000000E+00  0.00000000000E+00  0.65576324180E+03  0.65576324180E+03  0.00000000000E+00 0.  1.
          1   -1    0    0  501    0  0.00000000000E+00 -0.00000000000E+00 -0.62921447105E+03  0.62921447105E+03  0.00000000000E+00 0. -1.
    9900016    2    1    2    0    0 -0.40039813889E+02 -0.80174052063E+02 -0.42120642689E+03  0.82834242913E+03  0.70760529995E+03 0.  0.
         23    2    3    3    0    0  0.19474009608E+01  0.28754591027E+02 -0.30611716293E+03  0.32578907174E+03  0.10770414547E+03 0.  0.
        -15    1    3    3    0    0 -0.14646505358E+02 -0.98094865523E+01  0.61538649145E+01  0.18671266669E+02  0.00000000000E+00 0.  1.
        -15    1    4    4    0    0  0.48898954738E+02 -0.67796325770E+01 -0.17924417757E+03  0.18591811742E+03  0.00000000000E+00 0. -1.
         15    1    3    3    0    0 -0.59919430499E+02  0.19558012248E+02  0.92429499690E+02  0.11187522696E+03  0.00000000000E+00 0. -1.
         15    1    4    4    0    0 -0.46951553777E+02  0.35534223604E+02 -0.12687298535E+03  0.13987095432E+03  0.00000000000E+00 0.  1.
        -16    1    1    2    0    0  0.40039813889E+02  0.80174052063E+02  0.44775519765E+03  0.45663528372E+03  0.00000000000E+00 0.  1.
         16    1    3    3    0    0  0.32527252414E+01 -0.45935368019E+02  0.58495298860E+02  0.74446882038E+02  0.00000000000E+00 0. -1.
    9900018    1    3    3    0    0  0.29325995766E+02 -0.72741800767E+02 -0.27216792743E+03  0.29755998172E+03  0.91187600000E+02 0.  0.
<mgrwt>
<rscale>  0 0.12847034E+04</rscale>
<asrwt>0</asrwt>
<pdfrwt beam="1">  1        1 0.96802226E-01 0.12847034E+04</pdfrwt>
<pdfrwt beam="2">  1       -1 0.10088665E+00 0.12847034E+04</pdfrwt>
<totfact> 0.29371406E+01</totfact>
</mgrwt>
</event>
<event>
12    1  0.2148376E-013  0.1488593E+04  0.7818608E-02  0.8892074E-01
         -1   -1    0    0    0  501 -0.00000000000E+00  0.00000000000E+00  0.10194003729E+04  0.10194003729E+04  0.00000000000E+00 0.  1.
          1   -1    0    0  501    0  0.00000000000E+00 -0.00000000000E+00 -0.54343469203E+03  0.54343469203E+03  0.00000000000E+00 0. -1.
    9900016    2    1    2    0    0 -0.53285054178E+03 -0.18456791706E+03  0.18807586837E+03  0.92968772030E+03  0.71480886195E+03 0.  0.
         23    2    3    3    0    0  0.82107320567E+01 -0.39793580030E+02 -0.28263687762E+02  0.12085616707E+03  0.11025621044E+03 0.  0.
         23    2    3    3    0    0 -0.27035010342E+03  0.10797603763E+03  0.21369955160E+03  0.36939273387E+03  0.77688418475E+02 0.  0.
        -15    1    5    5    0    0 -0.21780291842E+03  0.56323431924E+02  0.13888024882E+03  0.26438260867E+03  0.00000000000E+00 0.  1.
        -15    1    4    4    0    0 -0.25353937900E+02  0.29296873309E+02 -0.19997232950E+02  0.43600668325E+02  0.00000000000E+00 0. -1.
         15    1    4    4    0    0  0.33564669957E+02 -0.69090453338E+02 -0.82664548121E+01  0.77255498749E+02  0.00000000000E+00 0. -1.
         15    1    5    5    0    0 -0.52547185006E+02  0.51652605704E+02  0.74819302773E+02  0.10501012520E+03  0.00000000000E+00 0.  1.
        -16    1    3    3    0    0 -0.71525105197E+02  0.66467165346E+01 -0.60713346691E+02  0.94053867441E+02  0.00000000000E+00 0.  1.
         16    1    1    2    0    0  0.53285054178E+03  0.18456791706E+03  0.28788981250E+03  0.63314734465E+03  0.00000000000E+00 0. -1.
    9900018    1    3    3    0    0 -0.19918606522E+03 -0.25939709119E+03  0.63353351232E+02  0.34538495191E+03  0.91187600000E+02 0.  0.
<mgrwt>
<rscale>  0 0.14885933E+04</rscale>
<asrwt>0</asrwt>
<pdfrwt beam="1">  1        1 0.83605337E-01 0.14885933E+04</pdfrwt>
<pdfrwt beam="2">  1       -1 0.15683083E+00 0.14885933E+04</pdfrwt>
<totfact> 0.11802773E+01</totfact>
</mgrwt>
</event>
<event>
12    1  0.2148376E-013  0.8626212E+03  0.7818608E-02  0.9473552E-01
          1   -1    0    0  501    0  0.00000000000E+00  0.00000000000E+00  0.10143523365E+04  0.10143523365E+04  0.00000000000E+00 0. -1.
         -1   -1    0    0    0  501 -0.00000000000E+00 -0.00000000000E+00 -0.18339665887E+03  0.18339665887E+03  0.00000000000E+00 0.  1.
    9900016    2    1    2    0    0 -0.12544321671E+02 -0.70045879800E+02  0.86932474829E+03  0.11169036438E+04  0.69762772753E+03 0.  0.
         23    2    3    3    0    0 -0.25877691178E+03 -0.40630302915E+02  0.36602407080E+03  0.45441378590E+03  0.62465645197E+02 0.  0.
         23    2    3    3    0    0  0.21104810444E+02 -0.28120821504E+02  0.16922683362E+02  0.71930900520E+02  0.60427507077E+02 0.  0.
        -15    1    5    5    0    0  0.22385493772E+02 -0.44506700767E+01  0.35231839431E+02  0.41978581506E+02  0.00000000000E+00 0. -1.
        -15    1    4    4    0    0 -0.16602298340E+03  0.45159805867E+01  0.23003610298E+03  0.28372633606E+03  0.00000000000E+00 0.  1.
         15    1    4    4    0    0 -0.92753928379E+02 -0.45146283501E+02  0.13598796782E+03  0.17068744985E+03  0.00000000000E+00 0.  1.
         15    1    5    5    0    0 -0.12806833285E+01 -0.23670151427E+02 -0.18309156069E+02  0.29952319014E+02  0.00000000000E+00 0. -1.
        -16    1    1    2    0    0  0.12544321671E+02  0.70045879800E+02 -0.38369070688E+02  0.80845351559E+02  0.00000000000E+00 0.  1.
         16    1    3    3    0    0 -0.88347075635E+01  0.69840859510E+02  0.14166583598E+03  0.15819294169E+03  0.00000000000E+00 0. -1.
    9900018    1    3    3    0    0  0.23396248723E+03 -0.71135614892E+02  0.34471215815E+03  0.43236601567E+03  0.91187600000E+02 0.  0.
<mgrwt>
<rscale>  0 0.86262119E+03</rscale>
<asrwt>0</asrwt>
<pdfrwt beam="1">  1        1 0.15605420E+00 0.86262119E+03</pdfrwt>
<pdfrwt beam="2">  1       -1 0.28214871E-01 0.86262119E+03</pdfrwt>
<totfact> 0.16881544E+02</totfact>
</mgrwt>
</event>
<event>
11    1  0.2148376E-013  0.1118133E+04  0.7818608E-02  0.9187696E-01
         -1   -1    0    0    0  501 -0.00000000000E+00  0.00000000000E+00  0.15671804508E+03  0.15671804508E+03  0.00000000000E+00 0.  1.
          1   -1    0    0  501    0  0.00000000000E+00 -0.00000000000E+00 -0.19943811996E+04  0.19943811996E+04  0.00000000000E+00 0. -1.
    9900016    2    1    2    0    0  0.96687507142E+02 -0.88908622269E+02 -0.18772240242E+04  0.20139195101E+04  0.71739008841E+03 0.  0.
         23    2    3    3    0    0  0.98874472340E+02 -0.16352669578E+02 -0.42510578355E+02  0.13364231090E+03  0.77521267452E+02 0.  0.
        -15    1    3    3    0    0  0.32302744295E+02 -0.36645020826E+02 -0.28323985344E+03  0.28742153611E+03  0.00000000000E+00 0. -1.
        -15    1    4    4    0    0  0.10183429530E+03  0.50742945579E+01 -0.45779213382E+02  0.11176631220E+03  0.00000000000E+00 0.  1.
         15    1    3    3    0    0  0.32508317140E+01  0.99824475932E+02 -0.59501905231E+03  0.60334332391E+03  0.00000000000E+00 0.  1.
         15    1    4    4    0    0 -0.29598229635E+01 -0.21426964136E+02  0.32686350267E+01  0.21875998697E+02  0.00000000000E+00 0. -1.
        -16    1    1    2    0    0 -0.96687507142E+02  0.88908622269E+02  0.39560869740E+02  0.13717973453E+03  0.00000000000E+00 0.  1.
         16    1    3    3    0    0 -0.91757804009E+02 -0.17542277125E+02 -0.40695664789E+03  0.41754154206E+03  0.00000000000E+00 0. -1.
    9900018    1    3    3    0    0  0.54017262801E+02 -0.11819313067E+03 -0.54949789222E+03  0.57197079713E+03  0.91187600000E+02 0.  0.
<mgrwt>
<rscale>  0 0.11181333E+04</rscale>
<asrwt>0</asrwt>
<pdfrwt beam="1">  1        1 0.30682787E+00 0.11181333E+04</pdfrwt>
<pdfrwt beam="2">  1       -1 0.24110469E-01 0.11181333E+04</pdfrwt>
<totfact> 0.44716068E+01</totfact>
</mgrwt>
</event>
<event>
12    1  0.2148376E-013  0.1036722E+04  0.7818608E-02  0.9269161E-01
         -1   -1    0    0    0  501 -0.00000000000E+00  0.00000000000E+00  0.43679481339E+03  0.43679481339E+03  0.00000000000E+00 0.  1.
          1   -1    0    0  501    0  0.00000000000E+00 -0.00000000000E+00 -0.61515886714E+03  0.61515886714E+03  0.00000000000E+00 0. -1.
    9900016    2    1    2    0    0 -0.19092007005E+03 -0.15332891843E+03 -0.58693276511E+02  0.77940767469E+03  0.73761181680E+03 0.  0.
         23    2    3    3    0    0  0.11417275576E+03  0.75083957997E+02 -0.50305360579E+02  0.17881140303E+03  0.10377798247E+03 0.  0.
         23    2    3    3    0    0 -0.79039529526E+02 -0.11323798505E+03  0.28985287061E+02  0.15569710485E+03  0.65813016226E+02 0.  0.
        -15    1    4    4    0    0  0.49614039871E+02  0.79022027277E+02 -0.63416667212E+02  0.11281714155E+03  0.00000000000E+00 0.  1.
        -15    1    5    5    0    0  0.74724314662E+01 -0.26982868251E+02 -0.59737502957E+01  0.28628623852E+02  0.00000000000E+00 0. -1.
         15    1    5    5    0    0 -0.86511960992E+02 -0.86255116804E+02  0.34959037356E+02  0.12706848100E+03  0.00000000000E+00 0. -1.
         15    1    4    4    0    0  0.64558715888E+02 -0.39380692800E+01  0.13111306632E+02  0.65994261481E+02  0.00000000000E+00 0.  1.
        -16    1    3    3    0    0 -0.13569937654E+03 -0.23017799251E+03 -0.50948928125E+02  0.27201474649E+03  0.00000000000E+00 0.  1.
         16    1    1    2    0    0  0.19092007005E+03  0.15332891843E+03 -0.11967077725E+03  0.27254600584E+03  0.00000000000E+00 0. -1.
    9900018    1    3    3    0    0 -0.90353919737E+02  0.11500310114E+03  0.13575725133E+02  0.17288442032E+03  0.91187600000E+02 0.  0.
<mgrwt>
<rscale>  0 0.10367221E+04</rscale>
<asrwt>0</asrwt>
<pdfrwt beam="1">  1        1 0.94639826E-01 0.10367221E+04</pdfrwt>
<pdfrwt beam="2">  1       -1 0.67199202E-01 0.10367221E+04</pdfrwt>
<totfact> 0.74146125E+01</totfact>
</mgrwt>
</event>
<event>
11    1  0.2148376E-013  0.9578107E+03  0.7818608E-02  0.9356067E-01
         -2   -1    0    0    0  501 -0.00000000000E+00  0.00000000000E+00  0.30327944859E+03  0.30327944859E+03  0.00000000000E+00 0. -1.
          2   -1    0    0  501    0  0.00000000000E+00 -0.00000000000E+00 -0.75623438242E+03  0.75623438242E+03  0.00000000000E+00 0.  1.
    9900016    2    1    2    0    0 -0.19304917745E+03  0.11101855599E+03 -0.37035856937E+03  0.82199485470E+03  0.69922597675E+03 0.  0.
         23    2    3    3    0    0 -0.10272300932E+03  0.15415301543E+02 -0.81051360621E+02  0.14859014658E+03  0.68702695987E+02 0.  0.
        -15    1    4    4    0    0 -0.12488403203E+02 -0.21906004191E+02 -0.27148585649E+02  0.37052380988E+02  0.00000000000E+00 0. -1.
        -15    1    3    3    0    0 -0.32396487148E+02 -0.32477752756E+02 -0.30593754901E+02  0.55139048256E+02  0.00000000000E+00 0.  1.
         15    1    3    3    0    0 -0.96656638762E+02 -0.10041859742E+03  0.40978427925E+00  0.13937922531E+03  0.00000000000E+00 0.  1.
         15    1    4    4    0    0 -0.90234606121E+02  0.37321305734E+02 -0.53902774973E+02  0.11153776559E+03  0.00000000000E+00 0. -1.
        -16    1    3    3    0    0  0.13488674527E+03  0.30511020723E+02 -0.17224962436E+02  0.13936303587E+03  0.00000000000E+00 0.  1.
         16    1    1    2    0    0  0.19304917745E+03 -0.11101855599E+03 -0.82596364461E+02  0.23751897631E+03  0.00000000000E+00 0. -1.
    9900018    1    3    3    0    0 -0.96159787483E+02  0.19798858389E+03 -0.24189827569E+03  0.33952339869E+03  0.91187600000E+02 0.  0.
<mgrwt>
<rscale>  0 0.95781073E+03</rscale>
<asrwt>0</asrwt>
<pdfrwt beam="1">  1        2 0.11634375E+00 0.95781073E+03</pdfrwt>
<pdfrwt beam="2">  1       -2 0.46658377E-01 0.95781073E+03</pdfrwt>
<totfact> 0.16159980E+02</totfact>
</mgrwt>
</event>
<event>
12    1  0.2148376E-013  0.9772214E+03  0.7818608E-02  0.9333887E-01
          2   -1    0    0  501    0  0.00000000000E+00  0.00000000000E+00  0.12296706862E+04  0.12296706862E+04  0.00000000000E+00 0.  1.
         -2   -1    0    0    0  501 -0.00000000000E+00 -0.00000000000E+00 -0.19414988032E+03  0.19414988032E+03  0.00000000000E+00 0. -1.
    9900016    2    1    2    0    0 -0.40899115929E+01 -0.47476230266E+02  0.46064609148E+03  0.84697426371E+03  0.70915432874E+03 0.  0.
         23    2    3    3    0    0  0.18394563184E+03 -0.46750985993E+00  0.33089298792E+03  0.39303292073E+03  0.10558642567E+03 0.  0.
         23    2    3    3    0    0 -0.24901555859E+03  0.26554313398E+02  0.72732403056E+02  0.27221853801E+03  0.78096414773E+02 0.  0.
        -15    1    5    5    0    0 -0.97483549996E+02  0.16605750251E+02 -0.98167500151E+01  0.99373849891E+02  0.00000000000E+00 0.  1.
        -15    1    4    4    0    0  0.80887983918E+02  0.33535501121E+02  0.22486559825E+03  0.24131314314E+03  0.00000000000E+00 0.  1.
         15    1    5    5    0    0 -0.15153200859E+03  0.99485631475E+01  0.82549153071E+02  0.17284468811E+03  0.00000000000E+00 0. -1.
         15    1    4    4    0    0  0.10305764792E+03 -0.34003010981E+02  0.10602738967E+03  0.15171977759E+03  0.00000000000E+00 0. -1.
        -16    1    1    2    0    0  0.40899115929E+01  0.47476230266E+02  0.57487471444E+03  0.57684630286E+03  0.00000000000E+00 0.  1.
         16    1    3    3    0    0  0.36994028546E+02 -0.25167832972E+01 -0.18638222365E+02  0.41500309387E+02  0.00000000000E+00 0. -1.
    9900018    1    3    3    0    0  0.23985986611E+02 -0.71046250507E+02  0.75658922875E+02  0.14022249559E+03  0.91187600000E+02 0.  0.
<mgrwt>
<rscale>  0 0.97722140E+03</rscale>
<asrwt>0</asrwt>
<pdfrwt beam="1">  1        2 0.18918010E+00 0.97722140E+03</pdfrwt>
<pdfrwt beam="2">  1       -2 0.29869213E-01 0.97722140E+03</pdfrwt>
<totfact> 0.18762609E+02</totfact>
</mgrwt>
</event>
<event>
12    1  0.2148376E-013  0.1510230E+04  0.7818608E-02  0.8877678E-01
         -2   -1    0    0    0  501 -0.00000000000E+00  0.00000000000E+00  0.14256518080E+04  0.14256518080E+04  0.00000000000E+00 0.  1.
          2   -1    0    0  501    0  0.00000000000E+00 -0.00000000000E+00 -0.39995672798E+03  0.39995672798E+03  0.00000000000E+00 0. -1.
    9900016    2    1    2    0    0 -0.19696071011E+03 -0.41669330493E+03  0.18881791588E+03  0.87020798147E+03  0.71357052486E+03 0.  0.
         23    2    3    3    0    0  0.21167336320E+03 -0.26207086549E+03  0.60039847113E+02  0.35035387674E+03  0.75208406942E+02 0.  0.
         23    2    3    3    0    0 -0.12834505619E+03 -0.84014242305E+02  0.98896855664E+02  0.19867406941E+03  0.78485358110E+02 0.  0.
        -15    1    5    5    0    0  0.31864685809E+00 -0.13404041495E+02  0.37064742523E+02  0.39415288944E+02  0.00000000000E+00 0.  1.
        -15    1    4    4    0    0  0.59670542452E+02 -0.13195063991E+03  0.18439425520E+02  0.14598478490E+03  0.00000000000E+00 0. -1.
         15    1    4    4    0    0  0.15200282075E+03 -0.13012022558E+03  0.41600421593E+02  0.20436909184E+03  0.00000000000E+00 0.  1.
         15    1    5    5    0    0 -0.12866370305E+03 -0.70610200810E+02  0.61832113141E+02  0.15925878047E+03  0.00000000000E+00 0. -1.
        -16    1    1    2    0    0  0.19696071011E+03  0.41669330493E+03  0.83687716418E+03  0.95540055455E+03  0.00000000000E+00 0.  1.
         16    1    3    3    0    0 -0.12123921967E+03 -0.60124330894E+02  0.13084383083E+01  0.13533512317E+03  0.00000000000E+00 0. -1.
    9900018    1    3    3    0    0 -0.15904979745E+03 -0.10483866244E+02  0.28572774795E+02  0.18584491215E+03  0.91187600000E+02 0.  0.
<mgrwt>
<rscale>  0 0.15102305E+04</rscale>
<asrwt>0</asrwt>
<pdfrwt beam="1">  1        2 0.61531805E-01 0.15102305E+04</pdfrwt>
<pdfrwt beam="2">  1       -2 0.21933104E+00 0.15102305E+04</pdfrwt>
<totfact> 0.76584514E+00</totfact>
</mgrwt>
</event>
<event>
11    1  0.2148376E-013  0.8593082E+03  0.7818608E-02  0.9477928E-01
         -2   -1    0    0    0  501 -0.00000000000E+00  0.00000000000E+00  0.51968465192E+02  0.51968465192E+02  0.00000000000E+00 0. -1.
          2   -1    0    0  501    0  0.00000000000E+00 -0.00000000000E+00 -0.35522050874E+04  0.35522050874E+04  0.00000000000E+00 0.  1.
    9900016    2    1    2    0    0 -0.94082742644E+02 -0.38514436516E+01 -0.25835632252E+04  0.26826766655E+04  0.71630214093E+03 0.  0.
         23    2    3    3    0    0  0.55572769459E+02  0.15419762359E+03 -0.88115298504E+03  0.90241816912E+03  0.10517950894E+03 0.  0.
        -15    1    4    4    0    0  0.21772080119E+02 -0.48884869443E+01 -0.41103281486E+02  0.46769653903E+02  0.00000000000E+00 0.  1.
        -15    1    3    3    0    0 -0.52053168254E+02 -0.55151693435E+02 -0.17428502425E+03  0.19006975375E+03  0.00000000000E+00 0.  1.
         15    1    4    4    0    0  0.33800689340E+02  0.15908611053E+03 -0.84004970355E+03  0.85564851522E+03  0.00000000000E+00 0. -1.
         15    1    3    3    0    0 -0.29569688396E+02 -0.30326445213E+01 -0.24064591192E+02  0.38244842187E+02  0.00000000000E+00 0. -1.
        -16    1    3    3    0    0  0.14176667011E+02  0.71441373168E+02 -0.10367480761E+04  0.10393033345E+04  0.00000000000E+00 0.  1.
         16    1    1    2    0    0  0.94082742644E+02  0.38514436516E+01 -0.91667339695E+03  0.92149688701E+03  0.00000000000E+00 0. -1.
    9900018    1    3    3    0    0 -0.82209322464E+02 -0.17130610245E+03 -0.46731254860E+03  0.51264056600E+03  0.91187600000E+02 0.  0.
<mgrwt>
<rscale>  0 0.85930820E+03</rscale>
<asrwt>0</asrwt>
<pdfrwt beam="1">  1        2 0.54649336E+00 0.85930820E+03</pdfrwt>
<pdfrwt beam="2">  1       -2 0.79951445E-02 0.85930820E+03</pdfrwt>
<totfact> 0.78162931E+01</totfact>
</mgrwt>
</event>
<event>
12    1  0.2148376E-013  0.9678129E+03  0.7818608E-02  0.9344569E-01
         -1   -1    0    0    0  501 -0.00000000000E+00  0.00000000000E+00  0.18037492507E+03  0.18037492507E+03  0.00000000000E+00 0.  1.
          1   -1    0    0  501    0  0.00000000000E+00 -0.00000000000E+00 -0.12982152044E+04  0.12982152044E+04  0.00000000000E+00 0. -1.
    9900016    2    1    2    0    0  0.26078141930E+02 -0.10611475985E+03 -0.11724427088E+04  0.13564351580E+04  0.67331569163E+03 0.  0.
         23    2    3    3    0    0  0.10867335592E+02 -0.13148804222E+03 -0.17779002958E+03  0.24632268737E+03  0.10797392030E+03 0.  0.
         23    2    3    3    0    0 -0.13013418841E+03  0.80418321041E+02 -0.22646485908E+03  0.28373712176E+03  0.76278493122E+02 0.  0.
        -15    1    4    4    0    0  0.55852696977E+02 -0.10319011010E+03 -0.12321437854E+03  0.17014554259E+03  0.00000000000E+00 0. -1.
        -15    1    5    5    0    0 -0.16137447609E+02  0.25531974995E+01 -0.83173989855E+02  0.84763486367E+02  0.00000000000E+00 0.  1.
         15    1    5    5    0    0 -0.11399674080E+03  0.77865123542E+02 -0.14329086923E+03  0.19897363539E+03  0.00000000000E+00 0. -1.
         15    1    4    4    0    0 -0.44985361385E+02 -0.28297932123E+02 -0.54575651038E+02  0.76177144785E+02  0.00000000000E+00 0.  1.
        -16    1    1    2    0    0 -0.26078141930E+02  0.10611475985E+03  0.54602429518E+02  0.12215497147E+03  0.00000000000E+00 0.  1.
         16    1    3    3    0    0  0.41614031505E+02  0.88635494282E+02 -0.17406245076E+03  0.19971408370E+03  0.00000000000E+00 0. -1.
    9900018    1    3    3    0    0  0.10373096324E+03 -0.14368053295E+03 -0.59412536940E+03  0.62666126515E+03  0.91187600000E+02 0.  0.
<mgrwt>
<rscale>  0 0.96781294E+03</rscale>
<asrwt>0</asrwt>
<pdfrwt beam="1">  1        1 0.19972542E+00 0.96781294E+03</pdfrwt>
<pdfrwt beam="2">  1       -1 0.27749988E-01 0.96781294E+03</pdfrwt>
<totfact> 0.10647181E+02</totfact>
</mgrwt>
</event>
<event>
12    1  0.2148376E-013  0.1837986E+04  0.7818608E-02  0.8686356E-01
         -2   -1    0    0    0  501 -0.00000000000E+00  0.00000000000E+00  0.68361172516E+03  0.68361172516E+03  0.00000000000E+00 0.  1.
          2   -1    0    0  501    0  0.00000000000E+00 -0.00000000000E+00 -0.12354208257E+04  0.12354208257E+04  0.00000000000E+00 0. -1.
    9900016    2    1    2    0    0  0.66590860535E+03 -0.40347225854E+03 -0.36133482683E+03  0.11174687150E+04  0.71550635062E+03 0.  0.
         23    2    3    3    0    0  0.15152954685E+03 -0.28513106626E+02  0.13086148283E+03  0.21672787494E+03  0.77923316590E+02 0.  0.
         23    2    3    3    0    0  0.12389913714E+03 -0.21915499671E+03 -0.73242492179E+02  0.28446943795E+03  0.11035619465E+03 0.  0.
        -15    1    5    5    0    0  0.14312255899E+03 -0.17081268891E+03 -0.60179414556E+02  0.23083024828E+03  0.00000000000E+00 0.  1.
        -15    1    4    4    0    0  0.17086871131E+02  0.19133320162E+02  0.40298004525E+02  0.47770014383E+02  0.00000000000E+00 0. -1.
         15    1    4    4    0    0  0.13444267572E+03 -0.47646426789E+02  0.90563478305E+02  0.16895786056E+03  0.00000000000E+00 0. -1.
         15    1    5    5    0    0 -0.19223421850E+02 -0.48342307801E+02 -0.13063077623E+02  0.53639189667E+02  0.00000000000E+00 0.  1.
        -16    1    1    2    0    0 -0.66590860535E+03  0.40347225854E+03 -0.19047427371E+03  0.80156383590E+03  0.00000000000E+00 0.  1.
         16    1    3    3    0    0  0.25413994331E+03 -0.72907734513E+02 -0.28569702369E+03  0.38926268493E+03  0.00000000000E+00 0. -1.
    9900018    1    3    3    0    0  0.13633997805E+03 -0.82896420684E+02 -0.13325679379E+03  0.22700871715E+03  0.91187600000E+02 0.  0.
<mgrwt>
<rscale>  0 0.18379860E+04</rscale>
<asrwt>0</asrwt>
<pdfrwt beam="1">  1        2 0.19006474E+00 0.18379860E+04</pdfrwt>
<pdfrwt beam="2">  1       -2 0.10517103E+00 0.18379860E+04</pdfrwt>
<totfact> 0.12436538E+01</totfact>
</mgrwt>
</event>
<event>
11    1  0.2148376E-013  0.9158172E+03  0.7818608E-02  0.9406022E-01
          2   -1    0    0  501    0  0.00000000000E+00  0.00000000000E+00  0.30002230029E+03  0.30002230029E+03  0.00000000000E+00 0. -1.
         -2   -1    0    0    0  501 -0.00000000000E+00 -0.00000000000E+00 -0.69888234498E+03  0.69888234498E+03  0.00000000000E+00 0.  1.
    9900016    2    1    2    0    0  0.17020989112E+03 -0.52480291765E+02 -0.35414941361E+03  0.81526197978E+03  0.71239364150E+03 0.  0.
         23    2    3    3    0    0  0.45735256455E+02 -0.32188856499E+03 -0.11560090187E+03  0.35301526359E+03  0.74513393801E+02 0.  0.
        -15    1    4    4    0    0  0.22413271682E+02 -0.18962488197E+02 -0.55705097489E+01  0.29882457813E+02  0.00000000000E+00 0.  1.
        -15    1    3    3    0    0  0.25230581877E+02 -0.46430422462E+01 -0.51161084426E+01  0.26159408800E+02  0.00000000000E+00 0.  1.
         15    1    4    4    0    0  0.23321984773E+02 -0.30292607680E+03 -0.11003039212E+03  0.32313280577E+03  0.00000000000E+00 0. -1.
         15    1    3    3    0    0 -0.14680400753E+02 -0.10104606720E+01 -0.12963558771E+02  0.19610942177E+02  0.00000000000E+00 0. -1.
        -16    1    3    3    0    0  0.81485294303E+02  0.22810941494E+03 -0.17899132947E+03  0.30118375520E+03  0.00000000000E+00 0.  1.
         16    1    1    2    0    0 -0.17020989112E+03  0.52480291765E+02 -0.44710631088E+02  0.18364266550E+03  0.00000000000E+00 0. -1.
    9900018    1    3    3    0    0  0.32439159238E+02  0.46952361206E+02 -0.41477515053E+02  0.11529261001E+03  0.91187600000E+02 0.  0.
<mgrwt>
<rscale>  0 0.91581721E+03</rscale>
<asrwt>0</asrwt>
<pdfrwt beam="1">  1        2 0.46157278E-01 0.91581721E+03</pdfrwt>
<pdfrwt beam="2">  1       -2 0.10752036E+00 0.91581721E+03</pdfrwt>
<totfact> 0.76405864E+01</totfact>
</mgrwt>
</event>
<event>
12    1  0.2148376E-013  0.9977661E+03  0.7818608E-02  0.9310998E-01
         -3   -1    0    0    0  501 -0.00000000000E+00  0.00000000000E+00  0.13512502910E+03  0.13512502910E+03  0.00000000000E+00 0. -1.
          3   -1    0    0  501    0  0.00000000000E+00 -0.00000000000E+00 -0.18418816621E+04  0.18418816621E+04  0.00000000000E+00 0.  1.
    9900016    2    1    2    0    0  0.92077315827E+02  0.17830337925E+03 -0.98346465741E+03  0.12263925366E+04  0.70467410503E+03 0.  0.
         23    2    3    3    0    0 -0.14644741774E+03  0.74109767441E+02 -0.51686202644E+03  0.55465233281E+03  0.11642058289E+03 0.  0.
         23    2    3    3    0    0  0.40202251912E+02  0.22800204659E+02 -0.58607564152E+00  0.86139045970E+02  0.72687835053E+02 0.  0.
        -15    1    4    4    0    0 -0.59051076804E+02  0.92569888757E+02 -0.32423381628E+03  0.34232116732E+03  0.00000000000E+00 0.  1.
        -15    1    5    5    0    0  0.46478759522E+02 -0.13877763478E+02 -0.45404041752E+01  0.48718401821E+02  0.00000000000E+00 0.  1.
         15    1    4    4    0    0 -0.87396340933E+02 -0.18460121316E+02 -0.19262821016E+03  0.21233116549E+03  0.00000000000E+00 0. -1.
         15    1    5    5    0    0 -0.62765076102E+01  0.36677968137E+02  0.39543285337E+01  0.37420644150E+02  0.00000000000E+00 0. -1.
        -16    1    3    3    0    0  0.69194460499E+02 -0.60806292348E+02 -0.24135612034E+02  0.95225029909E+02  0.00000000000E+00 0.  1.
         16    1    1    2    0    0 -0.92077315827E+02 -0.17830337925E+03 -0.72329197559E+03  0.75061415460E+03  0.00000000000E+00 0. -1.
    9900018    1    3    3    0    0  0.12912802115E+03  0.14219969949E+03 -0.44188094330E+03  0.49037612791E+03  0.91187600000E+02 0.  0.
<mgrwt>
<rscale>  0 0.99776613E+03</rscale>
<asrwt>0</asrwt>
<pdfrwt beam="1">  1        3 0.28336641E+00 0.99776613E+03</pdfrwt>
<pdfrwt beam="2">  1       -3 0.20788466E-01 0.99776613E+03</pdfrwt>
<totfact> 0.27162661E+00</totfact>
</mgrwt>
</event>
<event>
11    1  0.2845600E-013  0.1069470E+04  0.7818608E-02  0.9235470E-01
         -1   -1    0    0    0  501 -0.00000000000E+00  0.00000000000E+00  0.50257085419E+03  0.50257085419E+03  0.00000000000E+00 0.  1.
          1   -1    0    0  501    0  0.00000000000E+00 -0.00000000000E+00 -0.56895776987E+03  0.56895776987E+03  0.00000000000E+00 0. -1.
    9900016    2    1    2    0    0  0.18604257818E+03 -0.23293034066E+03 -0.64690197098E+02  0.77341578746E+03  0.71071708450E+03 0.  0.
         23    2    3    3    0    0 -0.11418852317E+03 -0.47829517825E+02 -0.22214191187E+03  0.27483171340E+03  0.10420537451E+03 0.  0.
        -15    1    4    4    0    0 -0.76850064822E+02  0.24267543715E+02 -0.10773900366E+03  0.13454567645E+03  0.00000000000E+00 0. -1.
        -15    1    3    3    0    0  0.76673182132E+02  0.30645352537E+02  0.33098123135E+02  0.88957294504E+02  0.00000000000E+00 0.  1.
         15    1    4    4    0    0 -0.37338458349E+02 -0.72097061540E+02 -0.11440290821E+03  0.14028603694E+03  0.00000000000E+00 0.  1.
         15    1    3    3    0    0  0.18285799433E+02  0.75440535823E+01 -0.18223396595E+02  0.26895638843E+02  0.00000000000E+00 0. -1.
        -16    1    3    3    0    0  0.16957356840E+03 -0.18196492198E+03  0.94532162846E+02  0.26608787598E+03  0.00000000000E+00 0.  1.
         16    1    1    2    0    0 -0.18604257818E+03  0.23293034066E+03 -0.16967185805E+01  0.29811283661E+03  0.00000000000E+00 0. -1.
    9900018    1    3    3    0    0  0.35698551389E+02 -0.41325306973E+02  0.48044825390E+02  0.11664326474E+03  0.91187600000E+02 0.  0.
<mgrwt>
<rscale>  0 0.10694701E+04</rscale>
<asrwt>0</asrwt>
<pdfrwt beam="1">  1        1 0.87531965E-01 0.10694701E+04</pdfrwt>
<pdfrwt beam="2">  1       -1 0.77318593E-01 0.10694701E+04</pdfrwt>
<totfact> 0.61928371E+01</totfact>
</mgrwt>
</event>
<event>
11    1  0.2148376E-013  0.1398519E+04  0.7818608E-02  0.8954891E-01
         -1   -1    0    0    0  501 -0.00000000000E+00  0.00000000000E+00  0.13574958519E+04  0.13574958519E+04  0.00000000000E+00 0.  1.
          1   -1    0    0  501    0  0.00000000000E+00 -0.00000000000E+00 -0.36019555027E+03  0.36019555027E+03  0.00000000000E+00 0. -1.
    9900016    2    1    2    0    0  0.16875925225E+03 -0.30455006113E+03  0.19222998364E+03  0.84055478690E+03  0.74050628506E+03 0.  0.
         23    2    3    3    0    0  0.12886984019E+03 -0.30396993380E+03  0.10695536429E+03  0.35489777860E+03  0.74214735316E+02 0.  0.
        -15    1    3    3    0    0  0.32507784640E+02 -0.27930556615E+02 -0.27922051637E+02  0.51151862358E+02  0.00000000000E+00 0.  1.
        -15    1    4    4    0    0  0.97672423123E+02 -0.17476350030E+03  0.94525501377E+02  0.22139840489E+03  0.00000000000E+00 0.  1.
         15    1    4    4    0    0  0.31197417071E+02 -0.12920643350E+03  0.12429862915E+02  0.13349937371E+03  0.00000000000E+00 0. -1.
         15    1    3    3    0    0  0.13186794480E+02 -0.60485186514E+02 -0.50798065082E+02  0.80079914788E+02  0.00000000000E+00 0. -1.
        -16    1    1    2    0    0 -0.16875925225E+03  0.30455006113E+03  0.80507031798E+03  0.87713661527E+03  0.00000000000E+00 0.  1.
         16    1    3    3    0    0 -0.32256991280E+02  0.79581332538E+02  0.22529733385E+03  0.24110701071E+03  0.00000000000E+00 0. -1.
    9900018    1    3    3    0    0  0.26451824213E+02  0.82542832606E+01 -0.61302597777E+02  0.11331822044E+03  0.91187600000E+02 0.  0.
<mgrwt>
<rscale>  0 0.13985192E+04</rscale>
<asrwt>0</asrwt>
<pdfrwt beam="1">  1        1 0.55414701E-01 0.13985192E+04</pdfrwt>
<pdfrwt beam="2">  1       -1 0.20884551E+00 0.13985192E+04</pdfrwt>
<totfact> 0.88024748E+00</totfact>
</mgrwt>
</event>
<event>
11    1  0.2148376E-013  0.8614542E+03  0.7818608E-02  0.9475091E-01
          1   -1    0    0  501    0  0.00000000000E+00  0.00000000000E+00  0.43572922522E+03  0.43572922522E+03  0.00000000000E+00 0. -1.
         -1   -1    0    0    0  501 -0.00000000000E+00 -0.00000000000E+00 -0.42578239937E+03  0.42578239937E+03  0.00000000000E+00 0.  1.
    9900016    2    1    2    0    0 -0.10752653166E+03  0.99007105451E+02  0.51342033400E+02  0.70959742134E+03  0.69247969937E+03 0.  0.
         23    2    3    3    0    0  0.15217574694E+02 -0.41717863224E+02 -0.34248216087E+02  0.96609996184E+02  0.78667632263E+02 0.  0.
        -15    1    4    4    0    0  0.33178018295E+02 -0.15546447859E+02  0.13691615800E+02  0.39114361585E+02  0.00000000000E+00 0.  1.
        -15    1    3    3    0    0 -0.38251188469E+02  0.96192647063E+02  0.12604056211E+02  0.10428346466E+03  0.00000000000E+00 0.  1.
         15    1    4    4    0    0 -0.17960443601E+02 -0.26171415365E+02 -0.47939831887E+02  0.57495634598E+02  0.00000000000E+00 0. -1.
         15    1    3    3    0    0 -0.12364032847E+02 -0.10269379652E+03  0.11605049681E+03  0.15545611265E+03  0.00000000000E+00 0. -1.
        -16    1    3    3    0    0  0.72380397176E+02  0.10984724754E+03 -0.10434531025E+03  0.16790855684E+03  0.00000000000E+00 0.  1.
         16    1    1    2    0    0  0.10752653166E+03 -0.99007105451E+02 -0.41395207552E+02  0.15191420325E+03  0.00000000000E+00 0. -1.
    9900018    1    3    3    0    0 -0.14450928222E+03  0.37378870589E+02  0.61281006717E+02  0.18533929101E+03  0.91187600000E+02 0.  0.
<mgrwt>
<rscale>  0 0.86145420E+03</rscale>
<asrwt>0</asrwt>
<pdfrwt beam="1">  1        1 0.67035265E-01 0.86145420E+03</pdfrwt>
<pdfrwt beam="2">  1       -1 0.65504985E-01 0.86145420E+03</pdfrwt>
<totfact> 0.12762387E+02</totfact>
</mgrwt>
</event>
<event>
11    1  0.2148376E-013  0.8196972E+03  0.7818608E-02  0.9531936E-01
         -2   -1    0    0    0  501 -0.00000000000E+00  0.00000000000E+00  0.40316966747E+03  0.40316966747E+03  0.00000000000E+00 0.  1.
          2   -1    0    0  501    0  0.00000000000E+00 -0.00000000000E+00 -0.41663820507E+03  0.41663820507E+03  0.00000000000E+00 0. -1.
    9900016    2    1    2    0    0 -0.93397707728E+01 -0.21892295461E+02 -0.10263328698E+03  0.72752105631E+03  0.71985192357E+03 0.  0.
         23    2    3    3    0    0 -0.12768464702E+03 -0.11553768172E+03  0.20544568018E+03  0.27734837086E+03  0.71146794278E+02 0.  0.
        -15    1    4    4    0    0 -0.79267668844E+02 -0.10550102370E+03  0.11866291572E+03  0.17746750940E+03  0.00000000000E+00 0.  1.
        -15    1    3    3    0    0 -0.57275990140E+01  0.45802083946E+02  0.81185885827E+01  0.46867342200E+02  0.00000000000E+00 0.  1.
         15    1    4    4    0    0 -0.48416978173E+02 -0.10036658021E+02  0.86782764465E+02  0.99880861469E+02  0.00000000000E+00 0. -1.
         15    1    3    3    0    0  0.17781861621E+01  0.37974280577E+02 -0.30038002521E+02  0.48450898102E+02  0.00000000000E+00 0. -1.
        -16    1    1    2    0    0  0.93397707728E+01  0.21892295461E+02  0.89164749383E+02  0.92286816237E+02  0.00000000000E+00 0.  1.
         16    1    3    3    0    0  0.66681817071E+02 -0.48207256023E+02 -0.75723275861E+02  0.11182315846E+03  0.00000000000E+00 0. -1.
    9900018    1    3    3    0    0  0.55612472026E+02  0.58076277755E+02 -0.21043627736E+03  0.24303128668E+03  0.91187600000E+02 0.  0.
<mgrwt>
<rscale>  0 0.81969723E+03</rscale>
<asrwt>0</asrwt>
<pdfrwt beam="1">  1        2 0.64098185E-01 0.81969723E+03</pdfrwt>
<pdfrwt beam="2">  1       -2 0.62026103E-01 0.81969723E+03</pdfrwt>
<totfact> 0.18455759E+02</totfact>
</mgrwt>
</event>
<event>
11    1  0.2148376E-013  0.1611651E+04  0.7818608E-02  0.8813422E-01
          1   -1    0    0  501    0  0.00000000000E+00  0.00000000000E+00  0.10209602861E+04  0.10209602861E+04  0.00000000000E+00 0. -1.
         -1   -1    0    0    0  501 -0.00000000000E+00 -0.00000000000E+00 -0.63602386410E+03  0.63602386410E+03  0.00000000000E+00 0.  1.
    9900016    2    1    2    0    0 -0.65002523804E+03  0.19044059701E+02  0.25889614995E+03  0.99457820481E+03  0.70658552400E+03 0.  0.
         23    2    3    3    0    0  0.45791509499E+01  0.11452865084E+03  0.13260987932E+03  0.20427888785E+03  0.10491283734E+03 0.  0.
        -15    1    3    3    0    0  0.11471431648E+02 -0.16832297498E+02  0.18451676735E+02  0.27484256538E+02  0.00000000000E+00 0. -1.
        -15    1    4    4    0    0 -0.49565175614E+02  0.55026706581E+02  0.52764245548E+02  0.90932451188E+02  0.00000000000E+00 0.  1.
         15    1    3    3    0    0 -0.21773420887E+01  0.28508785559E+02  0.54947942856E+02  0.61941650743E+02  0.00000000000E+00 0.  1.
         15    1    4    4    0    0  0.54144326564E+02  0.59501944262E+02  0.79845633776E+02  0.11334643666E+03  0.00000000000E+00 0. -1.
        -16    1    1    2    0    0  0.65002523804E+03 -0.19044059701E+02  0.12604027203E+03  0.66240594537E+03  0.00000000000E+00 0.  1.
         16    1    3    3    0    0 -0.18895645858E+03  0.34637177707E+02  0.42706219517E+02  0.19679455914E+03  0.00000000000E+00 0. -1.
    9900018    1    3    3    0    0 -0.47494201996E+03 -0.14179825691E+03  0.10180431518E+02  0.50407885055E+03  0.91187600000E+02 0.  0.
<mgrwt>
<rscale>  0 0.16116515E+04</rscale>
<asrwt>0</asrwt>
<pdfrwt beam="1">  1        1 0.15707081E+00 0.16116515E+04</pdfrwt>
<pdfrwt beam="2">  1       -1 0.97849826E-01 0.16116515E+04</pdfrwt>
<totfact> 0.13994064E+01</totfact>
</mgrwt>
</event>
<event>
11    1  0.2148376E-013  0.1281711E+04  0.7818608E-02  0.9044195E-01
          1   -1    0    0  501    0  0.00000000000E+00  0.00000000000E+00  0.22703658568E+04  0.22703658568E+04  0.00000000000E+00 0. -1.
         -1   -1    0    0    0  501 -0.00000000000E+00 -0.00000000000E+00 -0.18089421058E+03  0.18089421058E+03  0.00000000000E+00 0.  1.
    9900016    2    1    2    0    0 -0.11977282630E+03 -0.26847461249E+03  0.20060457077E+04  0.21456720528E+04  0.70232829149E+03 0.  0.
         23    2    3    3    0    0  0.38234597129E+02 -0.10597564874E+03  0.32100067200E+03  0.34558537902E+03  0.60787336085E+02 0.  0.
        -15    1    4    4    0    0  0.45499228217E+02 -0.43838455452E+02  0.19367791033E+03  0.20372315257E+03  0.00000000000E+00 0. -1.
        -15    1    3    3    0    0 -0.86415456656E+02 -0.65688418123E+00  0.33905516853E+03  0.34989494130E+03  0.00000000000E+00 0. -1.
         15    1    4    4    0    0 -0.72646310889E+01 -0.62137193288E+02  0.12732276167E+03  0.14186222645E+03  0.00000000000E+00 0.  1.
         15    1    3    3    0    0  0.64595929831E+02  0.21908094825E+02  0.23159240307E+03  0.24142833290E+03  0.00000000000E+00 0.  1.
        -16    1    1    2    0    0  0.11977282630E+03  0.26847461249E+03  0.83425938508E+02  0.30558801464E+03  0.00000000000E+00 0.  1.
         16    1    3    3    0    0  0.94300091136E+02 -0.17044213861E+02  0.60449049060E+02  0.11330092650E+03  0.00000000000E+00 0. -1.
    9900018    1    3    3    0    0 -0.23048798774E+03 -0.16670596054E+03  0.10539484151E+04  0.10954624730E+04  0.91187600000E+02 0.  0.
<mgrwt>
<rscale>  0 0.12817114E+04</rscale>
<asrwt>0</asrwt>
<pdfrwt beam="1">  1        1 0.34928704E+00 0.12817114E+04</pdfrwt>
<pdfrwt beam="2">  1       -1 0.27829880E-01 0.12817114E+04</pdfrwt>
<totfact> 0.22394767E+01</totfact>
</mgrwt>
</event>
<event>
11    1  0.2148376E-013  0.1573839E+04  0.7818608E-02  0.8836783E-01
          1   -1    0    0  501    0  0.00000000000E+00  0.00000000000E+00  0.51569023202E+03  0.51569023202E+03  0.00000000000E+00 0. -1.
         -1   -1    0    0    0  501 -0.00000000000E+00 -0.00000000000E+00 -0.12008035658E+04  0.12008035658E+04  0.00000000000E+00 0.  1.
    9900016    2    1    2    0    0  0.28732496296E+03 -0.55673462083E+03 -0.44239086571E+03  0.10446134001E+04  0.70922380473E+03 0.  0.
         23    2    3    3    0    0  0.11427619827E+03 -0.28364379922E+03 -0.13263982028E+03  0.35140456890E+03  0.11126093112E+03 0.  0.
        -15    1    3    3    0    0  0.12559568030E+03 -0.79878532789E+02 -0.54578338397E+02  0.15853595785E+03  0.00000000000E+00 0.  1.
        -15    1    4    4    0    0  0.25087309023E+02  0.84364764905E-02 -0.24333848727E+02  0.34950097840E+02  0.00000000000E+00 0.  1.
         15    1    4    4    0    0  0.89188889246E+02 -0.28365223569E+03 -0.10830597156E+03  0.31645447106E+03  0.00000000000E+00 0. -1.
         15    1    3    3    0    0 -0.17037484142E+03 -0.64563203458E+02 -0.96914453003E+02  0.20636958359E+03  0.00000000000E+00 0. -1.
        -16    1    1    2    0    0 -0.28732496296E+03  0.55673462083E+03 -0.24272246809E+03  0.67188039776E+03  0.00000000000E+00 0.  1.
         16    1    3    3    0    0  0.76338700189E+02 -0.19588785612E+02 -0.11214278181E+02  0.79605764260E+02  0.00000000000E+00 0. -1.
    9900018    1    3    3    0    0  0.14148922562E+03 -0.10906029976E+03 -0.14704397584E+03  0.24869752547E+03  0.91187600000E+02 0.  0.
<mgrwt>
<rscale>  0 0.15738395E+04</rscale>
<asrwt>0</asrwt>
<pdfrwt beam="1">  1        1 0.79336960E-01 0.15738395E+04</pdfrwt>
<pdfrwt beam="2">  1       -1 0.18473901E+00 0.15738395E+04</pdfrwt>
<totfact> 0.78582186E+00</totfact>
</mgrwt>
</event>
<event>
12    1  0.2148376E-013  0.1517528E+04  0.7818608E-02  0.8872880E-01
          2   -1    0    0  501    0  0.00000000000E+00  0.00000000000E+00  0.30493747598E+04  0.30493747598E+04  0.00000000000E+00 0. -1.
         -2   -1    0    0    0  501 -0.00000000000E+00 -0.00000000000E+00 -0.18880021648E+03  0.18880021648E+03  0.00000000000E+00 0.  1.
    9900016    2    1    2    0    0  0.33449852538E+03 -0.37117034060E+03  0.24235206499E+04  0.25743430767E+04  0.71002341546E+03 0.  0.
         23    2    3    3    0    0  0.29453919455E+03 -0.19650692868E+03  0.13378000259E+04  0.13859574791E+04  0.76163734941E+02 0.  0.
         23    2    3    3    0    0 -0.18181093453E+02  0.25128133539E+02  0.23594138598E+03  0.26652382337E+03  0.12001931324E+03 0.  0.
        -15    1    4    4    0    0  0.11062042886E+03 -0.11730217331E+03  0.55449221411E+03  0.57745847873E+03  0.00000000000E+00 0. -1.
        -15    1    5    5    0    0 -0.29351041123E+02  0.59839557730E+02  0.70127176524E+02  0.96747491810E+02  0.00000000000E+00 0.  1.
         15    1    4    4    0    0  0.18391876569E+03 -0.79204755364E+02  0.78330781180E+03  0.80849900041E+03  0.00000000000E+00 0.  1.
         15    1    5    5    0    0  0.11169947670E+02 -0.34711424191E+02  0.16581420945E+03  0.16977633156E+03  0.00000000000E+00 0. -1.
        -16    1    1    2    0    0 -0.33449852538E+03  0.37117034060E+03  0.43705389336E+03  0.66383189960E+03  0.00000000000E+00 0.  1.
         16    1    3    3    0    0 -0.80024812020E+02 -0.16661661900E+03  0.37777081536E+03  0.42056611514E+03  0.00000000000E+00 0. -1.
    9900018    1    3    3    0    0  0.13816523630E+03 -0.33174926466E+02  0.47200842268E+03  0.50129565901E+03  0.91187600000E+02 0.  0.
<mgrwt>
<rscale>  0 0.15175277E+04</rscale>
<asrwt>0</asrwt>
<pdfrwt beam="1">  1        2 0.46913454E+00 0.15175277E+04</pdfrwt>
<pdfrwt beam="2">  1       -2 0.29046189E-01 0.15175277E+04</pdfrwt>
<totfact> 0.17162382E+01</totfact>
</mgrwt>
</event>
<event>
12    1  0.2148376E-013  0.1246311E+04  0.7818608E-02  0.9073259E-01
         -1   -1    0    0    0  501 -0.00000000000E+00  0.00000000000E+00  0.16280969130E+03  0.16280969130E+03  0.00000000000E+00 0.  1.
          1   -1    0    0  501    0  0.00000000000E+00 -0.00000000000E+00 -0.23851347212E+04  0.23851347212E+04  0.00000000000E+00 0. -1.
    9900016    2    1    2    0    0  0.50038349640E+02  0.41677022450E+03 -0.14275109291E+04  0.16490947525E+04  0.71100266776E+03 0.  0.
         23    2    3    3    0    0  0.56777923599E+02 -0.14799294205E+03 -0.14574942862E+03  0.22879145473E+03  0.77310997344E+02 0.  0.
         23    2    3    3    0    0 -0.17661809662E+02  0.27931746880E+03 -0.71597922079E+03  0.77267403868E+03  0.77902102356E+02 0.  0.
        -15    1    4    4    0    0  0.29643397597E+02 -0.14489185251E+03 -0.11283622892E+03  0.18602256449E+03  0.00000000000E+00 0.  1.
        -15    1    5    5    0    0  0.25121318322E+02  0.10997956132E+03 -0.22807654365E+03  0.25445135941E+03  0.00000000000E+00 0.  1.
         15    1    4    4    0    0  0.27134526002E+02 -0.31010895443E+01 -0.32913199703E+02  0.42768890240E+02  0.00000000000E+00 0. -1.
         15    1    5    5    0    0 -0.42783127985E+02  0.16933790748E+03 -0.48790267715E+03  0.51822267927E+03  0.00000000000E+00 0. -1.
        -16    1    3    3    0    0 -0.13625038847E+02  0.93848176966E+02 -0.24007575574E+03  0.25812688837E+03  0.00000000000E+00 0.  1.
         16    1    1    2    0    0 -0.50038349640E+02 -0.41677022450E+03 -0.79481410078E+03  0.89884965999E+03  0.00000000000E+00 0. -1.
    9900018    1    3    3    0    0  0.24547274551E+02  0.19159752079E+03 -0.32570652397E+03  0.38950237073E+03  0.91187600000E+02 0.  0.
<mgrwt>
<rscale>  0 0.12463114E+04</rscale>
<asrwt>0</asrwt>
<pdfrwt beam="1">  1        1 0.36694378E+00 0.12463114E+04</pdfrwt>
<pdfrwt beam="2">  1       -1 0.25047647E-01 0.12463114E+04</pdfrwt>
<totfact> 0.22499931E+01</totfact>
</mgrwt>
</event>
<event>
11    1  0.2148376E-013  0.1197296E+04  0.7818608E-02  0.9115227E-01
          2   -1    0    0  501    0  0.00000000000E+00  0.00000000000E+00  0.51540931868E+03  0.51540931868E+03  0.00000000000E+00 0. -1.
         -2   -1    0    0    0  501 -0.00000000000E+00 -0.00000000000E+00 -0.69532916550E+03  0.69532916550E+03  0.00000000000E+00 0.  1.
    9900016    2    1    2    0    0 -0.37110150884E+03  0.70345130163E+02 -0.21091225351E+03  0.83175920179E+03  0.71040454946E+03 0.  0.
         23    2    3    3    0    0 -0.48084454479E+02 -0.37597035389E+02 -0.66335115512E+01  0.12389047186E+03  0.10760666201E+03 0.  0.
        -15    1    4    4    0    0 -0.72485771404E+02 -0.39306369128E+02  0.22865721047E+02  0.85568796352E+02  0.00000000000E+00 0. -1.
        -15    1    3    3    0    0 -0.14814624671E+03  0.10920916280E+03 -0.15314737578E+02  0.18468484735E+03  0.00000000000E+00 0.  1.
         15    1    3    3    0    0 -0.11465229629E+03  0.14568379552E+03 -0.18405818502E+03  0.26123999080E+03  0.00000000000E+00 0. -1.
         15    1    4    4    0    0  0.24401316926E+02  0.17093337391E+01 -0.29499232598E+02  0.38321675504E+02  0.00000000000E+00 0.  1.
        -16    1    3    3    0    0  0.63007508879E+02 -0.50196180483E+02  0.11430645768E+01  0.80566179671E+02  0.00000000000E+00 0.  1.
         16    1    1    2    0    0  0.37110150884E+03 -0.70345130163E+02  0.30992406689E+02  0.37897928238E+03  0.00000000000E+00 0. -1.
    9900018    1    3    3    0    0 -0.12322602024E+03 -0.96754612285E+02 -0.60488839405E+01  0.18137771212E+03  0.91187600000E+02 0.  0.
<mgrwt>
<rscale>  0 0.11972955E+04</rscale>
<asrwt>0</asrwt>
<pdfrwt beam="1">  1        2 0.79293741E-01 0.11972955E+04</pdfrwt>
<pdfrwt beam="2">  1       -2 0.10697372E+00 0.11972955E+04</pdfrwt>
<totfact> 0.41230176E+01</totfact>
</mgrwt>
</event>
<event>
12    1  0.2148376E-013  0.9625558E+03  0.7818608E-02  0.9350594E-01
         -1   -1    0    0    0  501 -0.00000000000E+00  0.00000000000E+00  0.93762861963E+03  0.93762861963E+03  0.00000000000E+00 0.  1.
          1   -1    0    0  501    0  0.00000000000E+00 -0.00000000000E+00 -0.24703640939E+03  0.24703640939E+03  0.00000000000E+00 0. -1.
    9900016    2    1    2    0    0 -0.83395744136E+02  0.96677307869E+02  0.76007183787E+03  0.10393076396E+04  0.69724444713E+03 0.  0.
         23    2    3    3    0    0 -0.42198533423E+02 -0.11427502829E+03  0.20082919632E+03  0.26104646109E+03  0.11390079211E+03 0.  0.
         23    2    3    3    0    0  0.69151429394E+02  0.55562567582E+02  0.86400858201E+02  0.14405067463E+03  0.73595988073E+02 0.  0.
        -15    1    5    5    0    0  0.55195840545E+01  0.41747936017E+02  0.61072917331E+02  0.74183941666E+02  0.00000000000E+00 0. -1.
        -15    1    4    4    0    0 -0.75860136541E+02 -0.89530411143E+02  0.17865735095E+03  0.21374962897E+03  0.00000000000E+00 0.  1.
         15    1    4    4    0    0  0.33661603119E+02 -0.24744617146E+02  0.22171845366E+02  0.47296832126E+02  0.00000000000E+00 0.  1.
         15    1    5    5    0    0  0.63631845339E+02  0.13814631565E+02  0.25327940870E+02  0.69866732966E+02  0.00000000000E+00 0. -1.
        -16    1    3    3    0    0 -0.68482341692E+01  0.19118228868E+03  0.64772109993E+02  0.20197275076E+03  0.00000000000E+00 0.  1.
         16    1    1    2    0    0  0.83395744136E+02 -0.96677307869E+02 -0.69479627630E+02  0.14535738940E+03  0.00000000000E+00 0. -1.
    9900018    1    3    3    0    0 -0.10350040594E+03 -0.35792520106E+02  0.40806967336E+03  0.43223775313E+03  0.91187600000E+02 0.  0.
<mgrwt>
<rscale>  0 0.96255578E+03</rscale>
<asrwt>0</asrwt>
<pdfrwt beam="1">  1        1 0.38005602E-01 0.96255578E+03</pdfrwt>
<pdfrwt beam="2">  1       -1 0.14425056E+00 0.96255578E+03</pdfrwt>
<totfact> 0.43980359E+01</totfact>
</mgrwt>
</event>
<event>
12    1  0.2148376E-013  0.1341338E+04  0.7818608E-02  0.8997411E-01
         -2   -1    0    0    0  501 -0.00000000000E+00  0.00000000000E+00  0.49015946346E+03  0.49015946346E+03  0.00000000000E+00 0.  1.
          2   -1    0    0  501    0  0.00000000000E+00 -0.00000000000E+00 -0.91765378601E+03  0.91765378601E+03  0.00000000000E+00 0. -1.
    9900016    2    1    2    0    0 -0.28903133512E+03 -0.38531810146E+03 -0.29194054172E+03  0.90742941730E+03  0.71147010865E+03 0.  0.
         23    2    3    3    0    0  0.11676539996E+03 -0.96367125978E+02  0.73395862715E+02  0.20857626428E+03  0.12327337005E+03 0.  0.
         23    2    3    3    0    0 -0.81151029376E+02 -0.12698950354E+03 -0.83772092942E+02  0.18509262058E+03  0.67302979571E+02 0.  0.
        -15    1    4    4    0    0  0.11553146716E+03 -0.12287980742E+03  0.62105774261E+02  0.17973339749E+03  0.00000000000E+00 0.  1.
        -15    1    5    5    0    0 -0.46781204523E+02 -0.20387400951E+02 -0.13208197196E+02  0.52712272644E+02  0.00000000000E+00 0. -1.
         15    1    5    5    0    0 -0.34369824853E+02 -0.10660210259E+03 -0.70563895746E+02  0.13238034793E+03  0.00000000000E+00 0.  1.
         15    1    4    4    0    0  0.12339327965E+01  0.26512681446E+02  0.11290088454E+02  0.28842866794E+02  0.00000000000E+00 0. -1.
        -16    1    3    3    0    0  0.89386140970E+01 -0.46173737957E+02 -0.90637927558E+02  0.10211340172E+03  0.00000000000E+00 0.  1.
         16    1    1    2    0    0  0.28903133512E+03  0.38531810146E+03 -0.13555378083E+03  0.50038383216E+03  0.00000000000E+00 0. -1.
    9900018    1    3    3    0    0 -0.33358431979E+03 -0.11578773399E+03 -0.19092638394E+03  0.41164713072E+03  0.91187600000E+02 0.  0.
<mgrwt>
<rscale>  0 0.13413377E+04</rscale>
<asrwt>0</asrwt>
<pdfrwt beam="1">  1        2 0.14117750E+00 0.13413377E+04</pdfrwt>
<pdfrwt beam="2">  1       -2 0.75409149E-01 0.13413377E+04</pdfrwt>
<totfact> 0.44003679E+01</totfact>
</mgrwt>
</event>
<event>
11    1  0.2148376E-013  0.8282105E+03  0.7818608E-02  0.9520058E-01
         -5   -1    0    0    0  501 -0.00000000000E+00  0.00000000000E+00  0.28298488627E+03  0.28298488627E+03  0.00000000000E+00 0.  1.
          5   -1    0    0  501    0  0.00000000000E+00 -0.00000000000E+00 -0.60597989579E+03  0.60597989579E+03  0.00000000000E+00 0. -1.
    9900016    2    1    2    0    0  0.10998039110E+03 -0.32459702223E+02 -0.29155600682E+03  0.77006259711E+03  0.70345019700E+03 0.  0.
         23    2    3    3    0    0 -0.21440243174E+02 -0.10796247684E+03 -0.19062321588E+03  0.22861876641E+03  0.61755562445E+02 0.  0.
        -15    1    4    4    0    0 -0.26030464236E+02 -0.22792387357E+02 -0.91653210801E+02  0.97966264806E+02  0.00000000000E+00 0. -1.
        -15    1    3    3    0    0 -0.70553030142E+02  0.33572343079E+02  0.82861794574E+01  0.78571579162E+02  0.00000000000E+00 0.  1.
         15    1    3    3    0    0  0.18015671082E+01 -0.35999448621E+02 -0.10891065535E+03  0.11472025451E+03  0.00000000000E+00 0. -1.
         15    1    4    4    0    0  0.45902210626E+01 -0.85170089484E+02 -0.98970005074E+02  0.13065250161E+03  0.00000000000E+00 0.  1.
        -16    1    3    3    0    0  0.20267819845E+03  0.10583494705E+03 -0.59014917046E+02  0.23614031544E+03  0.00000000000E+00 0.  1.
         16    1    1    2    0    0 -0.10998039110E+03  0.32459702223E+02 -0.31439002696E+02  0.11890218495E+03  0.00000000000E+00 0. -1.
    9900018    1    3    3    0    0 -0.25061011366E+01 -0.27905066893E+02  0.58706601992E+02  0.11201168159E+03  0.91187600000E+02 0.  0.
<mgrwt>
<rscale>  0 0.82821049E+03</rscale>
<asrwt>0</asrwt>
<pdfrwt beam="1">  1        5 0.93227676E-01 0.82821049E+03</pdfrwt>
<pdfrwt beam="2">  1       -5 0.43536137E-01 0.82821049E+03</pdfrwt>
<totfact> 0.46342346E+00</totfact>
</mgrwt>
</event>
<event>
11    1  0.2148376E-013  0.1668810E+04  0.7818608E-02  0.8779356E-01
          1   -1    0    0  501    0  0.00000000000E+00  0.00000000000E+00  0.71139205958E+03  0.71139205958E+03  0.00000000000E+00 0. -1.
         -1   -1    0    0    0  501 -0.00000000000E+00 -0.00000000000E+00 -0.97868973785E+03  0.97868973785E+03  0.00000000000E+00 0.  1.
    9900016    2    1    2    0    0 -0.51555244299E+03  0.41256463454E+03 -0.32448946038E+03  0.10273037055E+04  0.71697670421E+03 0.  0.
         23    2    3    3    0    0 -0.16642330156E+02  0.11078686501E+03  0.77592314409E+01  0.12807017874E+03  0.61571652557E+02 0.  0.
        -15    1    4    4    0    0 -0.27234794525E+02  0.85990023972E+02 -0.16620485698E+02  0.91718366756E+02  0.00000000000E+00 0.  1.
        -15    1    3    3    0    0 -0.15991546156E+02 -0.89289030224E+01  0.42971265473E+02  0.46711717095E+02  0.00000000000E+00 0.  1.
         15    1    4    4    0    0  0.10592464369E+02  0.24796841042E+02  0.24379717139E+02  0.36351811989E+02  0.00000000000E+00 0. -1.
         15    1    3    3    0    0 -0.47741578242E+02 -0.36197605979E+02  0.61261330614E+02  0.85688246570E+02  0.00000000000E+00 0. -1.
        -16    1    3    3    0    0 -0.43250363550E+03  0.27484091791E+03 -0.33251664456E+03  0.61087170812E+03  0.00000000000E+00 0.  1.
         16    1    1    2    0    0  0.51555244299E+03 -0.41256463454E+03  0.57191782109E+02  0.66277809189E+03  0.00000000000E+00 0. -1.
    9900018    1    3    3    0    0 -0.26733529414E+01  0.72063360617E+02 -0.10396464334E+03  0.15596185501E+03  0.91187600000E+02 0.  0.
<mgrwt>
<rscale>  0 0.16688105E+04</rscale>
<asrwt>0</asrwt>
<pdfrwt beam="1">  1        1 0.10944493E+00 0.16688105E+04</pdfrwt>
<pdfrwt beam="2">  1       -1 0.15056765E+00 0.16688105E+04</pdfrwt>
<totfact> 0.87589362E+00</totfact>
</mgrwt>
</event>
<event>
12    1  0.2148376E-013  0.8584454E+03  0.7818608E-02  0.9479071E-01
         -2   -1    0    0    0  501 -0.00000000000E+00  0.00000000000E+00  0.63132674502E+03  0.63132674502E+03  0.00000000000E+00 0. -1.
          2   -1    0    0  501    0  0.00000000000E+00 -0.00000000000E+00 -0.29181736949E+03  0.29181736949E+03  0.00000000000E+00 0.  1.
    9900016    2    1    2    0    0  0.11268315711E+03 -0.34746526323E+01  0.33541551402E+03  0.81033309196E+03  0.72899011363E+03 0.  0.
         23    2    3    3    0    0 -0.53579244973E+02  0.56867480571E+02 -0.12044422158E+02  0.11123780255E+03  0.78256851279E+02 0.  0.
         23    2    3    3    0    0  0.90279023794E+02  0.16682557409E+03  0.50584592943E+02  0.21136920662E+03  0.78339429133E+02 0.  0.
        -15    1    5    5    0    0  0.32705040008E+02  0.90930319745E+02  0.62919703856E+02  0.11531188934E+03  0.00000000000E+00 0. -1.
        -15    1    4    4    0    0 -0.49011111010E+02  0.28365598398E+02  0.26956731463E+02  0.62716517330E+02  0.00000000000E+00 0.  1.
         15    1    4    4    0    0 -0.45681339629E+01  0.28501882172E+02 -0.39001153621E+02  0.48521285216E+02  0.00000000000E+00 0.  1.
         15    1    5    5    0    0  0.57573983786E+02  0.75895254341E+02 -0.12335110914E+02  0.96057317273E+02  0.00000000000E+00 0. -1.
        -16    1    1    2    0    0 -0.11268315711E+03  0.34746526323E+01  0.40938615106E+01  0.11281102255E+03  0.00000000000E+00 0.  1.
         16    1    3    3    0    0 -0.51889406886E+02 -0.19208772363E+03  0.25117671763E+03  0.32043711957E+03  0.00000000000E+00 0. -1.
    9900018    1    3    3    0    0  0.12787278518E+03 -0.35079983655E+02  0.45698625612E+02  0.16728896323E+03  0.91187600000E+02 0.  0.
<mgrwt>
<rscale>  0 0.85844536E+03</rscale>
<asrwt>0</asrwt>
<pdfrwt beam="1">  1        2 0.44894980E-01 0.85844536E+03</pdfrwt>
<pdfrwt beam="2">  1       -2 0.97127191E-01 0.85844536E+03</pdfrwt>
<totfact> 0.10070878E+02</totfact>
</mgrwt>
</event>
<event>
12    1  0.2148376E-013  0.1129807E+04  0.7818608E-02  0.9176617E-01
         -2   -1    0    0    0  501 -0.00000000000E+00  0.00000000000E+00  0.13086328744E+03  0.13086328744E+03  0.00000000000E+00 0.  1.
          2   -1    0    0  501    0  0.00000000000E+00 -0.00000000000E+00 -0.24385446084E+04  0.24385446084E+04  0.00000000000E+00 0. -1.
    9900016    2    1    2    0    0 -0.23116423174E+03 -0.44092261917E+01 -0.21816683925E+04  0.23060913535E+04  0.71058005363E+03 0.  0.
         23    2    3    3    0    0  0.57207226424E+02 -0.48321434674E+00 -0.21633719835E+03  0.23480805661E+03  0.71134659694E+02 0.  0.
         23    2    3    3    0    0 -0.24758228658E+02 -0.98235914197E+02 -0.19557738145E+03  0.24442509624E+03  0.10597099042E+03 0.  0.
        -15    1    5    5    0    0  0.34238342127E+02 -0.14274263445E+02 -0.23008013120E+02  0.43650742677E+02  0.00000000000E+00 0. -1.
        -15    1    4    4    0    0  0.26927581830E+02 -0.31952668264E+02 -0.64807943327E+02  0.77111200164E+02  0.00000000000E+00 0. -1.
         15    1    4    4    0    0  0.30279644594E+02  0.31469453917E+02 -0.15152925502E+03  0.15769685645E+03  0.00000000000E+00 0.  1.
         15    1    5    5    0    0 -0.58996570784E+02 -0.83961650752E+02 -0.17256936833E+03  0.20077435356E+03  0.00000000000E+00 0.  1.
        -16    1    1    2    0    0  0.23116423174E+03  0.44092261917E+01 -0.12601292844E+03  0.26331654229E+03  0.00000000000E+00 0.  1.
         16    1    3    3    0    0 -0.19994003936E+03 -0.51346013017E+02 -0.13894629173E+04  0.14047133626E+04  0.00000000000E+00 0. -1.
    9900018    1    3    3    0    0 -0.63673190151E+02  0.14565591537E+03 -0.38029089540E+03  0.42214483811E+03  0.91187600000E+02 0.  0.
<mgrwt>
<rscale>  0 0.11298070E+04</rscale>
<asrwt>0</asrwt>
<pdfrwt beam="1">  1        2 0.37516072E+00 0.11298070E+04</pdfrwt>
<pdfrwt beam="2">  1       -2 0.20132813E-01 0.11298070E+04</pdfrwt>
<totfact> 0.79664897E+01</totfact>
</mgrwt>
</event>
