<event>
12    1  0.5579327E-013  0.3911276E+04  0.7818608E-02  0.8494007E-01
         -2   -1    0    0    0  501 -0.00000000000E+00  0.00000000000E+00  0.21117959972E+04  0.21117959972E+04  0.00000000000E+00 0. -1.
          2   -1    0    0  501    0  0.00000000000E+00 -0.00000000000E+00 -0.30880338349E+04  0.30880338349E+04  0.00000000000E+00 0.  1.
         23    2    1    2    0    0  0.76998485886E+02 -0.41553913524E+03  0.79470274858E+03  0.90631010949E+03  0.10603780555E+03 0.  0.
    9900016    2    1    2    0    0 -0.61299034462E+03 -0.19386333409E+03 -0.14439482405E+04  0.27071522200E+04  0.21978049200E+04 0.  0.
         24    2    4    4    0    0 -0.14079753373E+04 -0.39582149415E+03 -0.10076400893E+04  0.17780919207E+04  0.84871214602E+02 0.  0.
        -15    1    3    3    0    0  0.53063809515E+02 -0.13008429469E+03  0.35212676224E+03  0.37911864672E+03  0.00000000000E+00 0. -1.
        -15    1    5    5    0    0 -0.26777908961E+03 -0.54414721354E+02 -0.15690726779E+03  0.31509759348E+03  0.00000000000E+00 0.  1.
         15    1    4    4    0    0  0.79498499271E+03  0.20195816006E+03 -0.43630815121E+03  0.92906029937E+03  0.00000000000E+00 0. -1.
         15    1    3    3    0    0  0.23934676371E+02 -0.28545484055E+03  0.44257598635E+03  0.52719146277E+03  0.00000000000E+00 0.  1.
        -16    1    1    2    0    0 -0.16215365958E+03  0.69795340120E+03  0.14902583518E+03  0.73187530298E+03  0.00000000000E+00 0.  1.
         16    1    5    5    0    0 -0.11401962477E+04 -0.34140677280E+03 -0.85073282150E+03  0.14629943272E+04  0.00000000000E+00 0. -1.
    9900018    1    1    2    0    0  0.69814551831E+03 -0.88550931863E+02 -0.47601818096E+03  0.85449219965E+03  0.91187600000E+02 0.  0.
<mgrwt>
<rscale>  0 0.22596382E+04</rscale>
<asrwt>0</asrwt>
<pdfrwt beam="1">  1        2 0.47508213E+00 0.39112761E+04</pdfrwt>
<pdfrwt beam="2">  1       -2 0.32489169E+00 0.39112761E+04</pdfrwt>
<totfact> 0.26094508E-02</totfact>
</mgrwt>
</event>
<event>
12    1  0.5579327E-013  0.4959083E+04  0.7818608E-02  0.8314564E-01
          2   -1    0    0  501    0  0.00000000000E+00  0.00000000000E+00  0.37559746479E+04  0.37559746479E+04  0.00000000000E+00 0. -1.
         -2   -1    0    0    0  501 -0.00000000000E+00 -0.00000000000E+00 -0.20436096569E+04  0.20436096569E+04  0.00000000000E+00 0.  1.
         23    2    1    2    0    0  0.39627579181E+03 -0.24670316246E+03 -0.15132562084E+03  0.50186328549E+03  0.10521577951E+03 0.  0.
    9900016    2    1    2    0    0  0.13884166214E+04 -0.13510954586E+03  0.13931425755E+04  0.29542996380E+04  0.22002465343E+04 0.  0.
         24    2    4    4    0    0 -0.28610416532E+03 -0.76139990649E+03  0.43154458038E+03  0.92429220330E+03  0.80622212832E+02 0.  0.
        -15    1    3    3    0    0  0.15481689654E+03 -0.14981920807E+03 -0.41191579425E+02  0.21934177162E+03  0.00000000000E+00 0.  1.
        -15    1    5    5    0    0 -0.79832307868E+02 -0.15856624597E+03  0.12581227540E+03  0.21758947673E+03  0.00000000000E+00 0.  1.
         15    1    3    3    0    0  0.24145889527E+03 -0.96883954398E+02 -0.11013404142E+03  0.28252151388E+03  0.00000000000E+00 0. -1.
         15    1    4    4    0    0  0.16745207867E+04  0.62629036063E+03  0.96159799508E+03  0.20300074347E+04  0.00000000000E+00 0. -1.
        -16    1    1    2    0    0 -0.17972672664E+04 -0.83027700905E+02  0.23571852490E+03  0.18145595744E+04  0.00000000000E+00 0.  1.
         16    1    5    5    0    0 -0.20627185745E+03 -0.60283366052E+03  0.30573230498E+03  0.70670272657E+03  0.00000000000E+00 0. -1.
    9900018    1    1    2    0    0  0.12574853199E+02  0.46484040922E+03  0.23482951148E+03  0.52886180694E+03  0.91187600000E+02 0.  0.
<mgrwt>
<rscale>  0 0.27639025E+04</rscale>
<asrwt>0</asrwt>
<pdfrwt beam="1">  1        2 0.57784225E+00 0.49590831E+04</pdfrwt>
<pdfrwt beam="2">  1       -2 0.31440149E+00 0.49590831E+04</pdfrwt>
<totfact> 0.98027844E-03</totfact>
</mgrwt>
</event>
<event>
12    1  0.5579327E-013  0.3526221E+04  0.7818608E-02  0.8680698E-01
          2   -1    0    0  501    0  0.00000000000E+00  0.00000000000E+00  0.26158709514E+04  0.26158709514E+04  0.00000000000E+00 0. -1.
         -2   -1    0    0    0  501 -0.00000000000E+00 -0.00000000000E+00 -0.19515211704E+04  0.19515211704E+04  0.00000000000E+00 0.  1.
         23    2    1    2    0    0  0.36476095346E+02 -0.25666315607E+03 -0.72874681390E+03  0.77596104768E+03  0.61944713443E+02 0.  0.
    9900016    2    1    2    0    0 -0.11764476184E+03 -0.28739195355E+03  0.68522426925E+03  0.23294911480E+04  0.22046682935E+04 0.  0.
        -24    2    4    4    0    0  0.55511611016E+03  0.50116189699E+03  0.99478488034E+03  0.12477092208E+04  0.88680317734E+02 0.  0.
        -15    1    4    4    0    0 -0.67276087200E+03 -0.78855385054E+03 -0.30956061109E+03  0.10817819272E+04  0.00000000000E+00 0.  1.
        -15    1    3    3    0    0  0.50447964343E+02 -0.15601767223E+03 -0.48127591376E+03  0.50844175312E+03  0.00000000000E+00 0. -1.
         15    1    3    3    0    0 -0.13971868997E+02 -0.10064548384E+03 -0.24747090014E+03  0.26751929456E+03  0.00000000000E+00 0.  1.
         15    1    5    5    0    0  0.36814622540E+03  0.29171639512E+03  0.57119507565E+03  0.73952276023E+03  0.00000000000E+00 0. -1.
        -16    1    5    5    0    0  0.18696988476E+03  0.20944550188E+03  0.42358980469E+03  0.50818646056E+03  0.00000000000E+00 0.  1.
         16    1    1    2    0    0  0.25304085972E+03  0.75151850905E+03  0.11092389720E+03  0.80069585805E+03  0.00000000000E+00 0. -1.
    9900018    1    1    2    0    0 -0.17187219323E+03 -0.20746339943E+03  0.59694842850E+03  0.66124406809E+03  0.91187600000E+02 0.  0.
<mgrwt>
<rscale>  0 0.18489397E+04</rscale>
<asrwt>0</asrwt>
<pdfrwt beam="1">  1        2 0.40244168E+00 0.35262206E+04</pdfrwt>
<pdfrwt beam="2">  1       -2 0.30023403E+00 0.35262206E+04</pdfrwt>
<totfact> 0.74824987E-02</totfact>
</mgrwt>
</event>
<event>
12    1  0.5579327E-013  0.3714005E+04  0.7818608E-02  0.8064865E-01
         -2   -1    0    0    0  501 -0.00000000000E+00  0.00000000000E+00  0.12467700400E+04  0.12467700400E+04  0.00000000000E+00 0.  1.
          2   -1    0    0  501    0  0.00000000000E+00 -0.00000000000E+00 -0.27659141369E+04  0.27659141369E+04  0.00000000000E+00 0. -1.
         23    2    1    2    0    0  0.26155008684E+03 -0.31724506770E+02 -0.76545218196E+03  0.81316634854E+03  0.76860752409E+02 0.  0.
    9900016    2    1    2    0    0 -0.12348329770E+03 -0.85293846310E+02 -0.10829023314E+04  0.24583525028E+04  0.22018847389E+04 0.  0.
        -24    2    4    4    0    0  0.60871230078E+03  0.50714343484E+03 -0.12690090089E+04  0.14982858270E+04  0.82167061799E+02 0.  0.
        -15    1    3    3    0    0  0.39568447470E+02 -0.10563270457E+02 -0.55206412792E+02  0.68738582552E+02  0.00000000000E+00 0.  1.
        -15    1    4    4    0    0 -0.73219559848E+03 -0.59243728115E+03  0.18610667749E+03  0.96006667577E+03  0.00000000000E+00 0.  1.
         15    1    5    5    0    0  0.82203363579E+02  0.81189481681E+02 -0.13759442298E+03  0.17967011481E+03  0.00000000000E+00 0. -1.
         15    1    3    3    0    0  0.22198163937E+03 -0.21161236313E+02 -0.71024576917E+03  0.74442776598E+03  0.00000000000E+00 0. -1.
        -16    1    5    5    0    0  0.52650893720E+03  0.42595395316E+03 -0.11314145860E+04  0.13186157122E+04  0.00000000000E+00 0.  1.
         16    1    1    2    0    0  0.70415538712E+02 -0.39497781739E+02 -0.16009218574E+03  0.17929844057E+03  0.00000000000E+00 0. -1.
    9900018    1    1    2    0    0 -0.20848232786E+03  0.15651613482E+03  0.48930260231E+03  0.56186688504E+03  0.91187600000E+02 0.  0.
<mgrwt>
<rscale>  0 0.37140053E+04</rscale>
<asrwt>0</asrwt>
<pdfrwt beam="1">  1        2 0.42552525E+00 0.37140053E+04</pdfrwt>
<pdfrwt beam="2">  1       -2 0.19181078E+00 0.37140053E+04</pdfrwt>
<totfact> 0.29501541E-01</totfact>
</mgrwt>
</event>
<event>
12    1  0.5579327E-013  0.4542290E+04  0.7818608E-02  0.8489322E-01
          2   -1    0    0  501    0  0.00000000000E+00  0.00000000000E+00  0.30454192648E+04  0.30454192648E+04  0.00000000000E+00 0. -1.
         -2   -1    0    0    0  501 -0.00000000000E+00 -0.00000000000E+00 -0.21371850608E+04  0.21371850608E+04  0.00000000000E+00 0.  1.
         23    2    1    2    0    0 -0.10547271563E+03 -0.23626337159E+03  0.55889522469E+03  0.62690082396E+03  0.11702946806E+03 0.  0.
    9900016    2    1    2    0    0  0.21492198688E+03 -0.12588081340E+04 -0.27633793811E+03  0.25674741886E+04  0.22101519573E+04 0.  0.
        -24    2    4    4    0    0 -0.87927497859E+02 -0.28832426710E+03  0.93531696056E+03  0.98580913564E+03  0.78356284513E+02 0.  0.
        -15    1    4    4    0    0  0.30284948474E+03 -0.97048386692E+03 -0.12116548987E+04  0.15816650530E+04  0.00000000000E+00 0.  1.
        -15    1    3    3    0    0 -0.73222091228E+02 -0.69231670065E+02  0.30556222401E+03  0.32174954783E+03  0.00000000000E+00 0. -1.
         15    1    3    3    0    0 -0.32250624402E+02 -0.16703170153E+03  0.25333300068E+03  0.30515127613E+03  0.00000000000E+00 0.  1.
         15    1    5    5    0    0  0.37484272635E+01 -0.92548505211E+02  0.34260829169E+03  0.35490804170E+03  0.00000000000E+00 0. -1.
        -16    1    5    5    0    0 -0.91675925123E+02 -0.19577576189E+03  0.59270866887E+03  0.63090109394E+03  0.00000000000E+00 0.  1.
         16    1    1    2    0    0 -0.37050384173E+02  0.16176227548E+04  0.74499480370E+03  0.17813178732E+04  0.00000000000E+00 0. -1.
    9900018    1    1    2    0    0 -0.72398887080E+02 -0.12255124918E+03 -0.11931788632E+03  0.20691143979E+03  0.91187600000E+02 0.  0.
<mgrwt>
<rscale>  0 0.22713050E+04</rscale>
<asrwt>0</asrwt>
<pdfrwt beam="1">  1        2 0.46852604E+00 0.45422898E+04</pdfrwt>
<pdfrwt beam="2">  1       -2 0.32879770E+00 0.45422898E+04</pdfrwt>
<totfact> 0.25456577E-02</totfact>
</mgrwt>
</event>
