<event>
11    1  0.1337654E-016  0.2715685E+04  0.7818608E-02  0.8988399E-01
          2   -1    0    0  501    0  0.00000000000E+00  0.00000000000E+00  0.17266469205E+04  0.17266469205E+04  0.00000000000E+00 0. -1.
         -2   -1    0    0    0  501 -0.00000000000E+00 -0.00000000000E+00 -0.12405404547E+04  0.12405404547E+04  0.00000000000E+00 0.  1.
        -24    2    1    2    0    0  0.12967124766E+03 -0.59967224472E+02 -0.91437195320E+02  0.19076879494E+03  0.87299896640E+02 0.  0.
    9900016    2    1    2    0    0 -0.64174782620E+03  0.29686698886E+03  0.52135566628E+03  0.19941908609E+04  0.17902556180E+04 0.  0.
        -15    1    1    2    0    0  0.55197616017E+03 -0.31312135129E+03 -0.21093488294E+02  0.63495479940E+03  0.00000000000E+00 0.  1.
        -15    1    4    4    0    0  0.37756128622E+03  0.10970561302E+03  0.30797798896E+03  0.49943797219E+03  0.00000000000E+00 0.  1.
         15    1    4    4    0    0 -0.12364736447E+04  0.18498036359E+03  0.11247952052E+03  0.12552834148E+04  0.00000000000E+00 0. -1.
         15    1    3    3    0    0  0.21079605568E+02 -0.31876797659E+02  0.10038072133E+02  0.39512566255E+02  0.00000000000E+00 0. -1.
        -16    1    3    3    0    0  0.10859164209E+03 -0.28090426812E+02 -0.10147526745E+03  0.15125622868E+03  0.00000000000E+00 0.  1.
         16    1    4    4    0    0  0.21716453229E+03  0.21810122541E+01  0.10089815679E+03  0.23946947393E+03  0.00000000000E+00 0. -1.
    9900018    1    1    2    0    0 -0.39899581628E+02  0.76221586898E+02  0.77281483099E+02  0.14727291994E+03  0.91187600000E+02 0.  0.
<mgrwt>
<rscale>  0 0.13532132E+04</rscale>
<asrwt>0</asrwt>
<pdfrwt beam="1">  1        2 0.26563799E+00 0.27156847E+04</pdfrwt>
<pdfrwt beam="2">  1       -2 0.19085238E+00 0.27156847E+04</pdfrwt>
<totfact> 0.12609188E+00</totfact>
</mgrwt>
</event>
<event>
11    1  0.1337654E-016  0.2740189E+04  0.7818608E-02  0.8590717E-01
          1   -1    0    0  501    0  0.00000000000E+00  0.00000000000E+00  0.10984976859E+04  0.10984976859E+04  0.00000000000E+00 0. -1.
         -1   -1    0    0    0  501 -0.00000000000E+00 -0.00000000000E+00 -0.30336450119E+04  0.30336450119E+04  0.00000000000E+00 0.  1.
        -24    2    1    2    0    0  0.71109768574E+03  0.42425121878E+03 -0.83577240789E+03  0.11796421998E+04  0.85972009886E+02 0.  0.
    9900016    2    1    2    0    0 -0.28603394628E+03 -0.26975739838E+03 -0.25089672411E+03  0.18574379948E+04  0.17979272138E+04 0.  0.
        -15    1    1    2    0    0 -0.42134728763E+03 -0.13261080990E+03 -0.88911180060E+03  0.99279351209E+03  0.00000000000E+00 0.  1.
        -15    1    4    4    0    0  0.35726545693E+03  0.10209533601E+03 -0.62243377053E+02  0.37674434612E+03  0.00000000000E+00 0.  1.
         15    1    4    4    0    0 -0.10054991631E+04 -0.44336530631E+03 -0.12399554752E+03  0.11058825695E+04  0.00000000000E+00 0. -1.
         15    1    3    3    0    0  0.33987283995E+03  0.16029080141E+03 -0.40959995454E+03  0.55585862511E+03  0.00000000000E+00 0. -1.
        -16    1    3    3    0    0  0.37122484579E+03  0.26396041737E+03 -0.42617245335E+03  0.62378357470E+03  0.00000000000E+00 0.  1.
         16    1    4    4    0    0  0.36219975988E+03  0.71512571923E+02 -0.64657799545E+02  0.37481107914E+03  0.00000000000E+00 0. -1.
    9900018    1    1    2    0    0 -0.37164518331E+01 -0.21883010497E+02  0.40633606626E+02  0.10226899112E+03  0.91187600000E+02 0.  0.
<mgrwt>
<rscale>  0 0.20343712E+04</rscale>
<asrwt>0</asrwt>
<pdfrwt beam="1">  1        1 0.16899965E+00 0.27401887E+04</pdfrwt>
<pdfrwt beam="2">  1       -1 0.46671461E+00 0.27401887E+04</pdfrwt>
<totfact> 0.26769870E-02</totfact>
</mgrwt>
</event>
<event>
11    1  0.1337654E-016  0.2380440E+04  0.7818608E-02  0.8446863E-01
         -2   -1    0    0    0  501 -0.00000000000E+00  0.00000000000E+00  0.68084516848E+03  0.68084516848E+03  0.00000000000E+00 0.  1.
          2   -1    0    0  501    0  0.00000000000E+00 -0.00000000000E+00 -0.20806846254E+04  0.20806846254E+04  0.00000000000E+00 0. -1.
         24    2    1    2    0    0 -0.11435271714E+02  0.21978628184E+03  0.49091233155E+02  0.23875829962E+03  0.78478030957E+02 0.  0.
    9900016    2    1    2    0    0  0.37933496825E+02 -0.12214416444E+03 -0.11870592396E+04  0.22420353270E+04  0.18976971893E+04 0.  0.
        -15    1    3    3    0    0 -0.31804297555E+02  0.58431397201E+02 -0.65977936071E+01  0.66852617019E+02  0.00000000000E+00 0.  1.
        -15    1    4    4    0    0  0.45301559521E+03 -0.66794127725E+03 -0.29292951897E+03  0.85858976376E+03  0.00000000000E+00 0.  1.
         15    1    4    4    0    0 -0.22814139681E+03  0.13404632681E+03 -0.80784054763E+03  0.85007250577E+03  0.00000000000E+00 0. -1.
         15    1    1    2    0    0 -0.26498225110E+02 -0.97642117401E+02 -0.26187145050E+03  0.28073616726E+03  0.00000000000E+00 0. -1.
        -16    1    4    4    0    0 -0.20583642854E+03  0.36481429995E+03 -0.45289530034E+02  0.42131846659E+03  0.00000000000E+00 0.  1.
         16    1    3    3    0    0  0.20369025841E+02  0.16135488464E+03  0.55689026762E+02  0.17190568260E+03  0.00000000000E+00 0. -1.
    9900018    1    4    4    0    0  0.18895726961E+02  0.46936486052E+02 -0.40999642946E+02  0.11205459087E+03  0.91187600000E+02 0.  0.
<mgrwt>
<rscale>  0 0.23804404E+04</rscale>
<asrwt>0</asrwt>
<pdfrwt beam="1">  1        2 0.32010532E+00 0.23804404E+04</pdfrwt>
<pdfrwt beam="2">  1       -2 0.10474541E+00 0.23804404E+04</pdfrwt>
<totfact> 0.40111427E+00</totfact>
</mgrwt>
</event>
<event>
11    1  0.1337654E-016  0.4588810E+04  0.7818608E-02  0.8597306E-01
         -1   -1    0    0    0  501 -0.00000000000E+00  0.00000000000E+00  0.21839325305E+04  0.21839325305E+04  0.00000000000E+00 0.  1.
          1   -1    0    0  501    0  0.00000000000E+00 -0.00000000000E+00 -0.32482525167E+04  0.32482525167E+04  0.00000000000E+00 0. -1.
         24    2    1    2    0    0  0.15280703631E+03 -0.50060917903E+01  0.54325805703E+03  0.56993378386E+03  0.79499372011E+02 0.  0.
    9900016    2    1    2    0    0 -0.16220035490E+04 -0.62881698733E+03 -0.19344241508E+03  0.25067909058E+04  0.17945122905E+04 0.  0.
        -15    1    4    4    0    0 -0.10117143818E+04 -0.24309522860E+03 -0.98225519109E+03  0.14309040992E+04  0.00000000000E+00 0.  1.
        -15    1    3    3    0    0  0.15065265499E+03 -0.19683200247E+02  0.52425126130E+03  0.54582326425E+03  0.00000000000E+00 0.  1.
         15    1    4    4    0    0 -0.12483959341E+03 -0.13081497966E+03  0.23554143253E+03  0.29694654305E+03  0.00000000000E+00 0. -1.
         15    1    1    2    0    0  0.15816754414E+04  0.68600071464E+03 -0.13455330069E+04  0.21869506751E+04  0.00000000000E+00 0. -1.
        -16    1    4    4    0    0 -0.48544957378E+03 -0.25490677907E+03  0.55327134348E+03  0.77894026357E+03  0.00000000000E+00 0.  1.
         16    1    3    3    0    0  0.21543813220E+01  0.14677108457E+02  0.19006795737E+02  0.24110519607E+02  0.00000000000E+00 0. -1.
    9900018    1    1    2    0    0 -0.11247892872E+03 -0.52177635523E+02 -0.68602621225E+02  0.16850968247E+03  0.91187600000E+02 0.  0.
<mgrwt>
<rscale>  0 0.20200442E+04</rscale>
<asrwt>0</asrwt>
<pdfrwt beam="1">  1        1 0.49973115E+00 0.45888103E+04</pdfrwt>
<pdfrwt beam="2">  1       -1 0.33598962E+00 0.45888103E+04</pdfrwt>
<totfact> 0.54670951E-03</totfact>
</mgrwt>
</event>
<event>
11    1  0.1337654E-016  0.3722225E+04  0.7818608E-02  0.8342927E-01
         -2   -1    0    0    0  501 -0.00000000000E+00  0.00000000000E+00  0.25530761782E+04  0.25530761782E+04  0.00000000000E+00 0.  1.
          2   -1    0    0  501    0  0.00000000000E+00 -0.00000000000E+00 -0.22085485910E+04  0.22085485910E+04  0.00000000000E+00 0. -1.
         24    2    1    2    0    0 -0.90300431137E+02 -0.98682362421E+03  0.30331155535E+03  0.10391718912E+04  0.76845863051E+02 0.  0.
    9900016    2    1    2    0    0 -0.11069985726E+04  0.67103066064E+03 -0.53373140134E+03  0.23572369056E+04  0.18963039401E+04 0.  0.
        -15    1    3    3    0    0 -0.36456692119E+02 -0.18549594992E+03  0.33938561389E+02  0.19206682114E+03  0.00000000000E+00 0.  1.
        -15    1    4    4    0    0 -0.60015447040E+03  0.11681758242E+03  0.65015405841E+03  0.89248643439E+03  0.00000000000E+00 0.  1.
         15    1    4    4    0    0 -0.46005913009E+03  0.45336129956E+03 -0.10441642772E+04  0.12277906616E+04  0.00000000000E+00 0. -1.
         15    1    1    2    0    0  0.11972990038E+04  0.31579296357E+03  0.57494743318E+03  0.13652159723E+04  0.00000000000E+00 0. -1.
        -16    1    4    4    0    0 -0.46065012159E+02  0.37533271307E+02 -0.10498606872E+03  0.12063501326E+03  0.00000000000E+00 0.  1.
         16    1    3    3    0    0 -0.53843739018E+02 -0.80132767429E+03  0.26937299396E+03  0.84710507004E+03  0.00000000000E+00 0. -1.
    9900018    1    4    4    0    0 -0.71995996743E+00  0.63318507358E+02 -0.34735113862E+02  0.11632479635E+03  0.91187600000E+02 0.  0.
<mgrwt>
<rscale>  0 0.26757161E+04</rscale>
<asrwt>0</asrwt>
<pdfrwt beam="1">  1        2 0.33977671E+00 0.37222247E+04</pdfrwt>
<pdfrwt beam="2">  1       -2 0.39278095E+00 0.37222247E+04</pdfrwt>
<totfact> 0.32930956E-02</totfact>
</mgrwt>
</event>
<event>
12    1  0.1337654E-016  0.6357439E+04  0.7818608E-02  0.8109906E-01
         -2   -1    0    0    0  501 -0.00000000000E+00  0.00000000000E+00  0.26117670429E+04  0.26117670429E+04  0.00000000000E+00 0.  1.
          2   -1    0    0  501    0  0.00000000000E+00 -0.00000000000E+00 -0.46583565206E+04  0.46583565206E+04  0.00000000000E+00 0. -1.
        -24    2    1    2    0    0  0.27205613442E+03 -0.52284196483E+03 -0.34932652017E+03  0.69002255940E+03  0.81999111748E+02 0.  0.
    9900016    2    1    2    0    0 -0.16028260830E+04 -0.95628590731E+03 -0.28785311891E+04  0.38753885669E+04  0.18025428008E+04 0.  0.
         24    2    4    4    0    0  0.22880569003E+03  0.25241495006E+03 -0.15722085470E+03  0.37948201053E+03  0.56770136170E+02 0.  0.
        -15    1    1    2    0    0  0.14301338444E+04  0.15161675348E+04  0.13517485599E+04  0.24842042942E+04  0.00000000000E+00 0.  1.
        -15    1    5    5    0    0  0.18098135634E+02  0.36341333967E+02 -0.35940992625E+02  0.54221674807E+02  0.00000000000E+00 0.  1.
         15    1    3    3    0    0  0.85035204277E+02 -0.92668185289E+02 -0.81668656098E+02  0.14996048786E+03  0.00000000000E+00 0. -1.
         15    1    4    4    0    0 -0.18316317731E+04 -0.12087008574E+04 -0.27213103344E+04  0.34959065564E+04  0.00000000000E+00 0. -1.
        -16    1    3    3    0    0  0.18702093014E+03 -0.43017377954E+03 -0.26765786407E+03  0.54006207154E+03  0.00000000000E+00 0.  1.
         16    1    5    5    0    0  0.21070755440E+03  0.21607361609E+03 -0.12127986207E+03  0.32526033573E+03  0.00000000000E+00 0. -1.
    9900018    1    1    2    0    0 -0.99363895745E+02 -0.37039662618E+02 -0.17048032827E+03  0.22050814295E+03  0.91187600000E+02 0.  0.
<mgrwt>
<rscale>  0 0.35164363E+04</rscale>
<asrwt>0</asrwt>
<pdfrwt beam="1">  1        2 0.71667023E+00 0.63574388E+04</pdfrwt>
<pdfrwt beam="2">  1       -2 0.40181032E+00 0.63574388E+04</pdfrwt>
<totfact> 0.38791633E-04</totfact>
</mgrwt>
</event>
<event>
12    1  0.1337654E-016  0.4555107E+04  0.7818608E-02  0.8318686E-01
         -1   -1    0    0    0  501 -0.00000000000E+00  0.00000000000E+00  0.30765607659E+04  0.30765607659E+04  0.00000000000E+00 0.  1.
          1   -1    0    0  501    0  0.00000000000E+00 -0.00000000000E+00 -0.23041220125E+04  0.23041220125E+04  0.00000000000E+00 0. -1.
        -24    2    1    2    0    0 -0.93951046378E+02  0.59317043525E+03  0.55298802970E+03  0.82029311769E+03  0.80044197561E+02 0.  0.
    9900016    2    1    2    0    0 -0.81454937791E+03  0.93651883604E+03 -0.74083889015E+03  0.23108753614E+04  0.18029821007E+04 0.  0.
         24    2    4    4    0    0  0.13700111030E+03 -0.41853609341E+03 -0.44327105905E+03  0.62856480517E+03  0.68284088879E+02 0.  0.
        -15    1    5    5    0    0  0.12563547205E+03 -0.30395935830E+03 -0.30413411081E+03  0.44796553516E+03  0.00000000000E+00 0.  1.
        -15    1    1    2    0    0  0.94857104370E+03 -0.15850582279E+04  0.10309444628E+04  0.21154297663E+04  0.00000000000E+00 0.  1.
         15    1    3    3    0    0 -0.91018182309E+02  0.32009904785E+03  0.30320957468E+03  0.45020412718E+03  0.00000000000E+00 0. -1.
         15    1    4    4    0    0 -0.95155048822E+03  0.13550549295E+04 -0.29756783110E+03  0.16823105562E+04  0.00000000000E+00 0. -1.
        -16    1    3    3    0    0 -0.29328640693E+01  0.27307138740E+03  0.24977845501E+03  0.37008899051E+03  0.00000000000E+00 0.  1.
         16    1    5    5    0    0  0.11365638256E+02 -0.11457673511E+03 -0.13913694824E+03  0.18059927001E+03  0.00000000000E+00 0. -1.
    9900018    1    1    2    0    0 -0.40070619409E+02  0.55368956585E+02 -0.70654848987E+02  0.13408453293E+03  0.91187600000E+02 0.  0.
<mgrwt>
<rscale>  0 0.27508683E+04</rscale>
<asrwt>0</asrwt>
<pdfrwt beam="1">  1        1 0.35448031E+00 0.45551065E+04</pdfrwt>
<pdfrwt beam="2">  1       -1 0.47331704E+00 0.45551065E+04</pdfrwt>
<totfact> 0.30291471E-03</totfact>
</mgrwt>
</event>
<event>
12    1  0.1430232E-016  0.2236691E+04  0.7818608E-02  0.9073291E-01
          2   -1    0    0  501    0  0.00000000000E+00  0.00000000000E+00  0.36885562346E+04  0.36885562346E+04  0.00000000000E+00 0. -1.
         -2   -1    0    0    0  501 -0.00000000000E+00 -0.00000000000E+00 -0.54494426834E+03  0.54494426834E+03  0.00000000000E+00 0.  1.
        -24    2    1    2    0    0 -0.89240631493E+02  0.17991250346E+03 -0.14248725706E+03  0.25842382084E+03  0.78408249209E+02 0.  0.
    9900016    2    1    2    0    0  0.23553848019E+03 -0.40517976468E+03  0.30441280144E+04  0.36135542548E+04  0.18898174427E+04 0.  0.
         24    2    4    4    0    0 -0.25376641900E+03 -0.10130558639E+04  0.16803802222E+04  0.19811434347E+04  0.10282042158E+03 0.  0.
        -15    1    1    2    0    0 -0.14629784869E+03  0.22526726122E+03  0.24197120885E+03  0.36152242727E+03  0.00000000000E+00 0.  1.
        -15    1    5    5    0    0 -0.17605380353E+03 -0.52088610881E+03  0.83211437168E+03  0.99736232516E+03  0.00000000000E+00 0.  1.
         15    1    3    3    0    0 -0.94971897510E+02  0.11957710920E+03 -0.84400545926E+02  0.17447578203E+03  0.00000000000E+00 0. -1.
         15    1    4    4    0    0  0.48330363069E+03  0.62727350401E+03  0.11224725052E+04  0.13736808120E+04  0.00000000000E+00 0. -1.
        -16    1    3    3    0    0  0.57312660170E+01  0.60335394265E+02 -0.58086711134E+02  0.83948038819E+02  0.00000000000E+00 0.  1.
         16    1    5    5    0    0 -0.77712615467E+02 -0.49216975508E+03  0.84826585051E+03  0.98378110958E+03  0.00000000000E+00 0. -1.
    9900018    1    4    4    0    0  0.60012684954E+01 -0.19397404801E+02  0.24127528704E+03  0.25873000806E+03  0.91187600000E+02 0.  0.
<mgrwt>
<rscale>  0 0.12462726E+04</rscale>
<asrwt>0</asrwt>
<pdfrwt beam="1">  1        2 0.56747017E+00 0.22366910E+04</pdfrwt>
<pdfrwt beam="2">  1       -2 0.83837582E-01 0.22366910E+04</pdfrwt>
<totfact> 0.66833059E-01</totfact>
</mgrwt>
</event>
<event>
11    1  0.1337654E-016  0.4369193E+04  0.7818608E-02  0.8317211E-01
          2   -1    0    0  501    0  0.00000000000E+00  0.00000000000E+00  0.27908788922E+04  0.27908788922E+04  0.00000000000E+00 0. -1.
         -2   -1    0    0    0  501 -0.00000000000E+00 -0.00000000000E+00 -0.23465357601E+04  0.23465357601E+04  0.00000000000E+00 0.  1.
         24    2    1    2    0    0  0.25502130666E+03 -0.63812186941E+03 -0.20328085417E+03  0.72048498779E+03  0.74432015293E+02 0.  0.
    9900016    2    1    2    0    0 -0.94984301649E+03 -0.14607049835E+03  0.17269573124E+04  0.26752598498E+04  0.18030794100E+04 0.  0.
        -15    1    3    3    0    0  0.19309942238E+03 -0.45101767081E+03 -0.17742100599E+03  0.52171116499E+03  0.00000000000E+00 0.  1.
        -15    1    4    4    0    0 -0.12572516948E+04  0.36069608263E+03  0.70795283210E+03  0.14872729073E+04  0.00000000000E+00 0.  1.
         15    1    1    2    0    0  0.76052590259E+03  0.77548208981E+03 -0.11704018563E+04  0.15967506460E+04  0.00000000000E+00 0. -1.
         15    1    4    4    0    0  0.19099832070E+03 -0.17872417984E+03  0.47155536313E+03  0.53924683724E+03  0.00000000000E+00 0. -1.
        -16    1    4    4    0    0  0.11641035765E+03 -0.32804240115E+03  0.54744911718E+03  0.64874010530E+03  0.00000000000E+00 0.  1.
         16    1    3    3    0    0  0.61921884282E+02 -0.18710419859E+03 -0.25859848173E+02  0.19877382280E+03  0.00000000000E+00 0. -1.
    9900018    1    1    2    0    0 -0.65704192756E+02  0.87102779471E+01  0.91068530125E+02  0.14491916871E+03  0.91187600000E+02 0.  0.
<mgrwt>
<rscale>  0 0.27555227E+04</rscale>
<asrwt>0</asrwt>
<pdfrwt beam="1">  1        2 0.42936598E+00 0.43691934E+04</pdfrwt>
<pdfrwt beam="2">  1       -2 0.36100550E+00 0.43691934E+04</pdfrwt>
<totfact> 0.23132326E-02</totfact>
</mgrwt>
</event>
<event>
12    1  0.1337654E-016  0.2637418E+04  0.7818608E-02  0.8940932E-01
         -1   -1    0    0    0  501 -0.00000000000E+00  0.00000000000E+00  0.57988432667E+03  0.57988432667E+03  0.00000000000E+00 0.  1.
          1   -1    0    0  501    0  0.00000000000E+00 -0.00000000000E+00 -0.35232024268E+04  0.35232024268E+04  0.00000000000E+00 0. -1.
         24    2    1    2    0    0 -0.27520863711E+02  0.20319739224E+03 -0.25593444934E+03  0.33771763261E+03  0.80648489527E+02 0.  0.
    9900016    2    1    2    0    0  0.43022306145E+03  0.26715192041E+03 -0.17996373101E+04  0.25965353310E+04  0.18018987891E+04 0.  0.
        -24    2    4    4    0    0  0.11164104594E+04  0.32328534169E+03 -0.13062407561E+04  0.17495145134E+04  0.60418487804E+02 0.  0.
        -15    1    4    4    0    0 -0.68618739792E+03 -0.56133421277E+02 -0.49339655392E+03  0.84702081761E+03  0.00000000000E+00 0.  1.
        -15    1    3    3    0    0 -0.35864967922E+02  0.50344679586E+02 -0.11024099188E+03  0.12638812831E+03  0.00000000000E+00 0.  1.
         15    1    5    5    0    0  0.32926259076E+03  0.10363777605E+03 -0.34881238721E+03  0.49073895685E+03  0.00000000000E+00 0. -1.
         15    1    1    2    0    0 -0.42980783872E+03 -0.50030413669E+03 -0.79059669673E+03  0.10296029061E+04  0.00000000000E+00 0. -1.
        -16    1    5    5    0    0  0.78714786862E+03  0.21964756564E+03 -0.95742836893E+03  0.12587755566E+04  0.00000000000E+00 0.  1.
         16    1    3    3    0    0  0.83441042103E+01  0.15285271265E+03 -0.14569345746E+03  0.21132950430E+03  0.00000000000E+00 0. -1.
    9900018    1    1    2    0    0  0.27105640974E+02  0.29954824040E+02 -0.97149643975E+02  0.13923088369E+03  0.91187600000E+02 0.  0.
<mgrwt>
<rscale>  0 0.14179430E+04</rscale>
<asrwt>0</asrwt>
<pdfrwt beam="1">  1        1 0.54203114E+00 0.26374180E+04</pdfrwt>
<pdfrwt beam="2">  1       -1 0.89212974E-01 0.26374180E+04</pdfrwt>
<totfact> 0.25757978E-01</totfact>
</mgrwt>
</event>
<event>
12    1  0.1337654E-016  0.3150499E+04  0.7818608E-02  0.8546481E-01
         -1   -1    0    0    0  501 -0.00000000000E+00  0.00000000000E+00  0.39662536456E+04  0.39662536456E+04  0.00000000000E+00 0.  1.
          1   -1    0    0  501    0  0.00000000000E+00 -0.00000000000E+00 -0.96031222395E+03  0.96031222395E+03  0.00000000000E+00 0. -1.
         24    2    1    2    0    0  0.88010251894E+02  0.65220053675E+03  0.16241932269E+03  0.68259833661E+03  0.80306339622E+02 0.  0.
    9900016    2    1    2    0    0  0.64140904337E+03 -0.91598967544E+03  0.18780462916E+04  0.28315992856E+04  0.18001261051E+04 0.  0.
        -24    2    4    4    0    0 -0.10556659322E+03  0.49736080260E+03  0.56327123972E+03  0.76177668149E+03  0.67209741862E+02 0.  0.
        -15    1    3    3    0    0  0.74934353998E+02  0.35223268532E+03  0.11873339657E+03  0.37918417883E+03  0.00000000000E+00 0.  1.
        -15    1    4    4    0    0  0.74697563659E+03 -0.14133504780E+04  0.13147750519E+04  0.20698226041E+04  0.00000000000E+00 0.  1.
         15    1    1    2    0    0 -0.82103049477E+03  0.33067821255E+03  0.81973741888E+03  0.12064031621E+04  0.00000000000E+00 0. -1.
         15    1    5    5    0    0 -0.86971660818E+02  0.26945147205E+03  0.28718135420E+03  0.40328810518E+03  0.00000000000E+00 0. -1.
        -16    1    5    5    0    0 -0.18594932397E+02  0.22790933055E+03  0.27608988552E+03  0.35848857631E+03  0.00000000000E+00 0.  1.
         16    1    3    3    0    0  0.13075897897E+02  0.29996785143E+03  0.43685926116E+02  0.30341415778E+03  0.00000000000E+00 0. -1.
    9900018    1    1    2    0    0  0.91611199507E+02 -0.66889073854E+02  0.14573838854E+03  0.20596508531E+03  0.91187600000E+02 0.  0.
<mgrwt>
<rscale>  0 0.21338401E+04</rscale>
<asrwt>0</asrwt>
<pdfrwt beam="1">  1        1 0.14774034E+00 0.31504988E+04</pdfrwt>
<pdfrwt beam="2">  1       -1 0.61019286E+00 0.31504988E+04</pdfrwt>
<totfact> 0.53364590E-03</totfact>
</mgrwt>
</event>
<event>
12    1  0.1337654E-016  0.2897506E+04  0.7818608E-02  0.8903071E-01
          2   -1    0    0  501    0  0.00000000000E+00  0.00000000000E+00  0.23040117478E+04  0.23040117478E+04  0.00000000000E+00 0. -1.
         -2   -1    0    0    0  501 -0.00000000000E+00 -0.00000000000E+00 -0.10403727776E+04  0.10403727776E+04  0.00000000000E+00 0.  1.
         24    2    1    2    0    0  0.15595380972E+03  0.77979456787E+02  0.31237740111E+02  0.19567807893E+03  0.83136801229E+02 0.  0.
    9900016    2    1    2    0    0 -0.54541610291E+03  0.18330268395E+03  0.16706207995E+03  0.19847061288E+04  0.18921073119E+04 0.  0.
        -24    2    4    4    0    0  0.40278082841E+03  0.62476705982E+03  0.29972239388E+03  0.80674112009E+03  0.91822909288E+02 0.  0.
        -15    1    3    3    0    0  0.99111954504E+02  0.90630734618E+02  0.14471424398E+02  0.13507972352E+03  0.00000000000E+00 0.  1.
        -15    1    4    4    0    0 -0.94943900407E+03 -0.48852054470E+03 -0.12541925827E+03  0.10750891756E+04  0.00000000000E+00 0.  1.
         15    1    1    2    0    0  0.38946229319E+03 -0.26128214073E+03  0.10653391501E+04  0.11640003177E+04  0.00000000000E+00 0. -1.
         15    1    5    5    0    0  0.25263760475E+03  0.38999090917E+03  0.23468338578E+03  0.52057176271E+03  0.00000000000E+00 0. -1.
        -16    1    5    5    0    0  0.15014322366E+03  0.23477615066E+03  0.65039008097E+02  0.28616935738E+03  0.00000000000E+00 0.  1.
         16    1    3    3    0    0  0.56841855214E+02 -0.12651277831E+02  0.16766315712E+02  0.60598355403E+02  0.00000000000E+00 0. -1.
    9900018    1    4    4    0    0  0.12420727426E+01  0.47056168828E+02 -0.72410556566E+01  0.10287583317E+03  0.91187600000E+02 0.  0.
<mgrwt>
<rscale>  0 0.14723207E+04</rscale>
<asrwt>0</asrwt>
<pdfrwt beam="1">  1        2 0.35446335E+00 0.28975057E+04</pdfrwt>
<pdfrwt beam="2">  1       -2 0.16005735E+00 0.28975057E+04</pdfrwt>
<totfact> 0.97290282E-01</totfact>
</mgrwt>
</event>
<event>
11    1  0.1337654E-016  0.4219242E+04  0.7818608E-02  0.8378896E-01
          1   -1    0    0  501    0  0.00000000000E+00  0.00000000000E+00  0.48433934949E+04  0.48433934949E+04  0.00000000000E+00 0. -1.
         -1   -1    0    0    0  501 -0.00000000000E+00 -0.00000000000E+00 -0.14735584374E+04  0.14735584374E+04  0.00000000000E+00 0.  1.
        -24    2    1    2    0    0  0.37046225144E+03  0.43883402702E+03 -0.36260328038E+03  0.68373776116E+03  0.78731214137E+02 0.  0.
    9900016    2    1    2    0    0  0.14028933718E+03  0.11074871545E+04  0.32698505675E+04  0.39402983944E+04  0.18941541139E+04 0.  0.
        -15    1    4    4    0    0  0.21925180319E+02 -0.20804786635E+03  0.85243169195E+03  0.87772684684E+03  0.00000000000E+00 0.  1.
        -15    1    1    2    0    0 -0.51075158862E+03 -0.15463211815E+04  0.46258777038E+03  0.16929157767E+04  0.00000000000E+00 0.  1.
         15    1    3    3    0    0  0.22186685063E+03  0.20561641129E+03 -0.17336311340E+03  0.34865136898E+03  0.00000000000E+00 0. -1.
         15    1    4    4    0    0 -0.27169878951E+02  0.13904832306E+04  0.13566390673E+04  0.19428462048E+04  0.00000000000E+00 0. -1.
        -16    1    3    3    0    0  0.14859540081E+03  0.23321761572E+03 -0.18924016698E+03  0.33508639218E+03  0.00000000000E+00 0.  1.
         16    1    4    4    0    0  0.13328442904E+03 -0.17279233710E+03  0.75146401568E+03  0.78250884829E+03  0.00000000000E+00 0. -1.
    9900018    1    4    4    0    0  0.12249606767E+02  0.97844127381E+02  0.30931579263E+03  0.33721649439E+03  0.91187600000E+02 0.  0.
<mgrwt>
<rscale>  0 0.25687446E+04</rscale>
<asrwt>0</asrwt>
<pdfrwt beam="1">  1        1 0.74513745E+00 0.42192423E+04</pdfrwt>
<pdfrwt beam="2">  1       -1 0.22670130E+00 0.42192423E+04</pdfrwt>
<totfact> 0.98644410E-04</totfact>
</mgrwt>
</event>
<event>
12    1  0.1337654E-016  0.2721111E+04  0.7818608E-02  0.8979795E-01
         -2   -1    0    0    0  501 -0.00000000000E+00  0.00000000000E+00  0.16326023286E+04  0.16326023286E+04  0.00000000000E+00 0.  1.
          2   -1    0    0  501    0  0.00000000000E+00 -0.00000000000E+00 -0.15737658151E+04  0.15737658151E+04  0.00000000000E+00 0. -1.
        -24    2    1    2    0    0  0.11625709363E+03  0.99717510114E+02  0.42706853596E+03  0.46045505326E+03  0.78562255733E+02 0.  0.
    9900016    2    1    2    0    0  0.16614921183E+03 -0.12636847804E+03 -0.83947858906E+03  0.19972185682E+04  0.18001619802E+04 0.  0.
         24    2    4    4    0    0 -0.43315458563E+03  0.60927554288E+03 -0.37949461604E+02  0.75512915546E+03  0.99701041069E+02 0.  0.
        -15    1    5    5    0    0 -0.26758440717E+03  0.29044874635E+03 -0.20026255257E+02  0.39542754092E+03  0.00000000000E+00 0.  1.
        -15    1    1    2    0    0 -0.26866350527E+03  0.14225170096E+02  0.55926337083E+03  0.62061095098E+03  0.00000000000E+00 0.  1.
         15    1    3    3    0    0  0.82200344686E+02  0.10899425866E+03  0.32744135594E+03  0.35475975909E+03  0.00000000000E+00 0. -1.
         15    1    4    4    0    0  0.59930379746E+03 -0.73564402092E+03 -0.80152912746E+03  0.12420894128E+04  0.00000000000E+00 0. -1.
        -16    1    3    3    0    0  0.34056748940E+02 -0.92767485479E+01  0.99627180016E+02  0.10569529417E+03  0.00000000000E+00 0.  1.
         16    1    5    5    0    0 -0.16557017846E+03  0.31882679653E+03 -0.17923206346E+02  0.35970161455E+03  0.00000000000E+00 0. -1.
    9900018    1    1    2    0    0 -0.13742800188E+02  0.12425797829E+02 -0.88016804147E+02  0.12808357121E+03  0.91187600000E+02 0.  0.
<mgrwt>
<rscale>  0 0.13646728E+04</rscale>
<asrwt>0</asrwt>
<pdfrwt beam="1">  1        2 0.24211782E+00 0.27211108E+04</pdfrwt>
<pdfrwt beam="2">  1       -2 0.25116959E+00 0.27211108E+04</pdfrwt>
<totfact> 0.62821547E-01</totfact>
</mgrwt>
</event>
<event>
12    1  0.1337654E-016  0.2285208E+04  0.7818608E-02  0.9054959E-01
          1   -1    0    0  501    0  0.00000000000E+00  0.00000000000E+00  0.16770059038E+04  0.16770059038E+04  0.00000000000E+00 0. -1.
         -1   -1    0    0    0  501 -0.00000000000E+00 -0.00000000000E+00 -0.93332224623E+03  0.93332224623E+03  0.00000000000E+00 0.  1.
         24    2    1    2    0    0  0.98568089601E+02 -0.17610067065E+03  0.66135322805E+02  0.22679099478E+03  0.79581152917E+02 0.  0.
    9900016    2    1    2    0    0 -0.17616259041E+03  0.48225678828E+03  0.47022781536E+03  0.20057352592E+04  0.18810249502E+04 0.  0.
        -24    2    4    4    0    0 -0.64996981890E+02 -0.57496835163E+03  0.62890076994E+03  0.86165915289E+03  0.11012313246E+03 0.  0.
        -15    1    3    3    0    0  0.70010875130E+02 -0.50170273203E+02  0.40348822769E+02  0.95113650170E+02  0.00000000000E+00 0.  1.
        -15    1    4    4    0    0 -0.81857895142E+02  0.10120554587E+04 -0.19138606283E+03  0.10332403358E+04  0.00000000000E+00 0.  1.
         15    1    1    2    0    0  0.77594500811E+02 -0.30615611764E+03  0.20732051941E+03  0.37780189609E+03  0.00000000000E+00 0. -1.
         15    1    5    5    0    0 -0.72883420501E+02 -0.34638097904E+03  0.31905499285E+03  0.47653736903E+03  0.00000000000E+00 0. -1.
        -16    1    5    5    0    0  0.78864386110E+01 -0.22858737259E+03  0.30984577709E+03  0.38512178386E+03  0.00000000000E+00 0.  1.
         16    1    3    3    0    0  0.28557214471E+02 -0.12593039744E+03  0.25786500036E+02  0.13167734461E+03  0.00000000000E+00 0. -1.
    9900018    1    4    4    0    0 -0.29307713380E+02  0.45169681185E+02  0.32713108256E+02  0.11083577043E+03  0.91187600000E+02 0.  0.
<mgrwt>
<rscale>  0 0.12684584E+04</rscale>
<asrwt>0</asrwt>
<pdfrwt beam="1">  1        1 0.25800091E+00 0.22852084E+04</pdfrwt>
<pdfrwt beam="2">  1       -1 0.14358804E+00 0.22852084E+04</pdfrwt>
<totfact> 0.17420356E+00</totfact>
</mgrwt>
</event>
<event>
12    1  0.1337654E-016  0.3245889E+04  0.7818608E-02  0.8543322E-01
         -2   -1    0    0    0  501 -0.00000000000E+00  0.00000000000E+00  0.15697624344E+04  0.15697624344E+04  0.00000000000E+00 0.  1.
          2   -1    0    0  501    0  0.00000000000E+00 -0.00000000000E+00 -0.25537236406E+04  0.25537236406E+04  0.00000000000E+00 0. -1.
        -24    2    1    2    0    0  0.18547419215E+02 -0.60909674162E+03  0.23252595626E+03  0.65712851326E+03  0.80041958971E+02 0.  0.
    9900016    2    1    2    0    0 -0.51638328175E+03  0.10883469469E+04 -0.12515737009E+04  0.24932561119E+04  0.17885017586E+04 0.  0.
         24    2    4    4    0    0  0.64072706669E+03  0.33967770444E+03 -0.19557492552E+03  0.75701206036E+03  0.94369439684E+02 0.  0.
        -15    1    1    2    0    0  0.48756129628E+03 -0.57692527916E+03  0.17918262857E+03  0.77631514847E+03  0.00000000000E+00 0.  1.
        -15    1    5    5    0    0  0.46668853348E+02 -0.62070013625E+00 -0.13736316263E+02  0.48652374310E+02  0.00000000000E+00 0.  1.
         15    1    4    4    0    0 -0.11571103484E+04  0.74866924242E+03 -0.10559987754E+04  0.17362440516E+04  0.00000000000E+00 0. -1.
         15    1    3    3    0    0 -0.16241253442E+02 -0.49471031221E+03  0.19138392083E+03  0.53068811600E+03  0.00000000000E+00 0. -1.
        -16    1    3    3    0    0  0.34788672657E+02 -0.11438642941E+03  0.41142035433E+02  0.12644039726E+03  0.00000000000E+00 0.  1.
         16    1    5    5    0    0  0.59405821334E+03  0.34029840458E+03 -0.18183860926E+03  0.70835968605E+03  0.00000000000E+00 0. -1.
    9900018    1    1    2    0    0  0.10274566254E+02  0.97675073926E+02 -0.14409609014E+03  0.19678630126E+03  0.91187600000E+02 0.  0.
<mgrwt>
<rscale>  0 0.21411679E+04</rscale>
<asrwt>0</asrwt>
<pdfrwt beam="1">  1        2 0.39288055E+00 0.32458887E+04</pdfrwt>
<pdfrwt beam="2">  1       -2 0.24150192E+00 0.32458887E+04</pdfrwt>
<totfact> 0.19202639E-01</totfact>
</mgrwt>
</event>
