<event>
12    1  0.5547130E-014  0.8549927E+03  0.7818608E-02  0.9483660E-01
         -1   -1    0    0    0  501 -0.00000000000E+00  0.00000000000E+00  0.13150364115E+03  0.13150364115E+03  0.00000000000E+00 0.  1.
          1   -1    0    0  501    0  0.00000000000E+00 -0.00000000000E+00 -0.13897190148E+04  0.13897190148E+04  0.00000000000E+00 0. -1.
    9900016    2    1    2    0    0 -0.28435178096E+02  0.74701627207E+02 -0.12506186438E+04  0.14409319170E+04  0.71123055669E+03 0.  0.
    9900016    2    3    3    0    0 -0.64017204448E+02  0.43102548226E+02 -0.11458037938E+04  0.13222823170E+04  0.65544500889E+03 0.  0.
         23    2    4    4    0    0  0.10968766308E+03  0.11932779411E+03 -0.44572021249E+02  0.18405004677E+03  0.74948307249E+02 0.  0.
        -15    1    3    3    0    0  0.27286504521E+02  0.17719369823E+02 -0.38568944611E+02  0.50458823651E+02  0.00000000000E+00 0.  1.
        -15    1    5    5    0    0  0.84455587326E+02  0.41737406001E+02 -0.77145216185E+01  0.94521273447E+02  0.00000000000E+00 0.  1.
         15    1    5    5    0    0  0.25232075751E+02  0.77590388111E+02 -0.36857499631E+02  0.89528773324E+02  0.00000000000E+00 0. -1.
         15    1    3    3    0    0  0.82955218308E+01  0.13879709158E+02 -0.66245905320E+02  0.68190776359E+02  0.00000000000E+00 0. -1.
        -16    1    1    2    0    0  0.28435178096E+02 -0.74701627207E+02 -0.75967298866E+01  0.80290738978E+02  0.00000000000E+00 0.  1.
         16    1    4    4    0    0 -0.10503701817E+03 -0.16668351262E+02 -0.18823303669E+03  0.21619964205E+03  0.00000000000E+00 0. -1.
    9900018    1    4    4    0    0 -0.68667849353E+02 -0.59556894623E+02 -0.91299873589E+03  0.92203262815E+03  0.91187600000E+02 0.  0.
<mgrwt>
<rscale>  0 0.85499266E+03</rscale>
<asrwt>0</asrwt>
<pdfrwt beam="1">  1        1 0.21380291E+00 0.85499266E+03</pdfrwt>
<pdfrwt beam="2">  1       -1 0.20231331E-01 0.85499266E+03</pdfrwt>
<totfact> 0.15834187E+02</totfact>
</mgrwt>
</event>
<event>
12    1  0.5547130E-014  0.9195467E+03  0.7818608E-02  0.9401472E-01
          2   -1    0    0  501    0  0.00000000000E+00  0.00000000000E+00  0.19870734688E+03  0.19870734688E+03  0.00000000000E+00 0. -1.
         -2   -1    0    0    0  501 -0.00000000000E+00 -0.00000000000E+00 -0.10638335488E+04  0.10638335488E+04  0.00000000000E+00 0.  1.
    9900016    2    1    2    0    0  0.27443583517E+02  0.63842653764E+02 -0.53439396707E+03  0.92458698478E+03  0.75130229980E+03 0.  0.
    9900016    2    3    3    0    0  0.28293934996E+02  0.63529874494E+02 -0.47489061879E+03  0.85775618387E+03  0.71090644915E+03 0.  0.
         23    2    4    4    0    0  0.16527271449E+03  0.14202916127E+03 -0.47959364707E+03  0.53117606462E+03  0.68195252871E+02 0.  0.
        -15    1    5    5    0    0  0.14607062064E+03  0.99452302732E+02 -0.32831591503E+03  0.37285215139E+03  0.00000000000E+00 0. -1.
        -15    1    3    3    0    0 -0.60364545428E+01  0.13029446692E+02 -0.43144561503E+02  0.45471512530E+02  0.00000000000E+00 0.  1.
         15    1    5    5    0    0  0.19202093847E+02  0.42576858538E+02 -0.15127773204E+03  0.15832391323E+03  0.00000000000E+00 0.  1.
         15    1    3    3    0    0  0.51861030637E+01 -0.12716667423E+02 -0.16358786778E+02  0.21359288382E+02  0.00000000000E+00 0. -1.
        -16    1    1    2    0    0 -0.27443583517E+02 -0.63842653764E+02 -0.33073223484E+03  0.33795391088E+03  0.00000000000E+00 0.  1.
         16    1    4    4    0    0  0.55095437674E+02 -0.33055695289E+02  0.74358376208E+02  0.98271839078E+02  0.00000000000E+00 0. -1.
    9900018    1    4    4    0    0 -0.19207421717E+03 -0.45443591487E+02 -0.69655347929E+02  0.22830828017E+03  0.91187600000E+02 0.  0.
<mgrwt>
<rscale>  0 0.91954672E+03</rscale>
<asrwt>0</asrwt>
<pdfrwt beam="1">  1        2 0.30570361E-01 0.91954672E+03</pdfrwt>
<pdfrwt beam="2">  1       -2 0.16366670E+00 0.91954672E+03</pdfrwt>
<totfact> 0.41353217E+01</totfact>
</mgrwt>
</event>
<event>
11    1  0.5547130E-014  0.9658382E+03  0.7818608E-02  0.9346827E-01
          1   -1    0    0  501    0  0.00000000000E+00  0.00000000000E+00  0.83553107587E+03  0.83553107587E+03  0.00000000000E+00 0. -1.
         -1   -1    0    0    0  501 -0.00000000000E+00 -0.00000000000E+00 -0.27911690006E+03  0.27911690006E+03  0.00000000000E+00 0.  1.
    9900016    2    1    2    0    0  0.72692642046E+01 -0.31809829286E+02  0.65878310758E+03  0.10072044762E+04  0.76118392428E+03 0.  0.
    9900016    2    3    3    0    0  0.92126125843E+00  0.11559081760E+02  0.64294640643E+03  0.92916235236E+03  0.67069227997E+03 0.  0.
        -15    1    3    3    0    0 -0.25237747996E+02 -0.82350355028E+01  0.15610786613E+02  0.30797019212E+02  0.00000000000E+00 0.  1.
        -15    1    4    4    0    0  0.41316611258E+02 -0.23070469268E+03  0.69092170966E+02  0.24434697804E+03  0.00000000000E+00 0. -1.
         15    1    3    3    0    0  0.31585750942E+02 -0.35133875543E+02  0.22591453870E+00  0.47245104621E+02  0.00000000000E+00 0. -1.
         15    1    4    4    0    0  0.14420234955E+02  0.10438703995E+02 -0.16723263269E+02  0.24424930944E+02  0.00000000000E+00 0.  1.
        -16    1    1    2    0    0 -0.72692642046E+01  0.31809829286E+02 -0.10236893178E+03  0.10744349973E+03  0.00000000000E+00 0.  1.
         16    1    4    4    0    0 -0.56854902259E+02  0.17726802890E+03  0.32850608543E+03  0.37758797934E+03  0.00000000000E+00 0. -1.
    9900018    1    4    4    0    0  0.20393173044E+01  0.54557041536E+02  0.26207141331E+03  0.28280246403E+03  0.91187600000E+02 0.  0.
<mgrwt>
<rscale>  0 0.96583817E+03</rscale>
<asrwt>0</asrwt>
<pdfrwt beam="1">  1        1 0.12854324E+00 0.96583817E+03</pdfrwt>
<pdfrwt beam="2">  1       -1 0.42941062E-01 0.96583817E+03</pdfrwt>
<totfact> 0.11050437E+02</totfact>
</mgrwt>
</event>
<event>
12    1  0.5547130E-014  0.1117796E+04  0.7818608E-02  0.9188018E-01
          2   -1    0    0  501    0  0.00000000000E+00  0.00000000000E+00  0.22717913810E+04  0.22717913810E+04  0.00000000000E+00 0.  1.
         -2   -1    0    0    0  501 -0.00000000000E+00 -0.00000000000E+00 -0.13749810459E+03  0.13749810459E+03  0.00000000000E+00 0. -1.
    9900016    2    1    2    0    0  0.23408936028E+03  0.20113986922E+03  0.17910586285E+04  0.19476997337E+04  0.70027720661E+03 0.  0.
    9900016    2    3    3    0    0  0.17642009503E+03  0.18973888218E+03  0.16132577037E+04  0.17579357324E+04  0.64854662707E+03 0.  0.
         23    2    4    4    0    0 -0.43177229658E+01  0.30040716263E+02  0.74500404137E+02  0.11235026914E+03  0.78429493137E+02 0.  0.
        -15    1    5    5    0    0  0.18059682447E+02  0.40625604097E+02  0.75453330593E+02  0.87577376850E+02  0.00000000000E+00 0.  1.
        -15    1    3    3    0    0  0.32538661851E+02 -0.38740143916E+01  0.60188099585E+02  0.68530138145E+02  0.00000000000E+00 0.  1.
         15    1    5    5    0    0 -0.22377405413E+02 -0.10584887834E+02 -0.95292645658E+00  0.24772892288E+02  0.00000000000E+00 0. -1.
         15    1    3    3    0    0  0.25130603398E+02  0.15275001430E+02  0.11761282525E+03  0.12123386309E+03  0.00000000000E+00 0. -1.
        -16    1    4    4    0    0 -0.79023562084E+02  0.11598524131E+03  0.82310021832E+02  0.16270291718E+03  0.00000000000E+00 0.  1.
         16    1    1    2    0    0 -0.23408936028E+03 -0.20113986922E+03  0.34323464790E+03  0.46158975195E+03  0.00000000000E+00 0. -1.
    9900018    1    4    4    0    0  0.25976138008E+03  0.43712924605E+02  0.14564472777E+04  0.14828825461E+04  0.91187600000E+02 0.  0.
<mgrwt>
<rscale>  0 0.11177961E+04</rscale>
<asrwt>0</asrwt>
<pdfrwt beam="1">  1        2 0.34950634E+00 0.11177961E+04</pdfrwt>
<pdfrwt beam="2">  1       -2 0.21153556E-01 0.11177961E+04</pdfrwt>
<totfact> 0.90768652E+01</totfact>
</mgrwt>
</event>
<event>
12    1  0.5547130E-014  0.9192548E+03  0.7818608E-02  0.9401827E-01
          2   -1    0    0  501    0  0.00000000000E+00  0.00000000000E+00  0.55325844703E+03  0.55325844703E+03  0.00000000000E+00 0.  1.
         -2   -1    0    0    0  501 -0.00000000000E+00 -0.00000000000E+00 -0.38184207374E+03  0.38184207374E+03  0.00000000000E+00 0. -1.
    9900016    2    1    2    0    0  0.69761301010E+02 -0.13116928475E+03  0.11798566500E+03  0.77721809310E+03  0.75370771968E+03 0.  0.
    9900016    2    3    3    0    0  0.57248145710E+02 -0.12691094487E+03  0.10017793917E+03  0.69593978435E+03  0.67447225727E+03 0.  0.
         23    2    4    4    0    0 -0.19771494290E+03  0.10676883980E+02 -0.80632296862E+02  0.22646455262E+03  0.74695594220E+02 0.  0.
        -15    1    5    5    0    0 -0.10820214125E+03 -0.13179908416E+02 -0.77553912475E+02  0.13377601690E+03  0.00000000000E+00 0.  1.
        -15    1    3    3    0    0 -0.27087177974E+02 -0.12019848964E+02  0.26776788727E+02  0.39939809642E+02  0.00000000000E+00 0.  1.
         15    1    3    3    0    0  0.39600333274E+02  0.77615090840E+01 -0.89690628978E+01  0.41338499101E+02  0.00000000000E+00 0. -1.
         15    1    5    5    0    0 -0.89512801652E+02  0.23856792396E+02 -0.30783843871E+01  0.92688535718E+02  0.00000000000E+00 0. -1.
        -16    1    1    2    0    0 -0.69761301010E+02  0.13116928475E+03  0.53430708288E+02  0.15788242768E+03  0.00000000000E+00 0.  1.
         16    1    4    4    0    0  0.49174581274E+02 -0.13011845671E+03 -0.49221256558E+02  0.14755231044E+03  0.00000000000E+00 0. -1.
    9900018    1    4    4    0    0  0.20578850734E+03 -0.74693721448E+01  0.23003149259E+03  0.32192292129E+03  0.91187600000E+02 0.  0.
<mgrwt>
<rscale>  0 0.91925481E+03</rscale>
<asrwt>0</asrwt>
<pdfrwt beam="1">  1        2 0.85116684E-01 0.91925481E+03</pdfrwt>
<pdfrwt beam="2">  1       -2 0.58744934E-01 0.91925481E+03</pdfrwt>
<totfact> 0.14848806E+02</totfact>
</mgrwt>
</event>
<event>
12    1  0.5547131E-014  0.9396106E+03  0.7818608E-02  0.9377377E-01
          2   -1    0    0  501    0  0.00000000000E+00  0.00000000000E+00  0.10900801142E+04  0.10900801142E+04  0.00000000000E+00 0. -1.
         -2   -1    0    0    0  501 -0.00000000000E+00 -0.00000000000E+00 -0.20247779610E+03  0.20247779610E+03  0.00000000000E+00 0.  1.
    9900016    2    1    2    0    0  0.15619654615E+03  0.67015869434E+02  0.67807232432E+03  0.10227592704E+04  0.74656946121E+03 0.  0.
    9900016    2    3    3    0    0  0.19892688220E+03  0.27364874306E+02  0.60395396631E+03  0.91843880849E+03  0.66215459730E+03 0.  0.
         23    2    4    4    0    0  0.13312689741E+03  0.26630387686E+03  0.22083595833E+03  0.38982270783E+03  0.12063456142E+03 0.  0.
        -15    1    3    3    0    0 -0.19766172029E+02  0.30537955237E+02  0.13397044152E+02  0.38765307412E+02  0.00000000000E+00 0.  1.
        -15    1    5    5    0    0  0.71824673165E+02  0.11271165204E+03  0.29398086633E+02  0.13684643831E+03  0.00000000000E+00 0.  1.
         15    1    3    3    0    0 -0.22964164016E+02  0.91130398912E+01  0.60721313860E+02  0.65555154503E+02  0.00000000000E+00 0. -1.
         15    1    5    5    0    0  0.61302224246E+02  0.15359222482E+03  0.19143787170E+03  0.25297626952E+03  0.00000000000E+00 0. -1.
        -16    1    4    4    0    0 -0.65875768158E+01 -0.24735590662E+03  0.25641457382E+03  0.35633800580E+03  0.00000000000E+00 0.  1.
         16    1    1    2    0    0 -0.15619654615E+03 -0.67015869434E+02  0.20952999375E+03  0.26979863985E+03  0.00000000000E+00 0. -1.
    9900018    1    4    4    0    0  0.72387561602E+02  0.84169040708E+01  0.12670343415E+03  0.17227809486E+03  0.91187600000E+02 0.  0.
<mgrwt>
<rscale>  0 0.93961060E+03</rscale>
<asrwt>0</asrwt>
<pdfrwt beam="1">  1        2 0.16770463E+00 0.93961060E+03</pdfrwt>
<pdfrwt beam="2">  1       -2 0.31150431E-01 0.93961060E+03</pdfrwt>
<totfact> 0.21107966E+02</totfact>
</mgrwt>
</event>
