<event>
12    1  0.7387040E-012  0.1504784E+04  0.7818608E-02  0.8881278E-01
          2   -1    0    0  501    0  0.00000000000E+00  0.00000000000E+00  0.12863512220E+04  0.12863512220E+04  0.00000000000E+00 0. -1.
         -2   -1    0    0    0  501 -0.00000000000E+00 -0.00000000000E+00 -0.44007730529E+03  0.44007730529E+03  0.00000000000E+00 0.  1.
    9900016    2    1    2    0    0 -0.16823173823E+03 -0.12387228915E+03  0.11441630789E+04  0.13625821109E+04  0.70984124708E+03 0.  0.
         23    2    3    3    0    0 -0.82138185796E+02 -0.24443765233E+02  0.69373264547E+02  0.13371870362E+03  0.75656213491E+02 0.  0.
         23    2    3    3    0    0  0.16366277360E+03 -0.16156994745E+03  0.50343562160E+03  0.56092363617E+03  0.91090883918E+02 0.  0.
        -15    1    4    4    0    0 -0.61743392746E+02 -0.29653268057E+02  0.81503313919E+01  0.68978190437E+02  0.00000000000E+00 0.  1.
        -15    1    5    5    0    0  0.13409251208E+03 -0.10875579034E+03  0.44270425715E+03  0.47517963238E+03  0.00000000000E+00 0.  1.
         15    1    5    5    0    0  0.29570261520E+02 -0.52814157111E+02  0.60731364449E+02  0.85744003788E+02  0.00000000000E+00 0. -1.
         15    1    4    4    0    0 -0.20394793050E+02  0.52095028236E+01  0.61222933155E+02  0.64740513184E+02  0.00000000000E+00 0. -1.
        -16    1    1    2    0    0  0.16823173823E+03  0.12387228915E+03 -0.29788916220E+03  0.36384641639E+03  0.00000000000E+00 0.  1.
         16    1    3    3    0    0 -0.17034668703E+03 -0.24413375904E+02  0.42837831839E+03  0.46165137319E+03  0.00000000000E+00 0. -1.
    9900018    1    3    3    0    0 -0.79409639001E+02  0.86554799439E+02  0.14297587439E+03  0.20628839794E+03  0.91187600000E+02 0.  0.
<mgrwt>
<rscale>  0 0.15047843E+04</rscale>
<asrwt>0</asrwt>
<pdfrwt beam="1">  1        2 0.19790019E+00 0.15047843E+04</pdfrwt>
<pdfrwt beam="2">  1       -2 0.67704201E-01 0.15047843E+04</pdfrwt>
<totfact> 0.32510394E+01</totfact>
</mgrwt>
</event>
<event>
12    1  0.7387040E-012  0.9232235E+03  0.7818608E-02  0.9397008E-01
          1   -1    0    0  501    0  0.00000000000E+00  0.00000000000E+00  0.29235894856E+03  0.29235894856E+03  0.00000000000E+00 0. -1.
         -1   -1    0    0    0  501 -0.00000000000E+00 -0.00000000000E+00 -0.72884852109E+03  0.72884852109E+03  0.00000000000E+00 0.  1.
    9900016    2    1    2    0    0 -0.19363445089E+03  0.13560814549E+02 -0.34906874253E+03  0.80832112021E+03  0.70274878164E+03 0.  0.
         23    2    3    3    0    0  0.41679342442E+02 -0.29429801609E+02  0.93343599588E+01  0.79773945426E+02  0.60609168315E+02 0.  0.
         23    2    3    3    0    0 -0.10414727704E+03  0.16084354854E+03 -0.36977126438E+03  0.42671462854E+03  0.92936988506E+02 0.  0.
        -15    1    5    5    0    0 -0.55781628601E+02  0.36771422201E+02 -0.20051384767E+03  0.21135167539E+03  0.00000000000E+00 0. -1.
        -15    1    4    4    0    0  0.12722494372E+02  0.14107347647E+02 -0.12892239597E+02  0.22958418118E+02  0.00000000000E+00 0. -1.
         15    1    5    5    0    0 -0.48365648437E+02  0.12407212634E+03 -0.16925741670E+03  0.21536295316E+03  0.00000000000E+00 0.  1.
         15    1    4    4    0    0  0.28956848070E+02 -0.43537149256E+02  0.22226599555E+02  0.56815527308E+02  0.00000000000E+00 0.  1.
        -16    1    1    2    0    0  0.19363445089E+03 -0.13560814549E+02 -0.87420829998E+02  0.21288634945E+03  0.00000000000E+00 0.  1.
         16    1    3    3    0    0 -0.17438420667E+03 -0.55759630339E+02  0.96433722059E+01  0.18333570994E+03  0.00000000000E+00 0. -1.
    9900018    1    3    3    0    0  0.43217690374E+02 -0.62093302044E+02  0.17247896787E+01  0.11849683630E+03  0.91187600000E+02 0.  0.
<mgrwt>
<rscale>  0 0.92322346E+03</rscale>
<asrwt>0</asrwt>
<pdfrwt beam="1">  1        1 0.44978300E-01 0.92322346E+03</pdfrwt>
<pdfrwt beam="2">  1       -1 0.11213054E+00 0.92322346E+03</pdfrwt>
<totfact> 0.66605035E+01</totfact>
</mgrwt>
</event>
<event>
12    1  0.7387040E-012  0.8682159E+03  0.7818608E-02  0.9466209E-01
         -2   -1    0    0    0  501 -0.00000000000E+00  0.00000000000E+00  0.19234265357E+03  0.19234265357E+03  0.00000000000E+00 0. -1.
          2   -1    0    0  501    0  0.00000000000E+00 -0.00000000000E+00 -0.97976038168E+03  0.97976038168E+03  0.00000000000E+00 0.  1.
    9900016    2    1    2    0    0 -0.10932312600E+03 -0.60098473748E+02 -0.55319644277E+03  0.90672974548E+03  0.70750911980E+03 0.  0.
         23    2    3    3    0    0 -0.15929381082E+03 -0.33921959463E+02 -0.16009003685E+03  0.25198682062E+03  0.10650502507E+03 0.  0.
         23    2    3    3    0    0 -0.69004880736E+02 -0.60706584618E+02 -0.93789726331E+02  0.15911892892E+03  0.89862994571E+02 0.  0.
        -15    1    5    5    0    0 -0.26953977822E+02 -0.72306955927E+02 -0.84660520197E+02  0.11455224343E+03  0.00000000000E+00 0. -1.
        -15    1    4    4    0    0  0.14315906376E+02 -0.11560731116E+02 -0.78666276254E+01  0.20011984147E+02  0.00000000000E+00 0.  1.
         15    1    5    5    0    0 -0.42050902914E+02  0.11600371309E+02 -0.91292061346E+01  0.44566685484E+02  0.00000000000E+00 0.  1.
         15    1    4    4    0    0 -0.17360971720E+03 -0.22361228348E+02 -0.15222340922E+03  0.23197483647E+03  0.00000000000E+00 0. -1.
        -16    1    1    2    0    0  0.10932312600E+03  0.60098473748E+02 -0.23422128534E+03  0.26537328978E+03  0.00000000000E+00 0.  1.
         16    1    3    3    0    0  0.15396121341E+03  0.46948301140E+02 -0.34974466199E+03  0.38500587892E+03  0.00000000000E+00 0. -1.
    9900018    1    3    3    0    0 -0.34985647851E+02 -0.12418230806E+02  0.50427982392E+02  0.11061811702E+03  0.91187600000E+02 0.  0.
<mgrwt>
<rscale>  0 0.86821590E+03</rscale>
<asrwt>0</asrwt>
<pdfrwt beam="1">  1        2 0.15073237E+00 0.86821590E+03</pdfrwt>
<pdfrwt beam="2">  1       -2 0.29591177E-01 0.86821590E+03</pdfrwt>
<totfact> 0.27370489E+02</totfact>
</mgrwt>
</event>
<event>
12    1  0.7387040E-012  0.1029240E+04  0.7818608E-02  0.9277043E-01
          2   -1    0    0  501    0  0.00000000000E+00  0.00000000000E+00  0.66662257982E+03  0.66662257982E+03  0.00000000000E+00 0. -1.
         -2   -1    0    0    0  501 -0.00000000000E+00 -0.00000000000E+00 -0.39727713640E+03  0.39727713640E+03  0.00000000000E+00 0.  1.
    9900016    2    1    2    0    0  0.12627301764E+03  0.16270215479E+02 -0.46637117566E+02  0.72323188132E+03  0.71040814925E+03 0.  0.
         23    2    3    3    0    0 -0.98623524357E+01 -0.70516622343E+01 -0.10951417726E+03  0.15359055912E+03  0.10700333123E+03 0.  0.
         23    2    3    3    0    0  0.71792595151E+02  0.83115196408E+02 -0.80102206644E+02  0.16437173739E+03  0.92408830477E+02 0.  0.
        -15    1    4    4    0    0  0.31204415779E+02 -0.19213966076E+02 -0.70159965967E+00  0.36652207281E+02  0.00000000000E+00 0.  1.
        -15    1    5    5    0    0  0.37874562106E+02  0.80644553438E+02 -0.92258739682E+02  0.12825638971E+03  0.00000000000E+00 0.  1.
         15    1    4    4    0    0 -0.41066768215E+02  0.12162303842E+02 -0.10881257760E+03  0.11693835183E+03  0.00000000000E+00 0. -1.
         15    1    5    5    0    0  0.33918033045E+02  0.24706429704E+01  0.12156533038E+02  0.36115347677E+02  0.00000000000E+00 0. -1.
        -16    1    3    3    0    0 -0.90596938862E+02 -0.13134512227E+03 -0.81190979751E+01  0.15976628627E+03  0.00000000000E+00 0.  1.
         16    1    1    2    0    0 -0.12627301764E+03 -0.16270215479E+02  0.31598256099E+03  0.34066783491E+03  0.00000000000E+00 0. -1.
    9900018    1    3    3    0    0  0.15493971379E+03  0.71551803578E+02  0.15109836431E+03  0.24550329854E+03  0.91187600000E+02 0.  0.
<mgrwt>
<rscale>  0 0.10292403E+04</rscale>
<asrwt>0</asrwt>
<pdfrwt beam="1">  1        2 0.10255732E+00 0.10292403E+04</pdfrwt>
<pdfrwt beam="2">  1       -2 0.61119559E-01 0.10292403E+04</pdfrwt>
<totfact> 0.10822685E+02</totfact>
</mgrwt>
</event>
<event>
12    1  0.7387040E-012  0.8363604E+03  0.7818608E-02  0.9508829E-01
          1   -1    0    0  501    0  0.00000000000E+00  0.00000000000E+00  0.24021530881E+03  0.24021530881E+03  0.00000000000E+00 0. -1.
         -1   -1    0    0    0  501 -0.00000000000E+00 -0.00000000000E+00 -0.72799140856E+03  0.72799140856E+03  0.00000000000E+00 0.  1.
    9900016    2    1    2    0    0 -0.67995410858E+02  0.25020214341E+02 -0.30400381782E+03  0.77066776265E+03  0.70445801303E+03 0.  0.
         23    2    3    3    0    0  0.11771836137E+03 -0.76051936887E+02  0.10937517020E+03  0.19362078545E+03  0.76710957443E+02 0.  0.
         23    2    3    3    0    0 -0.22527684171E+03  0.11997195957E+03 -0.25532752602E+03  0.37246823592E+03  0.91637954655E+02 0.  0.
        -15    1    4    4    0    0  0.74084351053E+02 -0.65123838402E+02  0.31248417919E+02  0.10347013589E+03  0.00000000000E+00 0.  1.
        -15    1    5    5    0    0 -0.17294546576E+03  0.57135517945E+02 -0.13385263068E+03  0.22603346716E+03  0.00000000000E+00 0.  1.
         15    1    4    4    0    0  0.43634010322E+02 -0.10928098485E+02  0.78126752279E+02  0.90150649553E+02  0.00000000000E+00 0. -1.
         15    1    5    5    0    0 -0.52331375958E+02  0.62836441622E+02 -0.12147489533E+03  0.14643476876E+03  0.00000000000E+00 0. -1.
        -16    1    1    2    0    0  0.67995410858E+02 -0.25020214341E+02 -0.18377228194E+03  0.19753895472E+03  0.00000000000E+00 0.  1.
         16    1    3    3    0    0  0.41903080200E+01  0.77176299563E+01  0.67655564637E+01  0.11085722697E+02  0.00000000000E+00 0. -1.
    9900018    1    3    3    0    0  0.35372761461E+02 -0.26617438295E+02 -0.16481701846E+03  0.19349301859E+03  0.91187600000E+02 0.  0.
<mgrwt>
<rscale>  0 0.83636040E+03</rscale>
<asrwt>0</asrwt>
<pdfrwt beam="1">  1        1 0.36956201E-01 0.83636040E+03</pdfrwt>
<pdfrwt beam="2">  1       -1 0.11199868E+00 0.83636040E+03</pdfrwt>
<totfact> 0.86638782E+01</totfact>
</mgrwt>
</event>
<event>
12    1  0.7387040E-012  0.1598944E+04  0.7818608E-02  0.8821197E-01
         -1   -1    0    0    0  501 -0.00000000000E+00  0.00000000000E+00  0.41924040934E+03  0.41924040934E+03  0.00000000000E+00 0.  1.
          1   -1    0    0  501    0  0.00000000000E+00 -0.00000000000E+00 -0.15245562793E+04  0.15245562793E+04  0.00000000000E+00 0. -1.
    9900016    2    1    2    0    0 -0.47780262543E+03 -0.27527585267E+02 -0.11819274713E+04  0.14591086918E+04  0.70921964880E+03 0.  0.
         23    2    3    3    0    0 -0.22660893500E+03  0.11535877911E+03 -0.21847236744E+03  0.34249474592E+03  0.70094352892E+02 0.  0.
         23    2    3    3    0    0  0.18503229221E+02 -0.54732235249E+02 -0.52871134349E+02  0.12121736881E+03  0.92521924901E+02 0.  0.
        -15    1    4    4    0    0 -0.43330158522E+02  0.32569497461E+02 -0.14633742942E+02  0.56146426733E+02  0.00000000000E+00 0.  1.
        -15    1    5    5    0    0 -0.22269121107E+02 -0.43923996437E+02  0.51159851838E+01  0.49511660468E+02  0.00000000000E+00 0.  1.
         15    1    5    5    0    0  0.40772350328E+02 -0.10808238811E+02 -0.57987119532E+02  0.71705708344E+02  0.00000000000E+00 0. -1.
         15    1    4    4    0    0 -0.18327877648E+03  0.82789281651E+02 -0.20383862450E+03  0.28634831919E+03  0.00000000000E+00 0. -1.
        -16    1    1    2    0    0  0.47780262543E+03  0.27527585267E+02  0.76611601347E+02  0.48468799684E+03  0.00000000000E+00 0.  1.
         16    1    3    3    0    0 -0.23779734928E+03 -0.55909561092E+02 -0.83095288241E+03  0.86611555299E+03  0.00000000000E+00 0. -1.
    9900018    1    3    3    0    0 -0.31899570366E+02 -0.32244568039E+02 -0.79631087093E+02  0.12928102406E+03  0.91187600000E+02 0.  0.
<mgrwt>
<rscale>  0 0.15989441E+04</rscale>
<asrwt>0</asrwt>
<pdfrwt beam="1">  1        1 0.23454712E+00 0.15989441E+04</pdfrwt>
<pdfrwt beam="2">  1       -1 0.64498525E-01 0.15989441E+04</pdfrwt>
<totfact> 0.14712595E+01</totfact>
</mgrwt>
</event>
<event>
12    1  0.7387040E-012  0.7963494E+03  0.7818608E-02  0.9565316E-01
         -2   -1    0    0    0  501 -0.00000000000E+00  0.00000000000E+00  0.40180430307E+03  0.40180430307E+03  0.00000000000E+00 0.  1.
          2   -1    0    0  501    0  0.00000000000E+00 -0.00000000000E+00 -0.39457792937E+03  0.39457792937E+03  0.00000000000E+00 0. -1.
    9900016    2    1    2    0    0 -0.68673101814E+02  0.51825473575E+01 -0.44330534259E+02  0.71035335084E+03  0.70561592462E+03 0.  0.
         23    2    3    3    0    0  0.93155080182E+02 -0.99992352129E+02 -0.45464311517E+02  0.15769488454E+03  0.64220974293E+02 0.  0.
         23    2    3    3    0    0  0.63494552156E+02 -0.10646768096E+03  0.55264231093E+02  0.16337624996E+03  0.90943601048E+02 0.  0.
        -15    1    5    5    0    0  0.57223687129E+02 -0.12321611600E+03  0.49292402825E+02  0.14452163363E+03  0.00000000000E+00 0.  1.
        -15    1    4    4    0    0  0.73250611522E+02 -0.59589665987E+02 -0.10407496739E+01  0.94433381495E+02  0.00000000000E+00 0.  1.
         15    1    5    5    0    0  0.62708650274E+01  0.16748435036E+02  0.59718282675E+01  0.18854616337E+02  0.00000000000E+00 0. -1.
         15    1    4    4    0    0  0.19904468660E+02 -0.40402686142E+02 -0.44423561843E+02  0.63261503041E+02  0.00000000000E+00 0. -1.
        -16    1    3    3    0    0  0.18912398576E+01  0.67274147530E+02  0.52869803233E+02  0.85583899234E+02  0.00000000000E+00 0.  1.
         16    1    1    2    0    0  0.68673101814E+02 -0.51825473575E+01  0.51556907965E+02  0.86028881596E+02  0.00000000000E+00 0. -1.
    9900018    1    3    3    0    0 -0.22721397401E+03  0.14436843292E+03 -0.10700025707E+03  0.30369831711E+03  0.91187600000E+02 0.  0.
<mgrwt>
<rscale>  0 0.79634945E+03</rscale>
<asrwt>0</asrwt>
<pdfrwt beam="1">  1        2 0.60704297E-01 0.79634945E+03</pdfrwt>
<pdfrwt beam="2">  1       -2 0.61816046E-01 0.79634945E+03</pdfrwt>
<totfact> 0.19784433E+02</totfact>
</mgrwt>
</event>
<event>
12    1  0.7387040E-012  0.9495837E+03  0.7818608E-02  0.9365637E-01
         -2   -1    0    0    0  501 -0.00000000000E+00  0.00000000000E+00  0.76344428196E+03  0.76344428196E+03  0.00000000000E+00 0.  1.
          2   -1    0    0  501    0  0.00000000000E+00 -0.00000000000E+00 -0.29527669841E+03  0.29527669841E+03  0.00000000000E+00 0. -1.
    9900016    2    1    2    0    0  0.44099794232E+02 -0.13928102574E+03  0.20156568271E+03  0.75471346481E+03  0.71247434588E+03 0.  0.
         23    2    3    3    0    0 -0.65203670752E+02 -0.50236753214E+02 -0.23863906394E+02  0.13548654478E+03  0.10493744677E+03 0.  0.
         23    2    3    3    0    0 -0.14380892838E+03 -0.11691608412E+03 -0.40353652833E+02  0.21152777897E+03  0.93622675524E+02 0.  0.
        -15    1    4    4    0    0 -0.53953190651E+02  0.14511713747E+02 -0.38888414291E+02  0.68072354031E+02  0.00000000000E+00 0. -1.
        -15    1    5    5    0    0 -0.75815012627E+02 -0.33572972641E+02  0.23830598221E+02  0.86272579903E+02  0.00000000000E+00 0. -1.
         15    1    5    5    0    0 -0.67993915750E+02 -0.83343111478E+02 -0.64184251054E+02  0.12525519907E+03  0.00000000000E+00 0.  1.
         15    1    4    4    0    0 -0.11250480101E+02 -0.64748466961E+02  0.15024507897E+02  0.67414190745E+02  0.00000000000E+00 0.  1.
        -16    1    1    2    0    0 -0.44099794232E+02  0.13928102574E+03  0.26660190084E+03  0.30400751556E+03  0.00000000000E+00 0.  1.
         16    1    3    3    0    0  0.15616043970E+03  0.23189660532E+02  0.74369849363E+02  0.17451280118E+03  0.00000000000E+00 0. -1.
    9900018    1    3    3    0    0  0.96951953662E+02  0.46821510616E+01  0.19141339257E+03  0.23318633988E+03  0.91187600000E+02 0.  0.
<mgrwt>
<rscale>  0 0.94958371E+03</rscale>
<asrwt>0</asrwt>
<pdfrwt beam="1">  1        2 0.45427185E-01 0.94958371E+03</pdfrwt>
<pdfrwt beam="2">  1       -2 0.11745297E+00 0.94958371E+03</pdfrwt>
<totfact> 0.62610411E+01</totfact>
</mgrwt>
</event>
<event>
12    1  0.7387040E-012  0.8417270E+03  0.7818608E-02  0.9501508E-01
         -1   -1    0    0    0  501 -0.00000000000E+00  0.00000000000E+00  0.81577363203E+02  0.81577363203E+02  0.00000000000E+00 0.  1.
          1   -1    0    0  501    0  0.00000000000E+00 -0.00000000000E+00 -0.21712649919E+04  0.21712649919E+04  0.00000000000E+00 0. -1.
    9900016    2    1    2    0    0  0.42383049435E+02  0.61174244412E+02 -0.15279050049E+04  0.16861516745E+04  0.70927791057E+03 0.  0.
         23    2    3    3    0    0  0.41242340829E+02  0.14598890164E+03 -0.28654971291E+03  0.33114910186E+03  0.67344633138E+02 0.  0.
         23    2    3    3    0    0 -0.18607159401E+01 -0.12929449651E+03 -0.13122621242E+03  0.20720941155E+03  0.94841406135E+02 0.  0.
        -15    1    4    4    0    0  0.70778720963E-01  0.59103483823E+02 -0.17045149613E+03  0.18040770312E+03  0.00000000000E+00 0.  1.
        -15    1    5    5    0    0 -0.23058198475E+02 -0.12325612718E+03 -0.13565046239E+03  0.18472899434E+03  0.00000000000E+00 0.  1.
         15    1    4    4    0    0  0.41171562109E+02  0.86885417814E+02 -0.11609821678E+03  0.15074139874E+03  0.00000000000E+00 0. -1.
         15    1    5    5    0    0  0.21197482535E+02 -0.60383693338E+01  0.44242499742E+01  0.22480417208E+02  0.00000000000E+00 0. -1.
        -16    1    1    2    0    0 -0.42383049435E+02 -0.61174244412E+02 -0.56178262384E+03  0.56669068063E+03  0.00000000000E+00 0.  1.
         16    1    3    3    0    0 -0.11505668032E+03  0.41467187506E+02 -0.71594520383E+03  0.72631611727E+03  0.00000000000E+00 0. -1.
    9900018    1    3    3    0    0  0.11805810486E+03  0.30126517799E+01 -0.39418387572E+03  0.42147704381E+03  0.91187600000E+02 0.  0.
<mgrwt>
<rscale>  0 0.84172697E+03</rscale>
<asrwt>0</asrwt>
<pdfrwt beam="1">  1        1 0.33404076E+00 0.84172697E+03</pdfrwt>
<pdfrwt beam="2">  1       -1 0.12550364E-01 0.84172697E+03</pdfrwt>
<totfact> 0.10256466E+02</totfact>
</mgrwt>
</event>
<event>
12    1  0.7387040E-012  0.7923877E+03  0.7818608E-02  0.9571101E-01
          1   -1    0    0  501    0  0.00000000000E+00  0.00000000000E+00  0.70515684553E+03  0.70515684553E+03  0.00000000000E+00 0. -1.
         -1   -1    0    0    0  501 -0.00000000000E+00 -0.00000000000E+00 -0.22260236185E+03  0.22260236185E+03  0.00000000000E+00 0.  1.
    9900016    2    1    2    0    0 -0.16395607107E+02 -0.63177289456E+02  0.48528810942E+03  0.86243188886E+03  0.70994649654E+03 0.  0.
         23    2    3    3    0    0 -0.62060162946E+02  0.10011432323E+03  0.17537440055E+03  0.24181073358E+03  0.11765164242E+03 0.  0.
         23    2    3    3    0    0  0.28894031504E+02 -0.23841252966E+03  0.61487027272E+02  0.26452854768E+03  0.92300046923E+02 0.  0.
        -15    1    4    4    0    0 -0.93156625220E+02  0.97879674586E+02  0.14678019497E+03  0.19950692508E+03  0.00000000000E+00 0.  1.
        -15    1    5    5    0    0  0.32674986737E+01 -0.21661639413E+03  0.73555054997E+02  0.22878742288E+03  0.00000000000E+00 0. -1.
         15    1    5    5    0    0  0.25626532830E+02 -0.21796135528E+02 -0.12068027725E+02  0.35741124801E+02  0.00000000000E+00 0.  1.
         15    1    4    4    0    0  0.31096462274E+02  0.22346486455E+01  0.28594205581E+02  0.42303808497E+02  0.00000000000E+00 0. -1.
        -16    1    1    2    0    0  0.16395607107E+02  0.63177289456E+02 -0.27336257423E+01  0.65327318521E+02  0.00000000000E+00 0.  1.
         16    1    3    3    0    0 -0.91139624905E+02 -0.19312093217E+01  0.11698769290E+03  0.14831143276E+03  0.00000000000E+00 0. -1.
    9900018    1    3    3    0    0  0.10791014924E+03  0.77052126292E+02  0.13143898870E+03  0.20778117484E+03  0.91187600000E+02 0.  0.
<mgrwt>
<rscale>  0 0.79238773E+03</rscale>
<asrwt>0</asrwt>
<pdfrwt beam="1">  1        1 0.10848567E+00 0.79238773E+03</pdfrwt>
<pdfrwt beam="2">  1       -1 0.34246517E-01 0.79238773E+03</pdfrwt>
<totfact> 0.21959680E+02</totfact>
</mgrwt>
</event>
<event>
11    1  0.7387040E-012  0.1577095E+04  0.7818608E-02  0.8834744E-01
          1   -1    0    0  501    0  0.00000000000E+00  0.00000000000E+00  0.76396404658E+03  0.76396404658E+03  0.00000000000E+00 0. -1.
         -1   -1    0    0    0  501 -0.00000000000E+00 -0.00000000000E+00 -0.81392224031E+03  0.81392224031E+03  0.00000000000E+00 0.  1.
    9900016    2    1    2    0    0  0.52185855822E+03 -0.34448528636E+03 -0.84180654242E+02  0.95164540343E+03  0.71241569608E+03 0.  0.
         23    2    3    3    0    0  0.17211967726E+03 -0.17258888105E+03 -0.10829863576E+03  0.28184862612E+03  0.91093075346E+02 0.  0.
        -15    1    3    3    0    0 -0.43032280894E+02  0.33190373799E+02  0.44092705189E+02  0.69982460394E+02  0.00000000000E+00 0.  1.
        -15    1    4    4    0    0  0.30044136942E+02 -0.91355384004E+02 -0.32739544337E+02  0.10158904525E+03  0.00000000000E+00 0.  1.
         15    1    3    3    0    0  0.13934051916E+03  0.56153452721E+02 -0.37606521158E+02  0.15486523485E+03  0.00000000000E+00 0. -1.
         15    1    4    4    0    0  0.14207554032E+03 -0.81233497043E+02 -0.75559091422E+02  0.18025958087E+03  0.00000000000E+00 0. -1.
        -16    1    1    2    0    0 -0.52185855822E+03  0.34448528636E+03  0.34222460507E+02  0.62624088346E+03  0.00000000000E+00 0.  1.
         16    1    3    3    0    0  0.29456743106E+02 -0.25894776111E+02  0.91469398990E+02  0.99523314333E+02  0.00000000000E+00 0. -1.
    9900018    1    3    3    0    0  0.22397389959E+03 -0.23534545573E+03 -0.73837601505E+02  0.34542576774E+03  0.91187600000E+02 0.  0.
<mgrwt>
<rscale>  0 0.15770952E+04</rscale>
<asrwt>0</asrwt>
<pdfrwt beam="1">  1        1 0.11753293E+00 0.15770952E+04</pdfrwt>
<pdfrwt beam="2">  1       -1 0.12521881E+00 0.15770952E+04</pdfrwt>
<totfact> 0.12748158E+01</totfact>
</mgrwt>
</event>
<event>
12    1  0.7387040E-012  0.1496680E+04  0.7818608E-02  0.8886664E-01
          1   -1    0    0  501    0  0.00000000000E+00  0.00000000000E+00  0.76818519299E+03  0.76818519299E+03  0.00000000000E+00 0. -1.
         -1   -1    0    0    0  501 -0.00000000000E+00 -0.00000000000E+00 -0.72900751623E+03  0.72900751623E+03  0.00000000000E+00 0.  1.
    9900016    2    1    2    0    0  0.15534986527E+03  0.50564270701E+03 -0.20662292556E+03  0.91390370375E+03  0.71604386637E+03 0.  0.
         23    2    3    3    0    0 -0.34733069942E+02 -0.43025455652E+02  0.12103413600E+02  0.83330446323E+02  0.61154678333E+02 0.  0.
         23    2    3    3    0    0  0.13085249977E+03  0.50008652649E+03 -0.31104168883E+03  0.60995837985E+03  0.89963227463E+02 0.  0.
        -15    1    5    5    0    0 -0.63119640218E+01  0.25894593941E+02 -0.28197572242E+00  0.26654275370E+02  0.00000000000E+00 0. -1.
        -15    1    4    4    0    0 -0.35070221419E+02  0.40080377537E+01  0.30275984427E+01  0.35428112416E+02  0.00000000000E+00 0.  1.
         15    1    5    5    0    0  0.13716446379E+03  0.47419193254E+03 -0.31075971310E+03  0.58330410448E+03  0.00000000000E+00 0.  1.
         15    1    4    4    0    0  0.33715147731E+00 -0.47033493405E+02  0.90758151572E+01  0.47902333908E+02  0.00000000000E+00 0. -1.
        -16    1    3    3    0    0 -0.45652967110E+02  0.33083361111E+01  0.51401672942E+02  0.68827832125E+02  0.00000000000E+00 0.  1.
         16    1    1    2    0    0 -0.15534986527E+03 -0.50564270701E+03  0.24580060233E+03  0.58328900547E+03  0.00000000000E+00 0. -1.
    9900018    1    3    3    0    0  0.10488340255E+03  0.45273300067E+02  0.40913676719E+02  0.15178704545E+03  0.91187600000E+02 0.  0.
<mgrwt>
<rscale>  0 0.14966800E+04</rscale>
<asrwt>0</asrwt>
<pdfrwt beam="1">  1        1 0.11818234E+00 0.14966800E+04</pdfrwt>
<pdfrwt beam="2">  1       -1 0.11215500E+00 0.14966800E+04</pdfrwt>
<totfact> 0.16639796E+01</totfact>
</mgrwt>
</event>
<event>
12    1  0.7387040E-012  0.1065260E+04  0.7818608E-02  0.9239729E-01
         -1   -1    0    0    0  501 -0.00000000000E+00  0.00000000000E+00  0.65473064549E+03  0.65473064549E+03  0.00000000000E+00 0.  1.
          1   -1    0    0  501    0  0.00000000000E+00 -0.00000000000E+00 -0.43329997943E+03  0.43329997943E+03  0.00000000000E+00 0. -1.
    9900016    2    1    2    0    0 -0.16674787243E+02  0.12080666104E+03  0.44021803677E+03  0.83755066272E+03  0.70201630668E+03 0.  0.
         23    2    3    3    0    0  0.12275528183E+02  0.63391122193E+02  0.15597335428E+03  0.20432148024E+03  0.11511062974E+03 0.  0.
         23    2    3    3    0    0  0.13305077746E+02  0.41073520605E+02 -0.74246357839E+02  0.12559037362E+03  0.91631659952E+02 0.  0.
        -15    1    4    4    0    0  0.48742552114E+02  0.30662269970E+02  0.14220769589E+03  0.15342437862E+03  0.00000000000E+00 0. -1.
        -15    1    5    5    0    0  0.35650264297E+02  0.52052688184E+01  0.44134377335E+01  0.36297583949E+02  0.00000000000E+00 0.  1.
         15    1    5    5    0    0 -0.22345186551E+02  0.35868251787E+02 -0.78659795572E+02  0.89292789674E+02  0.00000000000E+00 0. -1.
         15    1    4    4    0    0 -0.36467023931E+02  0.32728852223E+02  0.13765658391E+02  0.50897101619E+02  0.00000000000E+00 0.  1.
        -16    1    3    3    0    0  0.91669359015E+02 -0.16992695035E+02  0.32599141276E+03  0.33906109223E+03  0.00000000000E+00 0.  1.
         16    1    1    2    0    0  0.16674787243E+02 -0.12080666104E+03 -0.21878737072E+03  0.25047996220E+03  0.00000000000E+00 0. -1.
    9900018    1    3    3    0    0 -0.13392475219E+03  0.33334713273E+02  0.32499627568E+02  0.16857771663E+03  0.91187600000E+02 0.  0.
<mgrwt>
<rscale>  0 0.10652601E+04</rscale>
<asrwt>0</asrwt>
<pdfrwt beam="1">  1        1 0.66661535E-01 0.10652601E+04</pdfrwt>
<pdfrwt beam="2">  1       -1 0.10072779E+00 0.10652601E+04</pdfrwt>
<totfact> 0.50480161E+01</totfact>
</mgrwt>
</event>
<event>
12    1  0.7387040E-012  0.8631326E+03  0.7818608E-02  0.9472878E-01
          1   -1    0    0  501    0  0.00000000000E+00  0.00000000000E+00  0.63587535805E+03  0.63587535805E+03  0.00000000000E+00 0. -1.
         -1   -1    0    0    0  501 -0.00000000000E+00 -0.00000000000E+00 -0.29290247045E+03  0.29290247045E+03  0.00000000000E+00 0.  1.
    9900016    2    1    2    0    0  0.19946018289E+02  0.77397538091E+02  0.17263891277E+03  0.74062394061E+03  0.71577329138E+03 0.  0.
         23    2    3    3    0    0  0.11727724984E+03  0.20301664342E+03  0.54899677057E+02  0.25037476293E+03  0.68584521108E+02 0.  0.
         23    2    3    3    0    0 -0.17201128759E+03 -0.16725253722E+03  0.93544197686E+02  0.27297884573E+03  0.90584982390E+02 0.  0.
        -15    1    5    5    0    0 -0.49984927976E+02 -0.11161638709E+03  0.42155836410E+02  0.12935928817E+03  0.00000000000E+00 0. -1.
        -15    1    4    4    0    0  0.32144825219E+02  0.73682383541E+02  0.51555257763E+02  0.95500408563E+02  0.00000000000E+00 0. -1.
         15    1    5    5    0    0 -0.12202635961E+03 -0.55636150127E+02  0.51388361275E+02  0.14361955757E+03  0.00000000000E+00 0.  1.
         15    1    4    4    0    0  0.85132424617E+02  0.12933425988E+03  0.33444192940E+01  0.15487435437E+03  0.00000000000E+00 0.  1.
        -16    1    3    3    0    0  0.32040797621E+02  0.89213082959E+02 -0.21024332961E+02  0.97095877666E+02  0.00000000000E+00 0.  1.
         16    1    1    2    0    0 -0.19946018289E+02 -0.77397538091E+02  0.17033397483E+03  0.18815388789E+03  0.00000000000E+00 0. -1.
    9900018    1    3    3    0    0  0.42639258418E+02 -0.47579651075E+02  0.45219370985E+02  0.12017445428E+03  0.91187600000E+02 0.  0.
<mgrwt>
<rscale>  0 0.86313258E+03</rscale>
<asrwt>0</asrwt>
<pdfrwt beam="1">  1        1 0.97826978E-01 0.86313258E+03</pdfrwt>
<pdfrwt beam="2">  1       -1 0.45061919E-01 0.86313258E+03</pdfrwt>
<totfact> 0.15504184E+02</totfact>
</mgrwt>
</event>
<event>
11    1  0.7387040E-012  0.8946622E+03  0.7818608E-02  0.9432279E-01
          2   -1    0    0  501    0  0.00000000000E+00  0.00000000000E+00  0.94904404519E+03  0.94904404519E+03  0.00000000000E+00 0. -1.
         -2   -1    0    0    0  501 -0.00000000000E+00 -0.00000000000E+00 -0.21084912337E+03  0.21084912337E+03  0.00000000000E+00 0.  1.
    9900016    2    1    2    0    0  0.40520630465E+02 -0.12475832933E+03  0.71599397230E+03  0.10268539097E+04  0.72427551478E+03 0.  0.
         23    2    3    3    0    0 -0.15004951943E+03 -0.16825245404E+03  0.97425372539E+02  0.26220115248E+03  0.91836782271E+02 0.  0.
        -15    1    4    4    0    0 -0.14892766223E+02 -0.80215299991E+02  0.41061340316E+02  0.91336315379E+02  0.00000000000E+00 0. -1.
        -15    1    3    3    0    0  0.51318273818E+02 -0.36329040144E+02  0.36300541002E+02  0.72602297915E+02  0.00000000000E+00 0.  1.
         15    1    4    4    0    0 -0.13515675320E+03 -0.88037154044E+02  0.56364032223E+02  0.17086483710E+03  0.00000000000E+00 0.  1.
         15    1    3    3    0    0  0.42167526125E+02  0.71045543197E+02  0.25880802573E+03  0.27167473871E+03  0.00000000000E+00 0. -1.
        -16    1    3    3    0    0  0.10803934114E+03  0.86909042915E+02  0.11765047406E+03  0.18184420535E+03  0.00000000000E+00 0.  1.
         16    1    1    2    0    0 -0.40520630465E+02  0.12475832933E+03  0.22200949511E+02  0.13303925883E+03  0.00000000000E+00 0. -1.
    9900018    1    3    3    0    0 -0.10954991190E+02 -0.78131421262E+02  0.20580955897E+03  0.23853151527E+03  0.91187600000E+02 0.  0.
<mgrwt>
<rscale>  0 0.89466218E+03</rscale>
<asrwt>0</asrwt>
<pdfrwt beam="1">  1        2 0.14600677E+00 0.89466218E+03</pdfrwt>
<pdfrwt beam="2">  1       -2 0.32438327E-01 0.89466218E+03</pdfrwt>
<totfact> 0.24109109E+02</totfact>
</mgrwt>
</event>
<event>
12    1  0.7387040E-012  0.1989338E+04  0.7818608E-02  0.8611622E-01
          2   -1    0    0  501    0  0.00000000000E+00  0.00000000000E+00  0.17579697224E+04  0.17579697224E+04  0.00000000000E+00 0.  1.
         -2   -1    0    0    0  501 -0.00000000000E+00 -0.00000000000E+00 -0.56278897778E+03  0.56278897778E+03  0.00000000000E+00 0. -1.
    9900016    2    1    2    0    0  0.45650247900E+03  0.21672418963E+03 -0.14810672895E+03  0.88556354817E+03  0.71198546823E+03 0.  0.
         23    2    3    3    0    0 -0.56172942832E+02 -0.51199181694E+02 -0.14295216034E+02  0.10001365880E+03  0.63416267886E+02 0.  0.
         23    2    3    3    0    0  0.13321863991E+03  0.27233522292E+03 -0.62539940420E+02  0.32265895718E+03  0.91015816390E+02 0.  0.
        -15    1    4    4    0    0 -0.27073072284E+02  0.11815644939E+02 -0.55408868689E+01  0.30054319748E+02  0.00000000000E+00 0.  1.
        -15    1    5    5    0    0  0.21653893971E+02  0.85741994047E+02  0.19028924292E+02  0.90458170592E+02  0.00000000000E+00 0.  1.
         15    1    4    4    0    0 -0.29099870548E+02 -0.63014826633E+02 -0.87543291652E+01  0.69959339052E+02  0.00000000000E+00 0. -1.
         15    1    5    5    0    0  0.11156474594E+03  0.18659322888E+03 -0.81568864712E+02  0.23220078658E+03  0.00000000000E+00 0. -1.
        -16    1    1    2    0    0 -0.45650247900E+03 -0.21672418963E+03  0.13432874736E+04  0.14351951520E+04  0.00000000000E+00 0.  1.
         16    1    3    3    0    0 -0.25222838131E+01 -0.44883733108E+02  0.31558968956E+02  0.54926131622E+02  0.00000000000E+00 0. -1.
    9900018    1    3    3    0    0  0.38197906573E+03  0.40471881509E+02 -0.10283054145E+03  0.40796480057E+03  0.91187600000E+02 0.  0.
<mgrwt>
<rscale>  0 0.19893376E+04</rscale>
<asrwt>0</asrwt>
<pdfrwt beam="1">  1        2 0.27045688E+00 0.19893376E+04</pdfrwt>
<pdfrwt beam="2">  1       -2 0.86582921E-01 0.19893376E+04</pdfrwt>
<totfact> 0.97801094E+00</totfact>
</mgrwt>
</event>
<event>
12    1  0.7387040E-012  0.1114875E+04  0.7818608E-02  0.9190814E-01
         -2   -1    0    0    0  501 -0.00000000000E+00  0.00000000000E+00  0.27575530051E+03  0.27575530051E+03  0.00000000000E+00 0.  1.
          2   -1    0    0  501    0  0.00000000000E+00 -0.00000000000E+00 -0.11268559206E+04  0.11268559206E+04  0.00000000000E+00 0. -1.
    9900016    2    1    2    0    0  0.22827589042E+02  0.32231493088E+03 -0.56564963091E+03  0.97146126957E+03  0.72067293541E+03 0.  0.
         23    2    3    3    0    0  0.65235878670E+02  0.12171471061E+01 -0.25785134066E+03  0.28641737254E+03  0.10625627557E+03 0.  0.
         23    2    3    3    0    0  0.27358615531E+02 -0.45204107686E+02 -0.99833945822E+02  0.14550969758E+03  0.91729767007E+02 0.  0.
        -15    1    5    5    0    0 -0.19306537302E+02 -0.39647219725E+02 -0.85791794358E+02  0.96461787220E+02  0.00000000000E+00 0. -1.
        -15    1    4    4    0    0 -0.23892289400E+02 -0.12343799971E+02 -0.11006837144E+03  0.11330603374E+03  0.00000000000E+00 0.  1.
         15    1    4    4    0    0  0.89128168070E+02  0.13560947077E+02 -0.14778296923E+03  0.17311133880E+03  0.00000000000E+00 0. -1.
         15    1    5    5    0    0  0.46665152832E+02 -0.55568879611E+01 -0.14042151464E+02  0.49047910357E+02  0.00000000000E+00 0.  1.
        -16    1    3    3    0    0 -0.65341116241E+02  0.37871226340E+03 -0.22573673744E+03  0.44570114938E+03  0.00000000000E+00 0.  1.
         16    1    1    2    0    0 -0.22827589042E+02 -0.32231493088E+03 -0.28545098923E+03  0.43114995158E+03  0.00000000000E+00 0. -1.
    9900018    1    3    3    0    0 -0.44257889183E+01 -0.12410371940E+02  0.17772393018E+02  0.93833050076E+02  0.91187600000E+02 0.  0.
<mgrwt>
<rscale>  0 0.11148749E+04</rscale>
<asrwt>0</asrwt>
<pdfrwt beam="1">  1        2 0.17336245E+00 0.11148749E+04</pdfrwt>
<pdfrwt beam="2">  1       -2 0.42423893E-01 0.11148749E+04</pdfrwt>
<totfact> 0.10950481E+02</totfact>
</mgrwt>
</event>
<event>
12    1  0.7387040E-012  0.1305639E+04  0.7818608E-02  0.9025106E-01
         -1   -1    0    0    0  501 -0.00000000000E+00  0.00000000000E+00  0.18652622282E+03  0.18652622282E+03  0.00000000000E+00 0.  1.
          1   -1    0    0  501    0  0.00000000000E+00 -0.00000000000E+00 -0.22847891591E+04  0.22847891591E+04  0.00000000000E+00 0. -1.
    9900016    2    1    2    0    0 -0.30517871995E+03  0.18162245693E+03 -0.19094521315E+04  0.20691086093E+04  0.71349998348E+03 0.  0.
         23    2    3    3    0    0  0.10748542152E+03  0.10455206299E+03 -0.52742923460E+03  0.55370810312E+03  0.76985818421E+02 0.  0.
         23    2    3    3    0    0 -0.19794128114E+03 -0.69718227236E+02 -0.28960743598E+03  0.36996855987E+03  0.94672521511E+02 0.  0.
        -15    1    5    5    0    0 -0.16689140231E+02 -0.44008373221E+02 -0.63552853311E+02  0.79083686556E+02  0.00000000000E+00 0.  1.
        -15    1    4    4    0    0  0.44185790856E+02  0.27755587913E+02 -0.31286831436E+03  0.31718975220E+03  0.00000000000E+00 0.  1.
         15    1    5    5    0    0 -0.18125214091E+03 -0.25709854015E+02 -0.22605458267E+03  0.29088487332E+03  0.00000000000E+00 0. -1.
         15    1    4    4    0    0  0.63299630660E+02  0.76796475074E+02 -0.21456092024E+03  0.23651835091E+03  0.00000000000E+00 0. -1.
        -16    1    1    2    0    0  0.30517871995E+03 -0.18162245693E+03 -0.18881080474E+03  0.40220677264E+03  0.00000000000E+00 0.  1.
         16    1    3    3    0    0 -0.51910991108E+02  0.14897416468E+03 -0.48940658410E+03  0.51420507319E+03  0.00000000000E+00 0. -1.
    9900018    1    3    3    0    0 -0.16281186922E+03 -0.21855435023E+01 -0.60300887687E+03  0.63122687311E+03  0.91187600000E+02 0.  0.
<mgrwt>
<rscale>  0 0.13056387E+04</rscale>
<asrwt>0</asrwt>
<pdfrwt beam="1">  1        1 0.35150601E+00 0.13056387E+04</pdfrwt>
<pdfrwt beam="2">  1       -1 0.28696343E-01 0.13056387E+04</pdfrwt>
<totfact> 0.20711886E+01</totfact>
</mgrwt>
</event>
<event>
12    1  0.7387040E-012  0.1470841E+04  0.7818608E-02  0.8904078E-01
          2   -1    0    0  501    0  0.00000000000E+00  0.00000000000E+00  0.11887501171E+04  0.11887501171E+04  0.00000000000E+00 0. -1.
         -2   -1    0    0    0  501 -0.00000000000E+00 -0.00000000000E+00 -0.45496792981E+03  0.45496792981E+03  0.00000000000E+00 0.  1.
    9900016    2    1    2    0    0 -0.32489188472E+03  0.29289044485E+03  0.53169187132E+02  0.83466081442E+03  0.70886681629E+03 0.  0.
         23    2    3    3    0    0 -0.11864516883E+02  0.31562990280E+02  0.10536025937E+03  0.13336108287E+03  0.74480903951E+02 0.  0.
         23    2    3    3    0    0 -0.36482440983E+03  0.10649962317E+03 -0.19973649301E+02  0.39118803410E+03  0.90499235411E+02 0.  0.
        -15    1    4    4    0    0 -0.41562208077E+02  0.88113251831E+01  0.69994723923E+02  0.81879899663E+02  0.00000000000E+00 0.  1.
        -15    1    5    5    0    0 -0.28427801417E+03  0.52370381794E+02  0.11143667021E+02  0.28927638608E+03  0.00000000000E+00 0. -1.
         15    1    4    4    0    0  0.29697691194E+02  0.22751665097E+02  0.35365535449E+02  0.51481183208E+02  0.00000000000E+00 0. -1.
         15    1    5    5    0    0 -0.80546395659E+02  0.54129241377E+02 -0.31117316322E+02  0.10191164801E+03  0.00000000000E+00 0.  1.
        -16    1    3    3    0    0  0.10358870779E+03 -0.13886923386E+02  0.15895621028E+02  0.10571725398E+03  0.00000000000E+00 0.  1.
         16    1    1    2    0    0  0.32489188472E+03 -0.29289044485E+03  0.68061300013E+03  0.80905723245E+03  0.00000000000E+00 0. -1.
    9900018    1    3    3    0    0 -0.51791665795E+02  0.16871475479E+03 -0.48113043967E+02  0.20439444347E+03  0.91187600000E+02 0.  0.
<mgrwt>
<rscale>  0 0.14708408E+04</rscale>
<asrwt>0</asrwt>
<pdfrwt beam="1">  1        2 0.18288463E+00 0.14708408E+04</pdfrwt>
<pdfrwt beam="2">  1       -2 0.69995067E-01 0.14708408E+04</pdfrwt>
<totfact> 0.34635194E+01</totfact>
</mgrwt>
</event>
<event>
12    1  0.7387040E-012  0.2193551E+04  0.7818608E-02  0.8521117E-01
          2   -1    0    0  501    0  0.00000000000E+00  0.00000000000E+00  0.17512118288E+04  0.17512118288E+04  0.00000000000E+00 0. -1.
         -2   -1    0    0    0  501 -0.00000000000E+00 -0.00000000000E+00 -0.68690548704E+03  0.68690548704E+03  0.00000000000E+00 0.  1.
    9900016    2    1    2    0    0 -0.20553845781E+03 -0.43702302099E+03 -0.35739437873E+03  0.93662868214E+03  0.71854531363E+03 0.  0.
         23    2    3    3    0    0 -0.16852318120E+03 -0.34826906065E+02 -0.25050537891E+03  0.32581326598E+03  0.11742386231E+03 0.  0.
         23    2    3    3    0    0 -0.79570429963E+02 -0.21638869819E+03  0.59943671696E+02  0.25534829782E+03  0.91945567544E+02 0.  0.
        -15    1    4    4    0    0 -0.14645255477E+03 -0.62089926790E+02 -0.24220090135E+03  0.28976677936E+03  0.00000000000E+00 0.  1.
        -15    1    5    5    0    0 -0.50729769542E+02 -0.92700218759E+02 -0.16734431614E+02  0.10699009897E+03  0.00000000000E+00 0. -1.
         15    1    4    4    0    0 -0.22070626432E+02  0.27263020725E+02 -0.83044775570E+01  0.36046486620E+02  0.00000000000E+00 0. -1.
         15    1    5    5    0    0 -0.28840660421E+02 -0.12368847944E+03  0.76678103310E+02  0.14835819885E+03  0.00000000000E+00 0.  1.
        -16    1    3    3    0    0  0.79054787013E+01 -0.10547724906E+03 -0.19873933559E+03  0.22513389388E+03  0.00000000000E+00 0.  1.
         16    1    1    2    0    0  0.20553845781E+03  0.43702302099E+03  0.14217007205E+04  0.15014886337E+04  0.00000000000E+00 0. -1.
    9900018    1    3    3    0    0  0.34649674656E+02 -0.80330167667E+02  0.31906664072E+02  0.13033322446E+03  0.91187600000E+02 0.  0.
<mgrwt>
<rscale>  0 0.21935515E+04</rscale>
<asrwt>0</asrwt>
<pdfrwt beam="1">  1        2 0.26941720E+00 0.21935515E+04</pdfrwt>
<pdfrwt beam="2">  1       -2 0.10567777E+00 0.21935515E+04</pdfrwt>
<totfact> 0.60797038E+00</totfact>
</mgrwt>
</event>
<event>
12    1  0.7387040E-012  0.1005000E+04  0.7818608E-02  0.9303078E-01
         -1   -1    0    0    0  501 -0.00000000000E+00  0.00000000000E+00  0.12184334615E+03  0.12184334615E+03  0.00000000000E+00 0.  1.
          1   -1    0    0  501    0  0.00000000000E+00 -0.00000000000E+00 -0.20723850269E+04  0.20723850269E+04  0.00000000000E+00 0. -1.
    9900016    2    1    2    0    0  0.12663848557E+03 -0.18920250403E+03 -0.13121964358E+04  0.15164971983E+04  0.72530639913E+03 0.  0.
         23    2    3    3    0    0  0.66833923278E+02 -0.77546313379E+02 -0.35382388901E+02  0.12449101293E+03  0.61366887125E+02 0.  0.
         23    2    3    3    0    0 -0.70709106571E+02  0.16081845992E+03 -0.38577761969E+03  0.43353869867E+03  0.90934463125E+02 0.  0.
        -15    1    4    4    0    0  0.10724264428E+02 -0.52260209526E+02 -0.33345599495E+02  0.62913181075E+02  0.00000000000E+00 0.  1.
        -15    1    5    5    0    0 -0.30733405567E+02 -0.13746340049E+01 -0.58816298704E+02  0.66376116410E+02  0.00000000000E+00 0.  1.
         15    1    5    5    0    0 -0.39975701004E+02  0.16219309393E+03 -0.32696132098E+03  0.36716258226E+03  0.00000000000E+00 0. -1.
         15    1    4    4    0    0  0.56109658850E+02 -0.25286103852E+02 -0.20367894063E+01  0.61577831851E+02  0.00000000000E+00 0. -1.
        -16    1    3    3    0    0  0.12350720382E+03 -0.15258149104E+03 -0.41434611414E+03  0.45849519420E+03  0.00000000000E+00 0.  1.
         16    1    1    2    0    0 -0.12663848557E+03  0.18920250403E+03 -0.63834524496E+03  0.67773117482E+03  0.00000000000E+00 0. -1.
    9900018    1    3    3    0    0  0.70064650427E+01 -0.11989315953E+03 -0.47669031309E+03  0.49997229248E+03  0.91187600000E+02 0.  0.
<mgrwt>
<rscale>  0 0.10050002E+04</rscale>
<asrwt>0</asrwt>
<pdfrwt beam="1">  1        1 0.31882845E+00 0.10050002E+04</pdfrwt>
<pdfrwt beam="2">  1       -1 0.18745131E-01 0.10050002E+04</pdfrwt>
<totfact> 0.61138923E+01</totfact>
</mgrwt>
</event>
<event>
12    1  0.7387040E-012  0.8594015E+03  0.7818608E-02  0.9477805E-01
         -2   -1    0    0    0  501 -0.00000000000E+00  0.00000000000E+00  0.87874713866E+03  0.87874713866E+03  0.00000000000E+00 0.  1.
          2   -1    0    0  501    0  0.00000000000E+00 -0.00000000000E+00 -0.21012044699E+03  0.21012044699E+03  0.00000000000E+00 0. -1.
    9900016    2    1    2    0    0 -0.73636971820E+02  0.94819689004E+02  0.49460606680E+03  0.87745246102E+03  0.71475484118E+03 0.  0.
         23    2    3    3    0    0  0.25051100736E+02 -0.16857628149E+02  0.29944389268E+02  0.12476389705E+03  0.11729290807E+03 0.  0.
         23    2    3    3    0    0  0.87828453825E+02  0.14601765027E+03  0.15413184730E+03  0.24565826444E+03  0.86927354989E+02 0.  0.
        -15    1    4    4    0    0 -0.24279480617E+02 -0.54088182914E+02  0.15964089347E+02  0.61399322950E+02  0.00000000000E+00 0.  1.
        -15    1    5    5    0    0 -0.17322606801E+02  0.24804425334E+02  0.31691491558E+02  0.43814185598E+02  0.00000000000E+00 0. -1.
         15    1    4    4    0    0  0.49330581353E+02  0.37230554765E+02  0.13980299921E+02  0.63364574098E+02  0.00000000000E+00 0. -1.
         15    1    5    5    0    0  0.10515106063E+03  0.12121322493E+03  0.12244035574E+03  0.20184407884E+03  0.00000000000E+00 0.  1.
        -16    1    1    2    0    0  0.73636971820E+02 -0.94819689004E+02  0.17402062487E+03  0.21141512463E+03  0.00000000000E+00 0.  1.
         16    1    3    3    0    0 -0.18928040340E+03 -0.15737379440E+03  0.16992095539E+03  0.29910986838E+03  0.00000000000E+00 0. -1.
    9900018    1    3    3    0    0  0.27638770228E+01  0.12303346129E+03  0.14060887484E+03  0.20792043115E+03  0.91187600000E+02 0.  0.
<mgrwt>
<rscale>  0 0.85940152E+03</rscale>
<asrwt>0</asrwt>
<pdfrwt beam="1">  1        2 0.32326223E-01 0.85940152E+03</pdfrwt>
<pdfrwt beam="2">  1       -2 0.13519187E+00 0.85940152E+03</pdfrwt>
<totfact> 0.64605868E+01</totfact>
</mgrwt>
</event>
<event>
12    1  0.7387040E-012  0.9602293E+03  0.7818608E-02  0.9353273E-01
         -2   -1    0    0    0  501 -0.00000000000E+00  0.00000000000E+00  0.15647802261E+03  0.15647802261E+03  0.00000000000E+00 0.  1.
          2   -1    0    0  501    0  0.00000000000E+00 -0.00000000000E+00 -0.14731145911E+04  0.14731145911E+04  0.00000000000E+00 0. -1.
    9900016    2    1    2    0    0 -0.20372922528E+03 -0.55762299529E+02 -0.11211964002E+04  0.13418220616E+04  0.70625069623E+03 0.  0.
         23    2    3    3    0    0 -0.57466865289E+02 -0.16887181776E+03 -0.16716197074E+03  0.25408425461E+03  0.69249928069E+02 0.  0.
         23    2    3    3    0    0 -0.64115390953E+02 -0.72626918349E+02 -0.50431968506E+02  0.14025005773E+03  0.87984331665E+02 0.  0.
        -15    1    4    4    0    0 -0.88776677628E+01 -0.12293662983E+03 -0.12179841061E+03  0.17328323856E+03  0.00000000000E+00 0.  1.
        -15    1    5    5    0    0  0.14660400053E+02 -0.10800957339E+01 -0.27808542214E+02  0.31454871746E+02  0.00000000000E+00 0. -1.
         15    1    5    5    0    0 -0.78775791006E+02 -0.71546822615E+02 -0.22623426292E+02  0.10879518598E+03  0.00000000000E+00 0.  1.
         15    1    4    4    0    0 -0.48589197526E+02 -0.45935187931E+02 -0.45363560130E+02  0.80801016047E+02  0.00000000000E+00 0. -1.
        -16    1    1    2    0    0  0.20372922528E+03  0.55762299529E+02 -0.19544016832E+03  0.28777055213E+03  0.00000000000E+00 0.  1.
         16    1    3    3    0    0 -0.98768493779E+02  0.12182093892E+03 -0.67079025547E+03  0.68887961456E+03  0.00000000000E+00 0. -1.
    9900018    1    3    3    0    0  0.16621524737E+02  0.63915497666E+02 -0.23281220549E+03  0.25860813473E+03  0.91187600000E+02 0.  0.
<mgrwt>
<rscale>  0 0.96022926E+03</rscale>
<asrwt>0</asrwt>
<pdfrwt beam="1">  1        2 0.22663301E+00 0.96022926E+03</pdfrwt>
<pdfrwt beam="2">  1       -2 0.24073542E-01 0.96022926E+03</pdfrwt>
<totfact> 0.20183896E+02</totfact>
</mgrwt>
</event>
<event>
12    1  0.7387040E-012  0.9386782E+03  0.7818608E-02  0.9378483E-01
          1   -1    0    0  501    0  0.00000000000E+00  0.00000000000E+00  0.46254340986E+03  0.46254340986E+03  0.00000000000E+00 0. -1.
         -1   -1    0    0    0  501 -0.00000000000E+00 -0.00000000000E+00 -0.47623460068E+03  0.47623460068E+03  0.00000000000E+00 0.  1.
    9900016    2    1    2    0    0  0.11647344514E+03  0.82093535381E+02  0.12186077386E+03  0.74210633718E+03  0.71802949487E+03 0.  0.
         23    2    3    3    0    0 -0.47046553696E+02 -0.37358876973E+02  0.85446929126E+02  0.13007680720E+03  0.77522475268E+02 0.  0.
         23    2    3    3    0    0 -0.60663437187E+02 -0.20817892770E+02  0.90546978318E+02  0.14952214958E+03  0.10022315433E+03 0.  0.
        -15    1    4    4    0    0 -0.41364338226E+02 -0.19866481888E+02  0.34220081148E+01  0.46015168358E+02  0.00000000000E+00 0.  1.
        -15    1    5    5    0    0 -0.65274648554E+02  0.14442521685E+02  0.18800675015E+02  0.69446609402E+02  0.00000000000E+00 0. -1.
         15    1    5    5    0    0  0.46112113675E+01 -0.35260414454E+02  0.71746303304E+02  0.80075540182E+02  0.00000000000E+00 0. -1.
         15    1    4    4    0    0 -0.56822154705E+01 -0.17492395085E+02  0.82024921011E+02  0.84061638845E+02  0.00000000000E+00 0.  1.
        -16    1    1    2    0    0 -0.11647344514E+03 -0.82093535381E+02 -0.13555196468E+03  0.19667167336E+03  0.00000000000E+00 0.  1.
         16    1    3    3    0    0  0.25758587236E+03 -0.33306191901E+02 -0.43314435443E+02  0.26331715549E+03  0.00000000000E+00 0. -1.
    9900018    1    3    3    0    0 -0.33402436339E+02  0.17357649702E+03 -0.10818698139E+02  0.19919022490E+03  0.91187600000E+02 0.  0.
<mgrwt>
<rscale>  0 0.93867817E+03</rscale>
<asrwt>0</asrwt>
<pdfrwt beam="1">  1        1 0.71160525E-01 0.93867817E+03</pdfrwt>
<pdfrwt beam="2">  1       -1 0.73266862E-01 0.93867817E+03</pdfrwt>
<totfact> 0.93204345E+01</totfact>
</mgrwt>
</event>
<event>
12    1  0.7387040E-012  0.1280360E+04  0.7818608E-02  0.9045286E-01
          2   -1    0    0  501    0  0.00000000000E+00  0.00000000000E+00  0.28925921764E+04  0.28925921764E+04  0.00000000000E+00 0. -1.
         -2   -1    0    0    0  501 -0.00000000000E+00 -0.00000000000E+00 -0.14168281259E+03  0.14168281259E+03  0.00000000000E+00 0.  1.
    9900016    2    1    2    0    0  0.26178423032E+03  0.24943353832E+03  0.11841310332E+04  0.14263127971E+04  0.70813403965E+03 0.  0.
         23    2    3    3    0    0  0.14441003780E+03  0.48171209809E+02  0.18199458062E+03  0.26007232078E+03  0.10649347486E+03 0.  0.
         23    2    3    3    0    0  0.83629437319E+02  0.59217892135E+02  0.54078350743E+03  0.55769306921E+03  0.89856084984E+02 0.  0.
        -15    1    4    4    0    0  0.59107770295E+02  0.19723023834E+02  0.15362693767E+03  0.16578287655E+03  0.00000000000E+00 0. -1.
        -15    1    5    5    0    0  0.52727392162E+02  0.81524587000E+02  0.35477545995E+03  0.36782069430E+03  0.00000000000E+00 0.  1.
         15    1    4    4    0    0  0.85302267506E+02  0.28448185975E+02  0.28367642949E+02  0.94289444231E+02  0.00000000000E+00 0.  1.
         15    1    5    5    0    0  0.30902045157E+02 -0.22306694865E+02  0.18600804747E+03  0.18987237491E+03  0.00000000000E+00 0. -1.
        -16    1    3    3    0    0 -0.30707248095E+02  0.19234476271E+02 -0.55172597763E+02  0.66006936809E+02  0.00000000000E+00 0.  1.
         16    1    1    2    0    0 -0.26178423032E+03 -0.24943353832E+03  0.15667783306E+04  0.16079621919E+04  0.00000000000E+00 0. -1.
    9900018    1    3    3    0    0  0.64452003292E+02  0.12280996010E+03  0.51652554295E+03  0.54254047033E+03  0.91187600000E+02 0.  0.
<mgrwt>
<rscale>  0 0.12803603E+04</rscale>
<asrwt>0</asrwt>
<pdfrwt beam="1">  1        2 0.44501414E+00 0.12803603E+04</pdfrwt>
<pdfrwt beam="2">  1       -2 0.21797358E-01 0.12803603E+04</pdfrwt>
<totfact> 0.36952781E+01</totfact>
</mgrwt>
</event>
<event>
12    1  0.7387040E-012  0.7909712E+03  0.7818608E-02  0.9573179E-01
         -3   -1    0    0    0  501 -0.00000000000E+00  0.00000000000E+00  0.39680497435E+03  0.39680497435E+03  0.00000000000E+00 0.  1.
          3   -1    0    0  501    0  0.00000000000E+00 -0.00000000000E+00 -0.39417056424E+03  0.39417056424E+03  0.00000000000E+00 0. -1.
    9900016    2    1    2    0    0  0.54764419257E+02 -0.31175762782E+02  0.24830254134E+02  0.72416442205E+03  0.72098994365E+03 0.  0.
         23    2    3    3    0    0 -0.74102285910E+02  0.80714054008E+02 -0.16981024650E+03  0.21371295221E+03  0.69511141808E+02 0.  0.
         23    2    3    3    0    0  0.17072501144E+03 -0.20064848697E+01  0.70766599396E+02  0.20600586370E+03  0.90991476381E+02 0.  0.
        -15    1    4    4    0    0  0.92026443105E+01  0.29936636734E+02 -0.31170192249E+02  0.44186782708E+02  0.00000000000E+00 0. -1.
        -15    1    5    5    0    0  0.38775799698E+02 -0.10384537726E+02  0.61532721200E+02  0.73468884871E+02  0.00000000000E+00 0. -1.
         15    1    5    5    0    0  0.13194921175E+03  0.83780528558E+01  0.92338781961E+01  0.13253697883E+03  0.00000000000E+00 0.  1.
         15    1    4    4    0    0 -0.83304930221E+02  0.50777417274E+02 -0.13864005425E+03  0.16952616950E+03  0.00000000000E+00 0.  1.
        -16    1    3    3    0    0  0.69093716226E+01  0.56726253889E+02  0.88260878034E+02  0.10514556523E+03  0.00000000000E+00 0.  1.
         16    1    1    2    0    0 -0.54764419257E+02  0.31175762782E+02 -0.22195844025E+02  0.66811116542E+02  0.00000000000E+00 0. -1.
    9900018    1    3    3    0    0 -0.48767677899E+02 -0.16660958581E+03  0.35613023202E+02  0.19930004091E+03  0.91187600000E+02 0.  0.
<mgrwt>
<rscale>  0 0.79097115E+03</rscale>
<asrwt>0</asrwt>
<pdfrwt beam="1">  1        3 0.60641626E-01 0.79097115E+03</pdfrwt>
<pdfrwt beam="2">  1       -3 0.61046919E-01 0.79097115E+03</pdfrwt>
<totfact> 0.18313234E+01</totfact>
</mgrwt>
</event>
<event>
12    1  0.7387040E-012  0.1575322E+04  0.7818608E-02  0.8835854E-01
          1   -1    0    0  501    0  0.00000000000E+00  0.00000000000E+00  0.17213239434E+04  0.17213239434E+04  0.00000000000E+00 0. -1.
         -1   -1    0    0    0  501 -0.00000000000E+00 -0.00000000000E+00 -0.36042574650E+03  0.36042574650E+03  0.00000000000E+00 0.  1.
    9900016    2    1    2    0    0 -0.32182942643E+03  0.22906182908E+03  0.20481623307E+03  0.86004227471E+03  0.73598880678E+03 0.  0.
         23    2    3    3    0    0  0.14810590667E+02  0.10104124695E+03  0.27471394491E+03  0.31207850865E+03  0.10722199798E+03 0.  0.
         23    2    3    3    0    0 -0.20286549915E+03 -0.16760532414E+02  0.20540986649E+02  0.22432334479E+03  0.91998395059E+02 0.  0.
        -15    1    5    5    0    0 -0.14057495253E+03  0.28442025245E+01 -0.27481209225E+02  0.14326417426E+03  0.00000000000E+00 0.  1.
        -15    1    4    4    0    0  0.46231067586E+02  0.46235948062E+01  0.78891509851E+02  0.91556319092E+02  0.00000000000E+00 0. -1.
         15    1    4    4    0    0 -0.31420476919E+02  0.96417652141E+02  0.19582243506E+03  0.22052218955E+03  0.00000000000E+00 0.  1.
         15    1    5    5    0    0 -0.62290546622E+02 -0.19604734939E+02  0.48022195873E+02  0.81059170530E+02  0.00000000000E+00 0. -1.
        -16    1    3    3    0    0  0.43090793568E+02  0.56172897507E+02 -0.78177630414E+02  0.10547015124E+03  0.00000000000E+00 0.  1.
         16    1    1    2    0    0  0.32182942643E+03 -0.22906182908E+03  0.11560819639E+04  0.12217074152E+04  0.00000000000E+00 0. -1.
    9900018    1    3    3    0    0 -0.17686531152E+03  0.88608217041E+02 -0.12261068072E+02  0.21817027004E+03  0.91187600000E+02 0.  0.
<mgrwt>
<rscale>  0 0.15753215E+04</rscale>
<asrwt>0</asrwt>
<pdfrwt beam="1">  1        1 0.26481906E+00 0.15753215E+04</pdfrwt>
<pdfrwt beam="2">  1       -1 0.55450116E-01 0.15753215E+04</pdfrwt>
<totfact> 0.14573291E+01</totfact>
</mgrwt>
</event>
<event>
12    1  0.7387040E-012  0.8791951E+03  0.7818608E-02  0.9451969E-01
          1   -1    0    0  501    0  0.00000000000E+00  0.00000000000E+00  0.20804670067E+03  0.20804670067E+03  0.00000000000E+00 0. -1.
         -1   -1    0    0    0  501 -0.00000000000E+00 -0.00000000000E+00 -0.92885873429E+03  0.92885873429E+03  0.00000000000E+00 0.  1.
    9900016    2    1    2    0    0  0.61419991912E+02  0.62815593756E+01 -0.41271790727E+03  0.82268598285E+03  0.70898821005E+03 0.  0.
         23    2    3    3    0    0  0.36780443919E+02 -0.46004063412E+02 -0.21578413102E+02  0.88158821926E+02  0.61944935758E+02 0.  0.
         23    2    3    3    0    0  0.19704603103E+03  0.19017732270E+03 -0.28171251952E+03  0.40261458263E+03  0.87988670159E+02 0.  0.
        -15    1    5    5    0    0  0.64359968334E+02  0.17292757668E+02 -0.42634591042E+02  0.79113547165E+02  0.00000000000E+00 0.  1.
        -15    1    4    4    0    0  0.52100734249E+02 -0.21219235450E+02 -0.12360937889E+02  0.57598048994E+02  0.00000000000E+00 0.  1.
         15    1    5    5    0    0  0.13268606269E+03  0.17288456504E+03 -0.23907792848E+03  0.32350103546E+03  0.00000000000E+00 0. -1.
         15    1    4    4    0    0 -0.15320290330E+02 -0.24784827962E+02 -0.92174752125E+01  0.30560772932E+02  0.00000000000E+00 0. -1.
        -16    1    1    2    0    0 -0.61419991912E+02 -0.62815593756E+01 -0.30809412635E+03  0.31421945211E+03  0.00000000000E+00 0.  1.
         16    1    3    3    0    0 -0.44448151136E+02 -0.65622966841E+02  0.52436587746E+02  0.95034770746E+02  0.00000000000E+00 0. -1.
    9900018    1    3    3    0    0 -0.12795833190E+03 -0.72268733075E+02 -0.16186356240E+03  0.23687780755E+03  0.91187600000E+02 0.  0.
<mgrwt>
<rscale>  0 0.87919508E+03</rscale>
<asrwt>0</asrwt>
<pdfrwt beam="1">  1        1 0.32007184E-01 0.87919508E+03</pdfrwt>
<pdfrwt beam="2">  1       -1 0.14290134E+00 0.87919508E+03</pdfrwt>
<totfact> 0.56670420E+01</totfact>
</mgrwt>
</event>
<event>
12    1  0.7387040E-012  0.8821671E+03  0.7818608E-02  0.9448152E-01
         -3   -1    0    0    0  501 -0.00000000000E+00  0.00000000000E+00  0.10425405969E+04  0.10425405969E+04  0.00000000000E+00 0.  1.
          3   -1    0    0  501    0  0.00000000000E+00 -0.00000000000E+00 -0.18661596082E+03  0.18661596082E+03  0.00000000000E+00 0. -1.
    9900016    2    1    2    0    0  0.11408159479E+03 -0.61788613408E+02  0.61658795464E+03  0.95691679189E+03  0.72019205618E+03 0.  0.
         23    2    3    3    0    0  0.12049962304E+03  0.37699310691E+01  0.91991518692E+02  0.17017065108E+03  0.77209063233E+02 0.  0.
         23    2    3    3    0    0 -0.49322925215E+02  0.71404786811E+02  0.27725763576E+03  0.30568652001E+03  0.95084475057E+02 0.  0.
        -15    1    5    5    0    0 -0.14117764403E+02  0.55704367699E+02  0.53112869377E+02  0.78251292296E+02  0.00000000000E+00 0.  1.
        -15    1    4    4    0    0  0.35110076372E+02  0.36189665756E+02  0.44369723576E+02  0.67164586953E+02  0.00000000000E+00 0. -1.
         15    1    4    4    0    0  0.85389546669E+02 -0.32419734686E+02  0.47621795117E+02  0.10300606413E+03  0.00000000000E+00 0.  1.
         15    1    5    5    0    0 -0.35205160813E+02  0.15700419111E+02  0.22414476638E+03  0.22743522771E+03  0.00000000000E+00 0. -1.
        -16    1    1    2    0    0 -0.11408159479E+03  0.61788613408E+02  0.23933668148E+03  0.27223976587E+03  0.00000000000E+00 0.  1.
         16    1    3    3    0    0 -0.16171282913E+03 -0.30857746456E+02  0.10386458983E+03  0.19465634498E+03  0.00000000000E+00 0. -1.
    9900018    1    3    3    0    0  0.20461772610E+03 -0.10610558483E+03  0.14347421035E+03  0.28640327581E+03  0.91187600000E+02 0.  0.
<mgrwt>
<rscale>  0 0.88216714E+03</rscale>
<asrwt>0</asrwt>
<pdfrwt beam="1">  1        3 0.28710148E-01 0.88216714E+03</pdfrwt>
<pdfrwt beam="2">  1       -3 0.16039086E+00 0.88216714E+03</pdfrwt>
<totfact> 0.83908317E+00</totfact>
</mgrwt>
</event>
<event>
12    1  0.7387040E-012  0.8020301E+03  0.7818608E-02  0.9557083E-01
         -1   -1    0    0    0  501 -0.00000000000E+00  0.00000000000E+00  0.97664202506E+02  0.97664202506E+02  0.00000000000E+00 0.  1.
          1   -1    0    0  501    0  0.00000000000E+00 -0.00000000000E+00 -0.16465916321E+04  0.16465916321E+04  0.00000000000E+00 0. -1.
    9900016    2    1    2    0    0  0.52348105489E+02  0.62029206425E+02 -0.14419968587E+04  0.16100094433E+04  0.71146856593E+03 0.  0.
         23    2    3    3    0    0 -0.18928104547E+02 -0.98363123020E+02 -0.35321099932E+00  0.12515940250E+03  0.75041149805E+02 0.  0.
         23    2    3    3    0    0  0.35134233135E+02  0.10502836768E+03 -0.47265333455E+03  0.49370348641E+03  0.89869825157E+02 0.  0.
        -15    1    5    5    0    0  0.50085250440E+02  0.16453386892E+02 -0.18278975488E+03  0.19024021852E+03  0.00000000000E+00 0. -1.
        -15    1    4    4    0    0  0.16690240761E+02 -0.25022573549E+02  0.25703518716E+02  0.39564683722E+02  0.00000000000E+00 0. -1.
         15    1    4    4    0    0 -0.35618345308E+02 -0.73340549471E+02 -0.26056729715E+02  0.85594718777E+02  0.00000000000E+00 0.  1.
         15    1    5    5    0    0 -0.14951017305E+02  0.88574980788E+02 -0.28986357967E+03  0.30346326789E+03  0.00000000000E+00 0.  1.
        -16    1    1    2    0    0 -0.52348105489E+02 -0.62029206425E+02 -0.10693057094E+03  0.13424639139E+03  0.00000000000E+00 0.  1.
         16    1    3    3    0    0 -0.21807742770E+01 -0.48566494780E+02 -0.45231662977E+03  0.45492174466E+03  0.00000000000E+00 0. -1.
    9900018    1    3    3    0    0  0.38322751178E+02  0.10393045654E+03 -0.51667368336E+03  0.53622480969E+03  0.91187600000E+02 0.  0.
<mgrwt>
<rscale>  0 0.80203007E+03</rscale>
<asrwt>0</asrwt>
<pdfrwt beam="1">  1        1 0.25332180E+00 0.80203007E+03</pdfrwt>
<pdfrwt beam="2">  1       -1 0.15025261E-01 0.80203007E+03</pdfrwt>
<totfact> 0.17307058E+02</totfact>
</mgrwt>
</event>
