<event>
12    1  0.5935136E-015  0.1150325E+04  0.7818608E-02  0.9157484E-01
         -2   -1    0    0    0  501 -0.00000000000E+00  0.00000000000E+00  0.16286579990E+03  0.16286579990E+03  0.00000000000E+00 0.  1.
          2   -1    0    0  501    0  0.00000000000E+00 -0.00000000000E+00 -0.20311933647E+04  0.20311933647E+04  0.00000000000E+00 0. -1.
         23    2    1    2    0    0  0.10573936314E+03 -0.56566437640E+02 -0.62812368466E+02  0.15294929883E+03  0.71186512735E+02 0.  0.
    9900016    2    1    2    0    0 -0.19488174407E+03  0.28826218569E+02 -0.17322872514E+04  0.19224582086E+04  0.81007197052E+03 0.  0.
         23    2    4    4    0    0 -0.21172949261E+03  0.27127919954E+03 -0.10014571664E+04  0.10606492909E+04  0.60321472703E+02 0.  0.
        -15    1    5    5    0    0 -0.16816707242E+03  0.21564669613E+03 -0.71247524461E+03  0.76315439852E+03  0.00000000000E+00 0.  1.
        -15    1    3    3    0    0  0.78395439380E+02 -0.56504052631E+01 -0.20225086336E+02  0.81159263873E+02  0.00000000000E+00 0.  1.
         15    1    5    5    0    0 -0.43562420197E+02  0.55632503416E+02 -0.28898192178E+03  0.29749489240E+03  0.00000000000E+00 0. -1.
         15    1    3    3    0    0  0.27343923758E+02 -0.50916032377E+02 -0.42587282130E+02  0.71790034954E+02  0.00000000000E+00 0. -1.
        -16    1    1    2    0    0  0.89142380931E+02  0.27740219071E+02 -0.73227944944E+02  0.11865165719E+03  0.00000000000E+00 0.  1.
         16    1    4    4    0    0  0.20589196564E+02  0.76888651040E+02 -0.27866177054E+02  0.84334473956E+02  0.00000000000E+00 0. -1.
    9900018    1    4    4    0    0 -0.37414480195E+01 -0.31934163201E+03 -0.70296390795E+03  0.77747444372E+03  0.91187600000E+02 0.  0.
<mgrwt>
<rscale>  0 0.11503251E+04</rscale>
<asrwt>0</asrwt>
<pdfrwt beam="1">  1        2 0.31249126E+00 0.11503251E+04</pdfrwt>
<pdfrwt beam="2">  1       -2 0.25056279E-01 0.11503251E+04</pdfrwt>
<totfact> 0.90963941E+01</totfact>
</mgrwt>
</event>
<event>
11    1  0.5935136E-015  0.1308436E+04  0.7818608E-02  0.9320645E-01
          2   -1    0    0  501    0  0.00000000000E+00  0.00000000000E+00  0.14664238021E+04  0.14664238021E+04  0.00000000000E+00 0. -1.
         -2   -1    0    0    0  501 -0.00000000000E+00 -0.00000000000E+00 -0.58823750413E+03  0.58823750413E+03  0.00000000000E+00 0.  1.
    9900016    2    1    2    0    0 -0.30125840537E+03  0.25243610242E+03  0.28420639436E+03  0.79255713038E+03  0.62681170834E+03 0.  0.
         23    2    3    3    0    0 -0.19074396841E+03 -0.60837326054E+01 -0.15781575490E+03  0.26869691399E+03  0.10426862330E+03 0.  0.
        -15    1    4    4    0    0 -0.81321860907E+02  0.47277334602E+01 -0.13302052377E+03  0.15598094841E+03  0.00000000000E+00 0. -1.
        -15    1    1    2    0    0  0.31227338869E+02 -0.19049982176E+03  0.18094784013E+03  0.26458920921E+03  0.00000000000E+00 0.  1.
         15    1    4    4    0    0 -0.10942210750E+03 -0.10811466066E+02 -0.24795231138E+02  0.11271596558E+03  0.00000000000E+00 0.  1.
         15    1    1    2    0    0  0.11710519243E+03 -0.18861321393E+03  0.38574318594E+03  0.44506895652E+03  0.00000000000E+00 0. -1.
        -16    1    1    2    0    0  0.18954619179E+03 -0.85317309924E+02 -0.15234732913E+03  0.25771400988E+03  0.00000000000E+00 0.  1.
         16    1    3    3    0    0 -0.11051443696E+03  0.25851983503E+03  0.44202214926E+03  0.52386021639E+03  0.00000000000E+00 0. -1.
    9900018    1    1    2    0    0 -0.36620317715E+02  0.21199424320E+03  0.17963620669E+03  0.29473200024E+03  0.91187600000E+02 0.  0.
<mgrwt>
<rscale>  0 0.98904265E+03</rscale>
<asrwt>0</asrwt>
<pdfrwt beam="1">  1        2 0.22560366E+00 0.13084358E+04</pdfrwt>
<pdfrwt beam="2">  1       -2 0.90498078E-01 0.13084358E+04</pdfrwt>
<totfact> 0.13437400E+01</totfact>
</mgrwt>
</event>
<event>
11    1  0.5935136E-015  0.2686498E+04  0.7818608E-02  0.8914788E-01
          1   -1    0    0  501    0  0.00000000000E+00  0.00000000000E+00  0.34214688450E+04  0.34214688450E+04  0.00000000000E+00 0. -1.
         -1   -1    0    0    0  501 -0.00000000000E+00 -0.00000000000E+00 -0.65321347257E+03  0.65321347257E+03  0.00000000000E+00 0.  1.
         23    2    1    2    0    0 -0.11900209435E+03 -0.18838160324E+03 -0.32319502256E+03  0.40823683906E+03  0.11204091781E+03 0.  0.
         23    2    1    2    0    0  0.16728535125E+03 -0.13984675483E+03  0.52888461484E+03  0.57724709239E+03  0.77160652403E+02 0.  0.
        -15    1    4    4    0    0  0.86436515709E+02 -0.29194024636E+02  0.16722218211E+03  0.19049099850E+03  0.00000000000E+00 0.  1.
        -15    1    3    3    0    0 -0.10001246226E+03 -0.13750583158E+03 -0.30805110777E+03  0.35186052822E+03  0.00000000000E+00 0. -1.
         15    1    4    4    0    0  0.80848835537E+02 -0.11065273019E+03  0.36166243273E+03  0.38675609388E+03  0.00000000000E+00 0. -1.
         15    1    3    3    0    0 -0.18989632091E+02 -0.50875771657E+02 -0.15143914793E+02  0.56376310840E+02  0.00000000000E+00 0.  1.
        -16    1    1    2    0    0 -0.69884884649E+03  0.11961066725E+03  0.10189840925E+04  0.12413802813E+04  0.00000000000E+00 0.  1.
         16    1    1    2    0    0  0.54742810038E+03 -0.38267892977E+02  0.42506246677E+03  0.69413259351E+03  0.00000000000E+00 0. -1.
    9900018    1    1    2    0    0  0.10313748922E+03  0.24688558380E+03  0.11185192209E+04  0.11536855113E+04  0.91187600000E+02 0.  0.
<mgrwt>
<rscale>  0 0.14552222E+04</rscale>
<asrwt>0</asrwt>
<pdfrwt beam="1">  1        1 0.52637981E+00 0.26864980E+04</pdfrwt>
<pdfrwt beam="2">  1       -1 0.10049438E+00 0.26864980E+04</pdfrwt>
<totfact> 0.23524496E-01</totfact>
</mgrwt>
</event>
<event>
12    1  0.5935136E-015  0.1988386E+04  0.7818608E-02  0.9309773E-01
         -2   -1    0    0    0  501 -0.00000000000E+00  0.00000000000E+00  0.17950279096E+04  0.17950279096E+04  0.00000000000E+00 0.  1.
          2   -1    0    0  501    0  0.00000000000E+00 -0.00000000000E+00 -0.62332111462E+03  0.62332111462E+03  0.00000000000E+00 0. -1.
         23    2    1    2    0    0 -0.21884526358E+02  0.32259221130E+02  0.57668290564E+02  0.13914749385E+03  0.12048569818E+03 0.  0.
    9900016    2    1    2    0    0 -0.16628808352E+03 -0.30616711268E+03  0.67284711536E+03  0.93079128592E+03  0.54060997927E+03 0.  0.
         23    2    4    4    0    0 -0.15910939776E+03  0.22731740605E+02  0.55254109241E+03  0.58050636135E+03  0.76507805395E+02 0.  0.
        -15    1    5    5    0    0 -0.85041161796E+02  0.18756833697E+02  0.41700250228E+03  0.42599871469E+03  0.00000000000E+00 0.  1.
        -15    1    3    3    0    0 -0.58212811837E+02  0.46409977640E+02  0.63776519000E+01  0.74721428856E+02  0.00000000000E+00 0.  1.
         15    1    3    3    0    0  0.36328285478E+02 -0.14150756510E+02  0.51290638664E+02  0.64426064991E+02  0.00000000000E+00 0. -1.
         15    1    5    5    0    0 -0.74068235961E+02  0.39749069086E+01  0.13553859012E+03  0.15450764666E+03  0.00000000000E+00 0. -1.
        -16    1    4    4    0    0 -0.71786857614E+01 -0.32889885328E+03  0.12030602296E+03  0.35028492457E+03  0.00000000000E+00 0.  1.
         16    1    1    2    0    0  0.29609751458E+03 -0.14356072222E+03 -0.32627389582E+03  0.46339839684E+03  0.00000000000E+00 0. -1.
    9900018    1    1    2    0    0 -0.10792490470E+03  0.41746861377E+03  0.76746528487E+03  0.88501184761E+03  0.91187600000E+02 0.  0.
<mgrwt>
<rscale>  0 0.99888115E+03</rscale>
<asrwt>0</asrwt>
<pdfrwt beam="1">  1        2 0.95895557E-01 0.19883857E+04</pdfrwt>
<pdfrwt beam="2">  1       -2 0.27615814E+00 0.19883857E+04</pdfrwt>
<totfact> 0.19507325E+00</totfact>
</mgrwt>
</event>
<event>
12    1  0.5935136E-015  0.1354605E+04  0.7818608E-02  0.9515325E-01
          1   -1    0    0  501    0  0.00000000000E+00  0.00000000000E+00  0.10004938525E+04  0.10004938525E+04  0.00000000000E+00 0. -1.
         -1   -1    0    0    0  501 -0.00000000000E+00 -0.00000000000E+00 -0.60239393452E+03  0.60239393452E+03  0.00000000000E+00 0.  1.
         23    2    1    2    0    0  0.27888260748E+02  0.14746491813E+03  0.95785789026E+02  0.21495799505E+03  0.12045067493E+03 0.  0.
    9900016    2    1    2    0    0  0.27704673478E+03  0.22521300869E+03  0.13875222850E+03  0.87937627074E+03  0.79156468597E+03 0.  0.
         23    2    4    4    0    0 -0.56885555284E+02  0.78793562958E+02 -0.29329204098E+02  0.12388629865E+03  0.71015637824E+02 0.  0.
        -15    1    3    3    0    0  0.75133388028E+02  0.10333953932E+03  0.65234936415E+02  0.14345620695E+03  0.00000000000E+00 0. -1.
        -15    1    5    5    0    0 -0.67759089800E+02  0.37472375715E+02 -0.15415425716E+02  0.78950038267E+02  0.00000000000E+00 0. -1.
         15    1    3    3    0    0 -0.47245127280E+02  0.44125378809E+02  0.30550852611E+02  0.71501788104E+02  0.00000000000E+00 0.  1.
         15    1    5    5    0    0  0.10873534516E+02  0.41321187242E+02 -0.13913778382E+02  0.44936260379E+02  0.00000000000E+00 0.  1.
        -16    1    4    4    0    0  0.47624775105E+03  0.11807510458E+03 -0.32403571268E+02  0.49173533748E+03  0.00000000000E+00 0.  1.
         16    1    1    2    0    0 -0.30493499553E+03 -0.37267792682E+03  0.16356190041E+03  0.50855352118E+03  0.00000000000E+00 0. -1.
    9900018    1    4    4    0    0 -0.14231546098E+03  0.28344341157E+02  0.20048500386E+03  0.26375463461E+03  0.91187600000E+02 0.  0.
<mgrwt>
<rscale>  0 0.83163304E+03</rscale>
<asrwt>0</asrwt>
<pdfrwt beam="1">  1        1 0.15392213E+00 0.13546052E+04</pdfrwt>
<pdfrwt beam="2">  1       -1 0.92675990E-01 0.13546052E+04</pdfrwt>
<totfact> 0.16690371E+01</totfact>
</mgrwt>
</event>
