<event>
11    1  0.2157050E-014  0.2827382E+04  0.7818608E-02  0.8405732E-01
          1   -1    0    0  501    0  0.00000000000E+00  0.00000000000E+00  0.34808940268E+04  0.34808940268E+04  0.00000000000E+00 0. -1.
         -1   -1    0    0    0  501 -0.00000000000E+00 -0.00000000000E+00 -0.19979832894E+04  0.19979832894E+04  0.00000000000E+00 0.  1.
    9900016    2    1    2    0    0  0.16413893563E+03 -0.22585079944E+02  0.89013894068E+03  0.20094560743E+04  0.17939104506E+04 0.  0.
        -24    2    3    3    0    0  0.16957669086E+03  0.30471267463E+03 -0.48114079749E+03  0.59964704123E+03  0.80461412374E+02 0.  0.
        -15    1    3    3    0    0 -0.54377552282E+01 -0.32729775457E+03  0.13712797382E+04  0.14098090330E+04  0.00000000000E+00 0.  1.
        -15    1    1    2    0    0  0.76109269510E+03 -0.63047208783E+03 -0.48119496446E+03  0.10992296111E+04  0.00000000000E+00 0.  1.
         15    1    4    4    0    0  0.15460088368E+03  0.23845983664E+03 -0.42631745196E+03  0.51235836752E+03  0.00000000000E+00 0. -1.
         15    1    1    2    0    0 -0.71397233715E+03 -0.67361864437E+02 -0.28005940676E+03  0.76988790762E+03  0.00000000000E+00 0. -1.
        -16    1    4    4    0    0  0.14975807178E+02  0.66252837986E+02 -0.54823345534E+02  0.87288673706E+02  0.00000000000E+00 0.  1.
         16    1    1    2    0    0 -0.23316299020E+03  0.66070857124E+03  0.12997913710E+04  0.14766036721E+04  0.00000000000E+00 0. -1.
    9900018    1    1    2    0    0  0.21903696620E+02  0.59710460968E+02  0.54234796928E+02  0.12370005120E+03  0.91187600000E+02 0.  0.
<mgrwt>
<rscale>  0 0.24923055E+04</rscale>
<asrwt>0</asrwt>
<pdfrwt beam="1">  1        1 0.53552216E+00 0.28273820E+04</pdfrwt>
<pdfrwt beam="2">  1       -1 0.30738205E+00 0.28273820E+04</pdfrwt>
<totfact> 0.62319534E-03</totfact>
</mgrwt>
</event>
<event>
11    1  0.2157050E-014  0.3913414E+04  0.7818608E-02  0.8196922E-01
          1   -1    0    0  501    0  0.00000000000E+00  0.00000000000E+00  0.27783321392E+04  0.27783321392E+04  0.00000000000E+00 0. -1.
         -1   -1    0    0    0  501 -0.00000000000E+00 -0.00000000000E+00 -0.49995215115E+04  0.49995215115E+04  0.00000000000E+00 0.  1.
    9900016    2    1    2    0    0 -0.36504565027E+03 -0.14127118657E+04 -0.13699657810E+03  0.23189447147E+04  0.17971431176E+04 0.  0.
        -24    2    3    3    0    0 -0.38980068988E+03 -0.17272401549E+04 -0.49637766856E+03  0.18407234010E+04  0.81047631529E+02 0.  0.
        -15    1    3    3    0    0  0.24755039614E+02  0.31452828919E+03  0.35938109045E+03  0.47822131369E+03  0.00000000000E+00 0.  1.
        -15    1    1    2    0    0  0.11577461721E+04  0.61079625962E+03 -0.31965281932E+04  0.34541628160E+04  0.00000000000E+00 0.  1.
         15    1    1    2    0    0  0.26956010150E+02  0.23274296358E+03 -0.11531339159E+03  0.26113807049E+03  0.00000000000E+00 0. -1.
         15    1    4    4    0    0 -0.15300186642E+03 -0.53781001072E+03 -0.13426843524E+03  0.57504538209E+03  0.00000000000E+00 0. -1.
        -16    1    4    4    0    0 -0.23679882346E+03 -0.11894301442E+04 -0.36210923332E+03  0.12656780189E+04  0.00000000000E+00 0.  1.
         16    1    1    2    0    0 -0.80535395277E+03  0.63759407603E+03  0.12586536914E+04  0.16246015850E+04  0.00000000000E+00 0. -1.
    9900018    1    1    2    0    0 -0.14302579189E+02 -0.68421433514E+02 -0.31004900904E+02  0.11900646457E+03  0.91187600000E+02 0.  0.
<mgrwt>
<rscale>  0 0.31694886E+04</rscale>
<asrwt>0</asrwt>
<pdfrwt beam="1">  1        1 0.42743572E+00 0.39134145E+04</pdfrwt>
<pdfrwt beam="2">  1       -1 0.76915715E+00 0.39134145E+04</pdfrwt>
<totfact> 0.64707728E-05</totfact>
</mgrwt>
</event>
<event>
11    1  0.2157050E-014  0.2470877E+04  0.7818608E-02  0.8491127E-01
         -2   -1    0    0    0  501 -0.00000000000E+00  0.00000000000E+00  0.15446513767E+04  0.15446513767E+04  0.00000000000E+00 0. -1.
          2   -1    0    0  501    0  0.00000000000E+00 -0.00000000000E+00 -0.37988381793E+04  0.37988381793E+04  0.00000000000E+00 0.  1.
    9900016    2    1    2    0    0 -0.59796831967E+01  0.20254603207E+02 -0.40145535941E+03  0.19225131691E+04  0.18800118282E+04 0.  0.
        -24    2    3    3    0    0 -0.13339305306E+03 -0.41605328068E+03  0.59636090223E+03  0.74345528763E+03  0.78647314175E+02 0.  0.
        -15    1    3    3    0    0  0.13326036844E+03  0.43477734252E+03 -0.98739493153E+03  0.10870779246E+04  0.00000000000E+00 0.  1.
        -15    1    1    2    0    0  0.72280728091E+03 -0.54793158058E+03 -0.20558109747E+04  0.22470064855E+04  0.00000000000E+00 0.  1.
         15    1    1    2    0    0 -0.53724076538E+03  0.23105368568E+03 -0.22187769527E+03  0.62549433035E+03  0.00000000000E+00 0. -1.
         15    1    4    4    0    0 -0.35897895439E+02 -0.13860873545E+03  0.25876409325E+03  0.29573619393E+03  0.00000000000E+00 0. -1.
        -16    1    4    4    0    0 -0.97495157626E+02 -0.27744454522E+03  0.33759680898E+03  0.44771909370E+03  0.00000000000E+00 0.  1.
         16    1    1    2    0    0 -0.17958683234E+03  0.29662329169E+03  0.42495722668E+03  0.54847557104E+03  0.00000000000E+00 0. -1.
    9900018    1    3    3    0    0 -0.58469985742E+01  0.15305413594E+01 -0.10421330109E+02  0.91979956861E+02  0.91187600000E+02 0.  0.
<mgrwt>
<rscale>  0 0.22668027E+04</rscale>
<asrwt>0</asrwt>
<pdfrwt beam="1">  1        2 0.58443665E+00 0.24708770E+04</pdfrwt>
<pdfrwt beam="2">  1       -2 0.23763867E+00 0.24708770E+04</pdfrwt>
<totfact> 0.32033635E-02</totfact>
</mgrwt>
</event>
<event>
11    1  0.2157050E-014  0.4534433E+04  0.7818608E-02  0.8192242E-01
          2   -1    0    0  501    0  0.00000000000E+00  0.00000000000E+00  0.26263750381E+04  0.26263750381E+04  0.00000000000E+00 0. -1.
         -2   -1    0    0    0  501 -0.00000000000E+00 -0.00000000000E+00 -0.30935489742E+04  0.30935489742E+04  0.00000000000E+00 0.  1.
    9900016    2    1    2    0    0  0.30409630102E+02  0.76429033033E+03  0.10953873930E+04  0.23165206190E+04  0.18924401662E+04 0.  0.
         24    2    3    3    0    0  0.48269991374E+03 -0.24364100947E+03  0.99039607557E+03  0.11310689341E+04  0.77925598454E+02 0.  0.
        -15    1    4    4    0    0  0.34350244251E+03 -0.15465729661E+03  0.61958496817E+03  0.72511953510E+03  0.00000000000E+00 0.  1.
        -15    1    1    2    0    0  0.85360019139E+02 -0.91760163165E+02 -0.13401186797E+03  0.18348144638E+03  0.00000000000E+00 0.  1.
         15    1    3    3    0    0 -0.45427576563E+03  0.98797082180E+03  0.94876480922E+02  0.10915376139E+04  0.00000000000E+00 0. -1.
         15    1    1    2    0    0  0.78251610143E+03  0.38687638059E+03  0.36946141599E+03  0.94789583856E+03  0.00000000000E+00 0. -1.
        -16    1    1    2    0    0 -0.89828575067E+03 -0.10594065478E+04 -0.17980108771E+04  0.22720261084E+04  0.00000000000E+00 0.  1.
         16    1    4    4    0    0  0.13919747123E+03 -0.88983712860E+02  0.37081110740E+03  0.40594939896E+03  0.00000000000E+00 0. -1.
    9900018    1    3    3    0    0  0.19854820006E+01  0.19960517997E+02  0.10114836492E+02  0.93914070983E+02  0.91187600000E+02 0.  0.
<mgrwt>
<rscale>  0 0.31870622E+04</rscale>
<asrwt>0</asrwt>
<pdfrwt beam="1">  1        2 0.40405770E+00 0.45344329E+04</pdfrwt>
<pdfrwt beam="2">  1       -2 0.47593061E+00 0.45344329E+04</pdfrwt>
<totfact> 0.50189517E-03</totfact>
</mgrwt>
</event>
<event>
11    1  0.2157050E-014  0.3539062E+04  0.7818608E-02  0.8312936E-01
         -2   -1    0    0    0  501 -0.00000000000E+00  0.00000000000E+00  0.16188739685E+04  0.16188739685E+04  0.00000000000E+00 0.  1.
          2   -1    0    0  501    0  0.00000000000E+00 -0.00000000000E+00 -0.42559613012E+04  0.42559613012E+04  0.00000000000E+00 0. -1.
    9900016    2    1    2    0    0  0.40445485652E+03 -0.78313981347E+03 -0.11873562589E+04  0.23230205036E+04  0.17915684961E+04 0.  0.
         24    2    3    3    0    0 -0.65105709533E+03 -0.54154487787E+02 -0.67162270767E+03  0.94044819758E+03  0.80979632923E+02 0.  0.
        -15    1    1    2    0    0 -0.23648406507E+03  0.91563967577E+02  0.10762584781E+03  0.27548502011E+03  0.00000000000E+00 0.  1.
        -15    1    4    4    0    0 -0.45576227514E+03 -0.74923680191E+02 -0.46716113193E+03  0.65694165074E+03  0.00000000000E+00 0.  1.
         15    1    3    3    0    0  0.10555119518E+04 -0.72898532568E+03 -0.51573355120E+03  0.13825723060E+04  0.00000000000E+00 0. -1.
         15    1    1    2    0    0 -0.16121668044E+03 -0.41917864843E+03 -0.19114680267E+04  0.19635201997E+04  0.00000000000E+00 0. -1.
        -16    1    1    2    0    0  0.76777300194E+01  0.11532758532E+04  0.36715154777E+03  0.12103323511E+04  0.00000000000E+00 0.  1.
         16    1    4    4    0    0 -0.19529482019E+03  0.20769192404E+02 -0.20446157574E+03  0.28350654684E+03  0.00000000000E+00 0. -1.
    9900018    1    1    2    0    0 -0.14431841037E+02 -0.42521358843E+02 -0.13040442662E+02  0.10247719518E+03  0.91187600000E+02 0.  0.
<mgrwt>
<rscale>  0 0.27690678E+04</rscale>
<asrwt>0</asrwt>
<pdfrwt beam="1">  1        2 0.65476326E+00 0.35390624E+04</pdfrwt>
<pdfrwt beam="2">  1       -2 0.24905754E+00 0.35390624E+04</pdfrwt>
<totfact> 0.10509872E-02</totfact>
</mgrwt>
</event>
<event>
11    1  0.2157050E-014  0.2347338E+04  0.7818608E-02  0.8839988E-01
         -1   -1    0    0    0  501 -0.00000000000E+00  0.00000000000E+00  0.19153291070E+04  0.19153291070E+04  0.00000000000E+00 0.  1.
          1   -1    0    0  501    0  0.00000000000E+00 -0.00000000000E+00 -0.19026910476E+04  0.19026910476E+04  0.00000000000E+00 0. -1.
    9900016    2    1    2    0    0  0.10609611584E+03  0.51076491821E+03  0.87499565322E+03  0.21452912284E+04  0.18879936107E+04 0.  0.
         24    2    3    3    0    0  0.38649045053E+03 -0.59040274263E+03  0.33148076054E+03  0.78366118938E+03  0.79341655411E+02 0.  0.
        -15    1    1    2    0    0  0.12260473416E+03 -0.15819808770E+03 -0.45154063913E+03  0.49391042161E+03  0.00000000000E+00 0.  1.
        -15    1    4    4    0    0  0.12383823184E+03 -0.21083926250E+03  0.15493537733E+03  0.28947205983E+03  0.00000000000E+00 0.  1.
         15    1    1    2    0    0 -0.26613514363E+03  0.28151071107E+02 -0.66681325494E+03  0.71851257083E+03  0.00000000000E+00 0. -1.
         15    1    3    3    0    0 -0.27195500033E+03  0.11212761427E+04  0.51603334410E+03  0.12639264704E+04  0.00000000000E+00 0. -1.
        -16    1    1    2    0    0  0.37434293623E+02 -0.38071790162E+03  0.25599630023E+03  0.46030593379E+03  0.00000000000E+00 0.  1.
         16    1    4    4    0    0  0.26265221869E+03 -0.37956348013E+03  0.17654538320E+03  0.49418912955E+03  0.00000000000E+00 0. -1.
    9900018    1    3    3    0    0 -0.84393343520E+01 -0.20108481849E+02  0.27481548582E+02  0.97703568578E+02  0.91187600000E+02 0.  0.
<mgrwt>
<rscale>  0 0.15687369E+04</rscale>
<asrwt>0</asrwt>
<pdfrwt beam="1">  1        1 0.29272170E+00 0.23473376E+04</pdfrwt>
<pdfrwt beam="2">  1       -1 0.29466602E+00 0.23473376E+04</pdfrwt>
<totfact> 0.10764712E-01</totfact>
</mgrwt>
</event>
<event>
11    1  0.2157050E-014  0.7000628E+04  0.7818608E-02  0.7577371E-01
          2   -1    0    0  501    0  0.00000000000E+00  0.00000000000E+00  0.38036336934E+04  0.38036336934E+04  0.00000000000E+00 0. -1.
         -2   -1    0    0    0  501 -0.00000000000E+00 -0.00000000000E+00 -0.32211820786E+04  0.32211820786E+04  0.00000000000E+00 0.  1.
    9900016    2    1    2    0    0 -0.43333575820E+03  0.10043311293E+04  0.19814644517E+03  0.21137831561E+04  0.17978755019E+04 0.  0.
        -24    2    3    3    0    0 -0.72983530166E+02  0.12570892918E+04  0.70262182699E+03  0.14442789904E+04  0.81635085403E+02 0.  0.
        -15    1    1    2    0    0 -0.10838706800E+04  0.37785195535E+03 -0.99886981590E+03  0.15216072622E+04  0.00000000000E+00 0.  1.
        -15    1    3    3    0    0 -0.36035222803E+03 -0.25275816249E+03 -0.50447538182E+03  0.66950416565E+03  0.00000000000E+00 0.  1.
         15    1    1    2    0    0  0.81946217251E+03 -0.10356732200E+04 -0.33485697024E+03  0.13624487004E+04  0.00000000000E+00 0. -1.
         15    1    4    4    0    0 -0.39273884734E+02  0.68648033356E+03  0.33702241542E+03  0.76575570183E+03  0.00000000000E+00 0. -1.
        -16    1    4    4    0    0 -0.33709645431E+02  0.57060895823E+03  0.36559941157E+03  0.67852328858E+03  0.00000000000E+00 0.  1.
         16    1    1    2    0    0  0.70205251393E+03 -0.37533747850E+03  0.17528094844E+04  0.19251226048E+04  0.00000000000E+00 0. -1.
    9900018    1    1    2    0    0 -0.43082482348E+01  0.28827613839E+02 -0.34777528631E+02  0.10185404859E+03  0.91187600000E+02 0.  0.
<mgrwt>
<rscale>  0 0.70006276E+04</rscale>
<asrwt>0</asrwt>
<pdfrwt beam="1">  1        2 0.58517441E+00 0.70006276E+04</pdfrwt>
<pdfrwt beam="2">  1       -2 0.49556647E+00 0.70006276E+04</pdfrwt>
<totfact> 0.54026318E-04</totfact>
</mgrwt>
</event>
<event>
11    1  0.2157050E-014  0.2610773E+04  0.7818608E-02  0.8681423E-01
          2   -1    0    0  501    0  0.00000000000E+00  0.00000000000E+00  0.34168847171E+04  0.34168847171E+04  0.00000000000E+00 0.  1.
         -2   -1    0    0    0  501 -0.00000000000E+00 -0.00000000000E+00 -0.78804076320E+03  0.78804076320E+03  0.00000000000E+00 0. -1.
    9900016    2    1    2    0    0 -0.21450741657E+03 -0.11906398393E+03  0.90628681604E+03  0.20333804299E+04  0.18036325889E+04 0.  0.
         24    2    3    3    0    0  0.27605902616E+03  0.74752373109E+03  0.56781245678E+03  0.98162257065E+03  0.78559344907E+02 0.  0.
        -15    1    4    4    0    0  0.27820866019E+03  0.73555514084E+03  0.54849038779E+03  0.95879253716E+03  0.00000000000E+00 0.  1.
        -15    1    1    2    0    0  0.12022588750E+03  0.32959054145E+02  0.43453508133E+03  0.45206338071E+03  0.00000000000E+00 0.  1.
         15    1    1    2    0    0  0.16136174226E+03  0.24151151893E+03 -0.67958583788E+02  0.29830151651E+03  0.00000000000E+00 0. -1.
         15    1    3    3    0    0 -0.49056644273E+03 -0.86658771501E+03  0.33847435926E+03  0.10517578592E+04  0.00000000000E+00 0. -1.
        -16    1    1    2    0    0 -0.54674071723E+02 -0.16225822890E+03  0.13041433461E+04  0.13153352631E+04  0.00000000000E+00 0.  1.
         16    1    4    4    0    0 -0.21496340342E+01  0.11968590251E+02  0.19322068988E+02  0.22830033488E+02  0.00000000000E+00 0. -1.
    9900018    1    1    2    0    0 -0.12406141469E+02  0.68516397434E+01  0.51837294228E+02  0.10584489019E+03  0.91187600000E+02 0.  0.
<mgrwt>
<rscale>  0 0.18475325E+04</rscale>
<asrwt>0</asrwt>
<pdfrwt beam="1">  1        2 0.52567457E+00 0.26107728E+04</pdfrwt>
<pdfrwt beam="2">  1       -2 0.12123704E+00 0.26107728E+04</pdfrwt>
<totfact> 0.41734656E-01</totfact>
</mgrwt>
</event>
<event>
11    1  0.2157050E-014  0.3356983E+04  0.7818608E-02  0.8235898E-01
         -1   -1    0    0    0  501 -0.00000000000E+00  0.00000000000E+00  0.26817786319E+04  0.26817786319E+04  0.00000000000E+00 0.  1.
          1   -1    0    0  501    0  0.00000000000E+00 -0.00000000000E+00 -0.29304994406E+04  0.29304994406E+04  0.00000000000E+00 0. -1.
    9900016    2    1    2    0    0 -0.10452924477E+04  0.12350247609E+03  0.17057201911E+03  0.21625909388E+04  0.18814397657E+04 0.  0.
         24    2    3    3    0    0 -0.37841083212E+03 -0.71167804870E+03 -0.39317389516E+03  0.90035224484E+03  0.79800063195E+02 0.  0.
        -15    1    4    4    0    0 -0.10344241672E+03 -0.14035991010E+03 -0.62206419618E+02  0.18512394924E+03  0.00000000000E+00 0.  1.
        -15    1    1    2    0    0  0.65852834451E+02  0.12857103359E+02  0.36358866212E+03  0.36972775948E+03  0.00000000000E+00 0.  1.
         15    1    1    2    0    0  0.14336552953E+04  0.97018529441E+03 -0.74122380227E+03  0.18830931300E+04  0.00000000000E+00 0. -1.
         15    1    3    3    0    0 -0.58130706161E+03  0.80612132145E+03  0.54195463561E+03  0.11320178054E+04  0.00000000000E+00 0. -1.
        -16    1    1    2    0    0 -0.45421568202E+03 -0.11065448739E+04 -0.41657687625E+02  0.11968662442E+04  0.00000000000E+00 0.  1.
         16    1    4    4    0    0 -0.27496841540E+03 -0.57131813860E+03 -0.33096747554E+03  0.71522829560E+03  0.00000000000E+00 0. -1.
    9900018    1    3    3    0    0 -0.85574553971E+02  0.29059203331E+02  0.21791278656E+02  0.13022088851E+03  0.91187600000E+02 0.  0.
<mgrwt>
<rscale>  0 0.30275844E+04</rscale>
<asrwt>0</asrwt>
<pdfrwt beam="1">  1        1 0.45084607E+00 0.33569828E+04</pdfrwt>
<pdfrwt beam="2">  1       -1 0.41258132E+00 0.33569828E+04</pdfrwt>
<totfact> 0.30576972E-03</totfact>
</mgrwt>
</event>
<event>
11    1  0.2157050E-014  0.2872387E+04  0.7818608E-02  0.8582458E-01
          2   -1    0    0  501    0  0.00000000000E+00  0.00000000000E+00  0.21197242190E+04  0.21197242190E+04  0.00000000000E+00 0. -1.
         -2   -1    0    0    0  501 -0.00000000000E+00 -0.00000000000E+00 -0.17623962018E+04  0.17623962018E+04  0.00000000000E+00 0.  1.
    9900016    2    1    2    0    0 -0.50612283993E+03 -0.68731166049E+03  0.22153534668E+03  0.20005407603E+04  0.17956970167E+04 0.  0.
        -24    2    3    3    0    0  0.63213874462E+03 -0.18804240380E+03 -0.19027964746E+03  0.69115127850E+03  0.80773804267E+02 0.  0.
        -15    1    1    2    0    0 -0.11496046992E+03  0.80883988139E+02 -0.28570525400E+03  0.31841108860E+03  0.00000000000E+00 0.  1.
        -15    1    3    3    0    0 -0.11382615845E+04 -0.49926925669E+03  0.41181499414E+03  0.13093894818E+04  0.00000000000E+00 0.  1.
         15    1    4    4    0    0  0.51094644861E+03 -0.16079106759E+03 -0.12185792489E+03  0.54933541176E+03  0.00000000000E+00 0. -1.
         15    1    1    2    0    0 -0.75406336461E+01  0.53714554906E+03 -0.19511756535E+03  0.57153570872E+03  0.00000000000E+00 0. -1.
        -16    1    4    4    0    0  0.12119229601E+03 -0.27251336212E+02 -0.68421722567E+02  0.14181586673E+03  0.00000000000E+00 0.  1.
         16    1    1    2    0    0  0.65297029486E+03  0.68715345809E+02  0.61130745904E+03  0.89710022528E+03  0.00000000000E+00 0. -1.
    9900018    1    1    2    0    0 -0.24346351367E+02  0.56677747810E+00  0.53080308681E+01  0.94532637999E+02  0.91187600000E+02 0.  0.
<mgrwt>
<rscale>  0 0.20525069E+04</rscale>
<asrwt>0</asrwt>
<pdfrwt beam="1">  1        2 0.32611142E+00 0.28723868E+04</pdfrwt>
<pdfrwt beam="2">  1       -2 0.27113788E+00 0.28723868E+04</pdfrwt>
<totfact> 0.22901010E-01</totfact>
</mgrwt>
</event>
<event>
11    1  0.2157050E-014  0.3582412E+04  0.7818608E-02  0.8459780E-01
         -2   -1    0    0    0  501 -0.00000000000E+00  0.00000000000E+00  0.28192894425E+04  0.28192894425E+04  0.00000000000E+00 0.  1.
          2   -1    0    0  501    0  0.00000000000E+00 -0.00000000000E+00 -0.16291589823E+04  0.16291589823E+04  0.00000000000E+00 0. -1.
    9900016    2    1    2    0    0 -0.29777259987E+03 -0.95266468693E+03  0.11164697598E+04  0.24077923398E+04  0.18853966957E+04 0.  0.
        -24    2    3    3    0    0 -0.10172920345E+04 -0.74917732754E+03  0.53780603798E+03  0.13754124144E+04  0.79838735675E+02 0.  0.
        -15    1    1    2    0    0 -0.11781159408E+03 -0.13990414473E+03  0.58748724903E+03  0.61529993432E+03  0.00000000000E+00 0.  1.
        -15    1    3    3    0    0  0.73119100424E+03 -0.18944922173E+03  0.55230282368E+03  0.93571881532E+03  0.00000000000E+00 0.  1.
         15    1    1    2    0    0 -0.54811019894E+02 -0.15997228214E+02 -0.16050056863E+03  0.17035431237E+03  0.00000000000E+00 0. -1.
         15    1    4    4    0    0 -0.37865270954E+03 -0.32726500777E+03  0.21042834602E+03  0.54291836271E+03  0.00000000000E+00 0. -1.
        -16    1    4    4    0    0 -0.63863932497E+03 -0.42191231977E+03  0.32737769195E+03  0.83249405173E+03  0.00000000000E+00 0.  1.
         16    1    1    2    0    0  0.47039521384E+03  0.11085660599E+04 -0.35332597995E+03  0.12550018384E+04  0.00000000000E+00 0. -1.
    9900018    1    3    3    0    0 -0.11671569603E+02 -0.14038137650E+02  0.26360898114E+02  0.96661110012E+02  0.91187600000E+02 0.  0.
<mgrwt>
<rscale>  0 0.23465761E+04</rscale>
<asrwt>0</asrwt>
<pdfrwt beam="1">  1        2 0.25063984E+00 0.35824116E+04</pdfrwt>
<pdfrwt beam="2">  1       -2 0.43373684E+00 0.35824116E+04</pdfrwt>
<totfact> 0.38065080E-02</totfact>
</mgrwt>
</event>
