<event>
12    1  0.3366445E-013  0.1506342E+04  0.7818608E-02  0.9253373E-01
         -2   -1    0    0    0  501 -0.00000000000E+00  0.00000000000E+00  0.56082743281E+03  0.56082743281E+03  0.00000000000E+00 0.  1.
          2   -1    0    0  501    0  0.00000000000E+00 -0.00000000000E+00 -0.15798008093E+04  0.15798008093E+04  0.00000000000E+00 0. -1.
         23    2    1    2    0    0  0.32090786933E+03  0.13317253435E+03 -0.84753314536E+02  0.36810618091E+03  0.87190891713E+02 0.  0.
    9900016    2    1    2    0    0 -0.49477198870E+03  0.39852206516E+03 -0.55984620999E+03  0.10994071674E+04  0.70117699889E+03 0.  0.
         23    2    4    4    0    0 -0.47272531670E+03  0.12163966912E+03 -0.56084587699E+03  0.75251422025E+03  0.11603499380E+03 0.  0.
        -15    1    3    3    0    0  0.26120550455E+03  0.69411517072E+02 -0.73110701664E+02  0.27998472995E+03  0.00000000000E+00 0.  1.
        -15    1    5    5    0    0 -0.31041477932E+03  0.11785852089E+03 -0.43420274453E+03  0.54660771081E+03  0.00000000000E+00 0.  1.
         15    1    3    3    0    0  0.59702364782E+02  0.63761017277E+02 -0.11642612872E+02  0.88121450960E+02  0.00000000000E+00 0. -1.
         15    1    5    5    0    0 -0.16231053739E+03  0.37811482290E+01 -0.12664313247E+03  0.20590650944E+03  0.00000000000E+00 0. -1.
        -16    1    1    2    0    0  0.17386411937E+03 -0.53169459951E+03 -0.37437385194E+03  0.67311489373E+03  0.00000000000E+00 0.  1.
         16    1    4    4    0    0 -0.70213394869E+02  0.55754382053E+02  0.42792279932E+02  0.99346117986E+02  0.00000000000E+00 0. -1.
    9900018    1    4    4    0    0  0.48166722877E+02  0.22112801398E+03 -0.41792612929E+02  0.24754682921E+03  0.91187600000E+02 0.  0.
<mgrwt>
<rscale>  0 0.10519114E+04</rscale>
<asrwt>0</asrwt>
<pdfrwt beam="1">  1        2 0.24304628E+00 0.15063424E+04</pdfrwt>
<pdfrwt beam="2">  1       -2 0.86281144E-01 0.15063424E+04</pdfrwt>
<totfact> 0.12771277E+01</totfact>
</mgrwt>
</event>
<event>
12    1  0.3366445E-013  0.1132823E+04  0.7818608E-02  0.9173778E-01
         -1   -1    0    0    0  501 -0.00000000000E+00  0.00000000000E+00  0.31424374103E+03  0.31424374103E+03  0.00000000000E+00 0.  1.
          1   -1    0    0  501    0  0.00000000000E+00 -0.00000000000E+00 -0.10209329599E+04  0.10209329599E+04  0.00000000000E+00 0. -1.
         23    2    1    2    0    0 -0.68147585938E+02  0.14860413943E+03 -0.31443222956E+03  0.36439226582E+03  0.84775071086E+02 0.  0.
    9900016    2    1    2    0    0  0.16911841208E+02 -0.11637237618E+03 -0.46215350429E+03  0.87832086987E+03  0.73758602794E+03 0.  0.
         23    2    4    4    0    0 -0.50249976914E+02 -0.34470682260E+03 -0.45230833769E+03  0.58159728234E+03  0.11101672284E+03 0.  0.
        -15    1    5    5    0    0 -0.83817688254E+02 -0.23293375007E+03 -0.33012981863E+03  0.41263692750E+03  0.00000000000E+00 0.  1.
        -15    1    3    3    0    0 -0.81522083247E+01  0.70721852518E+02 -0.65453350059E+02  0.96706669667E+02  0.00000000000E+00 0. -1.
         15    1    5    5    0    0  0.33567711340E+02 -0.11177307253E+03 -0.12217851906E+03  0.16896035484E+03  0.00000000000E+00 0. -1.
         15    1    3    3    0    0 -0.59995377614E+02  0.77882286912E+02 -0.24897887950E+03  0.26768559615E+03  0.00000000000E+00 0.  1.
        -16    1    1    2    0    0  0.51235744730E+02 -0.32231763246E+02  0.69896514946E+02  0.92463565265E+02  0.00000000000E+00 0.  1.
         16    1    4    4    0    0  0.17121056842E+02  0.15221168323E+03  0.40354236431E+02  0.15839820547E+03  0.00000000000E+00 0. -1.
    9900018    1    4    4    0    0  0.50040761281E+02  0.76122763196E+02 -0.50199403035E+02  0.13832538207E+03  0.91187600000E+02 0.  0.
<mgrwt>
<rscale>  0 0.11328227E+04</rscale>
<asrwt>0</asrwt>
<pdfrwt beam="1">  1        1 0.15706661E+00 0.11328227E+04</pdfrwt>
<pdfrwt beam="2">  1       -1 0.48345192E-01 0.11328227E+04</pdfrwt>
<totfact> 0.61980097E+01</totfact>
</mgrwt>
</event>
<event>
12    1  0.3366445E-013  0.1675055E+04  0.7818608E-02  0.8775721E-01
          2   -1    0    0  501    0  0.00000000000E+00  0.00000000000E+00  0.25245264538E+04  0.25245264538E+04  0.00000000000E+00 0. -1.
         -2   -1    0    0    0  501 -0.00000000000E+00 -0.00000000000E+00 -0.27785503505E+03  0.27785503505E+03  0.00000000000E+00 0.  1.
         23    2    1    2    0    0  0.29910711767E+03 -0.20146769279E+03  0.16248368696E+04  0.16668976241E+04  0.91643534239E+02 0.  0.
    9900016    2    1    2    0    0 -0.87681040780E+02  0.14776775760E+03  0.42371845281E+03  0.84080665719E+03  0.70561691620E+03 0.  0.
         23    2    4    4    0    0  0.89253725001E+02 -0.20294983850E+03  0.29513530276E+03  0.38384190995E+03  0.10523735329E+03 0.  0.
        -15    1    3    3    0    0  0.10626673871E+03 -0.12488086758E+03  0.66959757239E+03  0.68938288330E+03  0.00000000000E+00 0.  1.
        -15    1    5    5    0    0  0.58324250951E+02 -0.18185579894E+03  0.28824970807E+03  0.34577614733E+03  0.00000000000E+00 0. -1.
         15    1    3    3    0    0  0.19284037895E+03 -0.76586825207E+02  0.95523929719E+03  0.97751474078E+03  0.00000000000E+00 0. -1.
         15    1    5    5    0    0  0.30929474050E+02 -0.21094039563E+02  0.68855946873E+01  0.38065762626E+02  0.00000000000E+00 0.  1.
        -16    1    1    2    0    0 -0.21142607689E+03  0.53699935192E+02  0.19811609641E+03  0.29467720761E+03  0.00000000000E+00 0.  1.
         16    1    4    4    0    0 -0.11429934907E+03  0.28465016669E+03  0.11420411414E+03  0.32731122541E+03  0.00000000000E+00 0. -1.
    9900018    1    4    4    0    0 -0.62635416715E+02  0.66067429412E+02  0.14379035914E+02  0.12965352183E+03  0.91187600000E+02 0.  0.
<mgrwt>
<rscale>  0 0.16750551E+04</rscale>
<asrwt>0</asrwt>
<pdfrwt beam="1">  1        2 0.38838867E+00 0.16750551E+04</pdfrwt>
<pdfrwt beam="2">  1       -2 0.42746930E-01 0.16750551E+04</pdfrwt>
<totfact> 0.16694440E+01</totfact>
</mgrwt>
</event>
<event>
12    1  0.3366445E-013  0.1457108E+04  0.7818608E-02  0.9381670E-01
         -2   -1    0    0    0  501 -0.00000000000E+00  0.00000000000E+00  0.26082296481E+03  0.26082296481E+03  0.00000000000E+00 0.  1.
          2   -1    0    0  501    0  0.00000000000E+00 -0.00000000000E+00 -0.27879775366E+04  0.27879775366E+04  0.00000000000E+00 0. -1.
         23    2    1    2    0    0 -0.23030760158E+03  0.15366538533E+02 -0.38740859239E+03  0.46004076839E+03  0.90963560125E+02 0.  0.
    9900016    2    1    2    0    0 -0.32056034084E+03 -0.31070746042E+03 -0.12089044558E+04  0.14675337557E+04  0.70207355940E+03 0.  0.
         23    2    4    4    0    0 -0.16979409093E+03 -0.58936449533E+02 -0.31963201603E+02  0.19833041929E+03  0.77522709980E+02 0.  0.
        -15    1    5    5    0    0 -0.99422466118E+02 -0.96598185203E+01 -0.48182178849E+02  0.11090383772E+03  0.00000000000E+00 0. -1.
        -15    1    3    3    0    0 -0.15876763843E+03 -0.21617634722E+01 -0.33151409331E+03  0.36757778809E+03  0.00000000000E+00 0. -1.
         15    1    5    5    0    0 -0.70371624811E+02 -0.49276631012E+02  0.16218977246E+02  0.87426581572E+02  0.00000000000E+00 0.  1.
         15    1    3    3    0    0 -0.71539963149E+02  0.17528302005E+02 -0.55894499082E+02  0.92462980301E+02  0.00000000000E+00 0.  1.
        -16    1    4    4    0    0 -0.33171226876E+01 -0.76741068479E+01 -0.73701026859E+03  0.73705768514E+03  0.00000000000E+00 0.  1.
         16    1    1    2    0    0  0.55086794242E+03  0.29534092189E+03 -0.93084152365E+03  0.11212259773E+04  0.00000000000E+00 0. -1.
    9900018    1    4    4    0    0 -0.14744912722E+03 -0.24409690404E+03 -0.43993098557E+03  0.53214565124E+03  0.91187600000E+02 0.  0.
<mgrwt>
<rscale>  0 0.93599642E+03</rscale>
<asrwt>0</asrwt>
<pdfrwt beam="1">  1        2 0.42891963E+00 0.14571081E+04</pdfrwt>
<pdfrwt beam="2">  1       -2 0.40126610E-01 0.14571081E+04</pdfrwt>
<totfact> 0.13439954E+01</totfact>
</mgrwt>
</event>
<event>
12    1  0.3366445E-013  0.2229117E+04  0.7818608E-02  0.8506406E-01
         -2   -1    0    0    0  501 -0.00000000000E+00  0.00000000000E+00  0.76149701285E+03  0.76149701285E+03  0.00000000000E+00 0.  1.
          2   -1    0    0  501    0  0.00000000000E+00 -0.00000000000E+00 -0.16313137181E+04  0.16313137181E+04  0.00000000000E+00 0. -1.
         23    2    1    2    0    0 -0.34032599180E+03 -0.23467507767E+03 -0.10659727199E+04  0.11469588537E+04  0.91228282865E+02 0.  0.
    9900016    2    1    2    0    0  0.61049193699E+03  0.16444252063E+03  0.19190680023E+03  0.96667396658E+03  0.70561220934E+03 0.  0.
         23    2    4    4    0    0  0.16868986555E+03  0.15013764748E+03  0.14302199252E+03  0.27808614148E+03  0.76674818625E+02 0.  0.
        -15    1    5    5    0    0  0.17224793052E+03  0.12540663609E+03  0.12261920513E+03  0.24582848373E+03  0.00000000000E+00 0. -1.
        -15    1    3    3    0    0 -0.54403937919E+02 -0.50386681163E+02 -0.11360730776E+03  0.13566586334E+03  0.00000000000E+00 0. -1.
         15    1    5    5    0    0 -0.35580649738E+01  0.24731011391E+02  0.20402787380E+02  0.32257657753E+02  0.00000000000E+00 0.  1.
         15    1    3    3    0    0 -0.28592205389E+03 -0.18428839650E+03 -0.95236541216E+03  0.10112929903E+04  0.00000000000E+00 0.  1.
        -16    1    4    4    0    0  0.40489069213E+03  0.19451992104E+03  0.13031233554E+03  0.46771334923E+03  0.00000000000E+00 0.  1.
         16    1    1    2    0    0 -0.27016594518E+03  0.70232557035E+02  0.42492144521E+01  0.27917791071E+03  0.00000000000E+00 0. -1.
    9900018    1    4    4    0    0  0.36911379301E+02 -0.18021504789E+03 -0.81427527820E+02  0.22087447586E+03  0.91187600000E+02 0.  0.
<mgrwt>
<rscale>  0 0.22291169E+04</rscale>
<asrwt>0</asrwt>
<pdfrwt beam="1">  1        2 0.25097134E+00 0.22291169E+04</pdfrwt>
<pdfrwt beam="2">  1       -2 0.11715339E+00 0.22291169E+04</pdfrwt>
<totfact> 0.55041032E+00</totfact>
</mgrwt>
</event>
<event>
12    1  0.3366445E-013  0.8193915E+03  0.7818608E-02  0.1019560E+00
         -1   -1    0    0    0  501 -0.00000000000E+00  0.00000000000E+00  0.11893741645E+03  0.11893741645E+03  0.00000000000E+00 0.  1.
          1   -1    0    0  501    0  0.00000000000E+00 -0.00000000000E+00 -0.17648435366E+04  0.17648435366E+04  0.00000000000E+00 0. -1.
         23    2    1    2    0    0  0.11016877015E+02 -0.24003809860E+02 -0.13902713083E+03  0.16852973263E+03  0.91521435775E+02 0.  0.
    9900016    2    1    2    0    0  0.78125493140E+02 -0.39097624819E+02 -0.12933341120E+04  0.14753979990E+04  0.70459485743E+03 0.  0.
         23    2    4    4    0    0  0.19943704425E+03 -0.19775733060E+03 -0.83019574532E+03  0.88288979504E+03  0.10670669245E+03 0.  0.
        -15    1    5    5    0    0  0.70597382923E+02 -0.14423131014E+03 -0.46543365569E+03  0.49235672957E+03  0.00000000000E+00 0.  1.
        -15    1    3    3    0    0  0.46891599233E+02 -0.14787515328E+02 -0.41969676385E+02  0.64644771050E+02  0.00000000000E+00 0.  1.
         15    1    5    5    0    0  0.12883966132E+03 -0.53526020455E+02 -0.36476208963E+03  0.39053306547E+03  0.00000000000E+00 0. -1.
         15    1    3    3    0    0 -0.35874722217E+02 -0.92162945325E+01 -0.97057454446E+02  0.10388496158E+03  0.00000000000E+00 0. -1.
        -16    1    4    4    0    0 -0.97868605099E+02  0.18035951798E+03 -0.12373760634E+03  0.23962223355E+03  0.00000000000E+00 0.  1.
         16    1    1    2    0    0 -0.89142370155E+02  0.63101434679E+02 -0.21354487728E+03  0.23985322143E+03  0.00000000000E+00 0. -1.
    9900018    1    4    4    0    0 -0.23442946008E+02 -0.21699812200E+02 -0.33940076036E+03  0.35288597038E+03  0.91187600000E+02 0.  0.
<mgrwt>
<rscale>  0 0.47845579E+03</rscale>
<asrwt>0</asrwt>
<pdfrwt beam="1">  1        1 0.27151436E+00 0.81939152E+03</pdfrwt>
<pdfrwt beam="2">  1       -1 0.18298066E-01 0.81939152E+03</pdfrwt>
<totfact> 0.10407262E+02</totfact>
</mgrwt>
</event>
<event>
12    1  0.3366445E-013  0.1678372E+04  0.7818608E-02  0.8773797E-01
          1   -1    0    0  501    0  0.00000000000E+00  0.00000000000E+00  0.75490133363E+03  0.75490133363E+03  0.00000000000E+00 0. -1.
         -1   -1    0    0    0  501 -0.00000000000E+00 -0.00000000000E+00 -0.93288074773E+03  0.93288074773E+03  0.00000000000E+00 0.  1.
         23    2    1    2    0    0  0.28680547842E+03  0.36297996960E+03 -0.98287629219E+02  0.48252993001E+03  0.95722695958E+02 0.  0.
    9900016    2    1    2    0    0 -0.13090482437E+03 -0.29913474821E+03 -0.37756515538E+03  0.86303910209E+03  0.70403364589E+03 0.  0.
         23    2    4    4    0    0  0.38426001322E+02  0.24567074403E+02 -0.43186916683E+03  0.44114041941E+03  0.77548653473E+02 0.  0.
        -15    1    5    5    0    0  0.41243560851E+02 -0.19606091252E+02 -0.22559397419E+03  0.23016965768E+03  0.00000000000E+00 0. -1.
        -15    1    3    3    0    0  0.24040676516E+03  0.33933134162E+03 -0.10776208371E+03  0.42959729844E+03  0.00000000000E+00 0.  1.
         15    1    5    5    0    0 -0.28175595291E+01  0.44173165654E+02 -0.20627519264E+03  0.21097076173E+03  0.00000000000E+00 0.  1.
         15    1    3    3    0    0  0.46398713255E+02  0.23648627972E+02  0.94744544953E+01  0.52932631568E+02  0.00000000000E+00 0. -1.
        -16    1    1    2    0    0 -0.15590065405E+03 -0.63845221391E+02  0.29787337050E+03  0.34221304926E+03  0.00000000000E+00 0.  1.
         16    1    4    4    0    0 -0.72267883687E+02 -0.20105658769E+03 -0.40617297420E+02  0.21747681098E+03  0.00000000000E+00 0. -1.
    9900018    1    4    4    0    0 -0.97062942002E+02 -0.12264523492E+03  0.94921308865E+02  0.20442187170E+03  0.91187600000E+02 0.  0.
<mgrwt>
<rscale>  0 0.16783717E+04</rscale>
<asrwt>0</asrwt>
<pdfrwt beam="1">  1        1 0.11613867E+00 0.16783717E+04</pdfrwt>
<pdfrwt beam="2">  1       -1 0.14352012E+00 0.16783717E+04</pdfrwt>
<totfact> 0.90756973E+00</totfact>
</mgrwt>
</event>
<event>
12    1  0.3366445E-013  0.2095046E+04  0.7818608E-02  0.9148327E-01
         -1   -1    0    0    0  501 -0.00000000000E+00  0.00000000000E+00  0.98036444520E+03  0.98036444520E+03  0.00000000000E+00 0.  1.
          1   -1    0    0  501    0  0.00000000000E+00 -0.00000000000E+00 -0.13404804739E+04  0.13404804739E+04  0.00000000000E+00 0. -1.
         23    2    1    2    0    0  0.10678857352E+03  0.13819143233E+03 -0.16418026193E+02  0.19779380054E+03  0.91390177493E+02 0.  0.
    9900016    2    1    2    0    0 -0.78328723160E+03  0.35341290751E+02 -0.76843373335E+03  0.13056378317E+04  0.70669077470E+03 0.  0.
         23    2    4    4    0    0 -0.20557012098E+03  0.26490970905E+03 -0.40781673199E+03  0.53868206573E+03  0.10690019861E+03 0.  0.
        -15    1    3    3    0    0  0.18465608524E+02 -0.25379642110E+01  0.20379799391E+02  0.27618040910E+02  0.00000000000E+00 0.  1.
        -15    1    5    5    0    0 -0.62289258832E+02  0.16649020821E+03 -0.19408887530E+03  0.26319086746E+03  0.00000000000E+00 0.  1.
         15    1    3    3    0    0  0.88322965000E+02  0.14072939654E+03 -0.36797825583E+02  0.17017575963E+03  0.00000000000E+00 0. -1.
         15    1    5    5    0    0 -0.14328086215E+03  0.98419500835E+02 -0.21372785669E+03  0.27549119828E+03  0.00000000000E+00 0. -1.
        -16    1    1    2    0    0  0.67649865807E+03 -0.17353272308E+03  0.42473573088E+03  0.81741328680E+03  0.00000000000E+00 0.  1.
         16    1    4    4    0    0 -0.15950561773E+03 -0.15640595771E+03 -0.39457406851E+02  0.22685182972E+03  0.00000000000E+00 0. -1.
    9900018    1    4    4    0    0 -0.41821149289E+03 -0.73162460587E+02 -0.32115959451E+03  0.54010393626E+03  0.91187600000E+02 0.  0.
<mgrwt>
<rscale>  0 0.11603073E+04</rscale>
<asrwt>0</asrwt>
<pdfrwt beam="1">  1        1 0.20622776E+00 0.20950460E+04</pdfrwt>
<pdfrwt beam="2">  1       -1 0.15082530E+00 0.20950460E+04</pdfrwt>
<totfact> 0.26612694E+00</totfact>
</mgrwt>
</event>
<event>
12    1  0.3366445E-013  0.1777177E+04  0.7818608E-02  0.8718531E-01
         -1   -1    0    0    0  501 -0.00000000000E+00  0.00000000000E+00  0.21389423476E+03  0.21389423476E+03  0.00000000000E+00 0.  1.
          1   -1    0    0  501    0  0.00000000000E+00 -0.00000000000E+00 -0.36914956222E+04  0.36914956222E+04  0.00000000000E+00 0. -1.
         23    2    1    2    0    0  0.18868411912E+02  0.31551886361E+03 -0.85397818520E+03  0.91534045852E+03  0.93065804331E+02 0.  0.
    9900016    2    1    2    0    0  0.28898005450E+03 -0.26567728122E+03 -0.25395177867E+04  0.26670500447E+04  0.71408085138E+03 0.  0.
         23    2    4    4    0    0 -0.17486410164E+03  0.37648144615E+02 -0.51810915917E+03  0.55342203545E+03  0.76446135727E+02 0.  0.
        -15    1    3    3    0    0 -0.28548788918E+02  0.66729066929E+02 -0.25224918122E+03  0.26248323975E+03  0.00000000000E+00 0. -1.
        -15    1    5    5    0    0 -0.13144420578E+03  0.41159079833E+02 -0.28820444247E+03  0.31942675177E+03  0.00000000000E+00 0.  1.
         15    1    3    3    0    0  0.47417200829E+02  0.24878979668E+03 -0.60172900398E+03  0.65285721876E+03  0.00000000000E+00 0.  1.
         15    1    5    5    0    0 -0.43419895857E+02 -0.35109352181E+01 -0.22990471671E+03  0.23399528368E+03  0.00000000000E+00 0. -1.
        -16    1    4    4    0    0  0.25665932457E+03 -0.24428048788E+03 -0.15136725419E+04  0.15545904701E+04  0.00000000000E+00 0.  1.
         16    1    1    2    0    0 -0.30784846641E+03 -0.49841582394E+02 -0.84105415553E+02  0.32299935376E+03  0.00000000000E+00 0. -1.
    9900018    1    4    4    0    0  0.20718483157E+03 -0.59044937949E+02 -0.50773608568E+03  0.55903753919E+03  0.91187600000E+02 0.  0.
<mgrwt>
<rscale>  0 0.17771771E+04</rscale>
<asrwt>0</asrwt>
<pdfrwt beam="1">  1        1 0.56792240E+00 0.17771771E+04</pdfrwt>
<pdfrwt beam="2">  1       -1 0.32906806E-01 0.17771771E+04</pdfrwt>
<totfact> 0.14486478E+00</totfact>
</mgrwt>
</event>
<event>
12    1  0.3366445E-013  0.1488743E+04  0.7818608E-02  0.8891973E-01
         -2   -1    0    0    0  501 -0.00000000000E+00  0.00000000000E+00  0.96029307205E+03  0.96029307205E+03  0.00000000000E+00 0.  1.
          2   -1    0    0  501    0  0.00000000000E+00 -0.00000000000E+00 -0.57699968738E+03  0.57699968738E+03  0.00000000000E+00 0. -1.
         23    2    1    2    0    0  0.31874862217E+03 -0.11407516130E+03 -0.21623644263E+03  0.41045457260E+03  0.84267018985E+02 0.  0.
    9900016    2    1    2    0    0 -0.17735962316E+03  0.17812689684E+03  0.34494807175E+03  0.82866819484E+03  0.71029302237E+03 0.  0.
         23    2    4    4    0    0 -0.34790757587E+03  0.27908964871E+03  0.11865224736E+03  0.47710512048E+03  0.12091412994E+03 0.  0.
        -15    1    5    5    0    0 -0.17091737003E+03  0.20527132095E+03  0.41126541867E+02  0.27025997674E+03  0.00000000000E+00 0.  1.
        -15    1    3    3    0    0  0.19056351449E+03 -0.10879422986E+03 -0.15234116003E+03  0.26713005549E+03  0.00000000000E+00 0. -1.
         15    1    3    3    0    0  0.12818510768E+03 -0.52809314414E+01 -0.63895282595E+02  0.14332451711E+03  0.00000000000E+00 0.  1.
         15    1    5    5    0    0 -0.17699020584E+03  0.73818327767E+02  0.77525705493E+02  0.20684514374E+03  0.00000000000E+00 0. -1.
        -16    1    4    4    0    0  0.11132375957E+03 -0.73348395197E+02  0.49560667561E+02  0.14222948461E+03  0.00000000000E+00 0.  1.
         16    1    1    2    0    0 -0.14138899900E+03 -0.64051735536E+02  0.25458175555E+03  0.29816999199E+03  0.00000000000E+00 0. -1.
    9900018    1    4    4    0    0  0.59224193131E+02 -0.27614356674E+02  0.17673515683E+03  0.20933358975E+03  0.91187600000E+02 0.  0.
<mgrwt>
<rscale>  0 0.14887428E+04</rscale>
<asrwt>0</asrwt>
<pdfrwt beam="1">  1        2 0.88769183E-01 0.14887428E+04</pdfrwt>
<pdfrwt beam="2">  1       -2 0.14773740E+00 0.14887428E+04</pdfrwt>
<totfact> 0.15670435E+01</totfact>
</mgrwt>
</event>
<event>
12    1  0.3439575E-013  0.1824653E+04  0.7818608E-02  0.8693298E-01
          1   -1    0    0  501    0  0.00000000000E+00  0.00000000000E+00  0.56272107193E+03  0.56272107193E+03  0.00000000000E+00 0. -1.
         -1   -1    0    0    0  501 -0.00000000000E+00 -0.00000000000E+00 -0.14791338575E+04  0.14791338575E+04  0.00000000000E+00 0.  1.
         23    2    1    2    0    0  0.31814121783E+03 -0.24889631492E+03 -0.57303240734E+03  0.70680689895E+03  0.89703079531E+02 0.  0.
    9900016    2    1    2    0    0 -0.38924780815E+03 -0.13709057452E+03 -0.19442354737E+02  0.82614934797E+03  0.71542788471E+03 0.  0.
         23    2    4    4    0    0 -0.49870656133E+02 -0.20870909091E+03 -0.14244290539E+03  0.26457767629E+03  0.60537579429E+02 0.  0.
        -15    1    5    5    0    0 -0.62755640157E+02 -0.17230664219E+03 -0.10790846761E+03  0.21277238237E+03  0.00000000000E+00 0.  1.
        -15    1    3    3    0    0  0.19007441320E+03 -0.12901472468E+03 -0.39451251134E+03  0.45652294941E+03  0.00000000000E+00 0. -1.
         15    1    3    3    0    0  0.12806680464E+03 -0.11988159024E+03 -0.17851989600E+03  0.25028394953E+03  0.00000000000E+00 0.  1.
         15    1    5    5    0    0  0.12884984024E+02 -0.36402448719E+02 -0.34534437776E+02  0.51805293924E+02  0.00000000000E+00 0. -1.
        -16    1    4    4    0    0 -0.36710882205E+03 -0.65511926801E+02  0.12864980768E+03  0.39447620055E+03  0.00000000000E+00 0.  1.
         16    1    1    2    0    0  0.71106590316E+02  0.38598688944E+03 -0.32393802350E+03  0.50889868252E+03  0.00000000000E+00 0. -1.
    9900018    1    4    4    0    0  0.27731670036E+02  0.13713044320E+03 -0.56492570298E+01  0.16709547113E+03  0.91187600000E+02 0.  0.
<mgrwt>
<rscale>  0 0.18246532E+04</rscale>
<asrwt>0</asrwt>
<pdfrwt beam="1">  1        1 0.86572474E-01 0.18246532E+04</pdfrwt>
<pdfrwt beam="2">  1       -1 0.22755905E+00 0.18246532E+04</pdfrwt>
<totfact> 0.34642544E+00</totfact>
</mgrwt>
</event>
<event>
12    1  0.3366445E-013  0.1898682E+04  0.7818608E-02  0.8655513E-01
          1   -1    0    0  501    0  0.00000000000E+00  0.00000000000E+00  0.13998064845E+04  0.13998064845E+04  0.00000000000E+00 0.  1.
         -1   -1    0    0    0  501 -0.00000000000E+00 -0.00000000000E+00 -0.64383760774E+03  0.64383760774E+03  0.00000000000E+00 0. -1.
         23    2    1    2    0    0 -0.42696045009E+03  0.17696596109E+03 -0.28340990912E+03  0.55031641823E+03  0.94418251714E+02 0.  0.
    9900016    2    1    2    0    0  0.24974535516E+03 -0.15635626799E+02  0.98924405949E+03  0.12484886301E+04  0.71937669896E+03 0.  0.
         23    2    4    4    0    0  0.22464773924E+03 -0.14941203241E+03  0.95282578445E+03  0.99246265853E+03  0.65685545537E+02 0.  0.
        -15    1    5    5    0    0  0.16575881026E+03 -0.14207032120E+03  0.74404185348E+03  0.77540843371E+03  0.00000000000E+00 0.  1.
        -15    1    3    3    0    0 -0.14153148187E+03  0.18545926877E+02 -0.11308714894E+03  0.18210934907E+03  0.00000000000E+00 0.  1.
         15    1    5    5    0    0  0.58888928984E+02 -0.73417112101E+01  0.20878393097E+03  0.21705422482E+03  0.00000000000E+00 0. -1.
         15    1    3    3    0    0 -0.28542896822E+03  0.15842003422E+03 -0.17032276017E+03  0.36820706915E+03  0.00000000000E+00 0. -1.
        -16    1    1    2    0    0  0.17721509493E+03 -0.16133033429E+03  0.50134726395E+02  0.24483904392E+03  0.00000000000E+00 0.  1.
         16    1    4    4    0    0 -0.29335418976E+02  0.13595308438E+03 -0.11378675499E+02  0.13954670263E+03  0.00000000000E+00 0. -1.
    9900018    1    4    4    0    0  0.54433034892E+02 -0.21766787710E+01  0.47796950547E+02  0.11647926894E+03  0.91187600000E+02 0.  0.
<mgrwt>
<rscale>  0 0.18986817E+04</rscale>
<asrwt>0</asrwt>
<pdfrwt beam="1">  1        1 0.21535484E+00 0.18986817E+04</pdfrwt>
<pdfrwt beam="2">  1       -1 0.99051940E-01 0.18986817E+04</pdfrwt>
<totfact> 0.70050687E+00</totfact>
</mgrwt>
</event>
<event>
12    1  0.3366445E-013  0.8760055E+03  0.7818608E-02  0.1001843E+00
         -1   -1    0    0    0  501 -0.00000000000E+00  0.00000000000E+00  0.23973394718E+03  0.23973394718E+03  0.00000000000E+00 0.  1.
          1   -1    0    0  501    0  0.00000000000E+00 -0.00000000000E+00 -0.10678068764E+04  0.10678068764E+04  0.00000000000E+00 0. -1.
         23    2    1    2    0    0 -0.60639379995E+02  0.80203019920E+02 -0.88838217119E+02  0.16130629537E+03  0.89542354759E+02 0.  0.
    9900016    2    1    2    0    0  0.20887222999E+03 -0.64066872983E+02 -0.62121968279E+03  0.95607433205E+03  0.69313206638E+03 0.  0.
         23    2    4    4    0    0  0.34117435514E+03  0.50070279096E+02 -0.64749886476E+03  0.73643910122E+03  0.64659078968E+02 0.  0.
        -15    1    3    3    0    0 -0.36896675403E+01  0.55024699484E+02 -0.29575418598E+01  0.55227513557E+02  0.00000000000E+00 0.  1.
        -15    1    5    5    0    0  0.85156413904E+02  0.23053303884E+02 -0.11469171749E+03  0.14469713097E+03  0.00000000000E+00 0. -1.
         15    1    5    5    0    0  0.25601794124E+03  0.27016975211E+02 -0.53280714726E+03  0.59174197025E+03  0.00000000000E+00 0.  1.
         15    1    3    3    0    0 -0.56949712455E+02  0.25178320436E+02 -0.85880675259E+02  0.10607878182E+03  0.00000000000E+00 0. -1.
        -16    1    4    4    0    0 -0.53749786936E+02 -0.73031758857E+02  0.63492300879E+01  0.90900990754E+02  0.00000000000E+00 0.  1.
         16    1    1    2    0    0 -0.14823284999E+03 -0.16136146937E+02 -0.11801502929E+03  0.19016019613E+03  0.00000000000E+00 0. -1.
    9900018    1    4    4    0    0 -0.78552338221E+02 -0.41105393221E+02  0.19929951879E+02  0.12873424007E+03  0.91187600000E+02 0.  0.
<mgrwt>
<rscale>  0 0.54849458E+03</rscale>
<asrwt>0</asrwt>
<pdfrwt beam="1">  1        1 0.16427798E+00 0.87600550E+03</pdfrwt>
<pdfrwt beam="2">  1       -1 0.36882145E-01 0.87600550E+03</pdfrwt>
<totfact> 0.95634997E+01</totfact>
</mgrwt>
</event>
<event>
12    1  0.3366445E-013  0.1346732E+04  0.7818608E-02  0.9410165E-01
          1   -1    0    0  501    0  0.00000000000E+00  0.00000000000E+00  0.16008839412E+04  0.16008839412E+04  0.00000000000E+00 0. -1.
         -1   -1    0    0    0  501 -0.00000000000E+00 -0.00000000000E+00 -0.48800353210E+03  0.48800353210E+03  0.00000000000E+00 0.  1.
         23    2    1    2    0    0  0.21386792732E+03  0.16828599379E+03 -0.74577773788E+02  0.29340864177E+03  0.80418410075E+02 0.  0.
    9900016    2    1    2    0    0  0.14467996984E+03  0.42983458503E+02  0.11870836079E+04  0.13793159832E+04  0.68597756379E+03 0.  0.
         23    2    4    4    0    0  0.27306736087E+03  0.18308337652E+03  0.59159000648E+03  0.68722459833E+03  0.11922083066E+03 0.  0.
        -15    1    3    3    0    0  0.84663677724E+02  0.11742448784E+03 -0.33228931517E+02  0.14852814737E+03  0.00000000000E+00 0. -1.
        -15    1    5    5    0    0  0.12774071541E+03  0.76421396384E+02  0.38648050672E+03  0.41415589127E+03  0.00000000000E+00 0. -1.
         15    1    5    5    0    0  0.14532664546E+03  0.10666198014E+03  0.20510949975E+03  0.27306870706E+03  0.00000000000E+00 0.  1.
         15    1    3    3    0    0  0.12920424960E+03  0.50861505953E+02 -0.41348842271E+02  0.14488049440E+03  0.00000000000E+00 0.  1.
        -16    1    1    2    0    0 -0.35854789716E+03 -0.21126945230E+03  0.37457501584E+00  0.41616284834E+03  0.00000000000E+00 0.  1.
         16    1    4    4    0    0 -0.80377347874E+02 -0.21136263961E+03  0.35469486476E+03  0.42064608706E+03  0.00000000000E+00 0. -1.
    9900018    1    4    4    0    0 -0.48010043152E+02  0.71262721595E+02  0.24079873668E+03  0.27144529782E+03  0.91187600000E+02 0.  0.
<mgrwt>
<rscale>  0 0.91243818E+03</rscale>
<asrwt>0</asrwt>
<pdfrwt beam="1">  1        1 0.24628983E+00 0.13467321E+04</pdfrwt>
<pdfrwt beam="2">  1       -1 0.75077467E-01 0.13467321E+04</pdfrwt>
<totfact> 0.96867656E+00</totfact>
</mgrwt>
</event>
<event>
12    1  0.3366445E-013  0.9360524E+03  0.7818608E-02  0.9381603E-01
          1   -1    0    0  501    0  0.00000000000E+00  0.00000000000E+00  0.17508274827E+04  0.17508274827E+04  0.00000000000E+00 0. -1.
         -1   -1    0    0    0  501 -0.00000000000E+00 -0.00000000000E+00 -0.12511143378E+03  0.12511143378E+03  0.00000000000E+00 0.  1.
         23    2    1    2    0    0  0.77164590632E+02  0.89112953368E+02  0.19849454138E+03  0.24678255810E+03  0.87212702749E+02 0.  0.
    9900016    2    1    2    0    0 -0.46213082805E+02 -0.10710747637E+03  0.12265657392E+04  0.14253315903E+04  0.71658842396E+03 0.  0.
         23    2    4    4    0    0  0.25615677804E+03  0.68394385528E+02  0.86291744724E+03  0.90611354209E+03  0.78237737052E+02 0.  0.
        -15    1    3    3    0    0 -0.19195608443E+02  0.21319114531E+02  0.43059125669E+02  0.51740354959E+02  0.00000000000E+00 0. -1.
        -15    1    5    5    0    0  0.99651047371E+02 -0.76908567253E+00  0.41042578773E+03  0.42235086122E+03  0.00000000000E+00 0. -1.
         15    1    3    3    0    0  0.96360199075E+02  0.67793838836E+02  0.15543541571E+03  0.19504220315E+03  0.00000000000E+00 0.  1.
         15    1    5    5    0    0  0.15650573067E+03  0.69163471201E+02  0.45249165950E+03  0.48376268087E+03  0.00000000000E+00 0.  1.
        -16    1    4    4    0    0 -0.11907435506E+03 -0.42976678620E+02  0.13096680118E+03  0.18214829110E+03  0.00000000000E+00 0.  1.
         16    1    1    2    0    0 -0.30951507827E+02  0.17994523002E+02  0.20065576836E+03  0.20382476805E+03  0.00000000000E+00 0. -1.
    9900018    1    4    4    0    0 -0.18329550579E+03 -0.13252518328E+03  0.23268149075E+03  0.33706975713E+03  0.91187600000E+02 0.  0.
<mgrwt>
<rscale>  0 0.93605243E+03</rscale>
<asrwt>0</asrwt>
<pdfrwt beam="1">  1        1 0.26935806E+00 0.93605243E+03</pdfrwt>
<pdfrwt beam="2">  1       -1 0.19247914E-01 0.93605243E+03</pdfrwt>
<totfact> 0.96854469E+01</totfact>
</mgrwt>
</event>
<event>
12    1  0.3366445E-013  0.1935465E+04  0.7818608E-02  0.8637402E-01
          1   -1    0    0  501    0  0.00000000000E+00  0.00000000000E+00  0.87909648533E+03  0.87909648533E+03  0.00000000000E+00 0. -1.
         -1   -1    0    0    0  501 -0.00000000000E+00 -0.00000000000E+00 -0.10653050262E+04  0.10653050262E+04  0.00000000000E+00 0.  1.
         23    2    1    2    0    0 -0.19406702464E+03  0.36179533398E+03 -0.35710361105E+03  0.55141911607E+03  0.89343040046E+02 0.  0.
    9900016    2    1    2    0    0 -0.12814340855E+03 -0.14603337746E+03  0.49364277354E+03  0.88846394668E+03  0.71269805402E+03 0.  0.
         23    2    4    4    0    0 -0.20173744441E+03 -0.26434626300E+03  0.12133706729E+03  0.37499478694E+03  0.12377989778E+03 0.  0.
        -15    1    5    5    0    0 -0.10398698985E+03 -0.42499395778E+02  0.41567715149E+02  0.11978049775E+03  0.00000000000E+00 0.  1.
        -15    1    3    3    0    0 -0.10122881718E+03  0.26173628338E+03 -0.27046799119E+03  0.38975131780E+03  0.00000000000E+00 0. -1.
         15    1    3    3    0    0 -0.92838207461E+02  0.10005905060E+03 -0.86635619858E+02  0.16166779828E+03  0.00000000000E+00 0.  1.
         15    1    5    5    0    0 -0.97750454562E+02 -0.22184686723E+03  0.79769352144E+02  0.25521428919E+03  0.00000000000E+00 0. -1.
        -16    1    4    4    0    0 -0.22147925499E+02  0.97113813395E+02  0.36611071507E+03  0.37941887017E+03  0.00000000000E+00 0.  1.
         16    1    1    2    0    0  0.32221043319E+03 -0.21576195652E+03 -0.32274770340E+03  0.50451844881E+03  0.00000000000E+00 0. -1.
    9900018    1    4    4    0    0  0.95741961355E+02  0.21199072147E+02  0.61949911798E+01  0.13405028957E+03  0.91187600000E+02 0.  0.
<mgrwt>
<rscale>  0 0.19354647E+04</rscale>
<asrwt>0</asrwt>
<pdfrwt beam="1">  1        1 0.13524561E+00 0.19354647E+04</pdfrwt>
<pdfrwt beam="2">  1       -1 0.16389308E+00 0.19354647E+04</pdfrwt>
<totfact> 0.48244155E+00</totfact>
</mgrwt>
</event>
<event>
12    1  0.3366445E-013  0.1635223E+04  0.7818608E-02  0.8799197E-01
          2   -1    0    0  501    0  0.00000000000E+00  0.00000000000E+00  0.20044184121E+04  0.20044184121E+04  0.00000000000E+00 0. -1.
         -2   -1    0    0    0  501 -0.00000000000E+00 -0.00000000000E+00 -0.33350741920E+03  0.33350741920E+03  0.00000000000E+00 0.  1.
         23    2    1    2    0    0  0.30893544346E+03  0.98100173244E+01 -0.27615139380E+02  0.32348026769E+03  0.91321098313E+02 0.  0.
    9900016    2    1    2    0    0 -0.18872508543E+03  0.10962628971E+03  0.16840576955E+04  0.18443723521E+04  0.71973882068E+03 0.  0.
         23    2    4    4    0    0 -0.27802942682E+02  0.20341337549E+03  0.23241997822E+03  0.32778551021E+03  0.10618045715E+03 0.  0.
        -15    1    3    3    0    0  0.55601802970E+02 -0.40998449006E+01  0.29991072492E+02  0.63307453360E+02  0.00000000000E+00 0. -1.
        -15    1    5    5    0    0 -0.64564415785E+02  0.15554997037E+03  0.14930032005E+03  0.22506652935E+03  0.00000000000E+00 0.  1.
         15    1    3    3    0    0  0.25333364049E+03  0.13909862225E+02 -0.57606211871E+02  0.26017281433E+03  0.00000000000E+00 0.  1.
         15    1    5    5    0    0  0.36761473103E+02  0.47863405115E+02  0.83119658175E+02  0.10271898086E+03  0.00000000000E+00 0. -1.
        -16    1    4    4    0    0  0.93655355135E+02  0.83889669020E+01  0.77639377962E+03  0.78206713353E+03  0.00000000000E+00 0.  1.
         16    1    1    2    0    0 -0.12021035803E+03 -0.11943630704E+03  0.14468436748E+02  0.17007321152E+03  0.00000000000E+00 0. -1.
    9900018    1    4    4    0    0 -0.25457749788E+03 -0.10217605268E+03  0.67524393766E+03  0.73451970832E+03  0.91187600000E+02 0.  0.
<mgrwt>
<rscale>  0 0.16352228E+04</rscale>
<asrwt>0</asrwt>
<pdfrwt beam="1">  1        2 0.30837206E+00 0.16352228E+04</pdfrwt>
<pdfrwt beam="2">  1       -2 0.51308835E-01 0.16352228E+04</pdfrwt>
<totfact> 0.22807990E+01</totfact>
</mgrwt>
</event>
<event>
12    1  0.3366445E-013  0.1608222E+04  0.7818608E-02  0.8815513E-01
          2   -1    0    0  501    0  0.00000000000E+00  0.00000000000E+00  0.28645448084E+04  0.28645448084E+04  0.00000000000E+00 0.  1.
         -2   -1    0    0    0  501 -0.00000000000E+00 -0.00000000000E+00 -0.22572327609E+03  0.22572327609E+03  0.00000000000E+00 0. -1.
         23    2    1    2    0    0 -0.44323256167E+03  0.28797644145E+03  0.11232165398E+04  0.12447219596E+04  0.91278842200E+02 0.  0.
    9900016    2    1    2    0    0  0.30180923281E+03 -0.99982942739E+02  0.93577621195E+03  0.12198117337E+04  0.71496723344E+03 0.  0.
         23    2    4    4    0    0  0.38123112061E+02 -0.18013902716E+03  0.48849606615E+03  0.52671462290E+03  0.69974613627E+02 0.  0.
        -15    1    5    5    0    0  0.79170367253E+00 -0.11954140728E+03  0.36616511761E+03  0.38518523882E+03  0.00000000000E+00 0.  1.
        -15    1    3    3    0    0 -0.34393023661E+03  0.25382217464E+03  0.83662692227E+03  0.93949896810E+03  0.00000000000E+00 0.  1.
         15    1    3    3    0    0 -0.99302325061E+02  0.34154266806E+02  0.28658961749E+03  0.30522299153E+03  0.00000000000E+00 0. -1.
         15    1    5    5    0    0  0.37331408388E+02 -0.60597619881E+02  0.12233094853E+03  0.14152938407E+03  0.00000000000E+00 0. -1.
        -16    1    4    4    0    0  0.36018556805E+03  0.13353490302E+03  0.29681911255E+03  0.48545524956E+03  0.00000000000E+00 0.  1.
         16    1    1    2    0    0  0.14142332886E+03 -0.18799349871E+03  0.57982878058E+03  0.62573439117E+03  0.00000000000E+00 0. -1.
    9900018    1    4    4    0    0 -0.96499447296E+02 -0.53378818600E+02  0.15046103325E+03  0.20764186121E+03  0.91187600000E+02 0.  0.
<mgrwt>
<rscale>  0 0.16082219E+04</rscale>
<asrwt>0</asrwt>
<pdfrwt beam="1">  1        2 0.44069918E+00 0.16082219E+04</pdfrwt>
<pdfrwt beam="2">  1       -2 0.34726660E-01 0.16082219E+04</pdfrwt>
<totfact> 0.15816089E+01</totfact>
</mgrwt>
</event>
