<event>
11    1  0.3701380E-013  0.2496549E+04  0.7818608E-02  0.8404216E-01
         -2   -1    0    0    0  501 -0.00000000000E+00  0.00000000000E+00  0.11943097269E+04  0.11943097269E+04  0.00000000000E+00 0.  1.
          2   -1    0    0  501    0  0.00000000000E+00 -0.00000000000E+00 -0.13046778479E+04  0.13046778479E+04  0.00000000000E+00 0. -1.
    9900016    2    1    2    0    0  0.18581869538E+03 -0.85313516744E+02  0.25406169220E+02  0.22535458474E+04  0.22441070450E+04 0.  0.
        -24    2    3    3    0    0  0.74432624696E+03 -0.76973442718E+03  0.22508171219E+03  0.10978627694E+04  0.90156713080E+02 0.  0.
        -15    1    3    3    0    0  0.23178194318E+02  0.45624491536E+01  0.36121671489E+02  0.43160396028E+02  0.00000000000E+00 0.  1.
        -15    1    3    3    0    0 -0.58538211661E+03  0.70369668325E+03 -0.31723129970E+03  0.96876051838E+03  0.00000000000E+00 0.  1.
         15    1    3    3    0    0  0.57662987234E+01 -0.16109000335E+02  0.39559169261E+02  0.43100788455E+02  0.00000000000E+00 0. -1.
         15    1    4    4    0    0  0.66928898095E+03 -0.66011389633E+03  0.17689983198E+03  0.95655195714E+03  0.00000000000E+00 0. -1.
        -16    1    4    4    0    0  0.75037266010E+02 -0.10962053085E+03  0.48181880207E+02  0.14131081224E+03  0.00000000000E+00 0.  1.
         16    1    1    2    0    0 -0.18581869538E+03  0.85313516744E+02 -0.13577429020E+03  0.24544172744E+03  0.00000000000E+00 0. -1.
    9900018    1    3    3    0    0 -0.20699280180E+01 -0.77292216333E+01  0.41874915982E+02  0.10066137517E+03  0.91187600000E+02 0.  0.
<mgrwt>
<rscale>  0 0.24965492E+04</rscale>
<asrwt>0</asrwt>
<pdfrwt beam="1">  1        2 0.20071967E+00 0.24965492E+04</pdfrwt>
<pdfrwt beam="2">  1       -2 0.18373996E+00 0.24965492E+04</pdfrwt>
<totfact> 0.25048675E+00</totfact>
</mgrwt>
</event>
<event>
11    1  0.3701380E-013  0.2751550E+04  0.7818608E-02  0.8318470E-01
         -1   -1    0    0    0  501 -0.00000000000E+00  0.00000000000E+00  0.11676915809E+04  0.11676915809E+04  0.00000000000E+00 0.  1.
          1   -1    0    0  501    0  0.00000000000E+00 -0.00000000000E+00 -0.16209385538E+04  0.16209385538E+04  0.00000000000E+00 0. -1.
    9900016    2    1    2    0    0 -0.25545602641E+03 -0.61236989937E+02 -0.61555787985E+02  0.21757958900E+04  0.21590022903E+04 0.  0.
        -24    2    3    3    0    0 -0.89317759085E+03 -0.22556911086E+03 -0.34159270900E+03  0.98590098734E+03  0.81655039222E+02 0.  0.
        -15    1    3    3    0    0 -0.13626867003E+02  0.45432085172E+02  0.41362858649E+02  0.62933710704E+02  0.00000000000E+00 0. -1.
        -15    1    3    3    0    0  0.85356413622E+03  0.12002539392E+02  0.10002632737E+03  0.85948883749E+03  0.00000000000E+00 0.  1.
         15    1    3    3    0    0 -0.20221570478E+03  0.10689749636E+03  0.13864773500E+03  0.26747235448E+03  0.00000000000E+00 0.  1.
         15    1    4    4    0    0 -0.39840780841E+03 -0.62294298104E+02 -0.16622151725E+03  0.43616390746E+03  0.00000000000E+00 0. -1.
        -16    1    4    4    0    0 -0.49476978245E+03 -0.16327481276E+03 -0.17537119175E+03  0.54973707988E+03  0.00000000000E+00 0.  1.
         16    1    1    2    0    0  0.27619595455E+03  0.81507484967E+02 -0.42338171332E+03  0.51203491149E+03  0.00000000000E+00 0. -1.
    9900018    1    1    2    0    0 -0.20739928136E+02 -0.20270495030E+02  0.31690528433E+02  0.10079933320E+03  0.91187600000E+02 0.  0.
<mgrwt>
<rscale>  0 0.27515496E+04</rscale>
<asrwt>0</asrwt>
<pdfrwt beam="1">  1        1 0.24937516E+00 0.27515496E+04</pdfrwt>
<pdfrwt beam="2">  1       -1 0.17964486E+00 0.27515496E+04</pdfrwt>
<totfact> 0.98245141E-01</totfact>
</mgrwt>
</event>
<event>
11    1  0.3701380E-013  0.2502440E+04  0.7818608E-02  0.8402117E-01
         -2   -1    0    0    0  501 -0.00000000000E+00  0.00000000000E+00  0.18401818735E+04  0.18401818735E+04  0.00000000000E+00 0.  1.
          2   -1    0    0  501    0  0.00000000000E+00 -0.00000000000E+00 -0.85075934217E+03  0.85075934217E+03  0.00000000000E+00 0. -1.
    9900016    2    1    2    0    0  0.18340088958E+03  0.16211403161E+03  0.84296655569E+03  0.23316607915E+04  0.21601232805E+04 0.  0.
         24    2    3    3    0    0  0.10054802688E+04 -0.17603489980E+02  0.31768493368E+03  0.10576041063E+04  0.79386867599E+02 0.  0.
        -15    1    3    3    0    0 -0.23129014441E+03  0.10201820896E+03 -0.13675760386E+03  0.28741170483E+03  0.00000000000E+00 0. -1.
        -15    1    4    4    0    0  0.66775007254E+03 -0.34476194699E+02  0.17955489374E+03  0.69232848218E+03  0.00000000000E+00 0.  1.
         15    1    3    3    0    0 -0.40247250228E+03  0.63613499827E+01  0.67385387638E+03  0.78492268956E+03  0.00000000000E+00 0. -1.
         15    1    3    3    0    0 -0.18831673250E+03  0.71337962650E+02 -0.11814650511E+02  0.20172229084E+03  0.00000000000E+00 0.  1.
        -16    1    1    2    0    0 -0.15814935858E+03 -0.17095209061E+03  0.10903684328E+03  0.25714756482E+03  0.00000000000E+00 0.  1.
         16    1    4    4    0    0  0.33773019622E+03  0.16872704720E+02  0.13813003994E+03  0.36527562407E+03  0.00000000000E+00 0. -1.
    9900018    1    1    2    0    0 -0.25251531000E+02  0.88380589953E+01  0.37419132357E+02  0.10213285938E+03  0.91187600000E+02 0.  0.
<mgrwt>
<rscale>  0 0.25024403E+04</rscale>
<asrwt>0</asrwt>
<pdfrwt beam="1">  1        2 0.13088605E+00 0.25024403E+04</pdfrwt>
<pdfrwt beam="2">  1       -2 0.28310490E+00 0.25024403E+04</pdfrwt>
<totfact> 0.11396440E+00</totfact>
</mgrwt>
</event>
<event>
11    1  0.3701380E-013  0.3078991E+04  0.7818608E-02  0.8221527E-01
         -2   -1    0    0    0  501 -0.00000000000E+00  0.00000000000E+00  0.14030080829E+04  0.14030080829E+04  0.00000000000E+00 0.  1.
          2   -1    0    0  501    0  0.00000000000E+00 -0.00000000000E+00 -0.16892608799E+04  0.16892608799E+04  0.00000000000E+00 0. -1.
    9900016    2    1    2    0    0 -0.41517236595E+03  0.20796543735E+03  0.33983651275E+03  0.23127783982E+04  0.22400529787E+04 0.  0.
        -24    2    3    3    0    0 -0.73798507834E+03 -0.53021947723E+02 -0.61926750225E+03  0.96819098200E+03  0.80425341124E+02 0.  0.
        -15    1    3    3    0    0  0.98142177256E+02  0.39058264072E+03  0.87429694182E+03  0.96259120537E+03  0.00000000000E+00 0.  1.
        -15    1    3    3    0    0  0.22312092561E+03 -0.13128148390E+03  0.23522855009E+02  0.25994441746E+03  0.00000000000E+00 0.  1.
         15    1    4    4    0    0 -0.45644514529E+03 -0.71839467271E+02 -0.38731431846E+03  0.60292243365E+03  0.00000000000E+00 0. -1.
         15    1    3    3    0    0  0.75419488639E+01  0.10959124735E+02  0.11439236152E+02  0.17545356405E+02  0.00000000000E+00 0. -1.
        -16    1    4    4    0    0 -0.28153993305E+03  0.18817519548E+02 -0.23195318379E+03  0.36526854835E+03  0.00000000000E+00 0.  1.
         16    1    1    2    0    0  0.41517236595E+03 -0.20796543735E+03 -0.62608930972E+03  0.77949056462E+03  0.00000000000E+00 0. -1.
    9900018    1    3    3    0    0 -0.59923393403E+01 -0.92728964833E+01  0.49844982022E+02  0.10450643696E+03  0.91187600000E+02 0.  0.
<mgrwt>
<rscale>  0 0.30789912E+04</rscale>
<asrwt>0</asrwt>
<pdfrwt beam="1">  1        2 0.25988629E+00 0.30789912E+04</pdfrwt>
<pdfrwt beam="2">  1       -2 0.21584740E+00 0.30789912E+04</pdfrwt>
<totfact> 0.88827117E-01</totfact>
</mgrwt>
</event>
<event>
11    1  0.3701380E-013  0.2663168E+04  0.7818608E-02  0.8347056E-01
         -2   -1    0    0    0  501 -0.00000000000E+00  0.00000000000E+00  0.82663014892E+03  0.82663014892E+03  0.00000000000E+00 0.  1.
          2   -1    0    0  501    0  0.00000000000E+00 -0.00000000000E+00 -0.21449923266E+04  0.21449923266E+04  0.00000000000E+00 0. -1.
    9900016    2    1    2    0    0 -0.17884941296E+03 -0.35205426330E+02 -0.75251185456E+03  0.23771368805E+04  0.22475050884E+04 0.  0.
        -24    2    3    3    0    0  0.65596428844E+03  0.13208441924E+03 -0.11349913513E+04  0.13198186322E+04  0.77333128457E+02 0.  0.
        -15    1    3    3    0    0 -0.88291258544E+02  0.34940373468E+02 -0.24406530913E+01  0.94984908385E+02  0.00000000000E+00 0. -1.
        -15    1    3    3    0    0 -0.67412877925E+03 -0.19791020385E+03  0.41664551748E+03  0.81683018249E+03  0.00000000000E+00 0.  1.
         15    1    3    3    0    0 -0.42393250716E+02 -0.32484069292E+01 -0.24869593268E+02  0.49256842399E+02  0.00000000000E+00 0.  1.
         15    1    4    4    0    0  0.16778004571E+03  0.42272345424E+02 -0.23233877657E+03  0.28968673084E+03  0.00000000000E+00 0. -1.
        -16    1    4    4    0    0  0.48818424273E+03  0.89812073819E+02 -0.90265257473E+03  0.10301319013E+04  0.00000000000E+00 0.  1.
         16    1    1    2    0    0  0.17884941296E+03  0.35205426330E+02 -0.56585032310E+03  0.59448559504E+03  0.00000000000E+00 0. -1.
    9900018    1    3    3    0    0 -0.30000412892E+02 -0.10716082596E+01 -0.68557743730E+01  0.96246315015E+02  0.91187600000E+02 0.  0.
<mgrwt>
<rscale>  0 0.26631675E+04</rscale>
<asrwt>0</asrwt>
<pdfrwt beam="1">  1        2 0.32999882E+00 0.26631675E+04</pdfrwt>
<pdfrwt beam="2">  1       -2 0.12717387E+00 0.26631675E+04</pdfrwt>
<totfact> 0.22399706E+00</totfact>
</mgrwt>
</event>
<event>
11    1  0.3701380E-013  0.3638659E+04  0.7818608E-02  0.8081693E-01
          2   -1    0    0  501    0  0.00000000000E+00  0.00000000000E+00  0.28969501903E+04  0.28969501903E+04  0.00000000000E+00 0. -1.
         -2   -1    0    0    0  501 -0.00000000000E+00 -0.00000000000E+00 -0.11425672944E+04  0.11425672944E+04  0.00000000000E+00 0.  1.
    9900016    2    1    2    0    0  0.11270183504E+03 -0.72806688099E+03  0.19948789501E+04  0.30192003484E+04  0.21431858602E+04 0.  0.
         24    2    3    3    0    0 -0.39169298516E+03 -0.41064588064E+03 -0.14788295385E+03  0.59197612867E+03  0.80702756814E+02 0.  0.
        -15    1    4    4    0    0 -0.25218152738E+03 -0.29717012209E+03 -0.13176505475E+03  0.41142147959E+03  0.00000000000E+00 0.  1.
        -15    1    3    3    0    0  0.14955010847E+02 -0.17630377081E+02 -0.14671118190E+02  0.27381093010E+02  0.00000000000E+00 0.  1.
         15    1    3    3    0    0  0.52124762114E+03 -0.29548734202E+03  0.22360445036E+04  0.23149312892E+04  0.00000000000E+00 0. -1.
         15    1    3    3    0    0 -0.31807811785E+02 -0.43032812482E+01 -0.78611481480E+02  0.84911837458E+02  0.00000000000E+00 0. -1.
        -16    1    1    2    0    0 -0.18854803849E+03  0.76853598400E+03 -0.33903334618E+03  0.86089577263E+03  0.00000000000E+00 0.  1.
         16    1    4    4    0    0 -0.13951145778E+03 -0.11347575855E+03 -0.16117899099E+02  0.18055464908E+03  0.00000000000E+00 0. -1.
    9900018    1    1    2    0    0  0.75846203449E+02 -0.40469103010E+02  0.98537292063E+02  0.15942136368E+03  0.91187600000E+02 0.  0.
<mgrwt>
<rscale>  0 0.36386594E+04</rscale>
<asrwt>0</asrwt>
<pdfrwt beam="1">  1        2 0.44568464E+00 0.36386594E+04</pdfrwt>
<pdfrwt beam="2">  1       -2 0.17577958E+00 0.36386594E+04</pdfrwt>
<totfact> 0.31790316E-01</totfact>
</mgrwt>
</event>
<event>
11    1  0.3701380E-013  0.3895697E+04  0.7818608E-02  0.8025925E-01
          1   -1    0    0  501    0  0.00000000000E+00  0.00000000000E+00  0.19559751644E+04  0.19559751644E+04  0.00000000000E+00 0. -1.
         -1   -1    0    0    0  501 -0.00000000000E+00 -0.00000000000E+00 -0.19397557419E+04  0.19397557419E+04  0.00000000000E+00 0.  1.
    9900016    2    1    2    0    0  0.32223291000E+03  0.63614319453E+03  0.10185929795E+04  0.24948653920E+04  0.21629400025E+04 0.  0.
         24    2    3    3    0    0  0.89553757453E+03  0.42975778829E+03 -0.28795154350E+03  0.10372279929E+04  0.79034890476E+02 0.  0.
        -15    1    3    3    0    0 -0.17940455541E+02 -0.19954181967E+02  0.82407165938E+02  0.86665854412E+02  0.00000000000E+00 0. -1.
        -15    1    4    4    0    0  0.47259091132E+03  0.19107810339E+03 -0.17128483628E+03  0.53776528913E+03  0.00000000000E+00 0.  1.
         15    1    3    3    0    0 -0.17485105620E+02 -0.18920699081E+02  0.42232153683E+02  0.49469956306E+02  0.00000000000E+00 0.  1.
         15    1    3    3    0    0 -0.53787910337E+03  0.24526028728E+03  0.11819052033E+04  0.13215015884E+04  0.00000000000E+00 0. -1.
        -16    1    1    2    0    0 -0.34179105969E+03 -0.68939291086E+03 -0.10340199807E+04  0.12889069146E+04  0.00000000000E+00 0.  1.
         16    1    4    4    0    0  0.42294666321E+03  0.23867968491E+03 -0.11666670722E+03  0.49946270379E+03  0.00000000000E+00 0. -1.
    9900018    1    1    2    0    0  0.19558149690E+02  0.53249716329E+02  0.31646423807E+02  0.11195859968E+03  0.91187600000E+02 0.  0.
<mgrwt>
<rscale>  0 0.38956971E+04</rscale>
<asrwt>0</asrwt>
<pdfrwt beam="1">  1        1 0.30091926E+00 0.38956971E+04</pdfrwt>
<pdfrwt beam="2">  1       -1 0.29842396E+00 0.38956971E+04</pdfrwt>
<totfact> 0.85196403E-02</totfact>
</mgrwt>
</event>
<event>
11    1  0.3701380E-013  0.2895111E+04  0.7818608E-02  0.8274334E-01
          1   -1    0    0  501    0  0.00000000000E+00  0.00000000000E+00  0.36351858035E+04  0.36351858035E+04  0.00000000000E+00 0. -1.
         -1   -1    0    0    0  501 -0.00000000000E+00 -0.00000000000E+00 -0.57642636998E+03  0.57642636998E+03  0.00000000000E+00 0.  1.
    9900016    2    1    2    0    0  0.25293482120E+03 -0.37198097594E+03  0.27253860076E+04  0.35034658242E+04  0.21550401437E+04 0.  0.
         24    2    3    3    0    0 -0.45762271339E+03 -0.10230333312E+04  0.96961296605E+03  0.14840558744E+04  0.79099873100E+02 0.  0.
        -15    1    4    4    0    0 -0.24234582759E+03 -0.54576181100E+03  0.46438999109E+03  0.75646911260E+03  0.00000000000E+00 0.  1.
        -15    1    3    3    0    0  0.76824540094E+01  0.28017639724E+02  0.71649787815E+02  0.77315589173E+02  0.00000000000E+00 0.  1.
         15    1    3    3    0    0  0.21736450981E+03  0.33919473928E+03  0.64292196168E+03  0.75871539465E+03  0.00000000000E+00 0. -1.
         15    1    3    3    0    0  0.48551057077E+03  0.28383997629E+03  0.10412012920E+04  0.11833789659E+04  0.00000000000E+00 0. -1.
        -16    1    1    2    0    0 -0.24548788900E+03  0.41088200645E+03  0.15352984695E+03  0.50265270393E+03  0.00000000000E+00 0.  1.
         16    1    4    4    0    0 -0.21527688580E+03 -0.47727152024E+03  0.50522297496E+03  0.72758676185E+03  0.00000000000E+00 0. -1.
    9900018    1    1    2    0    0 -0.74469321983E+01 -0.38901030509E+02  0.17984357899E+03  0.20549364533E+03  0.91187600000E+02 0.  0.
<mgrwt>
<rscale>  0 0.28951110E+04</rscale>
<asrwt>0</asrwt>
<pdfrwt beam="1">  1        1 0.55925934E+00 0.28951110E+04</pdfrwt>
<pdfrwt beam="2">  1       -1 0.88680983E-01 0.28951110E+04</pdfrwt>
<totfact> 0.20870041E-01</totfact>
</mgrwt>
</event>
<event>
11    1  0.3701380E-013  0.3556726E+04  0.7818608E-02  0.8100477E-01
         -1   -1    0    0    0  501 -0.00000000000E+00  0.00000000000E+00  0.14715950706E+04  0.14715950706E+04  0.00000000000E+00 0. -1.
          1   -1    0    0  501    0  0.00000000000E+00 -0.00000000000E+00 -0.21490799781E+04  0.21490799781E+04  0.00000000000E+00 0.  1.
    9900016    2    1    2    0    0  0.21669642296E+03 -0.35602147026E+02  0.59804607656E+03  0.23263782729E+04  0.22374431627E+04 0.  0.
         24    2    3    3    0    0 -0.76172392687E+03  0.30861509478E+01 -0.28614410180E+03  0.81752509453E+03  0.78968146041E+02 0.  0.
        -15    1    4    4    0    0 -0.46269382402E+03  0.15031678589E+02 -0.13479982431E+03  0.48216441053E+03  0.00000000000E+00 0.  1.
        -15    1    3    3    0    0 -0.99298901795E+01  0.11903356179E+02 -0.71373326512E+01  0.17065583045E+02  0.00000000000E+00 0. -1.
         15    1    3    3    0    0 -0.63284352331E+02  0.10907233403E+02  0.23504705822E+02  0.68383829860E+02  0.00000000000E+00 0.  1.
         15    1    3    3    0    0  0.10298816171E+04 -0.54832276092E+02  0.82201087448E+03  0.13188497266E+04  0.00000000000E+00 0. -1.
        -16    1    1    2    0    0 -0.21669642296E+03  0.35602147026E+02 -0.12755309841E+04  0.12942967758E+04  0.00000000000E+00 0.  1.
         16    1    4    4    0    0 -0.29903010285E+03 -0.11945527641E+02 -0.15134427749E+03  0.33536068399E+03  0.00000000000E+00 0. -1.
    9900018    1    3    3    0    0  0.21752975283E+02 -0.66666114628E+01  0.45811930703E+02  0.10455403881E+03  0.91187600000E+02 0.  0.
<mgrwt>
<rscale>  0 0.35567263E+04</rscale>
<asrwt>0</asrwt>
<pdfrwt beam="1">  1        1 0.33062769E+00 0.35567263E+04</pdfrwt>
<pdfrwt beam="2">  1       -1 0.22639924E+00 0.35567263E+04</pdfrwt>
<totfact> 0.19112145E-01</totfact>
</mgrwt>
</event>
<event>
11    1  0.3701380E-013  0.3460816E+04  0.7818608E-02  0.8123139E-01
         -1   -1    0    0    0  501 -0.00000000000E+00  0.00000000000E+00  0.97276138936E+03  0.97276138936E+03  0.00000000000E+00 0.  1.
          1   -1    0    0  501    0  0.00000000000E+00 -0.00000000000E+00 -0.30781572207E+04  0.30781572207E+04  0.00000000000E+00 0. -1.
    9900016    2    1    2    0    0 -0.92110842325E+02  0.46868878975E+03 -0.45949613354E+03  0.23371101598E+04  0.22411589889E+04 0.  0.
        -24    2    3    3    0    0  0.95603116046E+03 -0.71878647180E+02 -0.86239345380E+02  0.96607619129E+03  0.81877121290E+02 0.  0.
        -15    1    3    3    0    0 -0.46485791122E+02 -0.10526300675E+01 -0.28910327654E+02  0.54752569358E+02  0.00000000000E+00 0. -1.
        -15    1    3    3    0    0 -0.74342007974E+03  0.54837083007E+03 -0.31191390775E+03  0.97502526535E+03  0.00000000000E+00 0.  1.
         15    1    3    3    0    0 -0.24188813136E+03 -0.30082093235E+02 -0.30966655185E+02  0.24571067165E+03  0.00000000000E+00 0.  1.
         15    1    4    4    0    0  0.84463622890E+03 -0.88694082342E+02 -0.68595765372E+02  0.85204599549E+03  0.00000000000E+00 0. -1.
        -16    1    4    4    0    0  0.11139493156E+03  0.16815435162E+02 -0.17643580008E+02  0.11403019580E+03  0.00000000000E+00 0.  1.
         16    1    1    2    0    0  0.92110842325E+02 -0.46868878975E+03 -0.16458996978E+04  0.17138084502E+04  0.00000000000E+00 0. -1.
    9900018    1    3    3    0    0 -0.16348000560E+02  0.23331330165E+02 -0.14658975714E+01  0.95545462158E+02  0.91187600000E+02 0.  0.
<mgrwt>
<rscale>  0 0.34608164E+04</rscale>
<asrwt>0</asrwt>
<pdfrwt beam="1">  1        1 0.47356265E+00 0.34608164E+04</pdfrwt>
<pdfrwt beam="2">  1       -1 0.14965560E+00 0.34608164E+04</pdfrwt>
<totfact> 0.15037689E-01</totfact>
</mgrwt>
</event>
<event>
11    1  0.3701380E-013  0.3069329E+04  0.7818608E-02  0.8224206E-01
         -1   -1    0    0    0  501 -0.00000000000E+00  0.00000000000E+00  0.59371312384E+03  0.59371312384E+03  0.00000000000E+00 0.  1.
          1   -1    0    0  501    0  0.00000000000E+00 -0.00000000000E+00 -0.39668914717E+04  0.39668914717E+04  0.00000000000E+00 0. -1.
    9900016    2    1    2    0    0 -0.49933540129E+03  0.42003761100E+03 -0.30286581885E+04  0.38227281981E+04  0.22393554913E+04 0.  0.
         24    2    3    3    0    0 -0.65853125802E+03 -0.50635663737E+03 -0.24687930276E+04  0.26060565846E+04  0.80817369701E+02 0.  0.
        -15    1    3    3    0    0  0.54971974973E+02  0.81375308834E+02 -0.33397353893E+02  0.10372676688E+03  0.00000000000E+00 0. -1.
        -15    1    4    4    0    0 -0.17290595975E+03 -0.17097238044E+03 -0.65642640561E+03  0.70001689392E+03  0.00000000000E+00 0.  1.
         15    1    3    3    0    0  0.19373064330E+02  0.13514582415E+02  0.38586966865E+01  0.23934266220E+02  0.00000000000E+00 0.  1.
         15    1    3    3    0    0  0.10626770583E+03  0.81229124835E+03 -0.36244998947E+03  0.89581242027E+03  0.00000000000E+00 0. -1.
        -16    1    1    2    0    0  0.49933540129E+03 -0.42003761100E+03 -0.34452015936E+03  0.73787639740E+03  0.00000000000E+00 0.  1.
         16    1    4    4    0    0 -0.48562529827E+03 -0.33538425693E+03 -0.18123666219E+04  0.19060396907E+04  0.00000000000E+00 0. -1.
    9900018    1    3    3    0    0 -0.21416888403E+02  0.19213108773E+02 -0.16787651426E+03  0.19319816017E+03  0.91187600000E+02 0.  0.
<mgrwt>
<rscale>  0 0.30693293E+04</rscale>
<asrwt>0</asrwt>
<pdfrwt beam="1">  1        1 0.61029099E+00 0.30693293E+04</pdfrwt>
<pdfrwt beam="2">  1       -1 0.91340481E-01 0.30693293E+04</pdfrwt>
<totfact> 0.10135252E-01</totfact>
</mgrwt>
</event>
<event>
11    1  0.3701380E-013  0.3484196E+04  0.7818608E-02  0.8117546E-01
          2   -1    0    0  501    0  0.00000000000E+00  0.00000000000E+00  0.26589753846E+04  0.26589753846E+04  0.00000000000E+00 0.  1.
         -2   -1    0    0    0  501 -0.00000000000E+00 -0.00000000000E+00 -0.11413814405E+04  0.11413814405E+04  0.00000000000E+00 0. -1.
    9900016    2    1    2    0    0  0.10151526541E+04 -0.65582899642E+02  0.11018985626E+04  0.27014306775E+04  0.22469337407E+04 0.  0.
         24    2    3    3    0    0 -0.23362819056E+03 -0.60220426858E+03  0.66762261318E+03  0.93250672414E+03  0.81343250654E+02 0.  0.
        -15    1    4    4    0    0 -0.76321095254E+02 -0.29134341783E+03  0.34084540773E+03  0.45484226790E+03  0.00000000000E+00 0.  1.
        -15    1    3    3    0    0 -0.42601479299E+02  0.52785748305E+02 -0.78071726561E+01  0.68280108432E+02  0.00000000000E+00 0.  1.
         15    1    3    3    0    0  0.12938969247E+04  0.39798225154E+03  0.41308372406E+03  0.14153435228E+04  0.00000000000E+00 0. -1.
         15    1    3    3    0    0 -0.88935527363E+02  0.70032699385E+02 -0.62283041149E+02  0.12920249311E+03  0.00000000000E+00 0. -1.
        -16    1    1    2    0    0 -0.10151526541E+04  0.65582899642E+02  0.41569538145E+03  0.10989261476E+04  0.00000000000E+00 0.  1.
         16    1    4    4    0    0 -0.15730709531E+03 -0.31086085075E+03  0.32677720544E+03  0.47766445624E+03  0.00000000000E+00 0. -1.
    9900018    1    3    3    0    0  0.86420926571E+02  0.15820669709E+02  0.91282439130E+02  0.15609782903E+03  0.91187600000E+02 0.  0.
<mgrwt>
<rscale>  0 0.34841958E+04</rscale>
<asrwt>0</asrwt>
<pdfrwt beam="1">  1        2 0.40907314E+00 0.34841958E+04</pdfrwt>
<pdfrwt beam="2">  1       -2 0.17559715E+00 0.34841958E+04</pdfrwt>
<totfact> 0.44959462E-01</totfact>
</mgrwt>
</event>
<event>
11    1  0.3701380E-013  0.2639133E+04  0.7818608E-02  0.8355029E-01
          2   -1    0    0  501    0  0.00000000000E+00  0.00000000000E+00  0.62039141058E+03  0.62039141058E+03  0.00000000000E+00 0. -1.
         -2   -1    0    0    0  501 -0.00000000000E+00 -0.00000000000E+00 -0.28067042092E+04  0.28067042092E+04  0.00000000000E+00 0.  1.
    9900016    2    1    2    0    0  0.97054608281E+02  0.31047050767E+03 -0.21042497866E+04  0.30916170496E+04  0.22415211986E+04 0.  0.
        -24    2    3    3    0    0  0.52813053050E+03  0.65816389808E+01 -0.20003465243E+04  0.20704606434E+04  0.80348511243E+02 0.  0.
        -15    1    3    3    0    0 -0.70591343647E+02 -0.99426035332E+02 -0.21329526539E+03  0.24568993577E+03  0.00000000000E+00 0.  1.
        -15    1    3    3    0    0 -0.35524686229E+03  0.38897182877E+03  0.24698185470E+03  0.58180705848E+03  0.00000000000E+00 0.  1.
         15    1    4    4    0    0  0.33523223284E+03  0.15581072536E+02 -0.11207661531E+04  0.11699317030E+04  0.00000000000E+00 0. -1.
         15    1    3    3    0    0 -0.32437341667E+02 -0.52789616832E+01 -0.12253084180E+02  0.35074016633E+02  0.00000000000E+00 0. -1.
        -16    1    4    4    0    0  0.19289829767E+03 -0.89994335547E+01 -0.87958037122E+03  0.90052894040E+03  0.00000000000E+00 0.  1.
         16    1    1    2    0    0 -0.97054608281E+02 -0.31047050767E+03 -0.82063012054E+02  0.33547857021E+03  0.00000000000E+00 0. -1.
    9900018    1    3    3    0    0  0.27199625376E+02  0.19622036932E+02 -0.12533676738E+03  0.15858539531E+03  0.91187600000E+02 0.  0.
<mgrwt>
<rscale>  0 0.26391326E+04</rscale>
<asrwt>0</asrwt>
<pdfrwt beam="1">  1        2 0.95444832E-01 0.26391326E+04</pdfrwt>
<pdfrwt beam="2">  1       -2 0.43180065E+00 0.26391326E+04</pdfrwt>
<totfact> 0.19220594E-01</totfact>
</mgrwt>
</event>
<event>
11    1  0.3701380E-013  0.2673700E+04  0.7818608E-02  0.8343589E-01
         -1   -1    0    0    0  501 -0.00000000000E+00  0.00000000000E+00  0.11340800546E+04  0.11340800546E+04  0.00000000000E+00 0.  1.
          1   -1    0    0  501    0  0.00000000000E+00 -0.00000000000E+00 -0.15758740861E+04  0.15758740861E+04  0.00000000000E+00 0. -1.
    9900016    2    1    2    0    0 -0.24321312167E+03 -0.16635478840E+03 -0.13871246880E+03  0.21752244908E+04  0.21507054420E+04 0.  0.
        -24    2    3    3    0    0 -0.41671505982E+03 -0.77404149325E+03 -0.27248473295E+02  0.88303260523E+03  0.78818958726E+02 0.  0.
        -15    1    3    3    0    0 -0.46044356467E+03  0.19244707104E+03 -0.13485850002E+03  0.51694387164E+03  0.00000000000E+00 0.  1.
        -15    1    3    3    0    0  0.25128389435E+03  0.22703167020E+03  0.71442784311E+02  0.34610843136E+03  0.00000000000E+00 0.  1.
         15    1    3    3    0    0  0.38266160847E+03  0.18820796361E+03 -0.48048279795E+02  0.42913958260E+03  0.00000000000E+00 0. -1.
         15    1    4    4    0    0 -0.27238275013E+03 -0.48478439045E+03 -0.53887475088E+02  0.55866996319E+03  0.00000000000E+00 0. -1.
        -16    1    4    4    0    0 -0.14433230969E+03 -0.28925710280E+03  0.26639001794E+02  0.32436264204E+03  0.00000000000E+00 0.  1.
         16    1    1    2    0    0  0.20671400194E+03  0.18563524479E+03 -0.32970192873E+03  0.43115482661E+03  0.00000000000E+00 0. -1.
    9900018    1    1    2    0    0  0.36499119732E+02 -0.19280456389E+02  0.26620365979E+02  0.10357482328E+03  0.91187600000E+02 0.  0.
<mgrwt>
<rscale>  0 0.26736996E+04</rscale>
<asrwt>0</asrwt>
<pdfrwt beam="1">  1        1 0.24244217E+00 0.26736996E+04</pdfrwt>
<pdfrwt beam="2">  1       -1 0.17447385E+00 0.26736996E+04</pdfrwt>
<totfact> 0.11578152E+00</totfact>
</mgrwt>
</event>
<event>
11    1  0.4021985E-013  0.2923309E+04  0.7818608E-02  0.8265976E-01
         -1   -1    0    0    0  501 -0.00000000000E+00  0.00000000000E+00  0.77963832396E+03  0.77963832396E+03  0.00000000000E+00 0.  1.
          1   -1    0    0  501    0  0.00000000000E+00 -0.00000000000E+00 -0.27402893229E+04  0.27402893229E+04  0.00000000000E+00 0. -1.
    9900016    2    1    2    0    0 -0.46077208200E+03 -0.32763222173E+03 -0.17992147903E+04  0.29319519384E+04  0.22448863052E+04 0.  0.
         24    2    3    3    0    0 -0.27791343666E+03 -0.35954258218E+03  0.39053356312E+03  0.60434682222E+03  0.78815423167E+02 0.  0.
        -15    1    4    4    0    0 -0.85998847404E+02 -0.17371416985E+03  0.17384965738E+03  0.26037687673E+03  0.00000000000E+00 0.  1.
        -15    1    3    3    0    0  0.14994553391E+03  0.50716289117E+02 -0.49285426434E+03  0.51764962185E+03  0.00000000000E+00 0. -1.
         15    1    3    3    0    0  0.83348390802E+02 -0.40915252431E+02 -0.17852013628E+03  0.20122239236E+03  0.00000000000E+00 0.  1.
         15    1    3    3    0    0 -0.41512209781E+03  0.44117724401E+02 -0.13784081713E+04  0.14402367224E+04  0.00000000000E+00 0. -1.
        -16    1    1    2    0    0  0.46077208200E+03  0.32763222173E+03 -0.16143620870E+03  0.58797570847E+03  0.00000000000E+00 0.  1.
         16    1    4    4    0    0 -0.19191458926E+03 -0.18582841233E+03  0.21668390574E+03  0.34396994550E+03  0.00000000000E+00 0. -1.
    9900018    1    3    3    0    0 -0.10304722463E+01 -0.22008400636E+02 -0.13996578143E+03  0.16849637959E+03  0.91187600000E+02 0.  0.
<mgrwt>
<rscale>  0 0.29233095E+04</rscale>
<asrwt>0</asrwt>
<pdfrwt beam="1">  1        1 0.42158297E+00 0.29233095E+04</pdfrwt>
<pdfrwt beam="2">  1       -1 0.11994436E+00 0.29233095E+04</pdfrwt>
<totfact> 0.48766390E-01</totfact>
</mgrwt>
</event>
<event>
11    1  0.3701380E-013  0.2889728E+04  0.7818608E-02  0.8275940E-01
          2   -1    0    0  501    0  0.00000000000E+00  0.00000000000E+00  0.24232276692E+04  0.24232276692E+04  0.00000000000E+00 0. -1.
         -2   -1    0    0    0  501 -0.00000000000E+00 -0.00000000000E+00 -0.86150852821E+03  0.86150852821E+03  0.00000000000E+00 0.  1.
    9900016    2    1    2    0    0  0.16461905911E+03 -0.48504485786E+03  0.93498290785E+03  0.24753127886E+04  0.22339678634E+04 0.  0.
        -24    2    3    3    0    0 -0.24320209540E+03 -0.50593201021E+03  0.91022568958E+03  0.10723929080E+04  0.80008031197E+02 0.  0.
        -15    1    3    3    0    0  0.63267304536E+03  0.14865728376E+03 -0.44425827012E+03  0.78723540374E+03  0.00000000000E+00 0.  1.
        -15    1    3    3    0    0 -0.23153775357E+03 -0.10686086969E+03  0.43118547909E+03  0.50094899359E+03  0.00000000000E+00 0. -1.
         15    1    4    4    0    0 -0.16852109982E+03 -0.41118378000E+03  0.67705781249E+03  0.80986341038E+03  0.00000000000E+00 0. -1.
         15    1    3    3    0    0 -0.84887348604E+01 -0.87606363452E+01  0.13866888350E+02  0.18468837571E+02  0.00000000000E+00 0.  1.
        -16    1    4    4    0    0 -0.74680995573E+02 -0.94748230211E+02  0.23316787709E+03  0.26252949765E+03  0.00000000000E+00 0.  1.
         16    1    1    2    0    0 -0.16461905911E+03  0.48504485786E+03  0.62673623310E+03  0.80942340876E+03  0.00000000000E+00 0. -1.
    9900018    1    3    3    0    0  0.15174597585E+02 -0.12148625373E+02  0.23963120944E+02  0.96266645675E+02  0.91187600000E+02 0.  0.
<mgrwt>
<rscale>  0 0.28897275E+04</rscale>
<asrwt>0</asrwt>
<pdfrwt beam="1">  1        2 0.37280425E+00 0.28897275E+04</pdfrwt>
<pdfrwt beam="2">  1       -2 0.13253977E+00 0.28897275E+04</pdfrwt>
<totfact> 0.13766762E+00</totfact>
</mgrwt>
</event>
<event>
11    1  0.3701380E-013  0.2489847E+04  0.7818608E-02  0.8406611E-01
          2   -1    0    0  501    0  0.00000000000E+00  0.00000000000E+00  0.20436876363E+04  0.20436876363E+04  0.00000000000E+00 0. -1.
         -2   -1    0    0    0  501 -0.00000000000E+00 -0.00000000000E+00 -0.75835209722E+03  0.75835209722E+03  0.00000000000E+00 0.  1.
    9900016    2    1    2    0    0 -0.16717850321E+03  0.17132160494E+03  0.11709654804E+04  0.25367469621E+04  0.22375489378E+04 0.  0.
         24    2    3    3    0    0  0.65953318894E+03  0.79373625134E+03  0.39735676634E+03  0.11086912853E+04  0.79389560007E+02 0.  0.
        -15    1    4    4    0    0  0.17246945579E+03  0.21240978550E+03  0.68473767921E+02  0.28205014989E+03  0.00000000000E+00 0.  1.
        -15    1    3    3    0    0 -0.14963274899E+02 -0.48230784597E+02  0.67404040917E+02  0.84222401477E+02  0.00000000000E+00 0. -1.
         15    1    3    3    0    0 -0.63956857211E+03 -0.23215742669E+03  0.41458865987E+03  0.79676143612E+03  0.00000000000E+00 0. -1.
         15    1    3    3    0    0 -0.15799434838E+03 -0.33326765486E+03  0.24927858787E+03  0.44516217075E+03  0.00000000000E+00 0.  1.
        -16    1    1    2    0    0  0.16717850321E+03 -0.17132160494E+03  0.11437005874E+03  0.26529277147E+03  0.00000000000E+00 0.  1.
         16    1    4    4    0    0  0.48706373314E+03  0.58132646584E+03  0.32888299842E+03  0.82664113537E+03  0.00000000000E+00 0. -1.
    9900018    1    3    3    0    0 -0.14185496758E+02 -0.87587802555E+01  0.42337425392E+02  0.10190966849E+03  0.91187600000E+02 0.  0.
<mgrwt>
<rscale>  0 0.24898472E+04</rscale>
<asrwt>0</asrwt>
<pdfrwt beam="1">  1        2 0.31441348E+00 0.24898472E+04</pdfrwt>
<pdfrwt beam="2">  1       -2 0.11666955E+00 0.24898472E+04</pdfrwt>
<totfact> 0.32095744E+00</totfact>
</mgrwt>
</event>
<event>
11    1  0.3701380E-013  0.3132599E+04  0.7818608E-02  0.8206848E-01
          3   -1    0    0  501    0  0.00000000000E+00  0.00000000000E+00  0.19447621680E+04  0.19447621680E+04  0.00000000000E+00 0. -1.
         -3   -1    0    0    0  501 -0.00000000000E+00 -0.00000000000E+00 -0.12614879881E+04  0.12614879881E+04  0.00000000000E+00 0.  1.
    9900016    2    1    2    0    0  0.15358967550E+03 -0.71621434496E+03  0.28857810713E+03  0.23741817899E+04  0.22398457695E+04 0.  0.
         24    2    3    3    0    0 -0.20078100405E+03  0.64751036166E+03  0.36738487870E+02  0.68349577951E+03  0.78956216175E+02 0.  0.
        -15    1    3    3    0    0  0.11547879500E+03 -0.12984155133E+02  0.20140143221E+02  0.11793882206E+03  0.00000000000E+00 0.  1.
        -15    1    4    4    0    0 -0.16707300425E+03  0.53645327497E+03  0.60214982363E+02  0.56508525824E+03  0.00000000000E+00 0.  1.
         15    1    3    3    0    0  0.23759256457E+03 -0.13821267246E+04  0.15853370724E+03  0.14113317987E+04  0.00000000000E+00 0. -1.
         15    1    3    3    0    0  0.16439982701E+02  0.42621048715E+02  0.45021873652E+02  0.64138880033E+02  0.00000000000E+00 0. -1.
        -16    1    1    2    0    0 -0.15358967550E+03  0.71621434496E+03  0.39469607276E+03  0.83206836630E+03  0.00000000000E+00 0.  1.
         16    1    4    4    0    0 -0.33707999801E+02  0.11105708669E+03 -0.23476494493E+02  0.11841052127E+03  0.00000000000E+00 0. -1.
    9900018    1    3    3    0    0 -0.15140662721E+02 -0.11234875618E+02  0.28143895151E+02  0.97276509630E+02  0.91187600000E+02 0.  0.
<mgrwt>
<rscale>  0 0.31325990E+04</rscale>
<asrwt>0</asrwt>
<pdfrwt beam="1">  1        3 0.29919418E+00 0.31325990E+04</pdfrwt>
<pdfrwt beam="2">  1       -3 0.19407508E+00 0.31325990E+04</pdfrwt>
<totfact> 0.13699465E-02</totfact>
</mgrwt>
</event>
<event>
11    1  0.3701380E-013  0.3216602E+04  0.7818608E-02  0.8184446E-01
          2   -1    0    0  501    0  0.00000000000E+00  0.00000000000E+00  0.22076273720E+04  0.22076273720E+04  0.00000000000E+00 0.  1.
         -2   -1    0    0    0  501 -0.00000000000E+00 -0.00000000000E+00 -0.11716798151E+04  0.11716798151E+04  0.00000000000E+00 0. -1.
    9900016    2    1    2    0    0 -0.42808471259E+03  0.15292676714E+03  0.13453482703E+04  0.25821361631E+04  0.21565764718E+04 0.  0.
        -24    2    3    3    0    0 -0.24863444397E+03 -0.88699016613E+03  0.53419649379E+03  0.10676836645E+04  0.77536261927E+02 0.  0.
        -15    1    3    3    0    0 -0.35311337183E+03  0.99673069723E+03  0.53872304716E+03  0.11867534107E+04  0.00000000000E+00 0.  1.
        -15    1    3    3    0    0  0.15817774941E+03  0.28978609738E+02  0.23458803350E+03  0.28441432047E+03  0.00000000000E+00 0.  1.
         15    1    4    4    0    0 -0.17730141236E+03 -0.49529929751E+03  0.29237025386E+03  0.60186173684E+03  0.00000000000E+00 0. -1.
         15    1    3    3    0    0  0.15485353808E+02  0.14207626298E+02  0.37840695893E+02  0.43284767450E+02  0.00000000000E+00 0. -1.
        -16    1    4    4    0    0 -0.71333031611E+02 -0.39169086862E+03  0.24182623994E+03  0.46582192765E+03  0.00000000000E+00 0.  1.
         16    1    1    2    0    0  0.47639009848E+03 -0.18334142597E+03 -0.40627885645E+03  0.65239873820E+03  0.00000000000E+00 0. -1.
    9900018    1    1    2    0    0 -0.48305385885E+02  0.30414658831E+02  0.96878142940E+02  0.14477228585E+03  0.91187600000E+02 0.  0.
<mgrwt>
<rscale>  0 0.32166022E+04</rscale>
<asrwt>0</asrwt>
<pdfrwt beam="1">  1        2 0.33963498E+00 0.32166022E+04</pdfrwt>
<pdfrwt beam="2">  1       -2 0.18025843E+00 0.32166022E+04</pdfrwt>
<totfact> 0.77643120E-01</totfact>
</mgrwt>
</event>
<event>
11    1  0.3701380E-013  0.2828925E+04  0.7818608E-02  0.8294344E-01
          1   -1    0    0  501    0  0.00000000000E+00  0.00000000000E+00  0.45151192544E+04  0.45151192544E+04  0.00000000000E+00 0. -1.
         -1   -1    0    0    0  501 -0.00000000000E+00 -0.00000000000E+00 -0.44311227516E+03  0.44311227516E+03  0.00000000000E+00 0.  1.
    9900016    2    1    2    0    0  0.42347283588E+03 -0.78285968641E+02  0.27826988622E+04  0.35437495388E+04  0.21515784673E+04 0.  0.
        -24    2    3    3    0    0 -0.47424206877E+03 -0.98045503425E+02  0.18512472086E+04  0.19152347498E+04  0.80557178308E+02 0.  0.
        -15    1    3    3    0    0  0.10428509674E+04  0.16479490026E+03  0.55448632418E+03  0.11925395520E+04  0.00000000000E+00 0.  1.
        -15    1    3    3    0    0 -0.52234493487E+02 -0.65139708385E+02  0.22967149641E+03  0.24437802720E+03  0.00000000000E+00 0. -1.
         15    1    3    3    0    0 -0.92901569241E+02 -0.79895657093E+02  0.14729383299E+03  0.19159720986E+03  0.00000000000E+00 0.  1.
         15    1    4    4    0    0 -0.25063374433E+03 -0.51866943688E+02  0.82010064828E+03  0.85911147527E+03  0.00000000000E+00 0. -1.
        -16    1    4    4    0    0 -0.22360832444E+03 -0.46178559738E+02  0.10311465603E+04  0.10561232745E+04  0.00000000000E+00 0.  1.
         16    1    1    2    0    0 -0.42205362554E+03  0.11569857282E+03  0.12138899634E+04  0.12903659426E+04  0.00000000000E+00 0. -1.
    9900018    1    1    2    0    0 -0.14192103414E+01 -0.37412604180E+02  0.75418153703E+02  0.12411604816E+03  0.91187600000E+02 0.  0.
<mgrwt>
<rscale>  0 0.28289254E+04</rscale>
<asrwt>0</asrwt>
<pdfrwt beam="1">  1        1 0.69463370E+00 0.28289254E+04</pdfrwt>
<pdfrwt beam="2">  1       -1 0.68171123E-01 0.28289254E+04</pdfrwt>
<totfact> 0.58534834E-02</totfact>
</mgrwt>
</event>
<event>
11    1  0.3701380E-013  0.2330631E+04  0.7818608E-02  0.8465941E-01
          2   -1    0    0  501    0  0.00000000000E+00  0.00000000000E+00  0.19964427298E+04  0.19964427298E+04  0.00000000000E+00 0. -1.
         -2   -1    0    0    0  501 -0.00000000000E+00 -0.00000000000E+00 -0.68019002988E+03  0.68019002988E+03  0.00000000000E+00 0.  1.
    9900016    2    1    2    0    0  0.50046945855E+02 -0.32828878835E+02  0.12078951388E+04  0.24800006607E+04  0.21651351410E+04 0.  0.
        -24    2    3    3    0    0 -0.79100755715E+03 -0.33979661481E+03  0.12300370091E+04  0.15034842836E+04  0.79493725057E+02 0.  0.
        -15    1    3    3    0    0  0.46392936469E+03  0.35863230098E+03 -0.64346083729E+02  0.58990507814E+03  0.00000000000E+00 0.  1.
        -15    1    3    3    0    0  0.33580145544E+03 -0.44945054708E+02  0.54098809022E+02  0.34308797203E+03  0.00000000000E+00 0. -1.
         15    1    4    4    0    0 -0.68349742322E+03 -0.28844360978E+03  0.10089549279E+04  0.12523412036E+04  0.00000000000E+00 0. -1.
         15    1    3    3    0    0  0.41323682876E+02 -0.67195102972E+01 -0.11894595597E+02  0.43523326958E+02  0.00000000000E+00 0.  1.
        -16    1    4    4    0    0 -0.10751013393E+03 -0.51353005027E+02  0.22108208116E+03  0.25114308000E+03  0.00000000000E+00 0.  1.
         16    1    1    2    0    0 -0.51016436770E+02  0.22417214572E+02  0.85478893214E+02  0.10203847076E+03  0.00000000000E+00 0. -1.
    9900018    1    1    2    0    0  0.96949091414E+00  0.10411664263E+02  0.22878667963E+02  0.94593628257E+02  0.91187600000E+02 0.  0.
<mgrwt>
<rscale>  0 0.23306312E+04</rscale>
<asrwt>0</asrwt>
<pdfrwt beam="1">  1        2 0.30714503E+00 0.23306312E+04</pdfrwt>
<pdfrwt beam="2">  1       -2 0.10464462E+00 0.23306312E+04</pdfrwt>
<totfact> 0.44980341E+00</totfact>
</mgrwt>
</event>
<event>
11    1  0.3701380E-013  0.2881590E+04  0.7818608E-02  0.8278376E-01
          2   -1    0    0  501    0  0.00000000000E+00  0.00000000000E+00  0.18056646703E+04  0.18056646703E+04  0.00000000000E+00 0. -1.
         -2   -1    0    0    0  501 -0.00000000000E+00 -0.00000000000E+00 -0.11496541201E+04  0.11496541201E+04  0.00000000000E+00 0.  1.
    9900016    2    1    2    0    0 -0.83145288986E+02  0.87868335994E+02  0.10409600385E+04  0.23964437065E+04  0.21551590784E+04 0.  0.
         24    2    3    3    0    0  0.60366435634E+03 -0.16219958399E+02  0.12814130668E+04  0.14188534848E+04  0.80324475153E+02 0.  0.
        -15    1    4    4    0    0  0.22066970930E+03 -0.40307466080E+02  0.51500343086E+03  0.56173690124E+03  0.00000000000E+00 0.  1.
        -15    1    3    3    0    0  0.20053017561E+02 -0.29715861304E+02  0.16154177169E+02  0.39320648092E+02  0.00000000000E+00 0. -1.
         15    1    3    3    0    0 -0.13313223389E+03 -0.18497479736E+03  0.13992578483E+02  0.22833234464E+03  0.00000000000E+00 0.  1.
         15    1    3    3    0    0 -0.57373042899E+03  0.31877895305E+03 -0.27059978400E+03  0.70993722903E+03  0.00000000000E+00 0. -1.
        -16    1    1    2    0    0  0.90872311074E+02 -0.10159468318E+03 -0.43346457882E+03  0.45439057832E+03  0.00000000000E+00 0.  1.
         16    1    4    4    0    0  0.38299464704E+03  0.24087507681E+02  0.76640963596E+03  0.85711658354E+03  0.00000000000E+00 0. -1.
    9900018    1    1    2    0    0 -0.77270220874E+01  0.13726347186E+02  0.48515090581E+02  0.10448450548E+03  0.91187600000E+02 0.  0.
<mgrwt>
<rscale>  0 0.28815897E+04</rscale>
<asrwt>0</asrwt>
<pdfrwt beam="1">  1        2 0.27779457E+00 0.28815897E+04</pdfrwt>
<pdfrwt beam="2">  1       -2 0.17686986E+00 0.28815897E+04</pdfrwt>
<totfact> 0.14118182E+00</totfact>
</mgrwt>
</event>
<event>
11    1  0.3701380E-013  0.4506424E+04  0.7818608E-02  0.7909513E-01
          3   -1    0    0  501    0  0.00000000000E+00  0.00000000000E+00  0.45423349451E+04  0.45423349451E+04  0.00000000000E+00 0. -1.
         -3   -1    0    0    0  501 -0.00000000000E+00 -0.00000000000E+00 -0.11176993803E+04  0.11176993803E+04  0.00000000000E+00 0.  1.
    9900016    2    1    2    0    0  0.52073145845E+03  0.21968720591E+03  0.13584993146E+03  0.23230394704E+04  0.22491406040E+04 0.  0.
        -24    2    3    3    0    0  0.55132060503E+03  0.86695174517E+03  0.56679607585E+03  0.11760382805E+04  0.79047503016E+02 0.  0.
        -15    1    3    3    0    0 -0.31803946508E+03 -0.35187896174E+03 -0.25848324011E+02  0.47501162188E+03  0.00000000000E+00 0.  1.
        -15    1    3    3    0    0  0.14769949003E+03 -0.77400522252E+02 -0.23462789813E+03  0.28784758255E+03  0.00000000000E+00 0.  1.
         15    1    3    3    0    0  0.88402541535E+02 -0.18540117877E+03 -0.18134507292E+03  0.27399752172E+03  0.00000000000E+00 0. -1.
         15    1    4    4    0    0  0.22711672645E+03  0.35734920296E+03  0.18947173439E+03  0.46387498146E+03  0.00000000000E+00 0. -1.
        -16    1    4    4    0    0  0.32420387858E+03  0.50960254221E+03  0.37732434147E+03  0.71216329909E+03  0.00000000000E+00 0.  1.
         16    1    1    2    0    0 -0.52073145845E+03 -0.21968720591E+03  0.32887856333E+04  0.33369948550E+04  0.00000000000E+00 0. -1.
    9900018    1    3    3    0    0  0.51348286943E+02 -0.32583876502E+02  0.10875150659E+02  0.11014446366E+03  0.91187600000E+02 0.  0.
<mgrwt>
<rscale>  0 0.45064243E+04</rscale>
<asrwt>0</asrwt>
<pdfrwt beam="1">  1        3 0.69882075E+00 0.45064243E+04</pdfrwt>
<pdfrwt beam="2">  1       -3 0.17195375E+00 0.45064243E+04</pdfrwt>
<totfact> 0.14613152E-04</totfact>
</mgrwt>
</event>
<event>
11    1  0.3701380E-013  0.2564420E+04  0.7818608E-02  0.8380388E-01
          2   -1    0    0  501    0  0.00000000000E+00  0.00000000000E+00  0.31473878102E+04  0.31473878102E+04  0.00000000000E+00 0.  1.
         -2   -1    0    0    0  501 -0.00000000000E+00 -0.00000000000E+00 -0.52235791095E+03  0.52235791095E+03  0.00000000000E+00 0. -1.
    9900016    2    1    2    0    0 -0.27290436121E+03 -0.28455508320E+02  0.21932354905E+04  0.30901333800E+04  0.21594804660E+04 0.  0.
         24    2    3    3    0    0 -0.65547204418E+03  0.18728886305E+02 -0.30348089480E+02  0.66121980311E+03  0.79348910519E+02 0.  0.
        -15    1    4    4    0    0 -0.30565630465E+03  0.73264779774E+01 -0.53766715693E+02  0.31043568346E+03  0.00000000000E+00 0.  1.
        -15    1    3    3    0    0 -0.59494724534E+02  0.40793286054E+02  0.39910596542E+01  0.72247096769E+02  0.00000000000E+00 0. -1.
         15    1    3    3    0    0  0.53921382060E+03 -0.12291757904E+03  0.21749878496E+04  0.22441997286E+04  0.00000000000E+00 0. -1.
         15    1    3    3    0    0 -0.97151413099E+02  0.34939898366E+02  0.44604670704E+02  0.11246675159E+03  0.00000000000E+00 0.  1.
        -16    1    1    2    0    0  0.28403892117E+03  0.39250542424E+02  0.37113677713E+03  0.46900023578E+03  0.00000000000E+00 0.  1.
         16    1    4    4    0    0 -0.34981573953E+03  0.11402408328E+02  0.23418626213E+02  0.35078411964E+03  0.00000000000E+00 0. -1.
    9900018    1    1    2    0    0 -0.11134559960E+02 -0.10795034104E+02  0.60657631617E+02  0.11061210537E+03  0.91187600000E+02 0.  0.
<mgrwt>
<rscale>  0 0.25644203E+04</rscale>
<asrwt>0</asrwt>
<pdfrwt beam="1">  1        2 0.48421350E+00 0.25644203E+04</pdfrwt>
<pdfrwt beam="2">  1       -2 0.80362757E-01 0.25644203E+04</pdfrwt>
<totfact> 0.17033057E+00</totfact>
</mgrwt>
</event>
<event>
11    1  0.3701380E-013  0.2826246E+04  0.7818608E-02  0.8295166E-01
         -2   -1    0    0    0  501 -0.00000000000E+00  0.00000000000E+00  0.68132735050E+03  0.68132735050E+03  0.00000000000E+00 0.  1.
          2   -1    0    0  501    0  0.00000000000E+00 -0.00000000000E+00 -0.29309214263E+04  0.29309214263E+04  0.00000000000E+00 0. -1.
    9900016    2    1    2    0    0  0.31396333257E+03 -0.10513622922E+03 -0.13608643537E+04  0.25701304180E+04  0.21549923377E+04 0.  0.
        -24    2    3    3    0    0  0.20089636728E+03  0.86683216286E+03 -0.12655458033E+04  0.15491449279E+04  0.80538675889E+02 0.  0.
        -15    1    3    3    0    0  0.92778378914E+02 -0.40237260359E+03 -0.16538125989E+03  0.44481737920E+03  0.00000000000E+00 0.  1.
        -15    1    3    3    0    0  0.25832728005E+02 -0.54978079788E+03  0.61252464228E+02  0.55378526518E+03  0.00000000000E+00 0.  1.
         15    1    4    4    0    0  0.91619363334E+02  0.54399189931E+03 -0.74706841793E+03  0.92867244781E+03  0.00000000000E+00 0. -1.
         15    1    3    3    0    0 -0.55441416367E+01 -0.19814990609E+02  0.88102453181E+01  0.22382845705E+02  0.00000000000E+00 0. -1.
        -16    1    4    4    0    0  0.10927700395E+03  0.32284026355E+03 -0.51847738539E+03  0.62047248007E+03  0.00000000000E+00 0.  1.
         16    1    1    2    0    0 -0.36286963220E+03  0.83468910533E+02 -0.85266246223E+03  0.93041641403E+03  0.00000000000E+00 0. -1.
    9900018    1    1    2    0    0  0.48906299630E+02  0.21667318692E+02 -0.36067259899E+02  0.11170194480E+03  0.91187600000E+02 0.  0.
<mgrwt>
<rscale>  0 0.28262462E+04</rscale>
<asrwt>0</asrwt>
<pdfrwt beam="1">  1        2 0.45091100E+00 0.28262462E+04</pdfrwt>
<pdfrwt beam="2">  1       -2 0.10481959E+00 0.28262462E+04</pdfrwt>
<totfact> 0.12316902E+00</totfact>
</mgrwt>
</event>
<event>
11    1  0.3701380E-013  0.2496751E+04  0.7818608E-02  0.8404144E-01
          1   -1    0    0  501    0  0.00000000000E+00  0.00000000000E+00  0.70761954430E+03  0.70761954430E+03  0.00000000000E+00 0. -1.
         -1   -1    0    0    0  501 -0.00000000000E+00 -0.00000000000E+00 -0.22023724329E+04  0.22023724329E+04  0.00000000000E+00 0.  1.
    9900016    2    1    2    0    0 -0.12327119362E+03 -0.64107458269E+02 -0.15755423263E+04  0.27492670985E+04  0.22487397367E+04 0.  0.
        -24    2    3    3    0    0  0.77626107179E+02  0.45643744589E+03 -0.16624481482E+04  0.17276228864E+04  0.81154406995E+02 0.  0.
        -15    1    3    3    0    0 -0.11849101830E+03 -0.32360622752E+03  0.42866312136E+03  0.55001198489E+03  0.00000000000E+00 0.  1.
        -15    1    3    3    0    0 -0.35717708927E+02 -0.10196245401E+03 -0.83239147315E+02  0.13638494200E+03  0.00000000000E+00 0. -1.
         15    1    4    4    0    0  0.75671883300E+02  0.43172488367E+03 -0.14812723923E+04  0.15447590457E+04  0.00000000000E+00 0. -1.
         15    1    3    3    0    0 -0.23805739531E+02 -0.11390026303E+03 -0.15912935383E+03  0.19713481276E+03  0.00000000000E+00 0.  1.
        -16    1    4    4    0    0  0.19542238792E+01  0.24712562221E+02 -0.18117575588E+03  0.18286384072E+03  0.00000000000E+00 0.  1.
         16    1    1    2    0    0  0.12327119362E+03  0.64107458269E+02  0.80789437745E+02  0.16072487870E+03  0.00000000000E+00 0. -1.
    9900018    1    3    3    0    0 -0.22882834040E+02  0.18924040400E+02 -0.99388798315E+02  0.13811247237E+03  0.91187600000E+02 0.  0.
<mgrwt>
<rscale>  0 0.24967513E+04</rscale>
<asrwt>0</asrwt>
<pdfrwt beam="1">  1        1 0.10886455E+00 0.24967513E+04</pdfrwt>
<pdfrwt beam="2">  1       -1 0.33882652E+00 0.24967513E+04</pdfrwt>
<totfact> 0.43874475E-01</totfact>
</mgrwt>
</event>
<event>
11    1  0.3701380E-013  0.2961599E+04  0.7818608E-02  0.8254782E-01
         -1   -1    0    0    0  501 -0.00000000000E+00  0.00000000000E+00  0.89421926234E+03  0.89421926234E+03  0.00000000000E+00 0.  1.
          1   -1    0    0  501    0  0.00000000000E+00 -0.00000000000E+00 -0.24521576741E+04  0.24521576741E+04  0.00000000000E+00 0. -1.
    9900016    2    1    2    0    0  0.48458071417E+03  0.18264621000E+03 -0.84229738643E+03  0.24630196001E+04  0.22558418731E+04 0.  0.
        -24    2    3    3    0    0 -0.62142674603E+03 -0.40733559979E+02  0.30084977812E+03  0.69613545439E+03  0.79142645079E+02 0.  0.
        -15    1    3    3    0    0  0.15343968045E+03 -0.14417273323E+03 -0.11280430556E+03  0.23886046951E+03  0.00000000000E+00 0. -1.
        -15    1    3    3    0    0  0.83710726886E+03  0.40969787478E+03 -0.99009244182E+03  0.13597367288E+04  0.00000000000E+00 0.  1.
         15    1    3    3    0    0  0.27258268483E+02 -0.17751218688E+02  0.13733166545E+01  0.32557717430E+02  0.00000000000E+00 0.  1.
         15    1    4    4    0    0 -0.31781989600E+03 -0.15115802276E+02  0.11022071699E+03  0.33672923874E+03  0.00000000000E+00 0. -1.
        -16    1    4    4    0    0 -0.30360685003E+03 -0.25617757703E+02  0.19062906113E+03  0.35940621564E+03  0.00000000000E+00 0.  1.
         16    1    1    2    0    0 -0.48458071417E+03 -0.18264621000E+03 -0.71564102532E+03  0.88335733635E+03  0.00000000000E+00 0. -1.
    9900018    1    3    3    0    0  0.88202242414E+02 -0.24394152886E+02 -0.41623733825E+02  0.13572922999E+03  0.91187600000E+02 0.  0.
<mgrwt>
<rscale>  0 0.29615986E+04</rscale>
<asrwt>0</asrwt>
<pdfrwt beam="1">  1        1 0.37725502E+00 0.29615986E+04</pdfrwt>
<pdfrwt beam="2">  1       -1 0.13757220E+00 0.29615986E+04</pdfrwt>
<totfact> 0.54757889E-01</totfact>
</mgrwt>
</event>
