<event>
11    1  0.9722158E-013  0.2389109E+04  0.7818608E-02  0.8893033E-01
          1   -1    0    0  501    0  0.00000000000E+00  0.00000000000E+00  0.11924317757E+04  0.11924317757E+04  0.00000000000E+00 0. -1.
         -1   -1    0    0    0  501 -0.00000000000E+00 -0.00000000000E+00 -0.22002309016E+04  0.22002309016E+04  0.00000000000E+00 0.  1.
    9900016    2    1    2    0    0 -0.22951785219E+02 -0.57520727033E+03  0.14291842678E+03  0.10244565737E+04  0.83528163302E+03 0.  0.
         23    2    3    3    0    0  0.10998257956E+02  0.12740463457E+03 -0.17127594261E+03  0.23223964513E+03  0.90812453259E+02 0.  0.
        -15    1    1    2    0    0  0.23081839744E+02  0.23691717640E+02  0.19165822420E+03  0.19449150036E+03  0.00000000000E+00 0.  1.
        -15    1    4    4    0    0 -0.15173361292E+02  0.64276852137E+02 -0.24691658866E+02  0.70508316042E+02  0.00000000000E+00 0. -1.
         15    1    1    2    0    0  0.22796092076E+03 -0.16590898847E+03  0.27242585452E+03  0.39205588895E+03  0.00000000000E+00 0. -1.
         15    1    4    4    0    0  0.26171619249E+02  0.63127782431E+02 -0.14658428374E+03  0.16173132909E+03  0.00000000000E+00 0.  1.
        -16    1    1    2    0    0 -0.22809097529E+03  0.71742454115E+03 -0.16148016315E+04  0.17816587143E+04  0.00000000000E+00 0.  1.
         16    1    3    3    0    0  0.31253338823E+02 -0.25927361153E+03  0.56062874295E+02  0.26710039816E+03  0.00000000000E+00 0. -1.
    9900018    1    3    3    0    0 -0.65203381997E+02 -0.44333829337E+03  0.25813149509E+03  0.52511653044E+03  0.91187600000E+02 0.  0.
<mgrwt>
<rscale>  0 0.14871646E+04</rscale>
<asrwt>0</asrwt>
<pdfrwt beam="1">  1        1 0.18345104E+00 0.23891092E+04</pdfrwt>
<pdfrwt beam="2">  1       -1 0.33849706E+00 0.23891092E+04</pdfrwt>
<totfact> 0.17568348E-01</totfact>
</mgrwt>
</event>
<event>
11    1  0.9722160E-013  0.3306232E+04  0.7818608E-02  0.8161312E-01
          1   -1    0    0  501    0  0.00000000000E+00  0.00000000000E+00  0.18714243529E+04  0.18714243529E+04  0.00000000000E+00 0. -1.
         -1   -1    0    0    0  501 -0.00000000000E+00 -0.00000000000E+00 -0.14602738340E+04  0.14602738340E+04  0.00000000000E+00 0.  1.
    9900016    2    1    2    0    0 -0.13567555756E+03  0.13300545242E+03  0.90086527458E+01  0.63899031179E+03  0.61002389744E+03 0.  0.
         23    2    3    3    0    0 -0.23027274795E+03  0.18821903682E+03  0.23429927279E+03  0.38848475933E+03  0.87019048111E+02 0.  0.
        -15    1    1    2    0    0 -0.11209983028E+03 -0.18970828624E+03  0.18443470034E+03  0.28735303114E+03  0.00000000000E+00 0.  1.
        -15    1    4    4    0    0 -0.94629628603E+02  0.27940290608E+02  0.91422782210E+02  0.13451227288E+03  0.00000000000E+00 0.  1.
         15    1    4    4    0    0 -0.13564311935E+03  0.16027874622E+03  0.14287649058E+03  0.25397248645E+03  0.00000000000E+00 0. -1.
         15    1    1    2    0    0  0.42097227881E+03  0.60680349851E+03  0.58924964399E+03  0.94479801454E+03  0.00000000000E+00 0. -1.
        -16    1    1    2    0    0 -0.24262025887E+03 -0.87984416346E+02 -0.78726492069E+03  0.82848772041E+03  0.00000000000E+00 0.  1.
         16    1    3    3    0    0  0.94597190391E+02 -0.55213584402E+02 -0.22529062005E+03  0.25050555246E+03  0.00000000000E+00 0. -1.
    9900018    1    1    2    0    0  0.69423367890E+02 -0.46211624835E+03  0.41572244250E+03  0.63206910902E+03  0.91187600000E+02 0.  0.
<mgrwt>
<rscale>  0 0.33062317E+04</rscale>
<asrwt>0</asrwt>
<pdfrwt beam="1">  1        1 0.28791144E+00 0.33062317E+04</pdfrwt>
<pdfrwt beam="2">  1       -1 0.22465751E+00 0.33062317E+04</pdfrwt>
<totfact> 0.30947847E-01</totfact>
</mgrwt>
</event>
<event>
11    1  0.9722158E-013  0.1604938E+04  0.7818608E-02  0.9075337E-01
          2   -1    0    0  501    0  0.00000000000E+00  0.00000000000E+00  0.15840959801E+04  0.15840959801E+04  0.00000000000E+00 0. -1.
         -2   -1    0    0    0  501 -0.00000000000E+00 -0.00000000000E+00 -0.87659059113E+03  0.87659059113E+03  0.00000000000E+00 0.  1.
    9900016    2    1    2    0    0  0.12273113408E+03 -0.22772923722E+03 -0.46280582860E+01  0.87116466523E+03  0.83185510654E+03 0.  0.
         23    2    3    3    0    0  0.22175600962E+03  0.39679768599E+02 -0.34817603979E+03  0.42469101767E+03  0.91573434843E+02 0.  0.
        -15    1    4    4    0    0  0.11024699420E+02 -0.19228235582E+02 -0.17807292142E+02  0.28431825378E+02  0.00000000000E+00 0.  1.
        -15    1    1    2    0    0  0.22570509669E+03 -0.19073330951E+03  0.32629869238E+03  0.44021906215E+03  0.00000000000E+00 0.  1.
         15    1    1    2    0    0 -0.29500421666E+03 -0.65312871784E+02  0.18374392041E+03  0.35363128730E+03  0.00000000000E+00 0. -1.
         15    1    4    4    0    0  0.21073131020E+03  0.58908004181E+02 -0.33036874765E+03  0.39625919230E+03  0.00000000000E+00 0. -1.
        -16    1    3    3    0    0 -0.99024875544E+02 -0.26740900582E+03  0.34354798151E+03  0.44647364756E+03  0.00000000000E+00 0.  1.
         16    1    1    2    0    0  0.18356694464E+03  0.21594032768E+03  0.30113632378E+03  0.41353371541E+03  0.00000000000E+00 0. -1.
    9900018    1    1    2    0    0 -0.23699895874E+03  0.26783509083E+03 -0.99045489268E+02  0.38213784118E+03  0.91187600000E+02 0.  0.
<mgrwt>
<rscale>  0 0.12438263E+04</rscale>
<asrwt>0</asrwt>
<pdfrwt beam="1">  1        2 0.24370707E+00 0.16049377E+04</pdfrwt>
<pdfrwt beam="2">  1       -2 0.13486009E+00 0.16049377E+04</pdfrwt>
<totfact> 0.42412153E+00</totfact>
</mgrwt>
</event>
