<event>
13    1  0.4127336E-007  0.4531055E+04  0.7818608E-02  0.7905222E-01
          1   -1    0    0  501    0  0.00000000000E+00  0.00000000000E+00  0.26590161098E+04  0.26590161098E+04  0.00000000000E+00 0. -1.
         -1   -1    0    0    0  501 -0.00000000000E+00 -0.00000000000E+00 -0.19302685963E+04  0.19302685963E+04  0.00000000000E+00 0.  1.
    9900016    2    1    2    0    0  0.97394653736E+03 -0.15545770845E+03  0.71925181417E+03  0.22092261574E+04  0.18413631053E+04 0.  0.
        -24    2    3    3    0    0 -0.48342009460E+03 -0.30240668921E+03  0.87965577350E+00  0.57779425237E+03  0.93277171579E+02 0.  0.
    9900016    2    1    2    0    0 -0.92946351543E+03  0.35700548254E+03  0.17161383150E+03  0.21022137868E+04  0.18435010597E+04 0.  0.
         24    2    5    5    0    0 -0.44659319001E+03  0.89587350945E+03  0.68468964296E+03  0.12152023495E+04  0.76694333361E+02 0.  0.
        -15    1    6    6    0    0 -0.29093489874E+03  0.50800937686E+03  0.42008837324E+03  0.72054901541E+03  0.00000000000E+00 0.  1.
        -15    1    3    3    0    0  0.14573666320E+04  0.14694898075E+03  0.71837215840E+03  0.16314319051E+04  0.00000000000E+00 0.  1.
         15    1    5    5    0    0 -0.48287032541E+03 -0.53886802691E+03 -0.51307581146E+03  0.88701143730E+03  0.00000000000E+00 0. -1.
         15    1    4    4    0    0 -0.13553303283E+03 -0.10359098491E+03 -0.39415406270E+02  0.17508246456E+03  0.00000000000E+00 0. -1.
        -16    1    4    4    0    0 -0.34788706176E+03 -0.19881570430E+03  0.40295062044E+02  0.40271178781E+03  0.00000000000E+00 0.  1.
         16    1    6    6    0    0 -0.15565829127E+03  0.38786413259E+03  0.26460126972E+03  0.49465333409E+03  0.00000000000E+00 0. -1.
    9900018    1    1    2    0    0 -0.44483021939E+02 -0.20154777408E+03 -0.16211813223E+03  0.27784476182E+03  0.91187600000E+02 0.  0.
<mgrwt>
<rscale>  0 0.45310552E+04</rscale>
<asrwt>0</asrwt>
<pdfrwt beam="1">  1        1 0.40907940E+00 0.45310552E+04</pdfrwt>
<pdfrwt beam="2">  1       -1 0.29696440E+00 0.45310552E+04</pdfrwt>
<totfact> 0.27168796E-02</totfact>
</mgrwt>
</event>
<event>
13    1  0.4127336E-007  0.4962796E+04  0.7818608E-02  0.7834272E-01
          2   -1    0    0  501    0  0.00000000000E+00  0.00000000000E+00  0.37410309237E+04  0.37410309237E+04  0.00000000000E+00 0. -1.
         -2   -1    0    0    0  501 -0.00000000000E+00 -0.00000000000E+00 -0.16458927798E+04  0.16458927798E+04  0.00000000000E+00 0.  1.
    9900016    2    1    2    0    0 -0.65743140148E+03 -0.65212277800E+03 -0.93598080402E+02  0.20692933383E+04  0.18481704884E+04 0.  0.
        -24    2    3    3    0    0 -0.39772716948E+03  0.29286760625E+03  0.66179712374E+03  0.83192717229E+03  0.10084171193E+03 0.  0.
    9900016    2    1    2    0    0  0.48913357682E+03  0.56837149606E+03  0.12262559009E+04  0.23327334232E+04  0.18372925395E+04 0.  0.
         24    2    5    5    0    0  0.11500377539E+04  0.30594528408E+03  0.43655990099E+03  0.12700567931E+04  0.79185594147E+02 0.  0.
        -15    1    3    3    0    0 -0.25970423200E+03 -0.94499038424E+03 -0.75539520415E+03  0.12373661660E+04  0.00000000000E+00 0.  1.
        -15    1    6    6    0    0  0.44809389626E+03  0.80825006649E+02  0.17756200154E+03  0.48872189020E+03  0.00000000000E+00 0.  1.
         15    1    5    5    0    0 -0.66090417704E+03  0.26242621198E+03  0.78969599991E+03  0.10626766301E+04  0.00000000000E+00 0. -1.
         15    1    4    4    0    0 -0.23218187850E+03  0.22435283251E+03  0.46102482965E+03  0.56283790892E+03  0.00000000000E+00 0. -1.
        -16    1    4    4    0    0 -0.16554529099E+03  0.68514773739E+02  0.20077229409E+03  0.26908926337E+03  0.00000000000E+00 0.  1.
         16    1    6    6    0    0  0.70194385760E+03  0.22512027743E+03  0.25899789946E+03  0.78133490288E+03  0.00000000000E+00 0. -1.
    9900018    1    1    2    0    0  0.16829782467E+03  0.83751281938E+02  0.96248032343E+03  0.98489694202E+03  0.91187600000E+02 0.  0.
<mgrwt>
<rscale>  0 0.49627959E+04</rscale>
<asrwt>0</asrwt>
<pdfrwt beam="1">  1        2 0.57554321E+00 0.49627959E+04</pdfrwt>
<pdfrwt beam="2">  1       -2 0.25321428E+00 0.49627959E+04</pdfrwt>
<totfact> 0.24319443E-02</totfact>
</mgrwt>
</event>
<event>
13    1  0.4418211E-007  0.4798359E+04  0.7818608E-02  0.7860388E-01
          2   -1    0    0  501    0  0.00000000000E+00  0.00000000000E+00  0.37678192625E+04  0.37678192625E+04  0.00000000000E+00 0. -1.
         -2   -1    0    0    0  501 -0.00000000000E+00 -0.00000000000E+00 -0.15276906445E+04  0.15276906445E+04  0.00000000000E+00 0.  1.
    9900016    2    1    2    0    0 -0.65645385057E+03 -0.73305211969E+03  0.37054465370E+03  0.21211796911E+04  0.18422276932E+04 0.  0.
         24    2    3    3    0    0 -0.12294767143E+04 -0.39821833518E+03  0.58804407064E+03  0.14227708839E+04  0.91051225406E+02 0.  0.
    9900016    2    1    2    0    0  0.36636225962E+02  0.54655798976E+03  0.13234049239E+04  0.23225199841E+04  0.18282862563E+04 0.  0.
        -24    2    5    5    0    0  0.24751372227E+03 -0.62469617976E+02  0.15992361237E+04  0.16214730555E+04  0.80331777382E+02 0.  0.
        -15    1    5    5    0    0 -0.21087749631E+03  0.60902760774E+03 -0.27583119977E+03  0.70104692867E+03  0.00000000000E+00 0.  1.
        -15    1    4    4    0    0 -0.52320447342E+03 -0.19260949690E+03  0.29690219526E+03  0.63165833554E+03  0.00000000000E+00 0.  1.
         15    1    3    3    0    0  0.57302286371E+03 -0.33483378451E+03 -0.21749941694E+03  0.69840880718E+03  0.00000000000E+00 0. -1.
         15    1    6    6    0    0  0.14326234853E+03 -0.40822235133E+02  0.68209379346E+03  0.69817082327E+03  0.00000000000E+00 0. -1.
        -16    1    6    6    0    0  0.10425137374E+03 -0.21647382843E+02  0.91714233020E+03  0.92330223219E+03  0.00000000000E+00 0.  1.
         16    1    4    4    0    0 -0.70627224086E+03 -0.20560883828E+03  0.29114187538E+03  0.79111254837E+03  0.00000000000E+00 0. -1.
    9900018    1    1    2    0    0  0.61981762461E+03  0.18649412992E+03  0.54617904041E+03  0.85181023171E+03  0.91187600000E+02 0.  0.
<mgrwt>
<rscale>  0 0.47983590E+04</rscale>
<asrwt>0</asrwt>
<pdfrwt beam="1">  1        2 0.57966450E+00 0.47983590E+04</pdfrwt>
<pdfrwt beam="2">  1       -2 0.23502933E+00 0.47983590E+04</pdfrwt>
<totfact> 0.30467352E-02</totfact>
</mgrwt>
</event>
<event>
13    1  0.4127336E-007  0.4662768E+04  0.7818608E-02  0.7882744E-01
         -2   -1    0    0    0  501 -0.00000000000E+00  0.00000000000E+00  0.28126126949E+04  0.28126126949E+04  0.00000000000E+00 0.  1.
          2   -1    0    0  501    0  0.00000000000E+00 -0.00000000000E+00 -0.19324922458E+04  0.19324922458E+04  0.00000000000E+00 0. -1.
    9900016    2    1    2    0    0 -0.20381879417E+03  0.20714921829E+03  0.15978788819E+04  0.24596190942E+04  0.18471752132E+04 0.  0.
        -24    2    3    3    0    0 -0.54606888383E+03  0.95178508497E+02 -0.22484999387E+03  0.60165969797E+03  0.64704698790E+02 0.  0.
    9900016    2    1    2    0    0  0.32971352380E+03 -0.22410424606E+03 -0.39082973293E+03  0.19230848130E+04  0.18402645454E+04 0.  0.
         24    2    5    5    0    0  0.45031787233E+03 -0.91137550880E+03  0.16257356086E+03  0.10324993859E+04  0.78951345385E+02 0.  0.
        -15    1    3    3    0    0  0.34225008966E+03  0.11197070980E+03  0.18227288757E+04  0.18579593963E+04  0.00000000000E+00 0.  1.
        -15    1    6    6    0    0  0.22885432553E+03 -0.40520499840E+03  0.10452228501E+03  0.47695943339E+03  0.00000000000E+00 0.  1.
         15    1    4    4    0    0 -0.46463929076E+03  0.62973081807E+02 -0.17234389821E+03  0.49955750299E+03  0.00000000000E+00 0. -1.
         15    1    5    5    0    0 -0.12060434853E+03  0.68727126275E+03 -0.55340329379E+03  0.89058542716E+03  0.00000000000E+00 0. -1.
        -16    1    4    4    0    0 -0.81429593072E+02  0.32205426690E+02 -0.52506095665E+02  0.10210219497E+03  0.00000000000E+00 0.  1.
         16    1    6    6    0    0  0.22146354680E+03 -0.50617051041E+03  0.58051275855E+02  0.55553995247E+03  0.00000000000E+00 0. -1.
    9900018    1    1    2    0    0 -0.12589472963E+03  0.16955027761E+02 -0.32692869976E+03  0.36240103343E+03  0.91187600000E+02 0.  0.
<mgrwt>
<rscale>  0 0.46627684E+04</rscale>
<asrwt>0</asrwt>
<pdfrwt beam="1">  1        2 0.29730650E+00 0.46627684E+04</pdfrwt>
<pdfrwt beam="2">  1       -2 0.43270965E+00 0.46627684E+04</pdfrwt>
<totfact> 0.24637691E-02</totfact>
</mgrwt>
</event>
<event>
13    1  0.4127336E-007  0.4974646E+04  0.7818608E-02  0.7832430E-01
         -2   -1    0    0    0  501 -0.00000000000E+00  0.00000000000E+00  0.37422973831E+04  0.37422973831E+04  0.00000000000E+00 0.  1.
          2   -1    0    0  501    0  0.00000000000E+00 -0.00000000000E+00 -0.16532026604E+04  0.16532026604E+04  0.00000000000E+00 0. -1.
    9900016    2    1    2    0    0  0.51174524667E+03 -0.98730877556E+03  0.31115083910E+03  0.21542548362E+04  0.18186085997E+04 0.  0.
        -24    2    3    3    0    0  0.66769068059E+03 -0.10078444568E+04 -0.51320003433E+03  0.13150319486E+04  0.66132114409E+02 0.  0.
    9900016    2    1    2    0    0 -0.10148851342E+03  0.34342893036E+03  0.93127117358E+03  0.20975399575E+04  0.18450378116E+04 0.  0.
         24    2    5    5    0    0  0.62226745104E+03  0.67828684927E+03  0.75345363245E+02  0.92768461829E+03  0.87361299949E+02 0.  0.
        -15    1    3    3    0    0 -0.15594543391E+03  0.20535681219E+02  0.82435087343E+03  0.83922288761E+03  0.00000000000E+00 0.  1.
        -15    1    6    6    0    0  0.34718775751E+03  0.32741869879E+03  0.65795412997E+02  0.48173787442E+03  0.00000000000E+00 0.  1.
         15    1    5    5    0    0 -0.72375596446E+03 -0.33485791891E+03  0.85592581034E+03  0.11698553392E+04  0.00000000000E+00 0. -1.
         15    1    4    4    0    0  0.29752603208E+03 -0.45960877197E+03 -0.19728116465E+03  0.58196376259E+03  0.00000000000E+00 0. -1.
        -16    1    4    4    0    0  0.37016464851E+03 -0.54823568480E+03 -0.31591886968E+03  0.73306818599E+03  0.00000000000E+00 0.  1.
         16    1    6    6    0    0  0.27507969353E+03  0.35086815048E+03  0.95499502481E+01  0.44594674387E+03  0.00000000000E+00 0. -1.
    9900018    1    1    2    0    0 -0.41025673325E+03  0.64387984520E+03  0.84667271003E+03  0.11437052499E+04  0.91187600000E+02 0.  0.
<mgrwt>
<rscale>  0 0.49746461E+04</rscale>
<asrwt>0</asrwt>
<pdfrwt beam="1">  1        2 0.25433887E+00 0.49746461E+04</pdfrwt>
<pdfrwt beam="2">  1       -2 0.57573806E+00 0.49746461E+04</pdfrwt>
<totfact> 0.49268943E-03</totfact>
</mgrwt>
</event>
<event>
12    1  0.4127336E-007  0.5198781E+04  0.7818608E-02  0.7798554E-01
         -1   -1    0    0    0  501 -0.00000000000E+00  0.00000000000E+00  0.20242994277E+04  0.20242994277E+04  0.00000000000E+00 0.  1.
          1   -1    0    0  501    0  0.00000000000E+00 -0.00000000000E+00 -0.33378613374E+04  0.33378613374E+04  0.00000000000E+00 0. -1.
    9900016    2    1    2    0    0  0.10086303516E+04 -0.13208429304E+03  0.53310666739E+03  0.21733397812E+04  0.18451074871E+04 0.  0.
    9900016    2    1    2    0    0 -0.84912918994E+03  0.54125632351E+03 -0.12673587115E+04  0.24561699963E+04  0.18473208053E+04 0.  0.
        -24    2    4    4    0    0 -0.51377198732E+03 -0.66803606668E+03 -0.56842488309E+03  0.10197295920E+04  0.80670637888E+02 0.  0.
        -15    1    4    4    0    0 -0.33535720261E+03  0.12092923902E+04 -0.69893382846E+03  0.14364404042E+04  0.00000000000E+00 0.  1.
        -15    1    3    3    0    0  0.18211040506E+03  0.14493103595E+02  0.19871705822E+03  0.26993095212E+03  0.00000000000E+00 0.  1.
         15    1    3    3    0    0 -0.48630656376E+03 -0.24365177734E+03 -0.49956975274E+01  0.54395332479E+03  0.00000000000E+00 0. -1.
         15    1    5    5    0    0 -0.23239334865E+03 -0.24353538801E+03 -0.20610619595E+03  0.39470991591E+03  0.00000000000E+00 0. -1.
        -16    1    5    5    0    0 -0.28137863867E+03 -0.42450067867E+03 -0.36231868714E+03  0.62501967612E+03  0.00000000000E+00 0.  1.
         16    1    3    3    0    0  0.13128265103E+04  0.97074380713E+02  0.33938530670E+03  0.13594555043E+04  0.00000000000E+00 0. -1.
    9900018    1    1    2    0    0 -0.15950116170E+03 -0.40917203047E+03 -0.57930986547E+03  0.73265098767E+03  0.91187600000E+02 0.  0.
<mgrwt>
<rscale>  0 0.51987809E+04</rscale>
<asrwt>0</asrwt>
<pdfrwt beam="1">  1        1 0.51351712E+00 0.51987809E+04</pdfrwt>
<pdfrwt beam="2">  1       -1 0.31143069E+00 0.51987809E+04</pdfrwt>
<totfact> 0.66049061E-03</totfact>
</mgrwt>
</event>
<event>
13    1  0.4127336E-007  0.4288003E+04  0.7818608E-02  0.7948840E-01
          1   -1    0    0  501    0  0.00000000000E+00  0.00000000000E+00  0.39727316707E+04  0.39727316707E+04  0.00000000000E+00 0.  1.
         -1   -1    0    0    0  501 -0.00000000000E+00 -0.00000000000E+00 -0.11570732585E+04  0.11570732585E+04  0.00000000000E+00 0. -1.
    9900016    2    1    2    0    0 -0.36705875193E+03 -0.23132678626E+03  0.12618167996E+04  0.22841118574E+04  0.18538449590E+04 0.  0.
         24    2    3    3    0    0  0.13126396603E+03  0.49413084121E+03 -0.22037362118E+03  0.56030712832E+03  0.63119158043E+02 0.  0.
    9900016    2    1    2    0    0  0.31751897976E+01  0.52640119166E+03  0.11770775271E+04  0.22376252252E+04  0.18287555461E+04 0.  0.
        -24    2    5    5    0    0  0.83649851205E+03 -0.11933227983E+03  0.51298527914E+03  0.99166455596E+03  0.79213264477E+02 0.  0.
        -15    1    5    5    0    0 -0.83332332225E+03  0.64573347149E+03  0.66409224794E+03  0.12459606693E+04  0.00000000000E+00 0.  1.
        -15    1    4    4    0    0  0.69653794508E+01  0.10787809417E+03 -0.62832534249E+02  0.12503650296E+03  0.00000000000E+00 0.  1.
         15    1    6    6    0    0  0.59280416770E+03 -0.11654844538E+03  0.38492614216E+03  0.71635777115E+03  0.00000000000E+00 0. -1.
         15    1    3    3    0    0 -0.49832271797E+03 -0.72545762747E+03  0.14821904208E+04  0.17238047291E+04  0.00000000000E+00 0. -1.
        -16    1    6    6    0    0  0.24369434434E+03 -0.27838344465E+01  0.12805913698E+03  0.27530678481E+03  0.00000000000E+00 0.  1.
         16    1    4    4    0    0  0.12429858658E+03  0.38625274704E+03 -0.15754108693E+03  0.43527062535E+03  0.00000000000E+00 0. -1.
    9900018    1    1    2    0    0  0.36388356214E+03 -0.29507440540E+03  0.37676408548E+03  0.60806784656E+03  0.91187600000E+02 0.  0.
<mgrwt>
<rscale>  0 0.42880026E+04</rscale>
<asrwt>0</asrwt>
<pdfrwt beam="1">  1        1 0.61118948E+00 0.42880026E+04</pdfrwt>
<pdfrwt beam="2">  1       -1 0.17801127E+00 0.42880026E+04</pdfrwt>
<totfact> 0.16617082E-02</totfact>
</mgrwt>
</event>
<event>
13    1  0.4127336E-007  0.4979254E+04  0.7818608E-02  0.7831716E-01
         -1   -1    0    0    0  501 -0.00000000000E+00  0.00000000000E+00  0.20098721803E+04  0.20098721803E+04  0.00000000000E+00 0.  1.
          1   -1    0    0  501    0  0.00000000000E+00 -0.00000000000E+00 -0.30838983570E+04  0.30838983570E+04  0.00000000000E+00 0. -1.
    9900016    2    1    2    0    0  0.78975326137E+03 -0.49794493047E+03 -0.15220608799E+03  0.20741586196E+04  0.18458894653E+04 0.  0.
         24    2    3    3    0    0  0.88880094335E+03 -0.11068484422E+04  0.59463439790E+02  0.14219485929E+04  0.57630799974E+02 0.  0.
    9900016    2    1    2    0    0 -0.12905018682E+04  0.31976977278E+03 -0.99845838032E+03  0.24749247046E+04  0.18332172203E+04 0.  0.
        -24    2    5    5    0    0 -0.18777130110E+02 -0.43446219544E+03  0.27752584101E+03  0.52190514392E+03  0.79084808538E+02 0.  0.
        -15    1    4    4    0    0  0.33080136232E+03 -0.36994056471E+03  0.12843443572E+02  0.49643782770E+03  0.00000000000E+00 0.  1.
        -15    1    5    5    0    0 -0.12717247381E+04  0.75423196822E+03 -0.12759842213E+04  0.19530195607E+04  0.00000000000E+00 0.  1.
         15    1    3    3    0    0 -0.99047681973E+02  0.60890351177E+03 -0.21166952778E+03  0.65221002670E+03  0.00000000000E+00 0. -1.
         15    1    6    6    0    0  0.27150825393E+02 -0.16795235498E+03  0.12779683465E+03  0.21278437868E+03  0.00000000000E+00 0. -1.
        -16    1    6    6    0    0 -0.45927955502E+02 -0.26650984046E+03  0.14972900636E+03  0.30912076524E+03  0.00000000000E+00 0.  1.
         16    1    4    4    0    0  0.55799958103E+03 -0.73690787753E+03  0.46619996218E+02  0.92551076516E+03  0.00000000000E+00 0. -1.
    9900018    1    1    2    0    0  0.50074860683E+03  0.17817515769E+03  0.76638291635E+02  0.54468721317E+03  0.91187600000E+02 0.  0.
<mgrwt>
<rscale>  0 0.49792536E+04</rscale>
<asrwt>0</asrwt>
<pdfrwt beam="1">  1        1 0.47444590E+00 0.49792536E+04</pdfrwt>
<pdfrwt beam="2">  1       -1 0.30921111E+00 0.49792536E+04</pdfrwt>
<totfact> 0.10790640E-02</totfact>
</mgrwt>
</event>
<event>
12    1  0.4127336E-007  0.5742703E+04  0.7818608E-02  0.7723148E-01
         -2   -1    0    0    0  501 -0.00000000000E+00  0.00000000000E+00  0.18991286533E+04  0.18991286533E+04  0.00000000000E+00 0.  1.
          2   -1    0    0  501    0  0.00000000000E+00 -0.00000000000E+00 -0.43412858199E+04  0.43412858199E+04  0.00000000000E+00 0. -1.
    9900016    2    1    2    0    0  0.14873684711E+04 -0.10364158813E+04 -0.32104552480E+03  0.26080027582E+04  0.18472101424E+04 0.  0.
    9900016    2    1    2    0    0 -0.94028950508E+03  0.44915101499E+03 -0.13311254670E+04  0.25025582940E+04  0.18452701749E+04 0.  0.
        -24    2    4    4    0    0 -0.10398963281E+04  0.79283419471E+03 -0.21115668951E+03  0.13268160987E+04  0.76703186113E+02 0.  0.
        -15    1    3    3    0    0  0.14238926907E+03 -0.96239890296E+03  0.24706227895E+03  0.10037560072E+04  0.00000000000E+00 0.  1.
        -15    1    4    4    0    0  0.99606823065E+02 -0.34368317972E+03 -0.11199687775E+04  0.11757421953E+04  0.00000000000E+00 0.  1.
         15    1    3    3    0    0  0.13554133938E+04  0.23859031592E+02 -0.62257765064E+03  0.14917498626E+04  0.00000000000E+00 0. -1.
         15    1    5    5    0    0 -0.72909649321E+03  0.55564405006E+03 -0.18345914693E+03  0.93486858187E+03  0.00000000000E+00 0. -1.
        -16    1    5    5    0    0 -0.31079983493E+03  0.23719014465E+03 -0.27697542583E+02  0.39194751686E+03  0.00000000000E+00 0.  1.
         16    1    3    3    0    0 -0.10434191791E+02 -0.97876009921E+02  0.54469846886E+02  0.11249688838E+03  0.00000000000E+00 0. -1.
    9900018    1    1    2    0    0 -0.54707896602E+03  0.58726486630E+03 -0.78998617479E+03  0.11298534210E+04  0.91187600000E+02 0.  0.
<mgrwt>
<rscale>  0 0.57427033E+04</rscale>
<asrwt>0</asrwt>
<pdfrwt beam="1">  1        2 0.66789012E+00 0.57427033E+04</pdfrwt>
<pdfrwt beam="2">  1       -2 0.29217364E+00 0.57427033E+04</pdfrwt>
<totfact> 0.42009186E-03</totfact>
</mgrwt>
</event>
<event>
13    1  0.4127336E-007  0.4057300E+04  0.7818608E-02  0.7993086E-01
         -1   -1    0    0    0  501 -0.00000000000E+00  0.00000000000E+00  0.14650697477E+04  0.14650697477E+04  0.00000000000E+00 0.  1.
          1   -1    0    0  501    0  0.00000000000E+00 -0.00000000000E+00 -0.28090276805E+04  0.28090276805E+04  0.00000000000E+00 0. -1.
    9900016    2    1    2    0    0  0.68080508526E+02 -0.34046424744E+03 -0.33127358745E+03  0.19032882738E+04  0.18417961896E+04 0.  0.
        -24    2    3    3    0    0 -0.22659396938E+03  0.12106909403E+03 -0.10024301244E+04  0.10370913156E+04  0.68481311866E+02 0.  0.
    9900016    2    1    2    0    0  0.17568434730E+02  0.19778770983E+03 -0.11077136297E+04  0.21585873857E+04  0.18420210065E+04 0.  0.
         24    2    5    5    0    0 -0.23226009629E+03  0.66224276582E+03  0.21248563196E+03  0.73694787995E+03  0.73700751400E+02 0.  0.
        -15    1    6    6    0    0 -0.17447086219E+03  0.38868540423E+03  0.12999613743E+03  0.44543845923E+03  0.00000000000E+00 0.  1.
        -15    1    3    3    0    0  0.29467447790E+03 -0.46153334146E+03  0.67115653698E+03  0.86619695816E+03  0.00000000000E+00 0.  1.
         15    1    5    5    0    0  0.24982853102E+03 -0.46445505599E+03 -0.13201992616E+04  0.14216395058E+04  0.00000000000E+00 0. -1.
         15    1    4    4    0    0 -0.11212363651E+03  0.24034227691E+02 -0.48243512026E+03  0.49587599179E+03  0.00000000000E+00 0. -1.
        -16    1    4    4    0    0 -0.11447033286E+03  0.97034866337E+02 -0.51999500416E+03  0.54121532383E+03  0.00000000000E+00 0.  1.
         16    1    6    6    0    0 -0.57789234103E+02  0.27355736159E+03  0.82489494532E+02  0.29150942072E+03  0.00000000000E+00 0. -1.
    9900018    1    1    2    0    0 -0.85648943256E+02  0.14267653760E+03  0.95029284331E+02  0.21222176876E+03  0.91187600000E+02 0.  0.
<mgrwt>
<rscale>  0 0.40573003E+04</rscale>
<asrwt>0</asrwt>
<pdfrwt beam="1">  1        1 0.43215810E+00 0.40573003E+04</pdfrwt>
<pdfrwt beam="2">  1       -1 0.22539535E+00 0.40573003E+04</pdfrwt>
<totfact> 0.64771479E-02</totfact>
</mgrwt>
</event>
