<event>
11    1  0.1287557E-009  0.2764668E+04  0.7818608E-02  0.8314322E-01
          1   -1    0    0  501    0  0.00000000000E+00  0.00000000000E+00  0.20660846728E+04  0.20660846728E+04  0.00000000000E+00 0. -1.
         -1   -1    0    0    0  501 -0.00000000000E+00 -0.00000000000E+00 -0.92486366963E+03  0.92486366963E+03  0.00000000000E+00 0.  1.
    9900016    2    1    2    0    0  0.18988776130E+03 -0.57753633515E+03  0.30307017009E+03  0.19555245648E+04  0.18337445883E+04 0.  0.
        -24    2    3    3    0    0  0.27940066461E+03 -0.11559924849E+01  0.49235220956E+03  0.57193871930E+03  0.81468599290E+02 0.  0.
        -15    1    3    3    0    0  0.42570801454E+02  0.14711918807E+03  0.87395988682E+02  0.17633600730E+03  0.00000000000E+00 0.  1.
        -15    1    3    3    0    0 -0.22325785023E+03 -0.71404016373E+03  0.34557504216E+02  0.74892699525E+03  0.00000000000E+00 0.  1.
         15    1    4    4    0    0  0.23949252470E+03 -0.19496673852E+02  0.36290543850E+03  0.43524377878E+03  0.00000000000E+00 0. -1.
         15    1    3    3    0    0  0.13541965904E+03 -0.12192151784E+03 -0.19927653119E+03  0.27002680691E+03  0.00000000000E+00 0. -1.
        -16    1    4    4    0    0  0.39908139916E+02  0.18340681367E+02  0.12944677107E+03  0.13669494052E+03  0.00000000000E+00 0.  1.
         16    1    1    2    0    0 -0.18988776130E+03  0.57753633515E+03  0.83815083304E+03  0.10354237776E+04  0.00000000000E+00 0. -1.
    9900018    1    3    3    0    0 -0.44245513568E+02  0.11246215084E+03 -0.11195900118E+03  0.18829603602E+03  0.91187600000E+02 0.  0.
<mgrwt>
<rscale>  0 0.27646675E+04</rscale>
<asrwt>0</asrwt>
<pdfrwt beam="1">  1        1 0.31785918E+00 0.27646675E+04</pdfrwt>
<pdfrwt beam="2">  1       -1 0.14228672E+00 0.27646675E+04</pdfrwt>
<totfact> 0.93722348E-01</totfact>
</mgrwt>
</event>
<event>
11    1  0.1287557E-009  0.2184164E+04  0.7818608E-02  0.8525048E-01
          1   -1    0    0  501    0  0.00000000000E+00  0.00000000000E+00  0.35434524970E+04  0.35434524970E+04  0.00000000000E+00 0. -1.
         -1   -1    0    0    0  501 -0.00000000000E+00 -0.00000000000E+00 -0.33657657099E+03  0.33657657099E+03  0.00000000000E+00 0.  1.
    9900016    2    1    2    0    0 -0.71433920479E+02 -0.27788359374E+03  0.25108478649E+04  0.31271830290E+04  0.18418997256E+04 0.  0.
        -24    2    3    3    0    0  0.63894262763E+03 -0.17064205131E+03  0.70428711686E+03  0.96961992578E+03  0.82316865983E+02 0.  0.
        -15    1    3    3    0    0 -0.23837726875E+01  0.10197562547E+02 -0.10902946682E+02  0.15117767708E+02  0.00000000000E+00 0. -1.
        -15    1    3    3    0    0 -0.67783033037E+03 -0.20595117194E+03  0.15326705561E+04  0.16884753109E+04  0.00000000000E+00 0.  1.
         15    1    3    3    0    0  0.11602624066E+03  0.12650043677E+02  0.51055871425E+01  0.11682542166E+03  0.00000000000E+00 0.  1.
         15    1    4    4    0    0  0.34042074653E+03 -0.55473537032E+02  0.39844090337E+03  0.52699027644E+03  0.00000000000E+00 0. -1.
        -16    1    4    4    0    0  0.29852188110E+03 -0.11516851428E+03  0.30584621348E+03  0.44262964935E+03  0.00000000000E+00 0.  1.
         16    1    1    2    0    0  0.71433920479E+02  0.27788359374E+03  0.69602806110E+03  0.75284603904E+03  0.00000000000E+00 0. -1.
    9900018    1    3    3    0    0 -0.14618868571E+03  0.75862023281E+02  0.27968755151E+03  0.33714460290E+03  0.91187600000E+02 0.  0.
<mgrwt>
<rscale>  0 0.21841640E+04</rscale>
<asrwt>0</asrwt>
<pdfrwt beam="1">  1        1 0.54514651E+00 0.21841640E+04</pdfrwt>
<pdfrwt beam="2">  1       -1 0.51781013E-01 0.21841640E+04</pdfrwt>
<totfact> 0.79359462E-01</totfact>
</mgrwt>
</event>
<event>
11    1  0.1287557E-009  0.2267867E+04  0.7818608E-02  0.8490699E-01
          1   -1    0    0  501    0  0.00000000000E+00  0.00000000000E+00  0.89454604854E+03  0.89454604854E+03  0.00000000000E+00 0. -1.
         -1   -1    0    0    0  501 -0.00000000000E+00 -0.00000000000E+00 -0.14373830574E+04  0.14373830574E+04  0.00000000000E+00 0.  1.
    9900016    2    1    2    0    0  0.28170212022E+03  0.14635645886E+03 -0.71702023205E+03  0.19698295439E+04  0.18070235531E+04 0.  0.
        -24    2    3    3    0    0 -0.28521596544E+03  0.30307207991E+03  0.84049495079E+02  0.43287071395E+03  0.84332110182E+02 0.  0.
        -15    1    3    3    0    0 -0.62156677527E+02  0.53663304380E+02 -0.26197022845E+03  0.27453889231E+03  0.00000000000E+00 0.  1.
        -15    1    3    3    0    0  0.59766270518E+03 -0.37146830780E+02 -0.55555448970E+03  0.81683620587E+03  0.00000000000E+00 0.  1.
         15    1    3    3    0    0  0.20240662115E+03 -0.14387605988E+03  0.23618758551E+02  0.24945261403E+03  0.00000000000E+00 0. -1.
         15    1    4    4    0    0 -0.21030378123E+03  0.26478665333E+03  0.48753885870E+02  0.34163810322E+03  0.00000000000E+00 0. -1.
        -16    1    4    4    0    0 -0.74912184207E+02  0.38285426579E+02  0.35295609210E+02  0.91232610730E+02  0.00000000000E+00 0.  1.
         16    1    1    2    0    0 -0.28170212022E+03 -0.14635645886E+03  0.17418322317E+03  0.36209956203E+03  0.00000000000E+00 0. -1.
    9900018    1    3    3    0    0 -0.17099456314E+03 -0.29356034765E+02 -0.71637675218E+01  0.19613111777E+03  0.91187600000E+02 0.  0.
<mgrwt>
<rscale>  0 0.22678671E+04</rscale>
<asrwt>0</asrwt>
<pdfrwt beam="1">  1        1 0.13762247E+00 0.22678671E+04</pdfrwt>
<pdfrwt beam="2">  1       -1 0.22113585E+00 0.22678671E+04</pdfrwt>
<totfact> 0.18019508E+00</totfact>
</mgrwt>
</event>
<event>
11    1  0.1287557E-009  0.2887666E+04  0.7818608E-02  0.8276557E-01
         -2   -1    0    0    0  501 -0.00000000000E+00  0.00000000000E+00  0.15961538161E+04  0.15961538161E+04  0.00000000000E+00 0.  1.
          2   -1    0    0  501    0  0.00000000000E+00 -0.00000000000E+00 -0.13060485522E+04  0.13060485522E+04  0.00000000000E+00 0. -1.
    9900016    2    1    2    0    0  0.16278265174E+03 -0.54442286368E+02  0.10561377259E+04  0.21171750521E+04  0.18268938532E+04 0.  0.
        -24    2    3    3    0    0 -0.23551248842E+03 -0.56594290363E+03  0.74458702399E+03  0.96775234823E+03  0.79857803915E+02 0.  0.
        -15    1    3    3    0    0  0.42358206996E+03  0.69091627541E+03  0.24908117019E+03  0.84783754279E+03  0.00000000000E+00 0.  1.
        -15    1    3    3    0    0 -0.44636265353E+02 -0.16284120632E+02 -0.48179318836E+02  0.67666945645E+02  0.00000000000E+00 0. -1.
         15    1    4    4    0    0 -0.15032805865E+03 -0.33122649325E+03  0.38173123109E+03  0.52728383992E+03  0.00000000000E+00 0. -1.
         15    1    3    3    0    0  0.85305180874E+01 -0.38228202454E+02  0.58410628460E+02  0.70327567275E+02  0.00000000000E+00 0.  1.
        -16    1    4    4    0    0 -0.85184429772E+02 -0.23471641038E+03  0.36285579290E+03  0.44046850831E+03  0.00000000000E+00 0.  1.
         16    1    1    2    0    0 -0.16278265174E+03  0.54442286368E+02 -0.76603246200E+03  0.78502731614E+03  0.00000000000E+00 0. -1.
    9900018    1    3    3    0    0  0.10818817474E+02 -0.12490333506E+03  0.52238222090E+02  0.16359064815E+03  0.91187600000E+02 0.  0.
<mgrwt>
<rscale>  0 0.28876664E+04</rscale>
<asrwt>0</asrwt>
<pdfrwt beam="1">  1        2 0.20093055E+00 0.28876664E+04</pdfrwt>
<pdfrwt beam="2">  1       -2 0.24556212E+00 0.28876664E+04</pdfrwt>
<totfact> 0.96953672E-01</totfact>
</mgrwt>
</event>
<event>
11    1  0.1287557E-009  0.2757697E+04  0.7818608E-02  0.8316523E-01
          2   -1    0    0  501    0  0.00000000000E+00  0.00000000000E+00  0.93864846683E+03  0.93864846683E+03  0.00000000000E+00 0. -1.
         -2   -1    0    0    0  501 -0.00000000000E+00 -0.00000000000E+00 -0.20254903315E+04  0.20254903315E+04  0.00000000000E+00 0.  1.
    9900016    2    1    2    0    0 -0.22481374843E+03 -0.72771510037E+03 -0.89154676371E+03  0.21778496243E+04  0.18352282870E+04 0.  0.
        -24    2    3    3    0    0 -0.36417220885E+02 -0.67675071326E+03 -0.92329613891E+03  0.11481371090E+04  0.80158087656E+02 0.  0.
        -15    1    3    3    0    0 -0.55750211685E+02  0.39713382245E+03  0.48479724737E+02  0.40394757425E+03  0.00000000000E+00 0.  1.
        -15    1    3    3    0    0 -0.10845861809E+03 -0.19443390476E+03 -0.48045247945E+01  0.22269014037E+03  0.00000000000E+00 0.  1.
         15    1    3    3    0    0 -0.76502921788E+02 -0.18075522249E+03  0.11113659014E+03  0.22555817247E+03  0.00000000000E+00 0. -1.
         15    1    4    4    0    0 -0.51927288432E+02 -0.27072281038E+03 -0.35237277993E+03  0.44738558244E+03  0.00000000000E+00 0. -1.
        -16    1    4    4    0    0  0.15510067547E+02 -0.40602790288E+03 -0.57092335899E+03  0.70075152654E+03  0.00000000000E+00 0.  1.
         16    1    1    2    0    0  0.22481374843E+03  0.72771510037E+03 -0.19529510100E+03  0.78628917407E+03  0.00000000000E+00 0. -1.
    9900018    1    3    3    0    0  0.52315224017E+02 -0.72909082307E+02 -0.12306241488E+03  0.17751662823E+03  0.91187600000E+02 0.  0.
<mgrwt>
<rscale>  0 0.27576972E+04</rscale>
<asrwt>0</asrwt>
<pdfrwt beam="1">  1        2 0.14440746E+00 0.27576972E+04</pdfrwt>
<pdfrwt beam="2">  1       -2 0.31161389E+00 0.27576972E+04</pdfrwt>
<totfact> 0.65056344E-01</totfact>
</mgrwt>
</event>
<event>
11    1  0.1287557E-009  0.2721216E+04  0.7818608E-02  0.8328154E-01
         -1   -1    0    0    0  501 -0.00000000000E+00  0.00000000000E+00  0.15899082394E+04  0.15899082394E+04  0.00000000000E+00 0.  1.
          1   -1    0    0  501    0  0.00000000000E+00 -0.00000000000E+00 -0.11643783497E+04  0.11643783497E+04  0.00000000000E+00 0. -1.
    9900016    2    1    2    0    0 -0.12172075976E+03 -0.79835870836E+02 -0.41248711751E+03  0.19037207692E+04  0.18527863977E+04 0.  0.
         24    2    3    3    0    0 -0.17490002752E+03 -0.18897797887E+03 -0.27306933633E+03  0.38312318069E+03  0.76901319959E+02 0.  0.
        -15    1    3    3    0    0 -0.24504835505E+03 -0.25314992052E+02 -0.31241866255E+02  0.24832559139E+03  0.00000000000E+00 0.  1.
        -15    1    4    4    0    0 -0.32170389605E+02 -0.42542006346E+02 -0.10752247714E+03  0.12002432821E+03  0.00000000000E+00 0.  1.
         15    1    3    3    0    0  0.31055169078E+03  0.47546833078E+03 -0.39317015207E+03  0.69072082255E+03  0.00000000000E+00 0. -1.
         15    1    3    3    0    0 -0.17134734976E+03 -0.12125879511E+03  0.18066609366E+03  0.27695459386E+03  0.00000000000E+00 0. -1.
        -16    1    1    2    0    0  0.12172075976E+03  0.79835870836E+02  0.83801700715E+03  0.85056581985E+03  0.00000000000E+00 0.  1.
         16    1    4    4    0    0 -0.14272963791E+03 -0.14643597253E+03 -0.16554685919E+03  0.26309885248E+03  0.00000000000E+00 0. -1.
    9900018    1    3    3    0    0  0.15902328178E+03 -0.21975243558E+03  0.10432814349E+03  0.30459658076E+03  0.91187600000E+02 0.  0.
<mgrwt>
<rscale>  0 0.27212164E+04</rscale>
<asrwt>0</asrwt>
<pdfrwt beam="1">  1        1 0.17913513E+00 0.27212164E+04</pdfrwt>
<pdfrwt beam="2">  1       -1 0.24460127E+00 0.27212164E+04</pdfrwt>
<totfact> 0.74814344E-01</totfact>
</mgrwt>
</event>
<event>
11    1  0.1287557E-009  0.2991860E+04  0.7818608E-02  0.8246059E-01
          2   -1    0    0  501    0  0.00000000000E+00  0.00000000000E+00  0.99518339066E+03  0.99518339066E+03  0.00000000000E+00 0. -1.
         -2   -1    0    0    0  501 -0.00000000000E+00 -0.00000000000E+00 -0.22486374824E+04  0.22486374824E+04  0.00000000000E+00 0.  1.
    9900016    2    1    2    0    0 -0.10893685088E+03 -0.42299428769E+03  0.29224897427E+02  0.18888091410E+04  0.18373770629E+04 0.  0.
         24    2    3    3    0    0 -0.11959742683E+03 -0.87361060606E+01 -0.43736337649E+02  0.15110102166E+03  0.80862769323E+02 0.  0.
        -15    1    3    3    0    0 -0.66162257387E+02  0.15205017378E+02  0.16702535380E+03  0.18029449706E+03  0.00000000000E+00 0.  1.
        -15    1    4    4    0    0 -0.60463269893E+02  0.22582157738E+02  0.99576805188E+01  0.65306326306E+02  0.00000000000E+00 0.  1.
         15    1    3    3    0    0 -0.29664704112E+03 -0.53236636913E+03  0.50486908072E+03  0.79139510148E+03  0.00000000000E+00 0. -1.
         15    1    3    3    0    0  0.32012297000E+03  0.48121072264E+02 -0.28873761663E+03  0.43377847431E+03  0.00000000000E+00 0. -1.
        -16    1    1    2    0    0  0.10893685088E+03  0.42299428769E+03 -0.12826789892E+04  0.13550117321E+04  0.00000000000E+00 0.  1.
         16    1    4    4    0    0 -0.59134156939E+02 -0.31318263799E+02 -0.53694018168E+02  0.85794695356E+02  0.00000000000E+00 0. -1.
    9900018    1    3    3    0    0  0.53346904459E+02  0.54782097856E+02 -0.31019558282E+03  0.33224004644E+03  0.91187600000E+02 0.  0.
<mgrwt>
<rscale>  0 0.29918601E+04</rscale>
<asrwt>0</asrwt>
<pdfrwt beam="1">  1        2 0.15310514E+00 0.29918601E+04</pdfrwt>
<pdfrwt beam="2">  1       -2 0.34594422E+00 0.29918601E+04</pdfrwt>
<totfact> 0.35849316E-01</totfact>
</mgrwt>
</event>
<event>
11    1  0.1287557E-009  0.3499415E+04  0.7818608E-02  0.8113929E-01
         -2   -1    0    0    0  501 -0.00000000000E+00  0.00000000000E+00  0.63335725630E+03  0.63335725630E+03  0.00000000000E+00 0.  1.
          2   -1    0    0  501    0  0.00000000000E+00 -0.00000000000E+00 -0.48337268643E+04  0.48337268643E+04  0.00000000000E+00 0. -1.
    9900016    2    1    2    0    0  0.92058819508E+03  0.22141758979E+03 -0.13791067408E+04  0.24911754291E+04  0.18459445393E+04 0.  0.
        -24    2    3    3    0    0  0.42203977151E+03  0.17425935346E+03  0.23126880940E+03  0.51784714285E+03  0.78717915078E+02 0.  0.
        -15    1    3    3    0    0  0.56739812543E+03  0.15568368873E+03 -0.10438254249E+04  0.11982276751E+04  0.00000000000E+00 0.  1.
        -15    1    3    3    0    0 -0.13931807153E+03  0.12899409854E+03 -0.23517945433E+03  0.30225548506E+03  0.00000000000E+00 0.  1.
         15    1    4    4    0    0  0.83067176291E+02  0.54472431535E+02  0.21589064994E+02  0.10165377170E+03  0.00000000000E+00 0. -1.
         15    1    3    3    0    0  0.12749424558E+03 -0.15479964589E+03 -0.21600318941E+03  0.29474580719E+03  0.00000000000E+00 0. -1.
        -16    1    4    4    0    0  0.33897259522E+03  0.11978692192E+03  0.20967974440E+03  0.41619337115E+03  0.00000000000E+00 0.  1.
         16    1    1    2    0    0 -0.92058819508E+03 -0.22141758979E+03 -0.28212628672E+04  0.29759086915E+04  0.00000000000E+00 0. -1.
    9900018    1    3    3    0    0 -0.57025875922E+02 -0.82719905051E+02 -0.11536748154E+03  0.17809931894E+03  0.91187600000E+02 0.  0.
<mgrwt>
<rscale>  0 0.34994148E+04</rscale>
<asrwt>0</asrwt>
<pdfrwt beam="1">  1        2 0.74365031E+00 0.34994148E+04</pdfrwt>
<pdfrwt beam="2">  1       -2 0.97439575E-01 0.34994148E+04</pdfrwt>
<totfact> 0.39059049E-02</totfact>
</mgrwt>
</event>
<event>
11    1  0.1287557E-009  0.2337177E+04  0.7818608E-02  0.8463405E-01
          2   -1    0    0  501    0  0.00000000000E+00  0.00000000000E+00  0.17467811081E+04  0.17467811081E+04  0.00000000000E+00 0.  1.
         -2   -1    0    0    0  501 -0.00000000000E+00 -0.00000000000E+00 -0.78178019888E+03  0.78178019888E+03  0.00000000000E+00 0. -1.
    9900016    2    1    2    0    0 -0.12319462295E+03  0.22993102867E+02  0.31903197842E+03  0.18705480416E+04  0.18388754647E+04 0.  0.
         24    2    3    3    0    0  0.17267048172E+02  0.61319495732E+02  0.57468551727E+02  0.11938773953E+03  0.83021481582E+02 0.  0.
        -15    1    4    4    0    0  0.49695477595E+02  0.35144926032E+02  0.22187517404E+02  0.64784969304E+02  0.00000000000E+00 0.  1.
        -15    1    3    3    0    0 -0.54469550841E+02  0.35389041978E+02  0.38037020411E+02  0.75273708443E+02  0.00000000000E+00 0.  1.
         15    1    3    3    0    0  0.17799735005E+03  0.54836853421E+02 -0.62883331244E+03  0.65583646739E+03  0.00000000000E+00 0. -1.
         15    1    3    3    0    0  0.71911277982E+02 -0.13864567120E+03  0.86007521171E+02  0.17830072277E+03  0.00000000000E+00 0. -1.
        -16    1    1    2    0    0  0.12319462295E+03 -0.22993102867E+02  0.64596893079E+03  0.65801326541E+03  0.00000000000E+00 0.  1.
         16    1    4    4    0    0 -0.32428429424E+02  0.26174569700E+02  0.35281034323E+02  0.54602770230E+02  0.00000000000E+00 0. -1.
    9900018    1    3    3    0    0 -0.33590074832E+03  0.10093382933E+02  0.76635219755E+03  0.84174940343E+03  0.91187600000E+02 0.  0.
<mgrwt>
<rscale>  0 0.23371768E+04</rscale>
<asrwt>0</asrwt>
<pdfrwt beam="1">  1        2 0.26873555E+00 0.23371768E+04</pdfrwt>
<pdfrwt beam="2">  1       -2 0.12027388E+00 0.23371768E+04</pdfrwt>
<totfact> 0.44085014E+00</totfact>
</mgrwt>
</event>
<event>
11    1  0.1287557E-009  0.2253979E+04  0.7818608E-02  0.8496291E-01
         -1   -1    0    0    0  501 -0.00000000000E+00  0.00000000000E+00  0.72720911899E+03  0.72720911899E+03  0.00000000000E+00 0.  1.
          1   -1    0    0  501    0  0.00000000000E+00 -0.00000000000E+00 -0.17465482114E+04  0.17465482114E+04  0.00000000000E+00 0. -1.
    9900016    2    1    2    0    0  0.26652221851E+03 -0.18454740834E+03 -0.10052520266E+04  0.21492726862E+04  0.18718305490E+04 0.  0.
         24    2    3    3    0    0 -0.22059768861E+03  0.59533341384E+02 -0.68504031408E+02  0.25376121896E+03  0.86570173670E+02 0.  0.
        -15    1    3    3    0    0 -0.83155939979E+02  0.84443178214E+02 -0.45741821068E+01  0.11860220842E+03  0.00000000000E+00 0.  1.
        -15    1    4    4    0    0 -0.74980635753E+02 -0.19811427116E+02 -0.32375887430E+02  0.84040385941E+02  0.00000000000E+00 0.  1.
         15    1    3    3    0    0 -0.16200954147E+03 -0.38300076607E+03 -0.26094457430E+03  0.49094678856E+03  0.00000000000E+00 0. -1.
         15    1    3    3    0    0  0.52386268498E+03 -0.30474034932E+03 -0.60372083514E+03  0.85544002712E+03  0.00000000000E+00 0. -1.
        -16    1    1    2    0    0 -0.26652221851E+03  0.18454740834E+03 -0.14087065864E+02  0.32448464418E+03  0.00000000000E+00 0.  1.
         16    1    4    4    0    0 -0.14561705286E+03  0.79344768500E+02 -0.36128143978E+02  0.16972083302E+03  0.00000000000E+00 0. -1.
    9900018    1    3    3    0    0  0.20842270359E+03  0.35921718745E+03 -0.67508403623E+02  0.43052244319E+03  0.91187600000E+02 0.  0.
<mgrwt>
<rscale>  0 0.22539794E+04</rscale>
<asrwt>0</asrwt>
<pdfrwt beam="1">  1        1 0.26869972E+00 0.22539794E+04</pdfrwt>
<pdfrwt beam="2">  1       -1 0.11187833E+00 0.22539794E+04</pdfrwt>
<totfact> 0.29468700E+00</totfact>
</mgrwt>
</event>
<event>
11    1  0.1287557E-009  0.2177534E+04  0.7818608E-02  0.8527838E-01
          2   -1    0    0  501    0  0.00000000000E+00  0.00000000000E+00  0.17030721251E+04  0.17030721251E+04  0.00000000000E+00 0. -1.
         -2   -1    0    0    0  501 -0.00000000000E+00 -0.00000000000E+00 -0.69604395335E+03  0.69604395335E+03  0.00000000000E+00 0.  1.
    9900016    2    1    2    0    0  0.88741446581E+02  0.31324509125E+03  0.74722250957E+03  0.19825869515E+04  0.18072941127E+04 0.  0.
        -24    2    3    3    0    0  0.23968534929E+03  0.22829270937E+02 -0.19682797707E+03  0.32140845234E+03  0.81190506831E+02 0.  0.
        -15    1    3    3    0    0  0.20169491482E+03  0.77230555160E+02 -0.91130188147E+02  0.23441439483E+03  0.00000000000E+00 0.  1.
        -15    1    3    3    0    0 -0.16101527759E+03 -0.41206837279E+02  0.78242992962E+03  0.79988781577E+03  0.00000000000E+00 0.  1.
         15    1    4    4    0    0  0.38530363175E+02  0.34873964064E+02 -0.49601648006E+02  0.71840836165E+02  0.00000000000E+00 0. -1.
         15    1    3    3    0    0 -0.19265031233E+03  0.17221538320E+02  0.31095027861E+03  0.36619776077E+03  0.00000000000E+00 0. -1.
        -16    1    4    4    0    0  0.20115498612E+03 -0.12044693128E+02 -0.14722632907E+03  0.24956761617E+03  0.00000000000E+00 0.  1.
         16    1    1    2    0    0 -0.88741446581E+02 -0.31324509125E+03  0.25980566222E+03  0.41652912702E+03  0.00000000000E+00 0. -1.
    9900018    1    3    3    0    0  0.10267723884E+01  0.23717056411E+03 -0.58199533444E+02  0.26067852775E+03  0.91187600000E+02 0.  0.
<mgrwt>
<rscale>  0 0.21775335E+04</rscale>
<asrwt>0</asrwt>
<pdfrwt beam="1">  1        2 0.26201110E+00 0.21775335E+04</pdfrwt>
<pdfrwt beam="2">  1       -2 0.10708369E+00 0.21775335E+04</pdfrwt>
<totfact> 0.62720628E+00</totfact>
</mgrwt>
</event>
<event>
11    1  0.1287557E-009  0.1987176E+04  0.7818608E-02  0.8612640E-01
         -2   -1    0    0    0  501 -0.00000000000E+00  0.00000000000E+00  0.66831319071E+03  0.66831319071E+03  0.00000000000E+00 0.  1.
          2   -1    0    0  501    0  0.00000000000E+00 -0.00000000000E+00 -0.14771769031E+04  0.14771769031E+04  0.00000000000E+00 0. -1.
    9900016    2    1    2    0    0  0.11752472867E+03 -0.67484474529E+02 -0.79630198984E+03  0.20093871437E+04  0.18398841317E+04 0.  0.
         24    2    3    3    0    0 -0.12875449437E+03  0.25396889174E+03  0.14660120619E+02  0.29598060885E+03  0.79446106811E+02 0.  0.
        -15    1    3    3    0    0  0.89504572566E+02 -0.15059680505E+03 -0.72413344294E+03  0.74502329453E+03  0.00000000000E+00 0.  1.
        -15    1    4    4    0    0 -0.87641109030E+02  0.18205116316E+03  0.46331760463E+02  0.20729260003E+03  0.00000000000E+00 0.  1.
         15    1    3    3    0    0  0.46179724308E+03  0.14492884503E+03 -0.64952395179E+02  0.48834401550E+03  0.00000000000E+00 0. -1.
         15    1    3    3    0    0 -0.15865901140E+03 -0.21449626705E+03  0.42021133798E+02  0.27008721955E+03  0.00000000000E+00 0. -1.
        -16    1    1    2    0    0 -0.11752472867E+03  0.67484474529E+02 -0.12561722571E+02  0.13610295010E+03  0.00000000000E+00 0.  1.
         16    1    4    4    0    0 -0.41113385340E+02  0.71917728583E+02 -0.31671639844E+02  0.88688008823E+02  0.00000000000E+00 0. -1.
    9900018    1    3    3    0    0 -0.14636358121E+03 -0.10128913919E+03 -0.63897406134E+02  0.20995200530E+03  0.91187600000E+02 0.  0.
<mgrwt>
<rscale>  0 0.19871757E+04</rscale>
<asrwt>0</asrwt>
<pdfrwt beam="1">  1        2 0.22725798E+00 0.19871757E+04</pdfrwt>
<pdfrwt beam="2">  1       -2 0.10281742E+00 0.19871757E+04</pdfrwt>
<totfact> 0.94030429E+00</totfact>
</mgrwt>
</event>
<event>
11    1  0.1304753E-009  0.2514321E+04  0.7818608E-02  0.8397901E-01
         -1   -1    0    0    0  501 -0.00000000000E+00  0.00000000000E+00  0.17727991972E+04  0.17727991972E+04  0.00000000000E+00 0.  1.
          1   -1    0    0  501    0  0.00000000000E+00 -0.00000000000E+00 -0.89150082591E+03  0.89150082591E+03  0.00000000000E+00 0. -1.
    9900016    2    1    2    0    0 -0.32767542402E+03 -0.32773812758E+03  0.30961950235E+03  0.19283651123E+04  0.18460618371E+04 0.  0.
         24    2    3    3    0    0  0.16910211647E+03 -0.63854713179E+03 -0.50562060929E+02  0.66735990062E+03  0.80465829003E+02 0.  0.
        -15    1    3    3    0    0  0.16208537083E+03 -0.83872430625E+01 -0.44456149970E+02  0.16828060659E+03  0.00000000000E+00 0.  1.
        -15    1    4    4    0    0  0.14316980042E+03 -0.40156319195E+03 -0.47309754201E+02  0.42893915853E+03  0.00000000000E+00 0.  1.
         15    1    3    3    0    0  0.12371590472E+02 -0.61280164340E+02  0.23878999728E+02  0.66921755957E+02  0.00000000000E+00 0. -1.
         15    1    3    3    0    0 -0.60679297140E+03  0.76104803327E+02  0.33814574447E+03  0.69880769582E+03  0.00000000000E+00 0. -1.
        -16    1    1    2    0    0  0.32767542402E+03  0.32773812758E+03  0.57167886895E+03  0.73593491083E+03  0.00000000000E+00 0.  1.
         16    1    4    4    0    0  0.25932316055E+02 -0.23698393984E+03 -0.32523067279E+01  0.23842074209E+03  0.00000000000E+00 0. -1.
    9900018    1    3    3    0    0 -0.64441530392E+02  0.30437160829E+03  0.42612969052E+02  0.32699515332E+03  0.91187600000E+02 0.  0.
<mgrwt>
<rscale>  0 0.25143205E+04</rscale>
<asrwt>0</asrwt>
<pdfrwt beam="1">  1        1 0.13715397E+00 0.25143205E+04</pdfrwt>
<pdfrwt beam="2">  1       -1 0.27273834E+00 0.25143205E+04</pdfrwt>
<totfact> 0.81381344E-01</totfact>
</mgrwt>
</event>
<event>
11    1  0.1287557E-009  0.2356893E+04  0.7818608E-02  0.8455821E-01
          2   -1    0    0  501    0  0.00000000000E+00  0.00000000000E+00  0.24958744446E+04  0.24958744446E+04  0.00000000000E+00 0. -1.
         -2   -1    0    0    0  501 -0.00000000000E+00 -0.00000000000E+00 -0.55641250067E+03  0.55641250067E+03  0.00000000000E+00 0.  1.
    9900016    2    1    2    0    0  0.30064792355E+03  0.54558564397E+02  0.19933930131E+04  0.27420058290E+04  0.18578521068E+04 0.  0.
        -24    2    3    3    0    0 -0.13404820108E+03 -0.38763063504E+03  0.12559188745E+03  0.43640416957E+03  0.80304717113E+02 0.  0.
        -15    1    3    3    0    0 -0.15645786352E+03  0.44027134439E+02  0.41998607750E+02  0.16787297185E+03  0.00000000000E+00 0.  1.
        -15    1    3    3    0    0  0.10616174651E+03  0.35568656520E+03  0.12406667355E+04  0.12950047095E+04  0.00000000000E+00 0.  1.
         15    1    4    4    0    0 -0.14280790339E+03 -0.36767636280E+03  0.12749265488E+03  0.41452910884E+03  0.00000000000E+00 0. -1.
         15    1    3    3    0    0  0.49662570527E+03  0.87176708291E+02  0.48351323695E+03  0.69858565682E+03  0.00000000000E+00 0. -1.
        -16    1    4    4    0    0  0.87597023025E+01 -0.19954272238E+02 -0.19007674245E+01  0.21875060727E+02  0.00000000000E+00 0.  1.
         16    1    1    2    0    0 -0.30064792355E+03 -0.54558564397E+02 -0.53931069168E+02  0.31028111626E+03  0.00000000000E+00 0. -1.
    9900018    1    3    3    0    0 -0.11633463618E+02 -0.44701208497E+02  0.10162254544E+03  0.14413832125E+03  0.91187600000E+02 0.  0.
<mgrwt>
<rscale>  0 0.23568927E+04</rscale>
<asrwt>0</asrwt>
<pdfrwt beam="1">  1        2 0.38398068E+00 0.23568927E+04</pdfrwt>
<pdfrwt beam="2">  1       -2 0.85601924E-01 0.23568927E+04</pdfrwt>
<totfact> 0.37449302E+00</totfact>
</mgrwt>
</event>
<event>
11    1  0.1287557E-009  0.2796914E+04  0.7818608E-02  0.8304227E-01
         -2   -1    0    0    0  501 -0.00000000000E+00  0.00000000000E+00  0.80784925437E+03  0.80784925437E+03  0.00000000000E+00 0.  1.
          2   -1    0    0  501    0  0.00000000000E+00 -0.00000000000E+00 -0.24208510022E+04  0.24208510022E+04  0.00000000000E+00 0. -1.
    9900016    2    1    2    0    0  0.72291065909E+03  0.86140354028E+02 -0.81282427670E+03  0.21468943743E+04  0.18489056677E+04 0.  0.
        -24    2    3    3    0    0  0.70173930138E+02 -0.90337392702E+02  0.41277526935E+03  0.43628173065E+03  0.82904164708E+02 0.  0.
        -15    1    3    3    0    0 -0.46838426679E+01 -0.69761095539E+02  0.42813884113E+01  0.70049119335E+02  0.00000000000E+00 0.  1.
        -15    1    3    3    0    0  0.38685166309E+03  0.43297697064E+02 -0.10285593495E+04  0.10997559890E+04  0.00000000000E+00 0.  1.
         15    1    4    4    0    0  0.74664983785E+02 -0.34102542640E+02  0.20084019926E+03  0.21696688424E+03  0.00000000000E+00 0. -1.
         15    1    3    3    0    0  0.24377642175E+03  0.28594315718E+03 -0.15009900616E+03  0.40462346025E+03  0.00000000000E+00 0. -1.
        -16    1    4    4    0    0 -0.44910536470E+01 -0.56234850062E+02  0.21193507008E+03  0.21931484641E+03  0.00000000000E+00 0.  1.
         16    1    1    2    0    0 -0.72291065909E+03 -0.86140354028E+02 -0.80017747115E+03  0.10818058823E+04  0.00000000000E+00 0. -1.
    9900018    1    3    3    0    0  0.26792486778E+02 -0.83002011974E+02 -0.51222578788E+02  0.13618407510E+03  0.91187600000E+02 0.  0.
<mgrwt>
<rscale>  0 0.27969145E+04</rscale>
<asrwt>0</asrwt>
<pdfrwt beam="1">  1        2 0.37243862E+00 0.27969145E+04</pdfrwt>
<pdfrwt beam="2">  1       -2 0.12428450E+00 0.27969145E+04</pdfrwt>
<totfact> 0.16371048E+00</totfact>
</mgrwt>
</event>
<event>
11    1  0.1287557E-009  0.2570519E+04  0.7818608E-02  0.8378285E-01
          2   -1    0    0  501    0  0.00000000000E+00  0.00000000000E+00  0.96323436978E+03  0.96323436978E+03  0.00000000000E+00 0.  1.
         -2   -1    0    0    0  501 -0.00000000000E+00 -0.00000000000E+00 -0.17149433845E+04  0.17149433845E+04  0.00000000000E+00 0. -1.
    9900016    2    1    2    0    0 -0.54913011379E+03  0.13477756446E+03 -0.85878120545E+03  0.21027011451E+04  0.18341586826E+04 0.  0.
         24    2    3    3    0    0 -0.48713057988E+03 -0.29933126348E+03 -0.70866784181E+03  0.91389489595E+03  0.78092020630E+02 0.  0.
        -15    1    4    4    0    0 -0.37449194939E+03 -0.19917636465E+03 -0.55643077393E+03  0.69966467008E+03  0.00000000000E+00 0.  1.
        -15    1    3    3    0    0  0.50894285177E+02 -0.13091850685E+02  0.52361685991E+01  0.52811383997E+02  0.00000000000E+00 0.  1.
         15    1    3    3    0    0 -0.91970552537E+02 -0.26658672193E+03 -0.19529977159E+03  0.34302924602E+03  0.00000000000E+00 0. -1.
         15    1    3    3    0    0  0.26322218303E+02  0.24999626654E+03  0.16631919577E+03  0.30141842568E+03  0.00000000000E+00 0. -1.
        -16    1    1    2    0    0  0.54913011379E+03 -0.13477756446E+03  0.10707219069E+03  0.57547660923E+03  0.00000000000E+00 0.  1.
         16    1    4    4    0    0 -0.11263863049E+03 -0.10015489883E+03 -0.15223706788E+03  0.21423022587E+03  0.00000000000E+00 0. -1.
    9900018    1    3    3    0    0 -0.47245484853E+02  0.46379113402E+03 -0.12636895643E+03  0.49154719344E+03  0.91187600000E+02 0.  0.
<mgrwt>
<rscale>  0 0.25705193E+04</rscale>
<asrwt>0</asrwt>
<pdfrwt beam="1">  1        2 0.14818990E+00 0.25705193E+04</pdfrwt>
<pdfrwt beam="2">  1       -2 0.26383744E+00 0.25705193E+04</pdfrwt>
<totfact> 0.12471962E+00</totfact>
</mgrwt>
</event>
<event>
11    1  0.1287557E-009  0.1989328E+04  0.7818608E-02  0.8611627E-01
         -2   -1    0    0    0  501 -0.00000000000E+00  0.00000000000E+00  0.69524772379E+03  0.69524772379E+03  0.00000000000E+00 0.  1.
          2   -1    0    0  501    0  0.00000000000E+00 -0.00000000000E+00 -0.14230268293E+04  0.14230268293E+04  0.00000000000E+00 0. -1.
    9900016    2    1    2    0    0 -0.57903507299E+02  0.12092204166E+03 -0.66539663294E+03  0.19704011978E+04  0.18497981633E+04 0.  0.
         24    2    3    3    0    0 -0.23217407378E+03 -0.43388774667E+03 -0.62316814123E+03  0.79804916807E+03  0.79878439971E+02 0.  0.
        -15    1    4    4    0    0 -0.10298722917E+03 -0.22676809175E+03 -0.25620099367E+03  0.35730811068E+03  0.00000000000E+00 0.  1.
        -15    1    3    3    0    0  0.22676339249E+03 -0.37340518940E+02 -0.11638940079E+03  0.25760908980E+03  0.00000000000E+00 0. -1.
         15    1    3    3    0    0  0.20494007059E+03  0.24096853445E+03  0.27702505462E+03  0.42048679886E+03  0.00000000000E+00 0. -1.
         15    1    3    3    0    0 -0.42539647189E+02  0.58296662747E+02 -0.96155745715E+01  0.72805094222E+02  0.00000000000E+00 0.  1.
        -16    1    1    2    0    0  0.57903507299E+02 -0.12092204166E+03 -0.62382472596E+02  0.14787335529E+03  0.00000000000E+00 0.  1.
         16    1    4    4    0    0 -0.12918684461E+03 -0.20711965493E+03 -0.36696714756E+03  0.44074105739E+03  0.00000000000E+00 0. -1.
    9900018    1    3    3    0    0 -0.21489324942E+03  0.29288511007E+03 -0.19324857097E+03  0.42145104688E+03  0.91187600000E+02 0.  0.
<mgrwt>
<rscale>  0 0.19893277E+04</rscale>
<asrwt>0</asrwt>
<pdfrwt beam="1">  1        2 0.21892720E+00 0.19893277E+04</pdfrwt>
<pdfrwt beam="2">  1       -2 0.10696119E+00 0.19893277E+04</pdfrwt>
<totfact> 0.91789281E+00</totfact>
</mgrwt>
</event>
<event>
11    1  0.1287557E-009  0.2057514E+04  0.7818608E-02  0.8580193E-01
          2   -1    0    0  501    0  0.00000000000E+00  0.00000000000E+00  0.88282845467E+03  0.88282845467E+03  0.00000000000E+00 0.  1.
         -2   -1    0    0    0  501 -0.00000000000E+00 -0.00000000000E+00 -0.11988068063E+04  0.11988068063E+04  0.00000000000E+00 0. -1.
    9900016    2    1    2    0    0  0.18588362166E+03  0.42498092178E+02 -0.35290071468E+03  0.18874135589E+04  0.18442972156E+04 0.  0.
         24    2    3    3    0    0  0.23474135732E+03 -0.46133423292E+03 -0.39301599670E+03  0.65515585576E+03  0.82673105510E+02 0.  0.
        -15    1    3    3    0    0 -0.82139796109E+02  0.14017885034E+03 -0.17104026131E+03  0.23590639495E+03  0.00000000000E+00 0.  1.
        -15    1    4    4    0    0  0.15379589478E+03 -0.30838500357E+03 -0.30871741912E+03  0.46266719415E+03  0.00000000000E+00 0.  1.
         15    1    3    3    0    0 -0.19248690624E+03  0.42516524782E+03  0.33230464035E+03  0.57292501344E+03  0.00000000000E+00 0. -1.
         15    1    3    3    0    0  0.19875811932E+03  0.96767989495E+02 -0.64721989817E+02  0.23034272238E+03  0.00000000000E+00 0. -1.
        -16    1    1    2    0    0 -0.18588362166E+03 -0.42498092178E+02  0.36922363078E+02  0.19422170202E+03  0.00000000000E+00 0.  1.
         16    1    4    4    0    0  0.80945462543E+02 -0.15294922936E+03 -0.84298577579E+02  0.19248866161E+03  0.00000000000E+00 0. -1.
    9900018    1    3    3    0    0  0.27010847364E+02 -0.15827976256E+03 -0.56427107212E+02  0.19308357240E+03  0.91187600000E+02 0.  0.
<mgrwt>
<rscale>  0 0.20575138E+04</rscale>
<asrwt>0</asrwt>
<pdfrwt beam="1">  1        2 0.13581976E+00 0.20575138E+04</pdfrwt>
<pdfrwt beam="2">  1       -2 0.18443182E+00 0.20575138E+04</pdfrwt>
<totfact> 0.47071626E+00</totfact>
</mgrwt>
</event>
<event>
11    1  0.1287557E-009  0.2112048E+04  0.7818608E-02  0.8555955E-01
          2   -1    0    0  501    0  0.00000000000E+00  0.00000000000E+00  0.18460682127E+04  0.18460682127E+04  0.00000000000E+00 0. -1.
         -2   -1    0    0    0  501 -0.00000000000E+00 -0.00000000000E+00 -0.60408763491E+03  0.60408763491E+03  0.00000000000E+00 0.  1.
    9900016    2    1    2    0    0  0.13371222487E+03 -0.14994798152E+03  0.92191686029E+03  0.20722614979E+04  0.18449860873E+04 0.  0.
        -24    2    3    3    0    0 -0.15854491823E+03  0.15552648476E+03 -0.19342047654E+02  0.23688623390E+03  0.80099902915E+02 0.  0.
        -15    1    3    3    0    0 -0.33387523409E+03 -0.11503726838E+03  0.47483183447E+03  0.59175291811E+03  0.00000000000E+00 0.  1.
        -15    1    3    3    0    0  0.68577553775E+03 -0.44744428378E+03  0.36421770495E+03  0.89618581324E+03  0.00000000000E+00 0.  1.
         15    1    4    4    0    0 -0.86765406933E+02  0.10085677735E+03  0.26537876411E+02  0.13566349643E+03  0.00000000000E+00 0. -1.
         15    1    3    3    0    0 -0.20780051456E+02  0.18688975065E+02 -0.42999099465E+02  0.51283631719E+02  0.00000000000E+00 0. -1.
        -16    1    4    4    0    0 -0.71779511294E+02  0.54669707407E+02 -0.45879924065E+02  0.10122273747E+03  0.00000000000E+00 0.  1.
         16    1    1    2    0    0 -0.13371222487E+03  0.14994798152E+03  0.32006371747E+03  0.37789434963E+03  0.00000000000E+00 0. -1.
    9900018    1    3    3    0    0 -0.38863109102E+02  0.23831811081E+03  0.14520846799E+03  0.29615290098E+03  0.91187600000E+02 0.  0.
<mgrwt>
<rscale>  0 0.21120483E+04</rscale>
<asrwt>0</asrwt>
<pdfrwt beam="1">  1        2 0.28401049E+00 0.21120483E+04</pdfrwt>
<pdfrwt beam="2">  1       -2 0.92936560E-01 0.21120483E+04</pdfrwt>
<totfact> 0.73472177E+00</totfact>
</mgrwt>
</event>
<event>
11    1  0.1287557E-009  0.2293444E+04  0.7818608E-02  0.8480510E-01
         -2   -1    0    0    0  501 -0.00000000000E+00  0.00000000000E+00  0.10238952691E+04  0.10238952691E+04  0.00000000000E+00 0.  1.
          2   -1    0    0  501    0  0.00000000000E+00 -0.00000000000E+00 -0.12842835537E+04  0.12842835537E+04  0.00000000000E+00 0. -1.
    9900016    2    1    2    0    0 -0.20050723385E+03 -0.27947959879E+03 -0.42308316121E+03  0.19276770227E+04  0.18489530404E+04 0.  0.
         24    2    3    3    0    0 -0.33039671856E+03 -0.19599140789E+03 -0.27274066307E+03  0.47785429125E+03  0.79891368559E+02 0.  0.
        -15    1    3    3    0    0 -0.35216625304E+02 -0.41521386585E+02  0.56391224387E+02  0.78384988548E+02  0.00000000000E+00 0.  1.
        -15    1    4    4    0    0 -0.30456645015E+03 -0.18344754417E+03 -0.27435664186E+03  0.44909385540E+03  0.00000000000E+00 0.  1.
         15    1    3    3    0    0  0.17506934351E+03 -0.23170721289E+03  0.45629185559E+03  0.54086945284E+03  0.00000000000E+00 0. -1.
         15    1    3    3    0    0 -0.21221465042E+02 -0.14034310973E+03 -0.10821403011E+03  0.17848477621E+03  0.00000000000E+00 0. -1.
        -16    1    1    2    0    0  0.20050723385E+03  0.27947959879E+03  0.16269487660E+03  0.38050180004E+03  0.00000000000E+00 0.  1.
         16    1    4    4    0    0 -0.25830268402E+02 -0.12543863724E+02  0.16159787914E+01  0.28760435850E+02  0.00000000000E+00 0. -1.
    9900018    1    3    3    0    0  0.11258231549E+02  0.33008351831E+03 -0.55481154800E+03  0.65208351385E+03  0.91187600000E+02 0.  0.
<mgrwt>
<rscale>  0 0.22934444E+04</rscale>
<asrwt>0</asrwt>
<pdfrwt beam="1">  1        2 0.19758208E+00 0.22934444E+04</pdfrwt>
<pdfrwt beam="2">  1       -2 0.15752235E+00 0.22934444E+04</pdfrwt>
<totfact> 0.40257038E+00</totfact>
</mgrwt>
</event>
<event>
11    1  0.1287557E-009  0.2059052E+04  0.7818608E-02  0.8579499E-01
         -2   -1    0    0    0  501 -0.00000000000E+00  0.00000000000E+00  0.74730361240E+03  0.74730361240E+03  0.00000000000E+00 0.  1.
          2   -1    0    0  501    0  0.00000000000E+00 -0.00000000000E+00 -0.14183310357E+04  0.14183310357E+04  0.00000000000E+00 0. -1.
    9900016    2    1    2    0    0 -0.15025074451E+02 -0.15450981688E+03 -0.45900770090E+03  0.19028583191E+04  0.18401311575E+04 0.  0.
        -24    2    3    3    0    0  0.41720128466E+03 -0.12450979674E+03  0.39617576186E+03  0.59367156810E+03  0.77013603210E+02 0.  0.
        -15    1    3    3    0    0 -0.18514896259E+03  0.30960843243E+02 -0.77478845639E+03  0.79720503279E+03  0.00000000000E+00 0.  1.
        -15    1    3    3    0    0 -0.15846513925E+02  0.53370107960E+02  0.19489833684E+02  0.58985880041E+02  0.00000000000E+00 0.  1.
         15    1    4    4    0    0  0.39858232113E+03 -0.10172304118E+03  0.38039034749E+03  0.56027873446E+03  0.00000000000E+00 0. -1.
         15    1    3    3    0    0 -0.19091014793E+03  0.83922244390E+02 -0.99547164132E+02  0.23108281107E+03  0.00000000000E+00 0. -1.
        -16    1    4    4    0    0  0.18618963530E+02 -0.22786755556E+02  0.15785414371E+02  0.33392833641E+02  0.00000000000E+00 0.  1.
         16    1    1    2    0    0  0.15025074451E+02  0.15450981688E+03 -0.21201972237E+03  0.26277632893E+03  0.00000000000E+00 0. -1.
    9900018    1    3    3    0    0 -0.40320734670E+02 -0.19825321573E+03 -0.33767592697E+00  0.22191302713E+03  0.91187600000E+02 0.  0.
<mgrwt>
<rscale>  0 0.20590521E+04</rscale>
<asrwt>0</asrwt>
<pdfrwt beam="1">  1        2 0.21820477E+00 0.20590521E+04</pdfrwt>
<pdfrwt beam="2">  1       -2 0.11496979E+00 0.20590521E+04</pdfrwt>
<totfact> 0.77074377E+00</totfact>
</mgrwt>
</event>
<event>
11    1  0.1287557E-009  0.2513370E+04  0.7818608E-02  0.8398238E-01
         -2   -1    0    0    0  501 -0.00000000000E+00  0.00000000000E+00  0.75461403799E+03  0.75461403799E+03  0.00000000000E+00 0.  1.
          2   -1    0    0  501    0  0.00000000000E+00 -0.00000000000E+00 -0.20928016835E+04  0.20928016835E+04  0.00000000000E+00 0. -1.
    9900016    2    1    2    0    0  0.10091910883E+03 -0.16284782156E+03 -0.16450954988E+04  0.24856194945E+04  0.18534457079E+04 0.  0.
         24    2    3    3    0    0  0.20318410612E+03  0.25565732898E+03 -0.19189162928E+03  0.38695479312E+03  0.79165419792E+02 0.  0.
        -15    1    4    4    0    0  0.13283898268E+03  0.15563673275E+03 -0.75404221054E+02  0.21807059511E+03  0.00000000000E+00 0.  1.
        -15    1    3    3    0    0  0.32163572546E+03  0.12536685968E+02 -0.20309232848E+03  0.38059585163E+03  0.00000000000E+00 0.  1.
         15    1    3    3    0    0 -0.18937633812E+03  0.10235276386E+03 -0.43576034813E+03  0.48603144621E+03  0.00000000000E+00 0. -1.
         15    1    3    3    0    0  0.70119697161E+02 -0.59587190852E+03 -0.50999288999E+03  0.78744704655E+03  0.00000000000E+00 0. -1.
        -16    1    1    2    0    0 -0.10091910883E+03  0.16284782156E+03  0.30690785321E+03  0.36179622701E+03  0.00000000000E+00 0.  1.
         16    1    4    4    0    0  0.70345123445E+02  0.10002059623E+03 -0.11648740822E+03  0.16888419801E+03  0.00000000000E+00 0. -1.
    9900018    1    3    3    0    0 -0.30464408179E+03  0.62477308149E+02 -0.30435830289E+03  0.44459035700E+03  0.91187600000E+02 0.  0.
<mgrwt>
<rscale>  0 0.25133703E+04</rscale>
<asrwt>0</asrwt>
<pdfrwt beam="1">  1        2 0.32196949E+00 0.25133703E+04</pdfrwt>
<pdfrwt beam="2">  1       -2 0.11609447E+00 0.25133703E+04</pdfrwt>
<totfact> 0.30439181E+00</totfact>
</mgrwt>
</event>
<event>
11    1  0.1287557E-009  0.2179239E+04  0.7818608E-02  0.8527119E-01
          2   -1    0    0  501    0  0.00000000000E+00  0.00000000000E+00  0.85879860760E+03  0.85879860760E+03  0.00000000000E+00 0. -1.
         -2   -1    0    0    0  501 -0.00000000000E+00 -0.00000000000E+00 -0.13824781892E+04  0.13824781892E+04  0.00000000000E+00 0.  1.
    9900016    2    1    2    0    0  0.17509719069E+03  0.44193187363E+01 -0.18448405455E+03  0.18595279760E+04  0.18420454312E+04 0.  0.
         24    2    3    3    0    0  0.24835927083E+03 -0.36154096142E+03  0.27728367031E+03  0.52512706854E+03  0.80486086374E+02 0.  0.
        -15    1    4    4    0    0  0.14438177557E+03 -0.26299747024E+03  0.21395715760E+03  0.36849888976E+03  0.00000000000E+00 0.  1.
        -15    1    3    3    0    0 -0.38713008357E+03 -0.18630817374E+02 -0.18340256015E+03  0.42878118899E+03  0.00000000000E+00 0.  1.
         15    1    3    3    0    0 -0.11873810765E+03  0.17014510462E+02  0.32766080532E+02  0.12434567868E+03  0.00000000000E+00 0. -1.
         15    1    3    3    0    0  0.40230086669E+03  0.44002396427E+03 -0.25404875717E+03  0.64808012428E+03  0.00000000000E+00 0. -1.
        -16    1    1    2    0    0 -0.17509719069E+03 -0.44193187363E+01 -0.33919552704E+03  0.38174882073E+03  0.00000000000E+00 0.  1.
         16    1    4    4    0    0  0.10397749526E+03 -0.98543491177E+02  0.63326512719E+02  0.15662817878E+03  0.00000000000E+00 0. -1.
    9900018    1    3    3    0    0  0.30305244393E+02 -0.72447377210E+02 -0.57082488080E+02  0.13319391556E+03  0.91187600000E+02 0.  0.
<mgrwt>
<rscale>  0 0.21792387E+04</rscale>
<asrwt>0</asrwt>
<pdfrwt beam="1">  1        2 0.13212286E+00 0.21792387E+04</pdfrwt>
<pdfrwt beam="2">  1       -2 0.21268895E+00 0.21792387E+04</pdfrwt>
<totfact> 0.31516849E+00</totfact>
</mgrwt>
</event>
<event>
11    1  0.1287557E-009  0.2068830E+04  0.7818608E-02  0.8575100E-01
         -4   -1    0    0    0  501 -0.00000000000E+00  0.00000000000E+00  0.16279896126E+04  0.16279896126E+04  0.00000000000E+00 0.  1.
          4   -1    0    0  501    0  0.00000000000E+00 -0.00000000000E+00 -0.65726107556E+03  0.65726107556E+03  0.00000000000E+00 0. -1.
    9900016    2    1    2    0    0 -0.12762011063E+03  0.49480234746E+02  0.69335327172E+03  0.19759414189E+04  0.18452291308E+04 0.  0.
         24    2    3    3    0    0  0.33284895519E+03  0.23040298166E+03 -0.22259948687E+03  0.46876210714E+03  0.79457036249E+02 0.  0.
        -15    1    4    4    0    0  0.16788752146E+03  0.68271697899E+02 -0.97164656907E+02  0.20564098606E+03  0.00000000000E+00 0.  1.
        -15    1    3    3    0    0 -0.55263203884E+02 -0.25866847622E+03  0.23171001420E+03  0.35164318986E+03  0.00000000000E+00 0.  1.
         15    1    3    3    0    0 -0.34608635935E+03  0.12161080256E+03  0.30583716422E+03  0.47759954612E+03  0.00000000000E+00 0. -1.
         15    1    3    3    0    0 -0.69644200883E+02 -0.17814634730E+03 -0.67856299422E+02  0.20295544621E+03  0.00000000000E+00 0. -1.
        -16    1    1    2    0    0  0.12762011063E+03 -0.49480234746E+02  0.27737526536E+03  0.30930926934E+03  0.00000000000E+00 0.  1.
         16    1    4    4    0    0  0.16496143373E+03  0.16213128376E+03 -0.12543482997E+03  0.26312112108E+03  0.00000000000E+00 0. -1.
    9900018    1    3    3    0    0  0.10524698302E+02  0.13428127405E+03  0.44626187959E+03  0.47498112952E+03  0.91187600000E+02 0.  0.
<mgrwt>
<rscale>  0 0.20688298E+04</rscale>
<asrwt>0</asrwt>
<pdfrwt beam="1">  1        4 0.10111709E+00 0.20688298E+04</pdfrwt>
<pdfrwt beam="2">  1       -4 0.25045994E+00 0.20688298E+04</pdfrwt>
<totfact> 0.93218804E-02</totfact>
</mgrwt>
</event>
<event>
11    1  0.1287557E-009  0.2436431E+04  0.7818608E-02  0.8425989E-01
         -1   -1    0    0    0  501 -0.00000000000E+00  0.00000000000E+00  0.11840507594E+04  0.11840507594E+04  0.00000000000E+00 0.  1.
          1   -1    0    0  501    0  0.00000000000E+00 -0.00000000000E+00 -0.12533665053E+04  0.12533665053E+04  0.00000000000E+00 0. -1.
    9900016    2    1    2    0    0 -0.41469903212E+03  0.10265534187E+03 -0.34785730267E+03  0.19274184359E+04  0.18470039842E+04 0.  0.
         24    2    3    3    0    0  0.17296872515E+03  0.51198615718E+03 -0.33893886727E+03  0.64204917131E+03  0.72798197810E+02 0.  0.
        -15    1    3    3    0    0  0.48087991796E+02 -0.53130401091E+02 -0.60521532288E+02  0.93798455987E+02  0.00000000000E+00 0.  1.
        -15    1    4    4    0    0  0.32515232701E+02  0.49238254910E+02 -0.18158103624E+02  0.61736235967E+02  0.00000000000E+00 0.  1.
         15    1    3    3    0    0 -0.64319247217E+01  0.84961775836E+02  0.99963912370E+02  0.13134936918E+03  0.00000000000E+00 0. -1.
         15    1    3    3    0    0 -0.52062246054E+03 -0.62103506885E+03 -0.12212813406E+03  0.81954108152E+03  0.00000000000E+00 0. -1.
        -16    1    1    2    0    0  0.41469903212E+03 -0.10265534187E+03  0.27854155683E+03  0.50999882876E+03  0.00000000000E+00 0.  1.
         16    1    4    4    0    0  0.14045349245E+03  0.46274790227E+03 -0.32078076364E+03  0.58031293534E+03  0.00000000000E+00 0. -1.
    9900018    1    3    3    0    0 -0.10870136380E+03  0.17987287879E+03  0.73767318566E+02  0.24068035794E+03  0.91187600000E+02 0.  0.
<mgrwt>
<rscale>  0 0.24364315E+04</rscale>
<asrwt>0</asrwt>
<pdfrwt beam="1">  1        1 0.19282561E+00 0.24364315E+04</pdfrwt>
<pdfrwt beam="2">  1       -1 0.18216166E+00 0.24364315E+04</pdfrwt>
<totfact> 0.17530427E+00</totfact>
</mgrwt>
</event>
<event>
11    1  0.1391335E-009  0.3152324E+04  0.7818608E-02  0.8201523E-01
          2   -1    0    0  501    0  0.00000000000E+00  0.00000000000E+00  0.24657055601E+04  0.24657055601E+04  0.00000000000E+00 0. -1.
         -2   -1    0    0    0  501 -0.00000000000E+00 -0.00000000000E+00 -0.10075358023E+04  0.10075358023E+04  0.00000000000E+00 0.  1.
    9900016    2    1    2    0    0  0.79783554347E+03  0.70669940427E+02  0.16942867024E+04  0.26382042336E+04  0.18568732733E+04 0.  0.
         24    2    3    3    0    0 -0.65252466757E+02 -0.54652514628E+03  0.44859047785E+03  0.71392267541E+03  0.74192652677E+02 0.  0.
        -15    1    4    4    0    0 -0.69136886923E+02 -0.32891081224E+03  0.29874886350E+03  0.44968112589E+03  0.00000000000E+00 0.  1.
        -15    1    3    3    0    0 -0.11899822543E+03 -0.45875574934E+02  0.62855647343E+02  0.14218290486E+03  0.00000000000E+00 0.  1.
         15    1    3    3    0    0  0.72939372501E+03  0.51768036300E+03  0.51800471849E+03  0.10336039148E+04  0.00000000000E+00 0. -1.
         15    1    3    3    0    0  0.20919398103E+03  0.10433473334E+03  0.42559668284E+03  0.48557223430E+03  0.00000000000E+00 0. -1.
        -16    1    1    2    0    0 -0.79783554347E+03 -0.70669940427E+02 -0.23611694465E+03  0.83503712879E+03  0.00000000000E+00 0.  1.
         16    1    4    4    0    0  0.38844201662E+01 -0.21761433404E+03  0.14984161435E+03  0.26424154952E+03  0.00000000000E+00 0. -1.
    9900018    1    3    3    0    0  0.43498529617E+02  0.41055565304E+02  0.23923917591E+03  0.26292250418E+03  0.91187600000E+02 0.  0.
<mgrwt>
<rscale>  0 0.31523240E+04</rscale>
<asrwt>0</asrwt>
<pdfrwt beam="1">  1        2 0.37933931E+00 0.31523240E+04</pdfrwt>
<pdfrwt beam="2">  1       -2 0.15500551E+00 0.31523240E+04</pdfrwt>
<totfact> 0.84544693E-01</totfact>
</mgrwt>
</event>
<event>
11    1  0.1287557E-009  0.2651136E+04  0.7818608E-02  0.8351036E-01
          1   -1    0    0  501    0  0.00000000000E+00  0.00000000000E+00  0.17606731220E+04  0.17606731220E+04  0.00000000000E+00 0. -1.
         -1   -1    0    0    0  501 -0.00000000000E+00 -0.00000000000E+00 -0.99798783097E+03  0.99798783097E+03  0.00000000000E+00 0.  1.
    9900016    2    1    2    0    0 -0.53914044070E+03 -0.41891362364E+03  0.63744348961E+03  0.20645092781E+04  0.18411146945E+04 0.  0.
        -24    2    3    3    0    0 -0.52399562205E+03 -0.77311346627E+02  0.83808396072E+03  0.99460879590E+03  0.79457381241E+02 0.  0.
        -15    1    3    3    0    0 -0.86915024739E+02  0.17083254345E+02  0.51473899376E+02  0.10244814016E+03  0.00000000000E+00 0.  1.
        -15    1    3    3    0    0 -0.10387120446E+03 -0.25124287945E+03 -0.52788096449E+03  0.59377649353E+03  0.00000000000E+00 0.  1.
         15    1    3    3    0    0  0.63149292484E+02 -0.36187275769E+02  0.15777435486E+03  0.17375298306E+03  0.00000000000E+00 0. -1.
         15    1    4    4    0    0 -0.22953782699E+03 -0.61858403212E+02  0.32228460565E+03  0.40047652004E+03  0.00000000000E+00 0. -1.
        -16    1    4    4    0    0 -0.29445779506E+03 -0.15452943415E+02  0.51579935507E+03  0.59413227586E+03  0.00000000000E+00 0.  1.
         16    1    1    2    0    0  0.53914044070E+03  0.41891362364E+03  0.12524180143E+03  0.69415167485E+03  0.00000000000E+00 0. -1.
    9900018    1    3    3    0    0  0.11249211807E+03 -0.71255376137E+02  0.11799223915E+03  0.19992286550E+03  0.91187600000E+02 0.  0.
<mgrwt>
<rscale>  0 0.26511359E+04</rscale>
<asrwt>0</asrwt>
<pdfrwt beam="1">  1        1 0.27087279E+00 0.26511359E+04</pdfrwt>
<pdfrwt beam="2">  1       -1 0.15353659E+00 0.26511359E+04</pdfrwt>
<totfact> 0.12443199E+00</totfact>
</mgrwt>
</event>
<event>
11    1  0.1287557E-009  0.2653734E+04  0.7818608E-02  0.8350175E-01
          2   -1    0    0  501    0  0.00000000000E+00  0.00000000000E+00  0.30796249186E+04  0.30796249186E+04  0.00000000000E+00 0.  1.
         -2   -1    0    0    0  501 -0.00000000000E+00 -0.00000000000E+00 -0.57168516676E+03  0.57168516676E+03  0.00000000000E+00 0. -1.
    9900016    2    1    2    0    0 -0.87788061809E+02  0.33104258559E+03  0.26799085599E+04  0.32680748988E+04  0.18387788658E+04 0.  0.
        -24    2    3    3    0    0 -0.90186569458E+02 -0.14303783545E+03 -0.18485881925E+03  0.26283430975E+03  0.79471074288E+02 0.  0.
        -15    1    3    3    0    0  0.10996226435E+03  0.25554852318E+03  0.14226443699E+04  0.14495908908E+04  0.00000000000E+00 0.  1.
        -15    1    3    3    0    0 -0.10081501206E+03  0.15308725862E+03  0.97613134627E+03  0.99319272076E+03  0.00000000000E+00 0.  1.
         15    1    4    4    0    0 -0.42404124550E+02 -0.11662981038E+03 -0.89687340540E+02  0.15311577810E+03  0.00000000000E+00 0. -1.
         15    1    3    3    0    0  0.13378243646E+03  0.17100816147E+02  0.25736303901E+03  0.29056137401E+03  0.00000000000E+00 0. -1.
        -16    1    4    4    0    0 -0.47782444909E+02 -0.26408025066E+02 -0.95171478708E+02  0.10971853166E+03  0.00000000000E+00 0.  1.
         16    1    1    2    0    0  0.87788061809E+02 -0.33104258559E+03 -0.17196880807E+03  0.38323518656E+03  0.00000000000E+00 0. -1.
    9900018    1    3    3    0    0 -0.14053118110E+03  0.48343823087E+02  0.20862862396E+03  0.27189560353E+03  0.91187600000E+02 0.  0.
<mgrwt>
<rscale>  0 0.26537339E+04</rscale>
<asrwt>0</asrwt>
<pdfrwt beam="1">  1        2 0.47378844E+00 0.26537339E+04</pdfrwt>
<pdfrwt beam="2">  1       -2 0.87951566E-01 0.26537339E+04</pdfrwt>
<totfact> 0.15214804E+00</totfact>
</mgrwt>
</event>
<event>
11    1  0.1287557E-009  0.2296652E+04  0.7818608E-02  0.8479242E-01
          2   -1    0    0  501    0  0.00000000000E+00  0.00000000000E+00  0.11128440603E+04  0.11128440603E+04  0.00000000000E+00 0.  1.
         -2   -1    0    0    0  501 -0.00000000000E+00 -0.00000000000E+00 -0.11849391350E+04  0.11849391350E+04  0.00000000000E+00 0. -1.
    9900016    2    1    2    0    0  0.54107482163E+02  0.15040748247E+03  0.31750476579E+03  0.18766679306E+04  0.18426945528E+04 0.  0.
        -24    2    3    3    0    0  0.77507073713E+01 -0.14516894039E+03 -0.60047368897E+03  0.62284748623E+03  0.78969900823E+02 0.  0.
        -15    1    3    3    0    0  0.21387447774E+03 -0.56087366602E+02  0.64352433281E+03  0.68044959537E+03  0.00000000000E+00 0.  1.
        -15    1    3    3    0    0 -0.74750506142E+01  0.13922200654E+03  0.11410587858E+01  0.13942720503E+03  0.00000000000E+00 0.  1.
         15    1    4    4    0    0  0.58800098710E+01 -0.89376836616E+02 -0.20859172368E+03  0.22700947255E+03  0.00000000000E+00 0. -1.
         15    1    3    3    0    0 -0.14502474344E+03  0.83146658600E+02  0.19475226792E+03  0.25665928564E+03  0.00000000000E+00 0. -1.
        -16    1    4    4    0    0  0.18706975003E+01 -0.55792103771E+02 -0.39188196529E+03  0.39583801368E+03  0.00000000000E+00 0.  1.
         16    1    1    2    0    0 -0.54107482163E+02 -0.15040748247E+03 -0.38959984049E+03  0.42111526464E+03  0.00000000000E+00 0. -1.
    9900018    1    3    3    0    0 -0.15017908898E+02  0.12929512431E+03  0.78560795252E+02  0.17728435832E+03  0.91187600000E+02 0.  0.
<mgrwt>
<rscale>  0 0.22966519E+04</rscale>
<asrwt>0</asrwt>
<pdfrwt beam="1">  1        2 0.17120678E+00 0.22966519E+04</pdfrwt>
<pdfrwt beam="2">  1       -2 0.18229833E+00 0.22966519E+04</pdfrwt>
<totfact> 0.33915107E+00</totfact>
</mgrwt>
</event>
<event>
11    1  0.1287557E-009  0.2149630E+04  0.7818608E-02  0.8539691E-01
          1   -1    0    0  501    0  0.00000000000E+00  0.00000000000E+00  0.12369017068E+04  0.12369017068E+04  0.00000000000E+00 0. -1.
         -1   -1    0    0    0  501 -0.00000000000E+00 -0.00000000000E+00 -0.93396814348E+03  0.93396814348E+03  0.00000000000E+00 0.  1.
    9900016    2    1    2    0    0  0.24632163412E+03 -0.20380136529E+02  0.40129223695E+03  0.19048545762E+04  0.18456288358E+04 0.  0.
         24    2    3    3    0    0 -0.84859084546E+00  0.35200126566E+03 -0.76410538338E+01  0.36082320117E+03  0.78926457327E+02 0.  0.
        -15    1    4    4    0    0  0.16803627170E+02  0.24061204564E+03  0.27341898912E+02  0.24274286360E+03  0.00000000000E+00 0.  1.
        -15    1    3    3    0    0  0.91141643097E+02 -0.17422928807E+03 -0.45406865221E+02  0.20180294184E+03  0.00000000000E+00 0.  1.
         15    1    3    3    0    0  0.29503356214E+03  0.39838358906E+03  0.10968279109E+03  0.50772492698E+03  0.00000000000E+00 0. -1.
         15    1    3    3    0    0 -0.14736180791E+03 -0.59411472512E+03  0.39643638611E+03  0.72928020491E+03  0.00000000000E+00 0. -1.
        -16    1    1    2    0    0 -0.24632163412E+03  0.20380136529E+02 -0.98358673592E+02  0.26601527413E+03  0.00000000000E+00 0.  1.
         16    1    4    4    0    0 -0.17652218015E+02  0.11138922002E+03 -0.34982952746E+02  0.11808033757E+03  0.00000000000E+00 0. -1.
    9900018    1    3    3    0    0  0.83568276333E+01 -0.24209780534E+01 -0.51779021199E+02  0.10522330128E+03  0.91187600000E+02 0.  0.
<mgrwt>
<rscale>  0 0.21496295E+04</rscale>
<asrwt>0</asrwt>
<pdfrwt beam="1">  1        1 0.19029257E+00 0.21496295E+04</pdfrwt>
<pdfrwt beam="2">  1       -1 0.14368741E+00 0.21496295E+04</pdfrwt>
<totfact> 0.36003370E+00</totfact>
</mgrwt>
</event>
<event>
11    1  0.1287557E-009  0.2017495E+04  0.7818608E-02  0.8598485E-01
          1   -1    0    0  501    0  0.00000000000E+00  0.00000000000E+00  0.22953787138E+04  0.22953787138E+04  0.00000000000E+00 0. -1.
         -1   -1    0    0    0  501 -0.00000000000E+00 -0.00000000000E+00 -0.44331317563E+03  0.44331317563E+03  0.00000000000E+00 0.  1.
    9900016    2    1    2    0    0  0.16365916970E+03  0.16673887943E+02  0.17004555206E+04  0.25149779207E+04  0.18456713201E+04 0.  0.
         24    2    3    3    0    0  0.22106010090E+01  0.12535544083E+03 -0.39562275906E+02  0.15406024520E+03  0.80315080609E+02 0.  0.
        -15    1    3    3    0    0 -0.31406373074E+03 -0.56167702876E+02 -0.63593940604E+01  0.31911013727E+03  0.00000000000E+00 0.  1.
        -15    1    4    4    0    0 -0.63292138021E+01  0.24187461939E+02  0.23688583854E+02  0.34441853426E+02  0.00000000000E+00 0.  1.
         15    1    3    3    0    0  0.55331120283E+03  0.70925694832E+02  0.14027064074E+04  0.15095592094E+04  0.00000000000E+00 0. -1.
         15    1    3    3    0    0  0.78536563210E+02 -0.93316950593E+02  0.32582699552E+03  0.34790699337E+03  0.00000000000E+00 0. -1.
        -16    1    1    2    0    0 -0.16365916970E+03 -0.16673887943E+02  0.15161001754E+03  0.22371396869E+03  0.00000000000E+00 0.  1.
         16    1    4    4    0    0  0.85398148111E+01  0.10116797889E+03 -0.63250859760E+02  0.11961839177E+03  0.00000000000E+00 0. -1.
    9900018    1    3    3    0    0 -0.15633546660E+03 -0.30122594252E+02  0.17843787632E+02  0.18434133544E+03  0.91187600000E+02 0.  0.
<mgrwt>
<rscale>  0 0.20174951E+04</rscale>
<asrwt>0</asrwt>
<pdfrwt beam="1">  1        1 0.35313518E+00 0.20174951E+04</pdfrwt>
<pdfrwt beam="2">  1       -1 0.68202028E-01 0.20174951E+04</pdfrwt>
<totfact> 0.37797451E+00</totfact>
</mgrwt>
</event>
