<event>
11    1  0.1204906E-015  0.2087138E+04  0.7818608E-02  0.8566930E-01
         -2   -1    0    0    0  501 -0.00000000000E+00  0.00000000000E+00  0.62781321948E+03  0.62781321948E+03  0.00000000000E+00 0.  1.
          2   -1    0    0  501    0  0.00000000000E+00 -0.00000000000E+00 -0.17346505992E+04  0.17346505992E+04  0.00000000000E+00 0. -1.
    9900016    2    1    2    0    0 -0.21045034907E+03 -0.62421186723E+03 -0.59308604942E+03  0.11275220192E+04  0.69686801991E+03 0.  0.
         23    2    3    3    0    0  0.16916438848E+03  0.25331330882E+02 -0.51386991156E+02  0.20045590242E+03  0.91014720240E+02 0.  0.
        -15    1    4    4    0    0  0.25853705200E+02  0.22624609807E+02 -0.29633586718E+02  0.45369995628E+02  0.00000000000E+00 0.  1.
        -15    1    4    4    0    0  0.66852533641E+02 -0.56184135820E+01 -0.29800916040E+02  0.73409280219E+02  0.00000000000E+00 0. -1.
         15    1    4    4    0    0  0.23459448000E+02  0.14303975816E+02  0.68996779729E+01  0.28329401348E+02  0.00000000000E+00 0.  1.
         15    1    4    4    0    0  0.52998701641E+02 -0.59788411599E+01  0.11478336286E+01  0.53347225226E+02  0.00000000000E+00 0. -1.
        -16    1    1    2    0    0  0.22834165113E+03  0.82535855268E+03 -0.25339855560E+03  0.89306633465E+03  0.00000000000E+00 0.  1.
         16    1    3    3    0    0 -0.37961473755E+03 -0.64954319811E+03 -0.54169905826E+03  0.92706611679E+03  0.00000000000E+00 0. -1.
    9900018    1    1    2    0    0 -0.17891302060E+02 -0.20114668545E+03 -0.26035277470E+03  0.34187546482E+03  0.91187600000E+02 0.  0.
<mgrwt>
<rscale>  0 0.20871383E+04</rscale>
<asrwt>0</asrwt>
<pdfrwt beam="1">  1        2 0.26686932E+00 0.20871383E+04</pdfrwt>
<pdfrwt beam="2">  1       -2 0.96586649E-01 0.20871383E+04</pdfrwt>
<totfact> 0.77587972E+00</totfact>
</mgrwt>
</event>
<event>
11    1  0.1204906E-015  0.1303177E+04  0.7818608E-02  0.9027049E-01
         -1   -1    0    0    0  501 -0.00000000000E+00  0.00000000000E+00  0.74065143440E+03  0.74065143440E+03  0.00000000000E+00 0.  1.
          1   -1    0    0  501    0  0.00000000000E+00 -0.00000000000E+00 -0.57323549912E+03  0.57323549912E+03  0.00000000000E+00 0. -1.
    9900016    2    1    2    0    0  0.22759395155E+03 -0.13135736867E+03 -0.41502911657E+02  0.76388240295E+03  0.71605870483E+03 0.  0.
         23    2    3    3    0    0  0.15242392824E+03 -0.98293791483E+02 -0.37175373143E+03  0.42357469439E+03  0.91213823224E+02 0.  0.
        -15    1    4    4    0    0  0.21483228755E+02 -0.11148381525E+02 -0.39267217396E+02  0.46127322602E+02  0.00000000000E+00 0. -1.
        -15    1    4    4    0    0  0.41655025384E+02 -0.64451500826E+02 -0.12428102052E+03  0.14606474304E+03  0.00000000000E+00 0. -1.
         15    1    4    4    0    0  0.23535719822E+02 -0.11363746397E+01 -0.20158920414E+02  0.31009732780E+02  0.00000000000E+00 0.  1.
         15    1    4    4    0    0  0.65749954281E+02 -0.21557534491E+02 -0.18804657310E+03  0.20037289596E+03  0.00000000000E+00 0.  1.
        -16    1    1    2    0    0 -0.32256520140E+02  0.23968631689E+03  0.19082568235E+03  0.30806566612E+03  0.00000000000E+00 0.  1.
         16    1    3    3    0    0  0.75170023311E+02 -0.33063577192E+02  0.33025081978E+03  0.34030770856E+03  0.00000000000E+00 0. -1.
    9900018    1    1    2    0    0 -0.19533743141E+03 -0.10832894822E+03  0.18093164586E+02  0.24193886445E+03  0.91187600000E+02 0.  0.
<mgrwt>
<rscale>  0 0.13031772E+04</rscale>
<asrwt>0</asrwt>
<pdfrwt beam="1">  1        1 0.88190077E-01 0.13031772E+04</pdfrwt>
<pdfrwt beam="2">  1       -1 0.11394637E+00 0.13031772E+04</pdfrwt>
<totfact> 0.25221291E+01</totfact>
</mgrwt>
</event>
<event>
12    1  0.1204906E-015  0.1459840E+04  0.7818608E-02  0.8911607E-01
         -1   -1    0    0    0  501 -0.00000000000E+00  0.00000000000E+00  0.67499430438E+03  0.67499430438E+03  0.00000000000E+00 0.  1.
          1   -1    0    0  501    0  0.00000000000E+00 -0.00000000000E+00 -0.78931489236E+03  0.78931489236E+03  0.00000000000E+00 0. -1.
    9900016    2    1    2    0    0 -0.27851511261E+03 -0.23582985647E+03  0.11079766785E+03  0.82901633561E+03  0.73607443397E+03 0.  0.
         23    2    3    3    0    0  0.18088248344E+03 -0.21023587835E+03  0.20671701611E+03  0.35901450120E+03  0.96134748990E+02 0.  0.
         23    2    4    4    0    0  0.14329812244E+03 -0.17001551421E+03  0.15524088267E+03  0.28032484803E+03  0.71011701904E+02 0.  0.
        -15    1    5    5    0    0  0.12416609106E+03 -0.16895283017E+03  0.12376422588E+03  0.24347455842E+03  0.00000000000E+00 0.  1.
        -15    1    4    4    0    0  0.25464969797E+02 -0.14229857388E+02  0.16694912022E+02  0.33610617600E+02  0.00000000000E+00 0.  1.
         15    1    4    4    0    0  0.12119391208E+02 -0.25990506750E+02  0.34781221418E+02  0.45079035568E+02  0.00000000000E+00 0. -1.
         15    1    5    5    0    0  0.19132031372E+02 -0.10626840437E+01  0.31476656788E+02  0.36850289610E+02  0.00000000000E+00 0. -1.
        -16    1    1    2    0    0  0.31794567402E+03  0.29368729595E+03 -0.64260269419E+02  0.43757406420E+03  0.00000000000E+00 0.  1.
         16    1    3    3    0    0 -0.45939759606E+03 -0.25593978124E+02 -0.95919348258E+02  0.47000183441E+03  0.00000000000E+00 0. -1.
    9900018    1    1    2    0    0 -0.39430561410E+02 -0.57857439471E+02 -0.16085798641E+03  0.19771879694E+03  0.91187600000E+02 0.  0.
<mgrwt>
<rscale>  0 0.14598398E+04</rscale>
<asrwt>0</asrwt>
<pdfrwt beam="1">  1        1 0.12143306E+00 0.14598398E+04</pdfrwt>
<pdfrwt beam="2">  1       -1 0.10384528E+00 0.14598398E+04</pdfrwt>
<totfact> 0.19159899E+01</totfact>
</mgrwt>
</event>
<event>
11    1  0.1272931E-015  0.1561401E+04  0.7818608E-02  0.8844618E-01
          2   -1    0    0  501    0  0.00000000000E+00  0.00000000000E+00  0.54279229065E+03  0.54279229065E+03  0.00000000000E+00 0. -1.
         -2   -1    0    0    0  501 -0.00000000000E+00 -0.00000000000E+00 -0.11228855164E+04  0.11228855164E+04  0.00000000000E+00 0.  1.
    9900016    2    1    2    0    0  0.15892556350E+03 -0.35546336496E+02 -0.75960448428E+03  0.10302054448E+04  0.67661171223E+03 0.  0.
         23    2    3    3    0    0 -0.13906322793E+03 -0.32931355989E+02  0.42590438918E+02  0.17444797169E+03  0.90526757205E+02 0.  0.
        -15    1    4    4    0    0 -0.13953251001E+02  0.12147791496E+01 -0.52125103534E+00  0.14015727042E+02  0.00000000000E+00 0.  1.
        -15    1    4    4    0    0 -0.93447630969E+02 -0.38935065549E+02  0.12951482798E+02  0.10205949231E+03  0.00000000000E+00 0.  1.
         15    1    4    4    0    0 -0.14361420952E+02  0.20615854338E+02  0.87055148777E+01  0.26590409006E+02  0.00000000000E+00 0. -1.
         15    1    4    4    0    0 -0.17300925004E+02 -0.15826923928E+02  0.21454692278E+02  0.31782343333E+02  0.00000000000E+00 0. -1.
        -16    1    3    3    0    0  0.29798879143E+03 -0.26149805064E+01 -0.80219492320E+03  0.85575747309E+03  0.00000000000E+00 0.  1.
         16    1    1    2    0    0 -0.81549762905E+02  0.71765652152E+02  0.38221297161E+03  0.39735051066E+03  0.00000000000E+00 0. -1.
    9900018    1    1    2    0    0 -0.77375800597E+02 -0.36219315656E+02 -0.20270171312E+03  0.23812185166E+03  0.91187600000E+02 0.  0.
<mgrwt>
<rscale>  0 0.15614014E+04</rscale>
<asrwt>0</asrwt>
<pdfrwt beam="1">  1        2 0.83506506E-01 0.15614014E+04</pdfrwt>
<pdfrwt beam="2">  1       -2 0.17275162E+00 0.15614014E+04</pdfrwt>
<totfact> 0.10948078E+01</totfact>
</mgrwt>
</event>
<event>
11    1  0.1204906E-015  0.2984092E+04  0.7818608E-02  0.8248288E-01
          1   -1    0    0  501    0  0.00000000000E+00  0.00000000000E+00  0.17026611901E+04  0.17026611901E+04  0.00000000000E+00 0. -1.
         -1   -1    0    0    0  501 -0.00000000000E+00 -0.00000000000E+00 -0.13074837599E+04  0.13074837599E+04  0.00000000000E+00 0.  1.
    9900016    2    1    2    0    0 -0.54585076360E+03  0.34540055335E+03 -0.26765498244E+03  0.10100992218E+04  0.72897643984E+03 0.  0.
         23    2    3    3    0    0  0.12258768271E+03 -0.10244408882E+02 -0.19714534966E+03  0.24966191077E+03  0.91280298716E+02 0.  0.
        -15    1    4    4    0    0  0.57198226268E+02 -0.14575054871E+02 -0.61660949312E+02  0.85358901017E+02  0.00000000000E+00 0.  1.
        -15    1    4    4    0    0  0.41841308511E+02 -0.12057783616E+02 -0.87475430884E+02  0.97714053503E+02  0.00000000000E+00 0.  1.
         15    1    4    4    0    0  0.95264549460E+01  0.16880332104E+02 -0.48828266356E+02  0.52534736614E+02  0.00000000000E+00 0. -1.
         15    1    4    4    0    0  0.14021692983E+02 -0.49190249828E+00  0.81929689725E+00  0.14054219636E+02  0.00000000000E+00 0. -1.
        -16    1    1    2    0    0  0.10973655635E+04 -0.47527249755E+03  0.10623310279E+03  0.12005751118E+04  0.00000000000E+00 0.  1.
         16    1    3    3    0    0 -0.66843844631E+03  0.35564496223E+03 -0.70509632786E+02  0.76043731101E+03  0.00000000000E+00 0. -1.
    9900018    1    1    2    0    0 -0.55151479993E+03  0.12987194420E+03  0.55659930984E+03  0.79947061644E+03  0.91187600000E+02 0.  0.
<mgrwt>
<rscale>  0 0.29840924E+04</rscale>
<asrwt>0</asrwt>
<pdfrwt beam="1">  1        1 0.26194787E+00 0.29840924E+04</pdfrwt>
<pdfrwt beam="2">  1       -1 0.20115135E+00 0.29840924E+04</pdfrwt>
<totfact> 0.59774703E-01</totfact>
</mgrwt>
</event>
<event>
11    1  0.1204906E-015  0.1678645E+04  0.7818608E-02  0.8773639E-01
          2   -1    0    0  501    0  0.00000000000E+00  0.00000000000E+00  0.11759406879E+04  0.11759406879E+04  0.00000000000E+00 0. -1.
         -2   -1    0    0    0  501 -0.00000000000E+00 -0.00000000000E+00 -0.59906266808E+03  0.59906266808E+03  0.00000000000E+00 0.  1.
    9900016    2    1    2    0    0 -0.81466484133E+02  0.14043502385E+03 -0.37140898008E+02  0.74417096494E+03  0.72529455727E+03 0.  0.
         23    2    3    3    0    0 -0.72800827429E+02  0.21166906826E+03 -0.34874142988E+03  0.42441437916E+03  0.91669108161E+02 0.  0.
        -15    1    4    4    0    0  0.62662097323E+01  0.93790488258E+02 -0.14692252236E+03  0.17441946178E+03  0.00000000000E+00 0. -1.
        -15    1    4    4    0    0 -0.25128887315E+02  0.15996411066E+02 -0.32747358090E+02  0.44268901122E+02  0.00000000000E+00 0. -1.
         15    1    4    4    0    0 -0.20455470266E+02  0.20956916440E+02 -0.49464772002E+02  0.57483756659E+02  0.00000000000E+00 0.  1.
         15    1    4    4    0    0 -0.33482679580E+02  0.80925252495E+02 -0.11960677743E+03  0.14824225960E+03  0.00000000000E+00 0.  1.
        -16    1    3    3    0    0 -0.86656567044E+01 -0.71234044405E+02  0.31160053187E+03  0.31975658578E+03  0.00000000000E+00 0.  1.
         16    1    1    2    0    0  0.37236389956E+03  0.12743634493E+03  0.16830099765E+03  0.42804219596E+03  0.00000000000E+00 0. -1.
    9900018    1    1    2    0    0 -0.29089741543E+03 -0.26787136879E+03  0.44571792019E+03  0.60279019509E+03  0.91187600000E+02 0.  0.
<mgrwt>
<rscale>  0 0.16786449E+04</rscale>
<asrwt>0</asrwt>
<pdfrwt beam="1">  1        2 0.18091395E+00 0.16786449E+04</pdfrwt>
<pdfrwt beam="2">  1       -2 0.92163488E-01 0.16786449E+04</pdfrwt>
<totfact> 0.18671654E+01</totfact>
</mgrwt>
</event>
<event>
11    1  0.1204906E-015  0.1997659E+04  0.7818608E-02  0.8607716E-01
         -2   -1    0    0    0  501 -0.00000000000E+00  0.00000000000E+00  0.79636992374E+03  0.79636992374E+03  0.00000000000E+00 0.  1.
          2   -1    0    0  501    0  0.00000000000E+00 -0.00000000000E+00 -0.12527595988E+04  0.12527595988E+04  0.00000000000E+00 0. -1.
    9900016    2    1    2    0    0  0.20554433329E+02 -0.41799542961E+03 -0.58485644517E+03  0.10155170616E+04  0.71699036049E+03 0.  0.
         23    2    3    3    0    0 -0.12670769187E+03 -0.84022185518E+02  0.12527123392E+03  0.21707759496E+03  0.91187901325E+02 0.  0.
        -15    1    4    4    0    0 -0.14833662490E+01 -0.11949262758E+02  0.17135146177E+02  0.20942743144E+02  0.00000000000E+00 0.  1.
        -15    1    4    4    0    0 -0.37518677738E+02 -0.43255184244E+01  0.23947346560E+02  0.44719533720E+02  0.00000000000E+00 0. -1.
         15    1    4    4    0    0 -0.64815164690E+02 -0.70572271307E+02  0.85352478167E+02  0.12832184764E+03  0.00000000000E+00 0. -1.
         15    1    4    4    0    0 -0.22890483189E+02  0.28248669713E+01 -0.11637369866E+01  0.23093470459E+02  0.00000000000E+00 0.  1.
        -16    1    1    2    0    0 -0.21285579819E+03  0.26437155588E+03  0.48433129463E+03  0.59141923653E+03  0.00000000000E+00 0.  1.
         16    1    3    3    0    0  0.14726212520E+03 -0.33397324409E+03 -0.71012767909E+03  0.79843946664E+03  0.00000000000E+00 0. -1.
    9900018    1    1    2    0    0  0.19230136486E+03  0.15362387373E+03 -0.35586452450E+03  0.44219322439E+03  0.91187600000E+02 0.  0.
<mgrwt>
<rscale>  0 0.19976587E+04</rscale>
<asrwt>0</asrwt>
<pdfrwt beam="1">  1        2 0.19273225E+00 0.19976587E+04</pdfrwt>
<pdfrwt beam="2">  1       -2 0.12251845E+00 0.19976587E+04</pdfrwt>
<totfact> 0.82573179E+00</totfact>
</mgrwt>
</event>
<event>
11    1  0.1204906E-015  0.1283256E+04  0.7818608E-02  0.9042949E-01
         -2   -1    0    0    0  501 -0.00000000000E+00  0.00000000000E+00  0.24107381917E+03  0.24107381917E+03  0.00000000000E+00 0.  1.
          2   -1    0    0  501    0  0.00000000000E+00 -0.00000000000E+00 -0.17077205894E+04  0.17077205894E+04  0.00000000000E+00 0. -1.
    9900016    2    1    2    0    0 -0.33003091712E+03  0.11367995790E+03 -0.58885212771E+03  0.98500106113E+03  0.70826317358E+03 0.  0.
         23    2    3    3    0    0 -0.20026493664E+03  0.29829624751E+02  0.12509093268E+03  0.25453218326E+03  0.90238791643E+02 0.  0.
        -15    1    4    4    0    0 -0.47688614283E+02 -0.22535149383E+02  0.33912278318E+02  0.62706295623E+02  0.00000000000E+00 0.  1.
        -15    1    4    4    0    0 -0.27777721617E+02 -0.14637211618E+01  0.28703161123E+01  0.27963959170E+02  0.00000000000E+00 0. -1.
         15    1    4    4    0    0 -0.10560752963E+03  0.37840666802E+02  0.64755079161E+02  0.12953025382E+03  0.00000000000E+00 0. -1.
         15    1    4    4    0    0 -0.19191071113E+02  0.15987828494E+02  0.23553259090E+02  0.34331674649E+02  0.00000000000E+00 0.  1.
        -16    1    1    2    0    0  0.72711243142E+02 -0.95533401571E+02 -0.20617829042E+03  0.23858550487E+03  0.00000000000E+00 0.  1.
         16    1    3    3    0    0 -0.12976598047E+03  0.83850333150E+02 -0.71394306039E+03  0.73046887787E+03  0.00000000000E+00 0. -1.
    9900018    1    1    2    0    0  0.25731967398E+03 -0.18146556331E+02 -0.67161635210E+03  0.72520784257E+03  0.91187600000E+02 0.  0.
<mgrwt>
<rscale>  0 0.12832564E+04</rscale>
<asrwt>0</asrwt>
<pdfrwt beam="1">  1        2 0.26272625E+00 0.12832564E+04</pdfrwt>
<pdfrwt beam="2">  1       -2 0.37088279E-01 0.12832564E+04</pdfrwt>
<totfact> 0.65281839E+01</totfact>
</mgrwt>
</event>
<event>
12    1  0.1204906E-015  0.2770075E+04  0.7818608E-02  0.8312619E-01
          1   -1    0    0  501    0  0.00000000000E+00  0.00000000000E+00  0.18954753880E+04  0.18954753880E+04  0.00000000000E+00 0. -1.
         -1   -1    0    0    0  501 -0.00000000000E+00 -0.00000000000E+00 -0.10120571935E+04  0.10120571935E+04  0.00000000000E+00 0.  1.
    9900016    2    1    2    0    0  0.45306918041E+02  0.28444556083E+03  0.30130802951E+03  0.82702577723E+03  0.71429903658E+03 0.  0.
         23    2    3    3    0    0 -0.80273000814E+02  0.23255139515E+02 -0.20763129689E+03  0.24135522978E+03  0.90316307049E+02 0.  0.
         23    2    4    4    0    0 -0.60248470351E+02  0.34238071343E+01 -0.12208482640E+03  0.14699884280E+03  0.55338542753E+02 0.  0.
        -15    1    5    5    0    0 -0.31944951787E+02 -0.21296595998E+02 -0.89011727717E+02  0.96938705464E+02  0.00000000000E+00 0.  1.
        -15    1    4    4    0    0 -0.17755118612E+02 -0.19504151745E+01 -0.36098537401E+02  0.40275957578E+02  0.00000000000E+00 0.  1.
         15    1    5    5    0    0 -0.28303518564E+02  0.24720403133E+02 -0.33073098682E+02  0.50060137341E+02  0.00000000000E+00 0. -1.
         15    1    4    4    0    0 -0.22694118508E+01  0.21781747555E+02 -0.49447933088E+02  0.54080429394E+02  0.00000000000E+00 0. -1.
        -16    1    3    3    0    0  0.12557991886E+03  0.26119042131E+03  0.50893932640E+03  0.58567054746E+03  0.00000000000E+00 0.  1.
         16    1    1    2    0    0  0.61980073749E+03  0.23116371768E+03  0.94992730155E+03  0.11575627399E+04  0.00000000000E+00 0. -1.
    9900018    1    1    2    0    0 -0.66510765553E+03 -0.51560927851E+03 -0.36781713656E+03  0.92294406432E+03  0.91187600000E+02 0.  0.
<mgrwt>
<rscale>  0 0.27700755E+04</rscale>
<asrwt>0</asrwt>
<pdfrwt beam="1">  1        1 0.29161160E+00 0.27700755E+04</pdfrwt>
<pdfrwt beam="2">  1       -1 0.15570111E+00 0.27700755E+04</pdfrwt>
<totfact> 0.95984670E-01</totfact>
</mgrwt>
</event>
<event>
11    1  0.1204906E-015  0.2977816E+04  0.7818608E-02  0.8250094E-01
          2   -1    0    0  501    0  0.00000000000E+00  0.00000000000E+00  0.16067032070E+04  0.16067032070E+04  0.00000000000E+00 0. -1.
         -2   -1    0    0    0  501 -0.00000000000E+00 -0.00000000000E+00 -0.13797493747E+04  0.13797493747E+04  0.00000000000E+00 0.  1.
    9900016    2    1    2    0    0  0.23222350019E+03 -0.59164806989E+03 -0.21363375415E+03  0.97403257398E+03  0.70648770805E+03 0.  0.
         23    2    3    3    0    0 -0.83135586680E+02 -0.26641003008E+03  0.20369216900E+03  0.35808447362E+03  0.94064662006E+02 0.  0.
        -15    1    4    4    0    0 -0.20703747073E+02 -0.80674533011E+02  0.23416645584E+02  0.86518002230E+02  0.00000000000E+00 0.  1.
        -15    1    4    4    0    0 -0.51149071362E+02 -0.15108278933E+03  0.11707044684E+03  0.19785784356E+03  0.00000000000E+00 0.  1.
         15    1    4    4    0    0 -0.10266588808E+02 -0.14626319562E+02  0.29758849397E+02  0.34711974694E+02  0.00000000000E+00 0. -1.
         15    1    4    4    0    0 -0.10161794369E+01 -0.20026388173E+02  0.33446227173E+02  0.38996653139E+02  0.00000000000E+00 0. -1.
        -16    1    3    3    0    0  0.31535908687E+03 -0.32523803981E+03 -0.41732592315E+03  0.61594810036E+03  0.00000000000E+00 0.  1.
         16    1    1    2    0    0  0.54596580705E+03  0.58304973198E+03  0.81747474421E+03  0.11429307109E+04  0.00000000000E+00 0. -1.
    9900018    1    1    2    0    0 -0.77818930724E+03  0.85983379037E+01 -0.37688715767E+03  0.86948929684E+03  0.91187600000E+02 0.  0.
<mgrwt>
<rscale>  0 0.29778165E+04</rscale>
<asrwt>0</asrwt>
<pdfrwt beam="1">  1        2 0.24718511E+00 0.29778165E+04</pdfrwt>
<pdfrwt beam="2">  1       -2 0.21226913E+00 0.29778165E+04</pdfrwt>
<totfact> 0.10499046E+00</totfact>
</mgrwt>
</event>
<event>
12    1  0.1204906E-015  0.1878448E+04  0.7818608E-02  0.8665659E-01
         -1   -1    0    0    0  501 -0.00000000000E+00  0.00000000000E+00  0.75517090978E+03  0.75517090978E+03  0.00000000000E+00 0.  1.
          1   -1    0    0  501    0  0.00000000000E+00 -0.00000000000E+00 -0.11681348858E+04  0.11681348858E+04  0.00000000000E+00 0. -1.
    9900016    2    1    2    0    0  0.25895526970E+03  0.43255149577E+03 -0.23647298680E+03  0.89769267264E+03  0.70411223029E+03 0.  0.
         23    2    3    3    0    0  0.78198047085E+01  0.25666077866E+02  0.21826396600E+03  0.23783627818E+03  0.90592711995E+02 0.  0.
         23    2    4    4    0    0  0.14725076684E+02  0.20932970322E+02  0.20033004035E+03  0.21039830529E+03  0.58994107107E+02 0.  0.
        -15    1    4    4    0    0 -0.87721119100E+01 -0.54524333795E+01  0.77375356973E+01  0.12905364613E+02  0.00000000000E+00 0. -1.
        -15    1    5    5    0    0  0.18908723623E+02 -0.10435813296E+02  0.28937117801E+02  0.36108209798E+02  0.00000000000E+00 0. -1.
         15    1    4    4    0    0  0.18668399341E+01  0.10185540923E+02  0.10196389950E+02  0.14532608274E+02  0.00000000000E+00 0.  1.
         15    1    5    5    0    0 -0.41836469388E+01  0.31368783618E+02  0.17139292255E+03  0.17429009549E+03  0.00000000000E+00 0.  1.
        -16    1    1    2    0    0 -0.22433564314E+03 -0.46205025956E+03  0.26118975818E+03  0.57622652917E+03  0.00000000000E+00 0.  1.
         16    1    3    3    0    0  0.25113546499E+03  0.40688541790E+03 -0.45473695280E+03  0.65985639446E+03  0.00000000000E+00 0. -1.
    9900018    1    1    2    0    0 -0.34619626551E+02  0.29498763795E+02 -0.43768074736E+03  0.44938659372E+03  0.91187600000E+02 0.  0.
<mgrwt>
<rscale>  0 0.18784477E+04</rscale>
<asrwt>0</asrwt>
<pdfrwt beam="1">  1        1 0.17971306E+00 0.18784477E+04</pdfrwt>
<pdfrwt beam="2">  1       -1 0.11618014E+00 0.18784477E+04</pdfrwt>
<totfact> 0.70808615E+00</totfact>
</mgrwt>
</event>
<event>
11    1  0.1204906E-015  0.1251688E+04  0.7818608E-02  0.9068779E-01
          2   -1    0    0  501    0  0.00000000000E+00  0.00000000000E+00  0.71532693868E+03  0.71532693868E+03  0.00000000000E+00 0. -1.
         -2   -1    0    0    0  501 -0.00000000000E+00 -0.00000000000E+00 -0.54755522164E+03  0.54755522164E+03  0.00000000000E+00 0.  1.
    9900016    2    1    2    0    0  0.17121167581E+03 -0.24358998001E+03  0.25876007252E+03  0.81321744716E+03  0.71113734605E+03 0.  0.
         23    2    3    3    0    0 -0.10436523873E+03  0.13918058052E+03 -0.10011549384E+03  0.22055598396E+03  0.91424793703E+02 0.  0.
        -15    1    4    4    0    0  0.17506343973E+01  0.21305651926E+02 -0.12563057812E+02  0.24795684027E+02  0.00000000000E+00 0.  1.
        -15    1    4    4    0    0 -0.50099006996E+02  0.64878744087E+02 -0.11892901375E+02  0.82828757321E+02  0.00000000000E+00 0.  1.
         15    1    4    4    0    0 -0.37130143727E+02  0.53153394224E+02 -0.61007936550E+02  0.89027519413E+02  0.00000000000E+00 0. -1.
         15    1    4    4    0    0 -0.18886722405E+02 -0.15720971494E+00 -0.14651598100E+02  0.23904023197E+02  0.00000000000E+00 0. -1.
        -16    1    1    2    0    0 -0.11682664978E+03  0.28572119394E+03 -0.12101505189E+03  0.33155649526E+03  0.00000000000E+00 0.  1.
         16    1    3    3    0    0  0.27557691454E+03 -0.38277056053E+03  0.35887556636E+03  0.59266146320E+03  0.00000000000E+00 0. -1.
    9900018    1    1    2    0    0 -0.54385026031E+02 -0.42131213933E+02  0.30026696417E+02  0.11810821790E+03  0.91187600000E+02 0.  0.
<mgrwt>
<rscale>  0 0.12516885E+04</rscale>
<asrwt>0</asrwt>
<pdfrwt beam="1">  1        2 0.11005030E+00 0.12516885E+04</pdfrwt>
<pdfrwt beam="2">  1       -2 0.84239264E-01 0.12516885E+04</pdfrwt>
<totfact> 0.48226947E+01</totfact>
</mgrwt>
</event>
<event>
11    1  0.1204906E-015  0.9989980E+03  0.7818608E-02  0.9309644E-01
         -1   -1    0    0    0  501 -0.00000000000E+00  0.00000000000E+00  0.18791526171E+03  0.18791526171E+03  0.00000000000E+00 0.  1.
          1   -1    0    0  501    0  0.00000000000E+00 -0.00000000000E+00 -0.13277220587E+04  0.13277220587E+04  0.00000000000E+00 0. -1.
    9900016    2    1    2    0    0 -0.33688406881E+02  0.36587040364E+02 -0.68754708471E+03  0.98653824703E+03  0.70573592715E+03 0.  0.
         23    2    3    3    0    0 -0.11999146592E+03 -0.16056616430E+03 -0.73401143376E+03  0.76636436156E+03  0.91444544776E+02 0.  0.
        -15    1    4    4    0    0 -0.25959175843E+01 -0.23423030375E+02 -0.10730612184E+03  0.10986346492E+03  0.00000000000E+00 0.  1.
        -15    1    4    4    0    0 -0.75831426555E+02 -0.50745089258E+02 -0.38758308511E+03  0.39817849917E+03  0.00000000000E+00 0. -1.
         15    1    4    4    0    0 -0.59431949815E+01 -0.15893838333E+02 -0.26150678758E+02  0.31173605231E+02  0.00000000000E+00 0. -1.
         15    1    4    4    0    0 -0.35620926800E+02 -0.70504206337E+02 -0.21297154805E+03  0.22714879224E+03  0.00000000000E+00 0.  1.
        -16    1    1    2    0    0  0.46515767542E+02 -0.11885346479E+03 -0.12220820798E+03  0.17670514656E+03  0.00000000000E+00 0.  1.
         16    1    3    3    0    0  0.86303059040E+02  0.19715320467E+03  0.46464349046E+02  0.22017388547E+03  0.00000000000E+00 0. -1.
    9900018    1    1    2    0    0 -0.12827360661E+02  0.82266424426E+02 -0.33005150425E+03  0.35239392677E+03  0.91187600000E+02 0.  0.
<mgrwt>
<rscale>  0 0.99899797E+03</rscale>
<asrwt>0</asrwt>
<pdfrwt beam="1">  1        1 0.20426493E+00 0.99899797E+03</pdfrwt>
<pdfrwt beam="2">  1       -1 0.28910041E-01 0.99899797E+03</pdfrwt>
<totfact> 0.94279849E+01</totfact>
</mgrwt>
</event>
<event>
11    1  0.1204906E-015  0.1393146E+04  0.7818608E-02  0.8958795E-01
          2   -1    0    0  501    0  0.00000000000E+00  0.00000000000E+00  0.16736734048E+04  0.16736734048E+04  0.00000000000E+00 0. -1.
         -2   -1    0    0    0  501 -0.00000000000E+00 -0.00000000000E+00 -0.28990967538E+03  0.28990967538E+03  0.00000000000E+00 0.  1.
    9900016    2    1    2    0    0  0.30712916424E+03  0.80930332711E+02  0.11468177416E+04  0.13761840541E+04  0.69124060637E+03 0.  0.
         23    2    3    3    0    0 -0.23659830346E+02  0.18095699270E+03  0.29627523650E+02  0.20676510657E+03  0.92567804118E+02 0.  0.
        -15    1    4    4    0    0 -0.34512104597E+00  0.42028724812E+02 -0.18401542896E+02  0.45881909276E+02  0.00000000000E+00 0.  1.
        -15    1    4    4    0    0 -0.89263622292E+01  0.65991856731E+02  0.45004442179E+02  0.80374155754E+02  0.00000000000E+00 0.  1.
         15    1    4    4    0    0  0.17743121254E+01  0.50533776407E+02  0.11017946300E+02  0.51751385316E+02  0.00000000000E+00 0. -1.
         15    1    4    4    0    0 -0.16162659196E+02  0.22402634746E+02 -0.79933219331E+01  0.28757656222E+02  0.00000000000E+00 0. -1.
        -16    1    1    2    0    0 -0.37467094899E+03  0.72100233401E+00  0.24450626155E+03  0.44739484999E+03  0.00000000000E+00 0.  1.
         16    1    3    3    0    0  0.33078899459E+03 -0.10002665998E+03  0.11171902179E+04  0.11694189475E+04  0.00000000000E+00 0. -1.
    9900018    1    1    2    0    0  0.67541784744E+02 -0.81651335045E+02 -0.75602737387E+01  0.14000417613E+03  0.91187600000E+02 0.  0.
<mgrwt>
<rscale>  0 0.13931462E+04</rscale>
<asrwt>0</asrwt>
<pdfrwt beam="1">  1        2 0.25748821E+00 0.13931462E+04</pdfrwt>
<pdfrwt beam="2">  1       -2 0.44601490E-01 0.13931462E+04</pdfrwt>
<totfact> 0.47083029E+01</totfact>
</mgrwt>
</event>
<event>
11    1  0.1204906E-015  0.1548661E+04  0.7818608E-02  0.8852723E-01
         -1   -1    0    0    0  501 -0.00000000000E+00  0.00000000000E+00  0.24834269975E+03  0.24834269975E+03  0.00000000000E+00 0.  1.
          1   -1    0    0  501    0  0.00000000000E+00 -0.00000000000E+00 -0.24143561392E+04  0.24143561392E+04  0.00000000000E+00 0. -1.
    9900016    2    1    2    0    0  0.30966857548E+03  0.41224557345E+02 -0.13603113939E+04  0.15668259707E+04  0.71197081630E+03 0.  0.
         23    2    3    3    0    0  0.13399670377E+03 -0.28596631617E+03 -0.98695857676E+03  0.10402266920E+04  0.90843205319E+02 0.  0.
        -15    1    4    4    0    0  0.87173635799E+01 -0.76360561306E+01 -0.20097553340E+02  0.23199427391E+02  0.00000000000E+00 0.  1.
        -15    1    4    4    0    0  0.43623862934E+02 -0.18301953912E+03 -0.60312200486E+03  0.63178742142E+03  0.00000000000E+00 0. -1.
         15    1    4    4    0    0  0.12533894407E+02 -0.61847721109E+01 -0.45980193989E+02  0.48057550440E+02  0.00000000000E+00 0. -1.
         15    1    4    4    0    0  0.69121582852E+02 -0.89125948803E+02 -0.31775882457E+03  0.33718229277E+03  0.00000000000E+00 0.  1.
        -16    1    1    2    0    0 -0.14519160021E+03 -0.34839460593E+03 -0.34736325113E+03  0.51295285402E+03  0.00000000000E+00 0.  1.
         16    1    3    3    0    0  0.17567187170E+03  0.32719087351E+03 -0.37335281713E+03  0.52659927865E+03  0.00000000000E+00 0. -1.
    9900018    1    1    2    0    0 -0.16447697526E+03  0.30717004859E+03 -0.45833879444E+03  0.58292001426E+03  0.91187600000E+02 0.  0.
<mgrwt>
<rscale>  0 0.15486610E+04</rscale>
<asrwt>0</asrwt>
<pdfrwt beam="1">  1        1 0.37143943E+00 0.15486610E+04</pdfrwt>
<pdfrwt beam="2">  1       -1 0.38206567E-01 0.15486610E+04</pdfrwt>
<totfact> 0.99288876E+00</totfact>
</mgrwt>
</event>
<event>
11    1  0.1204906E-015  0.1857183E+04  0.7818608E-02  0.8676468E-01
         -2   -1    0    0    0  501 -0.00000000000E+00  0.00000000000E+00  0.29895444950E+03  0.29895444950E+03  0.00000000000E+00 0.  1.
          2   -1    0    0  501    0  0.00000000000E+00 -0.00000000000E+00 -0.28843268304E+04  0.28843268304E+04  0.00000000000E+00 0. -1.
    9900016    2    1    2    0    0  0.43380602147E+03  0.34254751277E+03 -0.11816868709E+04  0.14852507143E+04  0.70997138011E+03 0.  0.
         23    2    3    3    0    0  0.13353307080E+03 -0.14149824713E+03 -0.52631171061E+02  0.22064369391E+03  0.89781760719E+02 0.  0.
        -15    1    4    4    0    0  0.25417349269E+02 -0.38603658978E+01  0.62177580570E+01  0.26450039395E+02  0.00000000000E+00 0.  1.
        -15    1    4    4    0    0  0.27873110270E+02 -0.46965235487E+02 -0.19375468005E+01  0.54647943311E+02  0.00000000000E+00 0.  1.
         15    1    4    4    0    0  0.12857816945E+01 -0.17810917933E+02 -0.17789605535E+02  0.25206191646E+02  0.00000000000E+00 0. -1.
         15    1    4    4    0    0  0.78956829562E+02 -0.72861727807E+02 -0.39121776782E+02  0.11433951956E+03  0.00000000000E+00 0. -1.
        -16    1    1    2    0    0  0.22030792819E+03 -0.15350766786E+03 -0.38946060582E+03  0.47305364474E+03  0.00000000000E+00 0.  1.
         16    1    3    3    0    0  0.30027295068E+03  0.48404575989E+03 -0.11290556998E+04  0.12646070203E+04  0.00000000000E+00 0. -1.
    9900018    1    1    2    0    0 -0.65411394966E+03 -0.18903984491E+03 -0.10142249041E+04  0.12249769209E+04  0.91187600000E+02 0.  0.
<mgrwt>
<rscale>  0 0.18571832E+04</rscale>
<asrwt>0</asrwt>
<pdfrwt beam="1">  1        2 0.44374260E+00 0.18571832E+04</pdfrwt>
<pdfrwt beam="2">  1       -2 0.45992992E-01 0.18571832E+04</pdfrwt>
<totfact> 0.86763357E+00</totfact>
</mgrwt>
</event>
<event>
11    1  0.1204906E-015  0.1475584E+04  0.7818608E-02  0.8900854E-01
          2   -1    0    0  501    0  0.00000000000E+00  0.00000000000E+00  0.14655229719E+04  0.14655229719E+04  0.00000000000E+00 0. -1.
         -2   -1    0    0    0  501 -0.00000000000E+00 -0.00000000000E+00 -0.37142831652E+03  0.37142831652E+03  0.00000000000E+00 0.  1.
    9900016    2    1    2    0    0  0.30201789812E+03 -0.17909049609E+03  0.31875016693E+03  0.86537100674E+03  0.72386262081E+03 0.  0.
         23    2    3    3    0    0  0.36745800666E+02  0.92075784157E+01 -0.21712469828E+03  0.23848399801E+03  0.91084846900E+02 0.  0.
        -15    1    4    4    0    0  0.23182008826E+02 -0.21115120689E+02 -0.61709187925E+02  0.69219056114E+02  0.00000000000E+00 0.  1.
        -15    1    4    4    0    0  0.23678881300E+01 -0.11321139520E+02 -0.20128010998E+02  0.23214476539E+02  0.00000000000E+00 0.  1.
         15    1    4    4    0    0  0.21955290783E+02  0.23452382305E+02 -0.98706759007E+02  0.10380305055E+03  0.00000000000E+00 0. -1.
         15    1    4    4    0    0 -0.10759387074E+02  0.18191456320E+02 -0.36580740351E+02  0.42247414807E+02  0.00000000000E+00 0. -1.
        -16    1    1    2    0    0 -0.37027731593E+03  0.14881096800E+03  0.35195663095E+03  0.53209347389E+03  0.00000000000E+00 0.  1.
         16    1    3    3    0    0  0.26527209746E+03 -0.18829807451E+03  0.53587486521E+03  0.62688700873E+03  0.00000000000E+00 0. -1.
    9900018    1    1    2    0    0  0.68259417807E+02  0.30279528098E+02  0.42338785752E+03  0.43948680780E+03  0.91187600000E+02 0.  0.
<mgrwt>
<rscale>  0 0.14755836E+04</rscale>
<asrwt>0</asrwt>
<pdfrwt beam="1">  1        2 0.22546507E+00 0.14755836E+04</pdfrwt>
<pdfrwt beam="2">  1       -2 0.57142819E-01 0.14755836E+04</pdfrwt>
<totfact> 0.36884341E+01</totfact>
</mgrwt>
</event>
<event>
11    1  0.1204906E-015  0.1285847E+04  0.7818608E-02  0.9040864E-01
          2   -1    0    0  501    0  0.00000000000E+00  0.00000000000E+00  0.30567571982E+04  0.30567571982E+04  0.00000000000E+00 0. -1.
         -2   -1    0    0    0  501 -0.00000000000E+00 -0.00000000000E+00 -0.13522522930E+03  0.13522522930E+03  0.00000000000E+00 0.  1.
    9900016    2    1    2    0    0 -0.19722085336E+02  0.26590146656E+03  0.12375154973E+04  0.14512908660E+04  0.70972390483E+03 0.  0.
         23    2    3    3    0    0  0.91900465694E+02  0.20977461910E+03  0.42775553272E+02  0.25003595934E+03  0.90758727352E+02 0.  0.
        -15    1    4    4    0    0  0.20741728618E+02  0.57501797410E+01  0.23628443696E+01  0.21653334769E+02  0.00000000000E+00 0.  1.
        -15    1    4    4    0    0 -0.43031543013E+01  0.29798874008E+02  0.16829720177E+02  0.34492455847E+02  0.00000000000E+00 0.  1.
         15    1    4    4    0    0  0.14772053959E+02  0.20297061919E+02 -0.59880905490E+01  0.25807780399E+02  0.00000000000E+00 0. -1.
         15    1    4    4    0    0  0.60689837419E+02  0.15392850343E+03  0.29571079274E+02  0.16808238832E+03  0.00000000000E+00 0. -1.
        -16    1    1    2    0    0  0.87453545566E+02 -0.30726705476E+03  0.12450628739E+04  0.12853959412E+04  0.00000000000E+00 0.  1.
         16    1    3    3    0    0 -0.11162255103E+03  0.56126847461E+02  0.11947399440E+04  0.12012549067E+04  0.00000000000E+00 0. -1.
    9900018    1    1    2    0    0 -0.67731460230E+02  0.41365588195E+02  0.43895359766E+03  0.45529562032E+03  0.91187600000E+02 0.  0.
<mgrwt>
<rscale>  0 0.12858471E+04</rscale>
<asrwt>0</asrwt>
<pdfrwt beam="1">  1        2 0.47027029E+00 0.12858471E+04</pdfrwt>
<pdfrwt beam="2">  1       -2 0.20803884E-01 0.12858471E+04</pdfrwt>
<totfact> 0.31769822E+01</totfact>
</mgrwt>
</event>
<event>
11    1  0.1204906E-015  0.1403884E+04  0.7818608E-02  0.8951012E-01
         -2   -1    0    0    0  501 -0.00000000000E+00  0.00000000000E+00  0.39376320179E+03  0.39376320179E+03  0.00000000000E+00 0. -1.
          2   -1    0    0  501    0  0.00000000000E+00 -0.00000000000E+00 -0.12513160975E+04  0.12513160975E+04  0.00000000000E+00 0.  1.
    9900016    2    1    2    0    0 -0.67210041901E+02 -0.14251229819E+03 -0.40427499034E+03  0.82756519106E+03  0.70469775987E+03 0.  0.
         23    2    3    3    0    0 -0.26976126586E+03 -0.96864891906E+01  0.71374894229E+02  0.29379322987E+03  0.91406333266E+02 0.  0.
        -15    1    4    4    0    0 -0.67674845730E+02 -0.19893065092E+02  0.11031721696E+01  0.70546692142E+02  0.00000000000E+00 0.  1.
        -15    1    4    4    0    0 -0.20404977631E+02  0.12307591009E+01  0.18686422506E+02  0.27695852869E+02  0.00000000000E+00 0.  1.
         15    1    4    4    0    0 -0.82272466407E+02  0.22032431856E+02  0.59160535654E+01  0.85376732615E+02  0.00000000000E+00 0. -1.
         15    1    4    4    0    0 -0.99408976089E+02 -0.13056615056E+02  0.45669245988E+02  0.11017395224E+03  0.00000000000E+00 0. -1.
        -16    1    3    3    0    0  0.20255122396E+03 -0.13282580900E+03 -0.47564988456E+03  0.53377196119E+03  0.00000000000E+00 0.  1.
         16    1    1    2    0    0  0.80243943088E+02 -0.26041203973E+02  0.15672240873E+03  0.17798637056E+03  0.00000000000E+00 0. -1.
    9900018    1    1    2    0    0 -0.13033901187E+02  0.16855350216E+03 -0.61000031413E+03  0.63952773772E+03  0.91187600000E+02 0.  0.
<mgrwt>
<rscale>  0 0.14038835E+04</rscale>
<asrwt>0</asrwt>
<pdfrwt beam="1">  1        2 0.19251017E+00 0.14038835E+04</pdfrwt>
<pdfrwt beam="2">  1       -2 0.60578955E-01 0.14038835E+04</pdfrwt>
<totfact> 0.43597325E+01</totfact>
</mgrwt>
</event>
<event>
11    1  0.1204906E-015  0.2053735E+04  0.7818608E-02  0.8581902E-01
          2   -1    0    0  501    0  0.00000000000E+00  0.00000000000E+00  0.49886629827E+03  0.49886629827E+03  0.00000000000E+00 0. -1.
         -2   -1    0    0    0  501 -0.00000000000E+00 -0.00000000000E+00 -0.21137053404E+04  0.21137053404E+04  0.00000000000E+00 0.  1.
    9900016    2    1    2    0    0 -0.79195798613E+02  0.26443178116E+03 -0.33214172093E+03  0.80464419103E+03  0.67892415627E+03 0.  0.
         23    2    3    3    0    0  0.24917869858E+02 -0.21746179421E+03 -0.14110684248E+03  0.27591420443E+03  0.91142608211E+02 0.  0.
        -15    1    4    4    0    0  0.22244620779E+02 -0.64194945069E+02 -0.24279152961E+02  0.72147705400E+02  0.00000000000E+00 0. -1.
        -15    1    4    4    0    0  0.13971425403E+02 -0.17336765726E+02 -0.22575962850E+02  0.31708646648E+02  0.00000000000E+00 0. -1.
         15    1    4    4    0    0  0.12262226317E+02 -0.87306808708E+02 -0.71163593395E+02  0.11330091820E+03  0.00000000000E+00 0.  1.
         15    1    4    4    0    0 -0.23560402640E+02 -0.48623274705E+02 -0.23088133277E+02  0.58756934176E+02  0.00000000000E+00 0.  1.
        -16    1    3    3    0    0 -0.10411366847E+03  0.48189357537E+03 -0.19103487845E+03  0.52872998660E+03  0.00000000000E+00 0.  1.
         16    1    1    2    0    0 -0.48843865003E+03 -0.43572673131E+03 -0.51043551581E+03  0.83004488735E+03  0.00000000000E+00 0. -1.
    9900018    1    1    2    0    0  0.56763444865E+03  0.17129495014E+03 -0.77226180537E+03  0.97788256026E+03  0.91187600000E+02 0.  0.
<mgrwt>
<rscale>  0 0.20537345E+04</rscale>
<asrwt>0</asrwt>
<pdfrwt beam="1">  1        2 0.76748661E-01 0.20537345E+04</pdfrwt>
<pdfrwt beam="2">  1       -2 0.32518544E+00 0.20537345E+04</pdfrwt>
<totfact> 0.12720464E+00</totfact>
</mgrwt>
</event>
<event>
11    1  0.1204906E-015  0.1728278E+04  0.7818608E-02  0.8745399E-01
          2   -1    0    0  501    0  0.00000000000E+00  0.00000000000E+00  0.11169810988E+04  0.11169810988E+04  0.00000000000E+00 0. -1.
         -2   -1    0    0    0  501 -0.00000000000E+00 -0.00000000000E+00 -0.66853088845E+03  0.66853088845E+03  0.00000000000E+00 0.  1.
    9900016    2    1    2    0    0 -0.14282897350E+03 -0.13189308445E+03  0.47457529793E+03  0.86364610010E+03  0.69488630108E+03 0.  0.
         23    2    3    3    0    0 -0.56343224542E+02  0.71742462851E+02 -0.15205602411E+03  0.19910563131E+03  0.90556490797E+02 0.  0.
        -15    1    4    4    0    0 -0.12068911181E+02 -0.68651329811E+01 -0.20024578672E+02  0.24367445885E+02  0.00000000000E+00 0. -1.
        -15    1    4    4    0    0 -0.77141351328E+01  0.41919705329E+02 -0.99583907856E+02  0.10832231663E+03  0.00000000000E+00 0. -1.
         15    1    4    4    0    0 -0.12504561109E+01  0.12436888967E+02  0.28953041357E+00  0.12502946674E+02  0.00000000000E+00 0.  1.
         15    1    4    4    0    0 -0.35309722117E+02  0.24251001536E+02 -0.32737067994E+02  0.53912922128E+02  0.00000000000E+00 0.  1.
        -16    1    1    2    0    0  0.13156818453E+03 -0.19236242545E+03 -0.37198162549E+03  0.43895765127E+03  0.00000000000E+00 0.  1.
         16    1    3    3    0    0 -0.86485748953E+02 -0.20363554730E+03  0.62663132204E+03  0.66454046879E+03  0.00000000000E+00 0. -1.
    9900018    1    1    2    0    0  0.11260788968E+02  0.32425550989E+03  0.34585653789E+03  0.48290823586E+03  0.91187600000E+02 0.  0.
<mgrwt>
<rscale>  0 0.17282782E+04</rscale>
<asrwt>0</asrwt>
<pdfrwt beam="1">  1        2 0.17184325E+00 0.17282782E+04</pdfrwt>
<pdfrwt beam="2">  1       -2 0.10285091E+00 0.17282782E+04</pdfrwt>
<totfact> 0.15600360E+01</totfact>
</mgrwt>
</event>
<event>
12    1  0.1204906E-015  0.1703011E+04  0.7818608E-02  0.8759649E-01
         -1   -1    0    0    0  501 -0.00000000000E+00  0.00000000000E+00  0.17855200638E+04  0.17855200638E+04  0.00000000000E+00 0.  1.
          1   -1    0    0  501    0  0.00000000000E+00 -0.00000000000E+00 -0.40607876600E+03  0.40607876600E+03  0.00000000000E+00 0. -1.
    9900016    2    1    2    0    0 -0.26907593947E+03  0.34921935606E+03  0.40188117538E+03  0.92638616754E+03  0.70875019044E+03 0.  0.
         23    2    3    3    0    0 -0.19842560445E+03 -0.12463373133E+03  0.36844034636E+03  0.44612945774E+03  0.91525497814E+02 0.  0.
         23    2    4    4    0    0 -0.15348712644E+03 -0.10023991486E+03  0.29632467148E+03  0.35298382092E+03  0.56417447582E+02 0.  0.
        -15    1    5    5    0    0 -0.14755134630E+03 -0.86445459909E+02  0.24001239229E+03  0.29470352184E+03  0.00000000000E+00 0.  1.
        -15    1    4    4    0    0 -0.17164072421E+02 -0.20608528882E+02  0.18304186176E+02  0.32470911233E+02  0.00000000000E+00 0.  1.
         15    1    5    5    0    0 -0.59357801386E+01 -0.13794454954E+02  0.56312279186E+02  0.58280299077E+02  0.00000000000E+00 0. -1.
         15    1    4    4    0    0 -0.27774405583E+02 -0.37852875855E+01  0.53811488706E+02  0.60674725581E+02  0.00000000000E+00 0. -1.
        -16    1    3    3    0    0 -0.70650335019E+02  0.47385308739E+03  0.33440829022E+02  0.48025670981E+03  0.00000000000E+00 0.  1.
         16    1    1    2    0    0  0.32354084789E+03 -0.51382175621E+03  0.74799598081E+03  0.96342589996E+03  0.00000000000E+00 0. -1.
    9900018    1    1    2    0    0 -0.54464908429E+02  0.16460240015E+03  0.22956414164E+03  0.30178676231E+03  0.91187600000E+02 0.  0.
<mgrwt>
<rscale>  0 0.17030112E+04</rscale>
<asrwt>0</asrwt>
<pdfrwt beam="1">  1        1 0.62473657E-01 0.17030112E+04</pdfrwt>
<pdfrwt beam="2">  1       -1 0.27469539E+00 0.17030112E+04</pdfrwt>
<totfact> 0.26967806E+00</totfact>
</mgrwt>
</event>
<event>
11    1  0.1204906E-015  0.1715008E+04  0.7818608E-02  0.8752851E-01
          2   -1    0    0  501    0  0.00000000000E+00  0.00000000000E+00  0.94375675509E+03  0.94375675509E+03  0.00000000000E+00 0. -1.
         -2   -1    0    0    0  501 -0.00000000000E+00 -0.00000000000E+00 -0.77913412370E+03  0.77913412370E+03  0.00000000000E+00 0.  1.
    9900016    2    1    2    0    0  0.46234960564E+03  0.40048242490E+03  0.73761883077E+02  0.93364156945E+03  0.70149300376E+03 0.  0.
         23    2    3    3    0    0 -0.69243738547E+02  0.30994920061E+03  0.19169365838E+03  0.38164913118E+03  0.89701718937E+02 0.  0.
        -15    1    4    4    0    0 -0.15693534947E+02  0.87072310971E+01  0.54254201630E+01  0.18749349227E+02  0.00000000000E+00 0. -1.
        -15    1    4    4    0    0 -0.50982340323E+02  0.24394598962E+03  0.13138043755E+03  0.28172622215E+03  0.00000000000E+00 0.  1.
         15    1    4    4    0    0 -0.78373961681E+01  0.34873315292E+02  0.40494373243E+02  0.54012657428E+02  0.00000000000E+00 0.  1.
         15    1    4    4    0    0  0.52695328902E+01  0.22422664598E+02  0.14393427424E+02  0.27160902370E+02  0.00000000000E+00 0. -1.
        -16    1    1    2    0    0 -0.26650882863E+03 -0.44255474234E+03 -0.63402066933E+02  0.52048196684E+03  0.00000000000E+00 0.  1.
         16    1    3    3    0    0  0.53159334419E+03  0.90533224289E+02 -0.11793177530E+03  0.55199243828E+03  0.00000000000E+00 0. -1.
    9900018    1    1    2    0    0 -0.19584077701E+03  0.42072317445E+02  0.15426281524E+03  0.26876734250E+03  0.91187600000E+02 0.  0.
<mgrwt>
<rscale>  0 0.17150080E+04</rscale>
<asrwt>0</asrwt>
<pdfrwt beam="1">  1        2 0.14519335E+00 0.17150080E+04</pdfrwt>
<pdfrwt beam="2">  1       -2 0.11986679E+00 0.17150080E+04</pdfrwt>
<totfact> 0.13871494E+01</totfact>
</mgrwt>
</event>
<event>
11    1  0.1204906E-015  0.1274446E+04  0.7818608E-02  0.9050079E-01
          3   -1    0    0  501    0  0.00000000000E+00  0.00000000000E+00  0.39113866871E+03  0.39113866871E+03  0.00000000000E+00 0. -1.
         -3   -1    0    0    0  501 -0.00000000000E+00 -0.00000000000E+00 -0.10381314545E+04  0.10381314545E+04  0.00000000000E+00 0.  1.
    9900016    2    1    2    0    0  0.10636439216E+03 -0.21651669997E+03 -0.46028586981E+03  0.88131901719E+03  0.71180563557E+03 0.  0.
         23    2    3    3    0    0 -0.11050782716E+03  0.11426712652E+03  0.88250637789E+02  0.20504703082E+03  0.94800599742E+02 0.  0.
        -15    1    4    4    0    0 -0.13609042301E+02 -0.18655427323E+01  0.12470566884E+02  0.18552663433E+02  0.00000000000E+00 0.  1.
        -15    1    4    4    0    0  0.25512703816E+01  0.13418357436E+02  0.30456343871E+02  0.33378888220E+02  0.00000000000E+00 0. -1.
         15    1    4    4    0    0 -0.96955176363E+01  0.24962543354E+02  0.14404758356E+02  0.30407707843E+02  0.00000000000E+00 0. -1.
         15    1    4    4    0    0 -0.89754537603E+02  0.77751768460E+02  0.30918968677E+02  0.12270777132E+03  0.00000000000E+00 0.  1.
        -16    1    3    3    0    0  0.21687221932E+03 -0.33078382649E+03 -0.54853650760E+03  0.67627198637E+03  0.00000000000E+00 0.  1.
         16    1    1    2    0    0  0.72353051864E+02  0.29192588152E+03 -0.10480318374E+03  0.31849551290E+03  0.00000000000E+00 0. -1.
    9900018    1    1    2    0    0 -0.17871744403E+03 -0.75409181546E+02 -0.81903732229E+02  0.22945559311E+03  0.91187600000E+02 0.  0.
<mgrwt>
<rscale>  0 0.12744463E+04</rscale>
<asrwt>0</asrwt>
<pdfrwt beam="1">  1        3 0.60175182E-01 0.12744463E+04</pdfrwt>
<pdfrwt beam="2">  1       -3 0.15971253E+00 0.12744463E+04</pdfrwt>
<totfact> 0.18996656E+00</totfact>
</mgrwt>
</event>
<event>
11    1  0.1204906E-015  0.2290574E+04  0.7818608E-02  0.8481647E-01
         -2   -1    0    0    0  501 -0.00000000000E+00  0.00000000000E+00  0.10112920554E+04  0.10112920554E+04  0.00000000000E+00 0. -1.
          2   -1    0    0  501    0  0.00000000000E+00 -0.00000000000E+00 -0.12970355699E+04  0.12970355699E+04  0.00000000000E+00 0.  1.
    9900016    2    1    2    0    0 -0.45233719023E+03 -0.69137457253E+02 -0.25651490081E+03  0.89216177839E+03  0.72163967658E+03 0.  0.
         23    2    3    3    0    0  0.15303711571E+03  0.12255274823E+03 -0.31956421887E+02  0.21862655613E+03  0.91306206043E+02 0.  0.
        -15    1    4    4    0    0  0.10373958113E+00  0.11330947675E+02 -0.87984916869E+01  0.14346239685E+02  0.00000000000E+00 0.  1.
        -15    1    4    4    0    0  0.42961031183E+02  0.36333868678E+02 -0.37968493367E+02  0.67877880801E+02  0.00000000000E+00 0.  1.
         15    1    4    4    0    0  0.80089227175E+02  0.60723307737E+02  0.86067968339E+00  0.10051042325E+03  0.00000000000E+00 0. -1.
         15    1    4    4    0    0  0.29883117767E+02  0.14164624143E+02  0.13949883484E+02  0.35892012395E+02  0.00000000000E+00 0. -1.
        -16    1    3    3    0    0 -0.60537430594E+03 -0.19169020549E+03 -0.22455847893E+03  0.67353522226E+03  0.00000000000E+00 0.  1.
         16    1    1    2    0    0  0.90371097791E+03  0.16991390313E+03  0.10632431328E+03  0.92567225607E+03  0.00000000000E+00 0. -1.
    9900018    1    1    2    0    0 -0.45137378768E+03 -0.10077644588E+03 -0.13555292702E+03  0.49049359085E+03  0.91187600000E+02 0.  0.
<mgrwt>
<rscale>  0 0.22905735E+04</rscale>
<asrwt>0</asrwt>
<pdfrwt beam="1">  1        2 0.19954393E+00 0.22905735E+04</pdfrwt>
<pdfrwt beam="2">  1       -2 0.15558339E+00 0.22905735E+04</pdfrwt>
<totfact> 0.40929272E+00</totfact>
</mgrwt>
</event>
<event>
11    1  0.1204906E-015  0.1438420E+04  0.7818608E-02  0.8926469E-01
          1   -1    0    0  501    0  0.00000000000E+00  0.00000000000E+00  0.17050490762E+04  0.17050490762E+04  0.00000000000E+00 0. -1.
         -1   -1    0    0    0  501 -0.00000000000E+00 -0.00000000000E+00 -0.30337113484E+03  0.30337113484E+03  0.00000000000E+00 0.  1.
    9900016    2    1    2    0    0  0.20864044063E+03 -0.21848909999E+03  0.37980170927E+03  0.82650646436E+03  0.66902561757E+03 0.  0.
         23    2    3    3    0    0 -0.22168567775E+03 -0.57672147545E+02  0.24389300027E+03  0.34743043955E+03  0.93560132683E+02 0.  0.
        -15    1    4    4    0    0 -0.10608177121E+02 -0.38593030978E+01  0.31342015692E+02  0.33312904254E+02  0.00000000000E+00 0. -1.
        -15    1    4    4    0    0 -0.73719964753E+02  0.94777428544E+01  0.91944918801E+02  0.11822998311E+03  0.00000000000E+00 0. -1.
         15    1    4    4    0    0 -0.65261863377E+02 -0.15195642648E+02  0.43522055558E+02  0.79901111925E+02  0.00000000000E+00 0.  1.
         15    1    4    4    0    0 -0.72095672498E+02 -0.48094944654E+02  0.77084010215E+02  0.11598644026E+03  0.00000000000E+00 0.  1.
        -16    1    3    3    0    0  0.43032611838E+03 -0.16081695244E+03  0.13590870901E+03  0.47907602480E+03  0.00000000000E+00 0.  1.
         16    1    1    2    0    0 -0.27998779005E+03  0.17413276273E+03  0.10038614974E+04  0.10566235317E+04  0.00000000000E+00 0. -1.
    9900018    1    1    2    0    0  0.71347349420E+02  0.44356337255E+02  0.18014734673E+02  0.12529021503E+03  0.91187600000E+02 0.  0.
<mgrwt>
<rscale>  0 0.14384195E+04</rscale>
<asrwt>0</asrwt>
<pdfrwt beam="1">  1        1 0.26231524E+00 0.14384195E+04</pdfrwt>
<pdfrwt beam="2">  1       -1 0.46672483E-01 0.14384195E+04</pdfrwt>
<totfact> 0.21023696E+01</totfact>
</mgrwt>
</event>
<event>
11    1  0.1204906E-015  0.1076920E+04  0.7818608E-02  0.9227984E-01
         -2   -1    0    0    0  501 -0.00000000000E+00  0.00000000000E+00  0.43823777814E+03  0.43823777814E+03  0.00000000000E+00 0.  1.
          2   -1    0    0  501    0  0.00000000000E+00 -0.00000000000E+00 -0.66160231737E+03  0.66160231737E+03  0.00000000000E+00 0. -1.
    9900016    2    1    2    0    0  0.13655014028E+03  0.89106608723E+02 -0.16364364483E+03  0.72995666090E+03  0.69243884623E+03 0.  0.
         23    2    3    3    0    0 -0.12606468129E+03 -0.14614087871E+03  0.14768387688E+03  0.25960280408E+03  0.91288707394E+02 0.  0.
        -15    1    4    4    0    0 -0.12538968853E+02 -0.68741098061E+01 -0.10795539096E+01  0.14340312485E+02  0.00000000000E+00 0. -1.
        -15    1    4    4    0    0 -0.79939811213E+02 -0.55196404133E+02  0.86294085112E+02  0.12993723705E+03  0.00000000000E+00 0. -1.
         15    1    4    4    0    0 -0.23798890975E+02 -0.22068288643E+02  0.11383855927E+02  0.34394603516E+02  0.00000000000E+00 0.  1.
         15    1    4    4    0    0 -0.97870102495E+01 -0.62002076124E+02  0.51085489754E+02  0.80930651034E+02  0.00000000000E+00 0.  1.
        -16    1    1    2    0    0 -0.91950882511E+02 -0.72442736517E+02  0.11693508176E+03  0.16545914364E+03  0.00000000000E+00 0.  1.
         16    1    3    3    0    0  0.26261482157E+03  0.23524748743E+03 -0.31132752171E+03  0.47035385682E+03  0.00000000000E+00 0. -1.
    9900018    1    1    2    0    0 -0.44599257767E+02 -0.16663872206E+02 -0.17665597616E+03  0.20442429097E+03  0.91187600000E+02 0.  0.
<mgrwt>
<rscale>  0 0.10769199E+04</rscale>
<asrwt>0</asrwt>
<pdfrwt beam="1">  1        2 0.10178497E+00 0.10769199E+04</pdfrwt>
<pdfrwt beam="2">  1       -2 0.67421196E-01 0.10769199E+04</pdfrwt>
<totfact> 0.88268767E+01</totfact>
</mgrwt>
</event>
<event>
11    1  0.1204906E-015  0.1229372E+04  0.7818608E-02  0.9087528E-01
          2   -1    0    0  501    0  0.00000000000E+00  0.00000000000E+00  0.17674159613E+04  0.17674159613E+04  0.00000000000E+00 0. -1.
         -2   -1    0    0    0  501 -0.00000000000E+00 -0.00000000000E+00 -0.21378053998E+03  0.21378053998E+03  0.00000000000E+00 0.  1.
    9900016    2    1    2    0    0  0.24815573827E+03 -0.18685974453E+03  0.76533784954E+03  0.10934757824E+04  0.71655385571E+03 0.  0.
         23    2    3    3    0    0 -0.11262386362E+03  0.73719783729E+02 -0.43326675409E+02  0.17043627856E+03  0.95145063329E+02 0.  0.
        -15    1    4    4    0    0  0.10184880062E+02  0.10375475790E+02 -0.17788710513E+02  0.22974344419E+02  0.00000000000E+00 0. -1.
        -15    1    4    4    0    0 -0.80204311959E+02  0.37940026143E+02 -0.59301377691E+01  0.88923246536E+02  0.00000000000E+00 0.  1.
         15    1    4    4    0    0 -0.18591553475E+02  0.24437688611E+02 -0.74065816883E+01  0.31586451804E+02  0.00000000000E+00 0.  1.
         15    1    4    4    0    0 -0.24012878251E+02  0.96659318545E+00 -0.12201245438E+02  0.26952235798E+02  0.00000000000E+00 0. -1.
        -16    1    1    2    0    0 -0.19174180323E+03  0.19444240044E+03  0.39647360132E+03  0.48141882259E+03  0.00000000000E+00 0.  1.
         16    1    3    3    0    0  0.36077960190E+03 -0.26057952826E+03  0.80866452495E+03  0.92303950381E+03  0.00000000000E+00 0. -1.
    9900018    1    1    2    0    0 -0.56413935042E+02 -0.75826559071E+01  0.39182397043E+03  0.40630189630E+03  0.91187600000E+02 0.  0.
<mgrwt>
<rscale>  0 0.12293724E+04</rscale>
<asrwt>0</asrwt>
<pdfrwt beam="1">  1        2 0.27191014E+00 0.12293724E+04</pdfrwt>
<pdfrwt beam="2">  1       -2 0.32889315E-01 0.12293724E+04</pdfrwt>
<totfact> 0.76418026E+01</totfact>
</mgrwt>
</event>
<event>
11    1  0.1204906E-015  0.1828167E+04  0.7818608E-02  0.8691463E-01
         -2   -1    0    0    0  501 -0.00000000000E+00  0.00000000000E+00  0.90889396085E+03  0.90889396085E+03  0.00000000000E+00 0.  1.
          2   -1    0    0  501    0  0.00000000000E+00 -0.00000000000E+00 -0.91930234623E+03  0.91930234623E+03  0.00000000000E+00 0. -1.
    9900016    2    1    2    0    0 -0.39424076739E+03  0.10193240342E+03  0.12072749421E+03  0.82833438522E+03  0.71115872233E+03 0.  0.
         23    2    3    3    0    0  0.81388338006E+02 -0.56890220304E+02  0.27355103656E+03  0.30411810657E+03  0.88301157475E+02 0.  0.
        -15    1    4    4    0    0  0.53956507063E+02 -0.62491398792E+02  0.15066807882E+03  0.17180613945E+03  0.00000000000E+00 0.  1.
        -15    1    4    4    0    0  0.38349988023E+01  0.94947482165E+01  0.36677891416E+02  0.38080509165E+02  0.00000000000E+00 0. -1.
         15    1    4    4    0    0  0.10798764009E+01  0.10625122311E+02  0.17683662508E+02  0.20658443235E+02  0.00000000000E+00 0.  1.
         15    1    4    4    0    0  0.22516955739E+02 -0.14518692040E+02  0.68521403814E+02  0.73573014720E+02  0.00000000000E+00 0. -1.
        -16    1    1    2    0    0  0.48667776390E+03 -0.19326901295E+03  0.25494750957E+03  0.58241427684E+03  0.00000000000E+00 0.  1.
         16    1    3    3    0    0 -0.47562910539E+03  0.15882262372E+03 -0.15282354235E+03  0.52421627865E+03  0.00000000000E+00 0. -1.
    9900018    1    1    2    0    0 -0.92436996510E+02  0.91336609528E+02 -0.38608338915E+03  0.41744764502E+03  0.91187600000E+02 0.  0.
<mgrwt>
<rscale>  0 0.18281667E+04</rscale>
<asrwt>0</asrwt>
<pdfrwt beam="1">  1        2 0.14143113E+00 0.18281667E+04</pdfrwt>
<pdfrwt beam="2">  1       -2 0.13982984E+00 0.18281667E+04</pdfrwt>
<totfact> 0.96561561E+00</totfact>
</mgrwt>
</event>
<event>
11    1  0.1204906E-015  0.2267366E+04  0.7818608E-02  0.8490900E-01
          2   -1    0    0  501    0  0.00000000000E+00  0.00000000000E+00  0.15764806457E+04  0.15764806457E+04  0.00000000000E+00 0. -1.
         -2   -1    0    0    0  501 -0.00000000000E+00 -0.00000000000E+00 -0.81525751127E+03  0.81525751127E+03  0.00000000000E+00 0.  1.
    9900016    2    1    2    0    0  0.10627514955E+03  0.33041507093E+02  0.18154115596E+03  0.72106718654E+03  0.68890822872E+03 0.  0.
         23    2    3    3    0    0  0.37630481954E+02  0.14116509612E+03 -0.23146703062E+03  0.28865700734E+03  0.91663755584E+02 0.  0.
        -15    1    4    4    0    0 -0.16642363091E+01  0.21421114023E+02 -0.82184829478E+01  0.23003853382E+02  0.00000000000E+00 0. -1.
        -15    1    4    4    0    0  0.64731957512E+01  0.67770689144E+02 -0.69898308440E+02  0.97573265258E+02  0.00000000000E+00 0.  1.
         15    1    4    4    0    0  0.18879287802E+02  0.11326039435E+02 -0.28318963976E+02  0.35870188149E+02  0.00000000000E+00 0.  1.
         15    1    4    4    0    0  0.13942234710E+02  0.40647253518E+02 -0.12503127526E+03  0.13220970055E+03  0.00000000000E+00 0. -1.
        -16    1    3    3    0    0  0.68644667599E+02 -0.10812358903E+03  0.41300818658E+03  0.43241017920E+03  0.00000000000E+00 0.  1.
         16    1    1    2    0    0 -0.66554775461E+03  0.34903064606E+03  0.63655662002E+03  0.98487589881E+03  0.00000000000E+00 0. -1.
    9900018    1    1    2    0    0  0.55927260506E+03 -0.38207215316E+03 -0.56874641551E+02  0.68579507160E+03  0.91187600000E+02 0.  0.
<mgrwt>
<rscale>  0 0.22673665E+04</rscale>
<asrwt>0</asrwt>
<pdfrwt beam="1">  1        2 0.24253548E+00 0.22673665E+04</pdfrwt>
<pdfrwt beam="2">  1       -2 0.12542423E+00 0.22673665E+04</pdfrwt>
<totfact> 0.49688023E+00</totfact>
</mgrwt>
</event>
<event>
11    1  0.1204906E-015  0.1789369E+04  0.7818608E-02  0.8711974E-01
         -1   -1    0    0    0  501 -0.00000000000E+00  0.00000000000E+00  0.69849564929E+03  0.69849564929E+03  0.00000000000E+00 0.  1.
          1   -1    0    0  501    0  0.00000000000E+00 -0.00000000000E+00 -0.11459769785E+04  0.11459769785E+04  0.00000000000E+00 0. -1.
    9900016    2    1    2    0    0 -0.51564701457E+03  0.32568558487E+03  0.10767899937E+02  0.94026237928E+03  0.71555185025E+03 0.  0.
         23    2    3    3    0    0 -0.15726131797E+03  0.85223824534E+02  0.34211285013E+03  0.39615610130E+03  0.88905747705E+02 0.  0.
        -15    1    4    4    0    0 -0.85192225747E+01 -0.10116112315E+02  0.25929755551E+02  0.29107818616E+02  0.00000000000E+00 0. -1.
        -15    1    4    4    0    0 -0.11279906647E+03  0.50829118599E+02  0.18442099723E+03  0.22207731292E+03  0.00000000000E+00 0.  1.
         15    1    4    4    0    0 -0.22355711987E+02  0.39809157411E+02  0.92385975846E+02  0.10305200340E+03  0.00000000000E+00 0. -1.
         15    1    4    4    0    0 -0.13587316936E+02  0.47016608384E+01  0.39376121504E+02  0.41918966362E+02  0.00000000000E+00 0.  1.
        -16    1    1    2    0    0  0.38686541938E+03 -0.11078422893E+01 -0.10885777181E+03  0.40189064994E+03  0.00000000000E+00 0.  1.
         16    1    3    3    0    0 -0.35838569660E+03  0.24046176034E+03 -0.33134495020E+03  0.54410627798E+03  0.00000000000E+00 0. -1.
    9900018    1    1    2    0    0  0.12878159519E+03 -0.32457774258E+03 -0.34939145733E+03  0.50231959855E+03  0.91187600000E+02 0.  0.
<mgrwt>
<rscale>  0 0.17893685E+04</rscale>
<asrwt>0</asrwt>
<pdfrwt beam="1">  1        1 0.17630415E+00 0.17893685E+04</pdfrwt>
<pdfrwt beam="2">  1       -1 0.10746087E+00 0.17893685E+04</pdfrwt>
<totfact> 0.89218147E+00</totfact>
</mgrwt>
</event>
<event>
11    1  0.1204906E-015  0.1667471E+04  0.7818608E-02  0.8780137E-01
         -1   -1    0    0    0  501 -0.00000000000E+00  0.00000000000E+00  0.28596520831E+03  0.28596520831E+03  0.00000000000E+00 0.  1.
          1   -1    0    0  501    0  0.00000000000E+00 -0.00000000000E+00 -0.24307687014E+04  0.24307687014E+04  0.00000000000E+00 0. -1.
    9900016    2    1    2    0    0  0.14221267983E+03  0.38299211214E+03 -0.90578003513E+03  0.12235770412E+04  0.71399992954E+03 0.  0.
         23    2    3    3    0    0 -0.16117573626E+03 -0.89932643612E+02 -0.71334279874E+02  0.21759390310E+03  0.90515351383E+02 0.  0.
        -15    1    4    4    0    0 -0.75005594735E+02 -0.67600502523E+02 -0.67103982905E+02  0.12123783116E+03  0.00000000000E+00 0.  1.
        -15    1    4    4    0    0 -0.69024423721E+02 -0.94256544619E+01  0.25388064303E+01  0.69711258561E+02  0.00000000000E+00 0. -1.
         15    1    4    4    0    0 -0.10656617073E+02  0.33365675468E+00 -0.50588508874E+01  0.11801134970E+02  0.00000000000E+00 0.  1.
         15    1    4    4    0    0 -0.64891007279E+01 -0.13240143382E+02 -0.17102525119E+01  0.14843678408E+02  0.00000000000E+00 0. -1.
        -16    1    3    3    0    0  0.30338841609E+03  0.47292475575E+03 -0.83444575526E+03  0.10059831381E+04  0.00000000000E+00 0.  1.
         16    1    1    2    0    0 -0.37634143766E+03 -0.29641336829E+03 -0.10848541913E+04  0.11859183695E+04  0.00000000000E+00 0. -1.
    9900018    1    1    2    0    0  0.23412875783E+03 -0.86578743855E+02 -0.15416926661E+03  0.30723849904E+03  0.91187600000E+02 0.  0.
<mgrwt>
<rscale>  0 0.16674715E+04</rscale>
<asrwt>0</asrwt>
<pdfrwt beam="1">  1        1 0.37396443E+00 0.16674715E+04</pdfrwt>
<pdfrwt beam="2">  1       -1 0.43994646E-01 0.16674715E+04</pdfrwt>
<totfact> 0.73849743E+00</totfact>
</mgrwt>
</event>
<event>
11    1  0.1204906E-015  0.2005337E+04  0.7818608E-02  0.8604130E-01
         -2   -1    0    0    0  501 -0.00000000000E+00  0.00000000000E+00  0.69580712699E+03  0.69580712699E+03  0.00000000000E+00 0.  1.
          2   -1    0    0  501    0  0.00000000000E+00 -0.00000000000E+00 -0.14448597249E+04  0.14448597249E+04  0.00000000000E+00 0. -1.
    9900016    2    1    2    0    0 -0.19583860302E+03  0.14666542416E+03  0.51434827573E+01  0.74224923647E+03  0.70074529506E+03 0.  0.
         23    2    3    3    0    0  0.46002791596E+02 -0.17289064844E+03  0.21130478088E+03  0.29157660082E+03  0.91431780967E+02 0.  0.
        -15    1    4    4    0    0 -0.76308006763E+01 -0.12457933218E+02  0.70015346619E+01  0.16200330449E+02  0.00000000000E+00 0.  1.
        -15    1    4    4    0    0  0.65875749061E+01 -0.24484686364E+02  0.16939130437E+02  0.30493116427E+02  0.00000000000E+00 0.  1.
         15    1    4    4    0    0 -0.13427667113E+02 -0.72563411278E+01  0.22239631223E+02  0.26973281736E+02  0.00000000000E+00 0. -1.
         15    1    4    4    0    0  0.60473684479E+02 -0.12869168773E+03  0.16512448456E+03  0.21790987221E+03  0.00000000000E+00 0. -1.
        -16    1    3    3    0    0 -0.24184139461E+03  0.31955607259E+03 -0.20616129813E+03  0.45067263565E+03  0.00000000000E+00 0.  1.
         16    1    1    2    0    0 -0.14535685636E+03  0.45626191167E+03 -0.30549350514E+03  0.56800513150E+03  0.00000000000E+00 0. -1.
    9900018    1    1    2    0    0  0.34119545938E+03 -0.60292733583E+03 -0.44870257557E+03  0.83041248395E+03  0.91187600000E+02 0.  0.
<mgrwt>
<rscale>  0 0.20053366E+04</rscale>
<asrwt>0</asrwt>
<pdfrwt beam="1">  1        2 0.22228611E+00 0.20053366E+04</pdfrwt>
<pdfrwt beam="2">  1       -2 0.10704725E+00 0.20053366E+04</pdfrwt>
<totfact> 0.88907447E+00</totfact>
</mgrwt>
</event>
<event>
11    1  0.1204906E-015  0.2104072E+04  0.7818608E-02  0.8559452E-01
         -2   -1    0    0    0  501 -0.00000000000E+00  0.00000000000E+00  0.74368675152E+03  0.74368675152E+03  0.00000000000E+00 0.  1.
          2   -1    0    0  501    0  0.00000000000E+00 -0.00000000000E+00 -0.14882331938E+04  0.14882331938E+04  0.00000000000E+00 0. -1.
    9900016    2    1    2    0    0  0.15940508871E+03  0.43109575254E+02 -0.23284237983E+02  0.71736123360E+03  0.69770808076E+03 0.  0.
         23    2    3    3    0    0 -0.18511085897E+03  0.18397532778E+03  0.14080231326E+03  0.31059496812E+03  0.92363366447E+02 0.  0.
        -15    1    4    4    0    0 -0.32079500806E+01  0.10414111265E+02  0.16631043682E+02  0.19883064933E+02  0.00000000000E+00 0.  1.
        -15    1    4    4    0    0  0.31230763087E+01  0.10476401377E+02  0.60480809837E+01  0.12493513318E+02  0.00000000000E+00 0.  1.
         15    1    4    4    0    0 -0.16600284162E+03  0.12978988344E+03  0.11419260498E+03  0.23967125047E+03  0.00000000000E+00 0. -1.
         15    1    4    4    0    0 -0.19023143577E+02  0.33294931698E+02  0.39305836148E+01  0.38547139399E+02  0.00000000000E+00 0. -1.
        -16    1    1    2    0    0 -0.35467469432E+03 -0.61911823903E+03 -0.33432723476E+03  0.78795699920E+03  0.00000000000E+00 0.  1.
         16    1    3    3    0    0  0.34451594768E+03 -0.14086575252E+03 -0.16408655124E+03  0.40676626549E+03  0.00000000000E+00 0. -1.
    9900018    1    1    2    0    0  0.19526960561E+03  0.57600866377E+03 -0.38693496957E+03  0.72660171255E+03  0.91187600000E+02 0.  0.
<mgrwt>
<rscale>  0 0.21040716E+04</rscale>
<asrwt>0</asrwt>
<pdfrwt beam="1">  1        2 0.22895895E+00 0.21040716E+04</pdfrwt>
<pdfrwt beam="2">  1       -2 0.11441335E+00 0.21040716E+04</pdfrwt>
<totfact> 0.70910366E+00</totfact>
</mgrwt>
</event>
<event>
11    1  0.1204906E-015  0.1163049E+04  0.7818608E-02  0.9145829E-01
         -2   -1    0    0    0  501 -0.00000000000E+00  0.00000000000E+00  0.65981519380E+03  0.65981519380E+03  0.00000000000E+00 0. -1.
          2   -1    0    0  501    0  0.00000000000E+00 -0.00000000000E+00 -0.51252332088E+03  0.51252332088E+03  0.00000000000E+00 0.  1.
    9900016    2    1    2    0    0 -0.12508742908E+02  0.14637199639E+03  0.31794178253E+02  0.71772329879E+03  0.70180811756E+03 0.  0.
         23    2    3    3    0    0  0.14179856921E+03 -0.10344335735E+03 -0.24461831627E+03  0.31445871484E+03  0.90767837228E+02 0.  0.
        -15    1    4    4    0    0  0.24505987137E+02  0.12521380045E+02 -0.40563776042E+02  0.49017836454E+02  0.00000000000E+00 0.  1.
        -15    1    4    4    0    0  0.10670738969E+02 -0.53759033204E+01 -0.13760432829E+02  0.18224009391E+02  0.00000000000E+00 0.  1.
         15    1    4    4    0    0  0.53907495109E+02 -0.54395904417E+02 -0.12313427967E+03  0.14500683872E+03  0.00000000000E+00 0. -1.
         15    1    4    4    0    0  0.52714347995E+02 -0.56192929659E+02 -0.67159827728E+02  0.10221003027E+03  0.00000000000E+00 0. -1.
        -16    1    1    2    0    0  0.77362321909E+02 -0.21797827685E+03  0.19262196468E+03  0.30100278954E+03  0.00000000000E+00 0.  1.
         16    1    3    3    0    0 -0.15430731212E+03  0.24981535375E+03  0.27641249452E+03  0.40326458395E+03  0.00000000000E+00 0. -1.
    9900018    1    1    2    0    0 -0.64853579001E+02  0.71606280458E+02 -0.77124270014E+02  0.15361242635E+03  0.91187600000E+02 0.  0.
<mgrwt>
<rscale>  0 0.11630489E+04</rscale>
<asrwt>0</asrwt>
<pdfrwt beam="1">  1        2 0.78849741E-01 0.11630489E+04</pdfrwt>
<pdfrwt beam="2">  1       -2 0.10151003E+00 0.11630489E+04</pdfrwt>
<totfact> 0.47172886E+01</totfact>
</mgrwt>
</event>
<event>
11    1  0.1204906E-015  0.1614409E+04  0.7818608E-02  0.8811745E-01
          1   -1    0    0  501    0  0.00000000000E+00  0.00000000000E+00  0.48946452482E+03  0.48946452482E+03  0.00000000000E+00 0.  1.
         -1   -1    0    0    0  501 -0.00000000000E+00 -0.00000000000E+00 -0.13312078126E+04  0.13312078126E+04  0.00000000000E+00 0. -1.
    9900016    2    1    2    0    0 -0.29153821281E+03  0.13918714542E+03 -0.42429322003E+03  0.88532673528E+03  0.70669024378E+03 0.  0.
         23    2    3    3    0    0  0.16961002704E+03 -0.38661144647E+02 -0.32704188441E+03  0.38159512452E+03  0.91630778246E+02 0.  0.
        -15    1    4    4    0    0  0.24988253401E+02 -0.16002472776E+02 -0.55445318264E+02  0.62886208825E+02  0.00000000000E+00 0.  1.
        -15    1    4    4    0    0  0.10420603212E+03  0.13855463487E+02 -0.16039376130E+03  0.19177338100E+03  0.00000000000E+00 0.  1.
         15    1    4    4    0    0  0.14061861080E+02 -0.15815599822E+02 -0.73532027441E+02  0.76516849088E+02  0.00000000000E+00 0. -1.
         15    1    4    4    0    0  0.26353880441E+02 -0.20698535536E+02 -0.37670777406E+02  0.50418685604E+02  0.00000000000E+00 0. -1.
        -16    1    3    3    0    0 -0.46114823985E+03  0.17784829006E+03 -0.97251335622E+02  0.50373161076E+03  0.00000000000E+00 0.  1.
         16    1    1    2    0    0  0.27016114393E+03 -0.43986319885E+03 -0.31233443774E+03  0.60334026750E+03  0.00000000000E+00 0. -1.
    9900018    1    1    2    0    0  0.21377068881E+02  0.30067605343E+03 -0.10511563004E+03  0.33200533467E+03  0.91187600000E+02 0.  0.
<mgrwt>
<rscale>  0 0.16144089E+04</rscale>
<asrwt>0</asrwt>
<pdfrwt beam="1">  1        1 0.75302237E-01 0.16144089E+04</pdfrwt>
<pdfrwt beam="2">  1       -1 0.20480120E+00 0.16144089E+04</pdfrwt>
<totfact> 0.61010225E+00</totfact>
</mgrwt>
</event>
<event>
11    1  0.1204906E-015  0.1623854E+04  0.7818608E-02  0.8806026E-01
          2   -1    0    0  501    0  0.00000000000E+00  0.00000000000E+00  0.16512947383E+04  0.16512947383E+04  0.00000000000E+00 0. -1.
         -2   -1    0    0    0  501 -0.00000000000E+00 -0.00000000000E+00 -0.39921739989E+03  0.39921739989E+03  0.00000000000E+00 0.  1.
    9900016    2    1    2    0    0  0.30157663281E+03  0.17478132751E+02  0.84078233770E+03  0.11598309390E+04  0.73962079276E+03 0.  0.
         23    2    3    3    0    0  0.22374037063E+03  0.26528746139E+02 -0.63643156689E+02  0.25201715181E+03  0.93266637061E+02 0.  0.
        -15    1    4    4    0    0  0.10414493589E+03  0.22572913704E+02  0.10167481184E+02  0.10704710075E+03  0.00000000000E+00 0.  1.
        -15    1    4    4    0    0  0.16612652891E+02  0.10253055369E+02 -0.53780356796E+01  0.20249164137E+02  0.00000000000E+00 0.  1.
         15    1    4    4    0    0  0.92675629160E+01 -0.38412475775E+01 -0.32718100809E+01  0.10552139430E+02  0.00000000000E+00 0. -1.
         15    1    4    4    0    0  0.93715218935E+02 -0.24559753568E+01 -0.65160792113E+02  0.11416874749E+03  0.00000000000E+00 0. -1.
        -16    1    1    2    0    0 -0.14759636801E+03 -0.28695551403E+03 -0.50746740786E+02  0.32665484320E+03  0.00000000000E+00 0.  1.
         16    1    3    3    0    0  0.77836262177E+02 -0.90506133878E+01  0.90442549439E+03  0.90781378719E+03  0.00000000000E+00 0. -1.
    9900018    1    1    2    0    0 -0.15398026480E+03  0.26947738128E+03  0.46204174147E+03  0.56402635597E+03  0.91187600000E+02 0.  0.
<mgrwt>
<rscale>  0 0.16238542E+04</rscale>
<asrwt>0</asrwt>
<pdfrwt beam="1">  1        2 0.25404534E+00 0.16238542E+04</pdfrwt>
<pdfrwt beam="2">  1       -2 0.61418062E-01 0.16238542E+04</pdfrwt>
<totfact> 0.24625216E+01</totfact>
</mgrwt>
</event>
