<event>
12    1  0.2616400E-013  0.2182037E+04  0.7818608E-02  0.9015691E-01
         -1   -1    0    0    0  501 -0.00000000000E+00  0.00000000000E+00  0.94399129723E+03  0.94399129723E+03  0.00000000000E+00 0.  1.
          1   -1    0    0  501    0  0.00000000000E+00 -0.00000000000E+00 -0.26062696188E+04  0.26062696188E+04  0.00000000000E+00 0. -1.
         23    2    1    2    0    0  0.22586185935E+03  0.14679915127E+03  0.43555982136E+03  0.52334644604E+03  0.10777557366E+03 0.  0.
    9900016    2    1    2    0    0  0.59378654554E+02 -0.31717393508E+03 -0.10574512884E+04  0.13087746517E+04  0.70040183592E+03 0.  0.
         23    2    4    4    0    0 -0.15728605142E+03  0.12033447335E+03 -0.60540416243E+03  0.64341474427E+03  0.90824257781E+02 0.  0.
        -15    1    5    5    0    0 -0.11001722427E+03  0.27245265933E+02 -0.32616724309E+03  0.34529866003E+03  0.00000000000E+00 0. -1.
        -15    1    3    3    0    0  0.16715969783E+03  0.15827990071E+03  0.33964058132E+03  0.41030551548E+03  0.00000000000E+00 0. -1.
         15    1    3    3    0    0  0.58702161516E+02 -0.11480749435E+02  0.95919240036E+02  0.11304093057E+03  0.00000000000E+00 0.  1.
         15    1    5    5    0    0 -0.47268827148E+02  0.93089207421E+02 -0.27923691934E+03  0.29811608424E+03  0.00000000000E+00 0.  1.
        -16    1    1    2    0    0 -0.15282416316E+03  0.50382210465E+03  0.85112430521E+02  0.53332547643E+03  0.00000000000E+00 0.  1.
         16    1    4    4    0    0  0.21666470597E+03 -0.43750840844E+03 -0.45204712601E+03  0.66535990742E+03  0.00000000000E+00 0. -1.
    9900018    1    1    2    0    0 -0.13241635075E+03 -0.33344732084E+03 -0.11254992850E+04  0.11848143419E+04  0.91187600000E+02 0.  0.
<mgrwt>
<rscale>  0 0.13176412E+04</rscale>
<asrwt>0</asrwt>
<pdfrwt beam="1">  1        1 0.40096456E+00 0.21820372E+04</pdfrwt>
<pdfrwt beam="2">  1       -1 0.14522943E+00 0.21820372E+04</pdfrwt>
<totfact> 0.38785567E-01</totfact>
</mgrwt>
</event>
<event>
12    1  0.2616400E-013  0.1430754E+04  0.7818608E-02  0.9382598E-01
          2   -1    0    0  501    0  0.00000000000E+00  0.00000000000E+00  0.48775821668E+03  0.48775821668E+03  0.00000000000E+00 0.  1.
         -2   -1    0    0    0  501 -0.00000000000E+00 -0.00000000000E+00 -0.14885927041E+04  0.14885927041E+04  0.00000000000E+00 0. -1.
         23    2    1    2    0    0 -0.25015030616E+03  0.17017678364E+02 -0.73418489381E+02  0.27131245947E+03  0.73180591916E+02 0.  0.
    9900016    2    1    2    0    0  0.29441359423E+03  0.15450329585E+03 -0.22963617079E+03  0.80473089810E+03  0.69592270729E+03 0.  0.
         23    2    4    4    0    0 -0.15190268266E+03 -0.45627929985E+02  0.10765262181E+03  0.21058070144E+03  0.87171164075E+02 0.  0.
        -15    1    3    3    0    0 -0.88906006401E+02 -0.19828284429E+02 -0.51011026054E+02  0.10440097517E+03  0.00000000000E+00 0. -1.
        -15    1    5    5    0    0 -0.81427060293E+02 -0.47649555347E+02  0.17205480010E+02  0.95900337930E+02  0.00000000000E+00 0.  1.
         15    1    3    3    0    0 -0.16124429976E+03  0.36845962794E+02 -0.22407463327E+02  0.16691148430E+03  0.00000000000E+00 0.  1.
         15    1    5    5    0    0 -0.70475622363E+02  0.20216253619E+01  0.90447141797E+02  0.11468036351E+03  0.00000000000E+00 0. -1.
        -16    1    4    4    0    0  0.44631627689E+03  0.20013122583E+03 -0.33728879260E+03  0.59415019665E+03  0.00000000000E+00 0.  1.
         16    1    1    2    0    0  0.17418607519E+03 -0.15828750468E+03 -0.59878792781E+03  0.64338379325E+03  0.00000000000E+00 0. -1.
    9900018    1    1    2    0    0 -0.21844936327E+03 -0.13233469536E+02 -0.98991899452E+02  0.25692376997E+03  0.91187600000E+02 0.  0.
<mgrwt>
<rscale>  0 0.93521772E+03</rscale>
<asrwt>0</asrwt>
<pdfrwt beam="1">  1        2 0.75039726E-01 0.14307536E+04</pdfrwt>
<pdfrwt beam="2">  1       -2 0.22901426E+00 0.14307536E+04</pdfrwt>
<totfact> 0.53088662E+00</totfact>
</mgrwt>
</event>
<event>
11    1  0.2616400E-013  0.1559070E+04  0.7818608E-02  0.9227913E-01
         -1   -1    0    0    0  501 -0.00000000000E+00  0.00000000000E+00  0.60813677737E+03  0.60813677737E+03  0.00000000000E+00 0.  1.
          1   -1    0    0  501    0  0.00000000000E+00 -0.00000000000E+00 -0.15138901714E+04  0.15138901714E+04  0.00000000000E+00 0. -1.
    9900016    2    1    2    0    0 -0.13038085551E+03 -0.12523469652E+03 -0.11283121066E+03  0.76795427974E+03  0.73779400715E+03 0.  0.
         23    2    3    3    0    0  0.23288949838E+03 -0.19811401352E+03 -0.21362127818E+03  0.38398112629E+03  0.91218276920E+02 0.  0.
        -15    1    4    4    0    0  0.14216631879E+03 -0.70209814148E+02 -0.13654936600E+03  0.20925202402E+03  0.00000000000E+00 0. -1.
        -15    1    1    2    0    0  0.16593082952E+03  0.11913838921E+03 -0.12701880497E+03  0.24054266313E+03  0.00000000000E+00 0. -1.
         15    1    4    4    0    0  0.90723179590E+02 -0.12790419938E+03 -0.77071912181E+02  0.17472910227E+03  0.00000000000E+00 0.  1.
         15    1    1    2    0    0  0.64071206221E+02  0.11328474341E+03  0.16713562209E+02  0.13121697953E+03  0.00000000000E+00 0.  1.
        -16    1    3    3    0    0 -0.36327035389E+03  0.72879317007E+02  0.10079006752E+03  0.38397315346E+03  0.00000000000E+00 0.  1.
         16    1    1    2    0    0 -0.35755154086E+03  0.62289774631E+02 -0.48096723809E+03  0.60253846724E+03  0.00000000000E+00 0. -1.
    9900018    1    1    2    0    0  0.25793036063E+03 -0.16947821074E+03 -0.20164970254E+03  0.37977455915E+03  0.91187600000E+02 0.  0.
<mgrwt>
<rscale>  0 0.10769903E+04</rscale>
<asrwt>0</asrwt>
<pdfrwt beam="1">  1        1 0.23290618E+00 0.15590696E+04</pdfrwt>
<pdfrwt beam="2">  1       -1 0.93559504E-01 0.15590696E+04</pdfrwt>
<totfact> 0.67782049E+00</totfact>
</mgrwt>
</event>
<event>
11    1  0.2616400E-013  0.1121424E+04  0.7818608E-02  0.9535987E-01
         -2   -1    0    0    0  501 -0.00000000000E+00  0.00000000000E+00  0.28452940403E+03  0.28452940403E+03  0.00000000000E+00 0. -1.
          2   -1    0    0  501    0  0.00000000000E+00 -0.00000000000E+00 -0.19062873784E+04  0.19062873784E+04  0.00000000000E+00 0.  1.
    9900016    2    1    2    0    0 -0.78803829420E+02 -0.37755215235E+02 -0.10296774570E+04  0.12548283957E+04  0.71184488286E+03 0.  0.
         23    2    3    3    0    0  0.29462555055E+03 -0.53158326295E+02 -0.29000898510E+03  0.42609671049E+03  0.88448700137E+02 0.  0.
        -15    1    1    2    0    0 -0.53011490871E+02  0.27388617737E+02 -0.18980023280E+01  0.59698885741E+02  0.00000000000E+00 0.  1.
        -15    1    4    4    0    0  0.17145552777E+03 -0.72886531888E+02 -0.15574022980E+03  0.24282599472E+03  0.00000000000E+00 0.  1.
         15    1    4    4    0    0  0.12317002279E+03  0.19728205592E+02 -0.13426875529E+03  0.18327071577E+03  0.00000000000E+00 0. -1.
         15    1    1    2    0    0  0.66960684706E+02  0.28867807625E+01 -0.15313164848E+03  0.16715671858E+03  0.00000000000E+00 0. -1.
        -16    1    3    3    0    0 -0.37342937997E+03  0.15403111060E+02 -0.73966847193E+03  0.82873168518E+03  0.00000000000E+00 0.  1.
         16    1    1    2    0    0 -0.19969883915E+03  0.14414624397E+03 -0.17502153070E+03  0.30214285068E+03  0.00000000000E+00 0. -1.
    9900018    1    1    2    0    0  0.26455347474E+03 -0.13666642724E+03 -0.26202933585E+03  0.40698993178E+03  0.91187600000E+02 0.  0.
<mgrwt>
<rscale>  0 0.81681855E+03</rscale>
<asrwt>0</asrwt>
<pdfrwt beam="1">  1        2 0.29327497E+00 0.11214239E+04</pdfrwt>
<pdfrwt beam="2">  1       -2 0.43773756E-01 0.11214239E+04</pdfrwt>
<totfact> 0.36997852E+01</totfact>
</mgrwt>
</event>
<event>
12    1  0.2616400E-013  0.2012904E+04  0.7818608E-02  0.9053052E-01
          3   -1    0    0  501    0  0.00000000000E+00  0.00000000000E+00  0.65232569017E+03  0.65232569017E+03  0.00000000000E+00 0. -1.
         -3   -1    0    0    0  501 -0.00000000000E+00 -0.00000000000E+00 -0.20865773039E+04  0.20865773039E+04  0.00000000000E+00 0.  1.
         23    2    1    2    0    0  0.30931277790E+03 -0.52571808439E+02 -0.21963250164E+03  0.38792796706E+03  0.61737203004E+02 0.  0.
    9900016    2    1    2    0    0 -0.20313139736E+03  0.69129665127E+03 -0.49616514736E+03  0.11244070428E+04  0.70636953482E+03 0.  0.
         23    2    4    4    0    0 -0.23210185630E+03  0.82136741374E+02  0.91855275400E+02  0.27724525132E+03  0.88373196032E+02 0.  0.
        -15    1    3    3    0    0  0.19261802545E+03 -0.22355518946E+02 -0.10032987520E+03  0.21832901047E+03  0.00000000000E+00 0.  1.
        -15    1    5    5    0    0 -0.14645999220E+03  0.94538434727E+02  0.51550326049E+02  0.18178416068E+03  0.00000000000E+00 0. -1.
         15    1    5    5    0    0 -0.85641864097E+02 -0.12401693353E+02  0.40304949351E+02  0.95461090640E+02  0.00000000000E+00 0.  1.
         15    1    3    3    0    0  0.11669475245E+03 -0.30216289493E+02 -0.11930262644E+03  0.16959895659E+03  0.00000000000E+00 0. -1.
        -16    1    1    2    0    0 -0.93883909526E+02 -0.75385213054E+03 -0.75884238697E+03  0.10737546235E+04  0.00000000000E+00 0.  1.
         16    1    4    4    0    0  0.28970458936E+02  0.60915990990E+03 -0.58802042276E+03  0.84716179146E+03  0.00000000000E+00 0. -1.
    9900018    1    1    2    0    0 -0.12297471012E+02  0.11512728771E+03  0.40388422274E+02  0.15281336072E+03  0.91187600000E+02 0.  0.
<mgrwt>
<rscale>  0 0.12707938E+04</rscale>
<asrwt>0</asrwt>
<pdfrwt beam="1">  1        3 0.10035780E+00 0.20129044E+04</pdfrwt>
<pdfrwt beam="2">  1       -3 0.32101189E+00 0.20129044E+04</pdfrwt>
<totfact> 0.60250587E-02</totfact>
</mgrwt>
</event>
<event>
12    1  0.2616400E-013  0.1997973E+04  0.7818608E-02  0.8948033E-01
         -2   -1    0    0    0  501 -0.00000000000E+00  0.00000000000E+00  0.67647910163E+03  0.67647910163E+03  0.00000000000E+00 0.  1.
          2   -1    0    0  501    0  0.00000000000E+00 -0.00000000000E+00 -0.23407366194E+04  0.23407366194E+04  0.00000000000E+00 0. -1.
         23    2    1    2    0    0  0.96191601015E+02 -0.47074427634E+03 -0.16643415668E+03  0.52014334514E+03  0.10952521705E+03 0.  0.
    9900016    2    1    2    0    0  0.22458863634E+03  0.73128762025E+02 -0.53236076787E+03  0.91182066441E+03  0.70158468161E+03 0.  0.
         23    2    4    4    0    0  0.22070712814E+03  0.23972875601E+03 -0.63273260700E+03  0.71728241575E+03  0.89230034840E+02 0.  0.
        -15    1    5    5    0    0  0.17885557825E+03  0.22074302064E+03 -0.47992715842E+03  0.55771576670E+03  0.00000000000E+00 0. -1.
        -15    1    3    3    0    0  0.36175865606E+02 -0.12743887783E+03 -0.98479168473E+02  0.16506819033E+03  0.00000000000E+00 0.  1.
         15    1    5    5    0    0  0.41851549888E+02  0.18985735371E+02 -0.15280544858E+03  0.15956664905E+03  0.00000000000E+00 0.  1.
         15    1    3    3    0    0  0.60015735409E+02 -0.34330539851E+03 -0.67954988207E+02  0.35507515481E+03  0.00000000000E+00 0. -1.
        -16    1    4    4    0    0  0.38815081931E+01 -0.16659999398E+03  0.10037183913E+03  0.19453824866E+03  0.00000000000E+00 0.  1.
         16    1    1    2    0    0 -0.68217380471E+03  0.45587380626E+03 -0.87052660855E+03  0.11962435384E+04  0.00000000000E+00 0. -1.
    9900018    1    1    2    0    0  0.36139356736E+03 -0.58258291944E+02 -0.94935984665E+02  0.38900817303E+03  0.91187600000E+02 0.  0.
<mgrwt>
<rscale>  0 0.14080212E+04</rscale>
<asrwt>0</asrwt>
<pdfrwt beam="1">  1        2 0.36011332E+00 0.19979729E+04</pdfrwt>
<pdfrwt beam="2">  1       -2 0.10407371E+00 0.19979729E+04</pdfrwt>
<totfact> 0.29607936E+00</totfact>
</mgrwt>
</event>
<event>
11    1  0.2616400E-013  0.1889222E+04  0.7818608E-02  0.9260217E-01
         -2   -1    0    0    0  501 -0.00000000000E+00  0.00000000000E+00  0.53943940210E+03  0.53943940210E+03  0.00000000000E+00 0. -1.
          2   -1    0    0  501    0  0.00000000000E+00 -0.00000000000E+00 -0.21434292326E+04  0.21434292326E+04  0.00000000000E+00 0.  1.
    9900016    2    1    2    0    0 -0.44530260068E+02 -0.57141384352E+03 -0.43647760841E+03  0.10151229458E+04  0.71516792980E+03 0.  0.
         23    2    3    3    0    0 -0.12869498007E+03 -0.46139481091E+03 -0.61774843780E+03  0.78698482708E+03  0.91018768500E+02 0.  0.
        -15    1    4    4    0    0 -0.77714947560E+02 -0.13338864755E+03 -0.22297257971E+03  0.27119903332E+03  0.00000000000E+00 0.  1.
        -15    1    1    2    0    0 -0.73633768151E+02  0.18309537816E+02 -0.45807131509E+02  0.88631057109E+02  0.00000000000E+00 0. -1.
         15    1    1    2    0    0 -0.41377721026E+02  0.10509455484E+01  0.82330891421E+02  0.92149856028E+02  0.00000000000E+00 0.  1.
         15    1    4    4    0    0 -0.50980032511E+02 -0.32800616336E+03 -0.39477585808E+03  0.51578579376E+03  0.00000000000E+00 0. -1.
        -16    1    1    2    0    0  0.17250920099E+03  0.67059318312E+03 -0.11147667860E+04  0.13123107973E+04  0.00000000000E+00 0.  1.
         16    1    3    3    0    0  0.84164720002E+02 -0.11001903261E+03  0.18127082938E+03  0.22813811872E+03  0.00000000000E+00 0. -1.
    9900018    1    1    2    0    0 -0.12967451747E+02 -0.11853982296E+03 -0.89269196034E+02  0.17465397845E+03  0.91187600000E+02 0.  0.
<mgrwt>
<rscale>  0 0.10452928E+04</rscale>
<asrwt>0</asrwt>
<pdfrwt beam="1">  1        2 0.32975834E+00 0.18892216E+04</pdfrwt>
<pdfrwt beam="2">  1       -2 0.82990677E-01 0.18892216E+04</pdfrwt>
<totfact> 0.65841362E+00</totfact>
</mgrwt>
</event>
<event>
12    1  0.2616400E-013  0.1718048E+04  0.7818608E-02  0.9171064E-01
         -2   -1    0    0    0  501 -0.00000000000E+00  0.00000000000E+00  0.12824300051E+04  0.12824300051E+04  0.00000000000E+00 0.  1.
          2   -1    0    0  501    0  0.00000000000E+00 -0.00000000000E+00 -0.10215439800E+04  0.10215439800E+04  0.00000000000E+00 0. -1.
         23    2    1    2    0    0  0.31896362825E+03 -0.25571300577E+02  0.47007328468E+03  0.57323795950E+03  0.72395978350E+02 0.  0.
    9900016    2    1    2    0    0 -0.16911421537E+02 -0.17745526420E+03 -0.96241424849E+02  0.73243248798E+03  0.70385976630E+03 0.  0.
         23    2    4    4    0    0 -0.15780008989E+03  0.15945541839E+03  0.15635600490E+03  0.28840108545E+03  0.91657443759E+02 0.  0.
        -15    1    3    3    0    0  0.26457653227E+03 -0.19442751066E+02  0.33377911994E+03  0.42636517553E+03  0.00000000000E+00 0. -1.
        -15    1    5    5    0    0 -0.39788885662E+02 -0.47994149996E+01  0.24978933271E+02  0.47224325447E+02  0.00000000000E+00 0. -1.
         15    1    5    5    0    0 -0.11801120423E+03  0.16425483339E+03  0.13137707163E+03  0.24117676000E+03  0.00000000000E+00 0.  1.
         15    1    3    3    0    0  0.54387095977E+02 -0.61285495116E+01  0.13629416474E+03  0.14687278397E+03  0.00000000000E+00 0.  1.
        -16    1    1    2    0    0 -0.36654740194E+03  0.53109849157E+03 -0.70277621285E+02  0.64912367826E+03  0.00000000000E+00 0.  1.
         16    1    4    4    0    0  0.14088866836E+03 -0.33691068259E+03 -0.25259742975E+03  0.44403140253E+03  0.00000000000E+00 0. -1.
    9900018    1    1    2    0    0  0.64495195229E+02 -0.32807192679E+03 -0.42668213489E+02  0.34917985938E+03  0.91187600000E+02 0.  0.
<mgrwt>
<rscale>  0 0.11357154E+04</rscale>
<asrwt>0</asrwt>
<pdfrwt beam="1">  1        2 0.15716061E+00 0.17180477E+04</pdfrwt>
<pdfrwt beam="2">  1       -2 0.19729692E+00 0.17180477E+04</pdfrwt>
<totfact> 0.31629020E+00</totfact>
</mgrwt>
</event>
<event>
11    1  0.2616400E-013  0.1424741E+04  0.7818608E-02  0.9543108E-01
          1   -1    0    0  501    0  0.00000000000E+00  0.00000000000E+00  0.89884025366E+03  0.89884025366E+03  0.00000000000E+00 0. -1.
         -1   -1    0    0    0  501 -0.00000000000E+00 -0.00000000000E+00 -0.74237513906E+03  0.74237513906E+03  0.00000000000E+00 0.  1.
    9900016    2    1    2    0    0 -0.12952070863E+03 -0.17086000461E+02  0.23997831575E+03  0.76309894830E+03  0.71250464383E+03 0.  0.
         23    2    3    3    0    0 -0.12146114002E+03  0.32488767566E+03  0.21910974931E+03  0.42039433953E+03  0.91746978900E+02 0.  0.
        -15    1    1    2    0    0 -0.34491408682E+02  0.32642954728E+02 -0.15458144224E+01  0.47514306355E+02  0.00000000000E+00 0. -1.
        -15    1    4    4    0    0 -0.40248971204E+02  0.19203487524E+03  0.81031268228E+02  0.21228150984E+03  0.00000000000E+00 0.  1.
         15    1    1    2    0    0 -0.73774308843E+01 -0.83752632524E+02 -0.11558400760E+03  0.14292862818E+03  0.00000000000E+00 0.  1.
         15    1    4    4    0    0 -0.81212168815E+02  0.13285280042E+03  0.13807848108E+03  0.20811282969E+03  0.00000000000E+00 0. -1.
        -16    1    1    2    0    0  0.40977380306E+03 -0.23258720533E+02 -0.21546052751E+02  0.41099850382E+03  0.00000000000E+00 0.  1.
         16    1    3    3    0    0 -0.80595686124E+01 -0.34197367612E+03  0.20868566444E+02  0.34270460877E+03  0.00000000000E+00 0. -1.
    9900018    1    1    2    0    0 -0.23838425486E+03  0.91454398791E+02  0.55162673622E+02  0.27667500606E+03  0.91187600000E+02 0.  0.
<mgrwt>
<rscale>  0 0.81178889E+03</rscale>
<asrwt>0</asrwt>
<pdfrwt beam="1">  1        1 0.13828312E+00 0.14247409E+04</pdfrwt>
<pdfrwt beam="2">  1       -1 0.11421156E+00 0.14247409E+04</pdfrwt>
<totfact> 0.12336857E+01</totfact>
</mgrwt>
</event>
<event>
12    1  0.2616400E-013  0.1152429E+04  0.7818608E-02  0.9448707E-01
         -2   -1    0    0    0  501 -0.00000000000E+00  0.00000000000E+00  0.24860840698E+03  0.24860840698E+03  0.00000000000E+00 0.  1.
          2   -1    0    0  501    0  0.00000000000E+00 -0.00000000000E+00 -0.24090529917E+04  0.24090529917E+04  0.00000000000E+00 0. -1.
         23    2    1    2    0    0  0.23032854539E+03  0.31140193094E+03 -0.57928866049E+03  0.70109610730E+03  0.77058407009E+02 0.  0.
    9900016    2    1    2    0    0 -0.20803324519E+03 -0.20112414119E+03 -0.12525872195E+04  0.14712482202E+04  0.71544939129E+03 0.  0.
         23    2    4    4    0    0  0.25524895836E+03 -0.12275711727E+03 -0.56097711603E+03  0.63512841663E+03  0.92040427648E+02 0.  0.
        -15    1    5    5    0    0  0.17643178073E+03 -0.93211592467E+02 -0.47301669471E+03  0.51338228222E+03  0.00000000000E+00 0. -1.
        -15    1    3    3    0    0  0.62342331820E+02  0.12994461664E+03 -0.16961528222E+03  0.22257923015E+03  0.00000000000E+00 0.  1.
         15    1    5    5    0    0  0.78817177637E+02 -0.29545524806E+02 -0.87960421316E+02  0.12174613441E+03  0.00000000000E+00 0.  1.
         15    1    3    3    0    0  0.16798621357E+03  0.18145731430E+03 -0.40967337826E+03  0.47851687715E+03  0.00000000000E+00 0. -1.
        -16    1    4    4    0    0 -0.46328220356E+03 -0.78367023918E+02 -0.69161010352E+03  0.83611980353E+03  0.00000000000E+00 0.  1.
         16    1    1    2    0    0 -0.13543256126E+03 -0.15279935952E+03 -0.21108463461E+03  0.29367728187E+03  0.00000000000E+00 0. -1.
    9900018    1    1    2    0    0  0.11313726107E+03  0.42521569772E+02 -0.11748407006E+03  0.19163978932E+03  0.91187600000E+02 0.  0.
<mgrwt>
<rscale>  0 0.88173394E+03</rscale>
<asrwt>0</asrwt>
<pdfrwt beam="1">  1        2 0.37062354E+00 0.11524295E+04</pdfrwt>
<pdfrwt beam="2">  1       -2 0.38247447E-01 0.11524295E+04</pdfrwt>
<totfact> 0.25233190E+01</totfact>
</mgrwt>
</event>
<event>
12    1  0.2616400E-013  0.2013729E+04  0.7818608E-02  0.9005084E-01
          2   -1    0    0  501    0  0.00000000000E+00  0.00000000000E+00  0.18621718320E+04  0.18621718320E+04  0.00000000000E+00 0.  1.
         -2   -1    0    0    0  501 -0.00000000000E+00 -0.00000000000E+00 -0.77357145150E+03  0.77357145150E+03  0.00000000000E+00 0. -1.
         23    2    1    2    0    0 -0.26050884487E+03  0.26108043733E+03  0.21466098454E+03  0.44055019539E+03  0.10944077559E+03 0.  0.
    9900016    2    1    2    0    0 -0.17930006333E+03 -0.20524060374E+03  0.70301895843E+03  0.10336559728E+04  0.70706208784E+03 0.  0.
         23    2    4    4    0    0  0.15383305927E+03  0.15491311820E+03  0.98769380185E+02  0.25532061217E+03  0.88150667722E+02 0.  0.
        -15    1    3    3    0    0 -0.23599814124E+03  0.20832607022E+03  0.13648856500E+03  0.34310931578E+03  0.00000000000E+00 0.  1.
        -15    1    5    5    0    0  0.13582863236E+03  0.81366836119E+02  0.53642799939E+02  0.16717514580E+03  0.00000000000E+00 0.  1.
         15    1    5    5    0    0  0.18004426916E+02  0.73546282080E+02  0.45126580247E+02  0.88145466367E+02  0.00000000000E+00 0. -1.
         15    1    3    3    0    0 -0.24510703634E+02  0.52754367113E+02  0.78172419539E+02  0.97440879608E+02  0.00000000000E+00 0. -1.
        -16    1    4    4    0    0 -0.33313312261E+03 -0.36015372194E+03  0.60424957824E+03  0.77833536063E+03  0.00000000000E+00 0.  1.
         16    1    1    2    0    0  0.75137497635E+03  0.14564365262E+02 -0.64668453306E+02  0.75429336777E+03  0.00000000000E+00 0. -1.
    9900018    1    1    2    0    0 -0.31156606814E+03 -0.70404198846E+02  0.23558889086E+03  0.40724374756E+03  0.91187600000E+02 0.  0.
<mgrwt>
<rscale>  0 0.13313287E+04</rscale>
<asrwt>0</asrwt>
<pdfrwt beam="1">  1        2 0.28648797E+00 0.20137285E+04</pdfrwt>
<pdfrwt beam="2">  1       -2 0.11901099E+00 0.20137285E+04</pdfrwt>
<totfact> 0.39647364E+00</totfact>
</mgrwt>
</event>
<event>
12    1  0.2616400E-013  0.1961601E+04  0.7818608E-02  0.8981879E-01
         -2   -1    0    0    0  501 -0.00000000000E+00  0.00000000000E+00  0.82939658156E+03  0.82939658156E+03  0.00000000000E+00 0. -1.
          2   -1    0    0  501    0  0.00000000000E+00 -0.00000000000E+00 -0.17637864176E+04  0.17637864176E+04  0.00000000000E+00 0.  1.
         23    2    1    2    0    0  0.31532581432E+03  0.30408569847E+03 -0.13925426437E+03  0.47655346260E+03  0.12574963769E+03 0.  0.
    9900016    2    1    2    0    0 -0.11328554056E+03  0.59608450354E+02 -0.40496633936E+03  0.80969862130E+03  0.68936734784E+03 0.  0.
         23    2    4    4    0    0 -0.24987968234E+01 -0.27903676617E+03 -0.33721988732E+03  0.44700885438E+03  0.90729833172E+02 0.  0.
        -15    1    5    5    0    0  0.24648766574E+02 -0.95848190294E+02 -0.17390912370E+03  0.20009702792E+03  0.00000000000E+00 0. -1.
        -15    1    3    3    0    0  0.22146774249E+03  0.13219557342E+03 -0.10108374411E+03  0.27702265958E+03  0.00000000000E+00 0.  1.
         15    1    5    5    0    0 -0.27147563398E+02 -0.18318857588E+03 -0.16331076362E+03  0.24691182646E+03  0.00000000000E+00 0.  1.
         15    1    3    3    0    0  0.93858071825E+02  0.17189012505E+03 -0.38170520257E+02  0.19953080302E+03  0.00000000000E+00 0. -1.
        -16    1    1    2    0    0 -0.23030512359E+03  0.39399185655E+03 -0.16321594029E+02  0.45665788881E+03  0.00000000000E+00 0.  1.
         16    1    4    4    0    0 -0.11078674374E+03  0.33864521653E+03 -0.67746452045E+02  0.36268976692E+03  0.00000000000E+00 0. -1.
    9900018    1    1    2    0    0  0.28264849835E+02 -0.75768600538E+03 -0.37384763829E+03  0.85027302647E+03  0.91187600000E+02 0.  0.
<mgrwt>
<rscale>  0 0.13618856E+04</rscale>
<asrwt>0</asrwt>
<pdfrwt beam="1">  1        2 0.27135176E+00 0.19616014E+04</pdfrwt>
<pdfrwt beam="2">  1       -2 0.12759947E+00 0.19616014E+04</pdfrwt>
<totfact> 0.37848775E+00</totfact>
</mgrwt>
</event>
<event>
12    1  0.2616400E-013  0.1104257E+04  0.7818608E-02  0.9619324E-01
         -1   -1    0    0    0  501 -0.00000000000E+00  0.00000000000E+00  0.72351170054E+03  0.72351170054E+03  0.00000000000E+00 0.  1.
          1   -1    0    0  501    0  0.00000000000E+00 -0.00000000000E+00 -0.82300428841E+03  0.82300428841E+03  0.00000000000E+00 0. -1.
         23    2    1    2    0    0  0.16810159376E+03  0.16476022450E+03 -0.33551316004E+03  0.41731705706E+03  0.78615317585E+02 0.  0.
    9900016    2    1    2    0    0 -0.47852361844E+02 -0.24670221674E+03  0.20946053019E+03  0.78485954685E+03  0.71342761531E+03 0.  0.
         23    2    4    4    0    0 -0.27700020010E+02 -0.46025276813E+03  0.29374270101E+03  0.55439601568E+03  0.92034048766E+02 0.  0.
        -15    1    3    3    0    0  0.79500105962E+02  0.13029915425E+03 -0.21892168159E+03  0.26687982148E+03  0.00000000000E+00 0.  1.
        -15    1    5    5    0    0 -0.15058601646E+02 -0.39845215427E+03  0.21340541114E+03  0.45225297150E+03  0.00000000000E+00 0.  1.
         15    1    3    3    0    0  0.88601487794E+02  0.34461070247E+02 -0.11659147845E+03  0.15043723558E+03  0.00000000000E+00 0. -1.
         15    1    5    5    0    0 -0.12641418364E+02 -0.61800613858E+02  0.80337289877E+02  0.10214304419E+03  0.00000000000E+00 0. -1.
        -16    1    1    2    0    0 -0.20727515994E+03  0.49524199987E+02  0.13585268486E+02  0.21354202825E+03  0.00000000000E+00 0.  1.
         16    1    4    4    0    0 -0.20152341834E+02  0.21355055138E+03 -0.84282170819E+02  0.23046353116E+03  0.00000000000E+00 0. -1.
    9900018    1    1    2    0    0  0.87025928023E+02  0.32417792259E+02  0.12974773487E+02  0.13079735679E+03  0.91187600000E+02 0.  0.
<mgrwt>
<rscale>  0 0.76030288E+03</rscale>
<asrwt>0</asrwt>
<pdfrwt beam="1">  1        1 0.12661604E+00 0.11042575E+04</pdfrwt>
<pdfrwt beam="2">  1       -1 0.11130949E+00 0.11042575E+04</pdfrwt>
<totfact> 0.15567576E+01</totfact>
</mgrwt>
</event>
<event>
12    1  0.2616400E-013  0.1232613E+04  0.7818608E-02  0.9433942E-01
          1   -1    0    0  501    0  0.00000000000E+00  0.00000000000E+00  0.14073099572E+04  0.14073099572E+04  0.00000000000E+00 0. -1.
         -1   -1    0    0    0  501 -0.00000000000E+00 -0.00000000000E+00 -0.46111530616E+03  0.46111530616E+03  0.00000000000E+00 0.  1.
         23    2    1    2    0    0  0.52914602985E+02  0.32702276629E+03  0.48415552594E+02  0.34351799596E+03  0.76920107457E+02 0.  0.
    9900016    2    1    2    0    0  0.59384114282E+02 -0.31131195896E+03  0.50538636159E+03  0.94704719815E+03  0.73555517279E+03 0.  0.
         23    2    4    4    0    0 -0.32113182818E+03 -0.85757366205E+02  0.30786937622E+03  0.46260915640E+03  0.93507763572E+02 0.  0.
        -15    1    5    5    0    0 -0.67263768298E+02  0.73791705796E+01  0.27379624150E+02  0.72996647201E+02  0.00000000000E+00 0.  1.
        -15    1    3    3    0    0  0.18139670587E+02  0.25210464932E+03  0.11416441462E+02  0.25301410434E+03  0.00000000000E+00 0.  1.
         15    1    5    5    0    0 -0.25386805988E+03 -0.93136536785E+02  0.28048975207E+03  0.38961250920E+03  0.00000000000E+00 0. -1.
         15    1    3    3    0    0  0.34774932398E+02  0.74918116974E+02  0.36999111132E+02  0.90503891623E+02  0.00000000000E+00 0. -1.
        -16    1    1    2    0    0  0.10949703685E+03 -0.10832202694E+03  0.80866624737E+02  0.17396170152E+03  0.00000000000E+00 0.  1.
         16    1    4    4    0    0  0.38051594246E+03 -0.22555459276E+03  0.19751698537E+03  0.48443804175E+03  0.00000000000E+00 0. -1.
    9900018    1    1    2    0    0 -0.22179575412E+03  0.92611219609E+02  0.31152611216E+03  0.40389836778E+03  0.91187600000E+02 0.  0.
<mgrwt>
<rscale>  0 0.89334296E+03</rscale>
<asrwt>0</asrwt>
<pdfrwt beam="1">  1        1 0.21650922E+00 0.12326130E+04</pdfrwt>
<pdfrwt beam="2">  1       -1 0.70940817E-01 0.12326130E+04</pdfrwt>
<totfact> 0.15000826E+01</totfact>
</mgrwt>
</event>
