<event>
11    1  0.3433674E-011  0.1040987E+04  0.7818608E-02  0.9264700E-01
          1   -1    0    0  501    0  0.00000000000E+00  0.00000000000E+00  0.38323264255E+03  0.38323264255E+03  0.00000000000E+00 0. -1.
         -1   -1    0    0    0  501 -0.00000000000E+00 -0.00000000000E+00 -0.70691600148E+03  0.70691600148E+03  0.00000000000E+00 0.  1.
    9900016    2    1    2    0    0 -0.82271398108E+02 -0.23135930236E+03 -0.93620425319E+02  0.75365991739E+03  0.70635881626E+03 0.  0.
         23    2    3    3    0    0 -0.59414398625E+02  0.93332818684E+02 -0.10897004235E+03  0.17984088485E+03  0.90703847364E+02 0.  0.
        -15    1    4    4    0    0  0.11491262306E+02  0.14588026623E+02  0.14273266061E+01  0.18625168224E+02  0.00000000000E+00 0. -1.
        -15    1    4    4    0    0 -0.20429631517E+02  0.23792152810E+02 -0.69763439210E+01  0.32126402751E+02  0.00000000000E+00 0.  1.
         15    1    4    4    0    0 -0.26869419249E+01  0.13866338882E+02 -0.21649399125E+02  0.25849400252E+02  0.00000000000E+00 0. -1.
         15    1    4    4    0    0 -0.47789087489E+02  0.41086300369E+02 -0.81771625908E+02  0.10323991362E+03  0.00000000000E+00 0.  1.
        -16    1    1    2    0    0  0.82271398108E+02  0.23135930236E+03 -0.23006293362E+03  0.33648872664E+03  0.00000000000E+00 0.  1.
         16    1    3    3    0    0 -0.29375612134E+02 -0.14115851073E+03 -0.21914500217E+03  0.26232267099E+03  0.00000000000E+00 0. -1.
    9900018    1    3    3    0    0  0.65186126511E+01 -0.18353361031E+03  0.23449461920E+03  0.31149636154E+03  0.91187600000E+02 0.  0.
<mgrwt>
<rscale>  0 0.10409866E+04</rscale>
<asrwt>0</asrwt>
<pdfrwt beam="1">  1        1 0.58958868E-01 0.10409866E+04</pdfrwt>
<pdfrwt beam="2">  1       -1 0.10875631E+00 0.10409866E+04</pdfrwt>
<totfact> 0.49830855E+01</totfact>
</mgrwt>
</event>
<event>
11    1  0.3433674E-011  0.7765559E+03  0.7818608E-02  0.9594585E-01
         -1   -1    0    0    0  501 -0.00000000000E+00  0.00000000000E+00  0.38175893509E+03  0.38175893509E+03  0.00000000000E+00 0.  1.
          1   -1    0    0  501    0  0.00000000000E+00 -0.00000000000E+00 -0.39490833603E+03  0.39490833603E+03  0.00000000000E+00 0. -1.
    9900016    2    1    2    0    0  0.29960602085E+02  0.57047109676E+02 -0.13715379968E+02  0.71222869004E+03  0.70917528501E+03 0.  0.
         23    2    3    3    0    0  0.45816353728E+02 -0.19976426516E+02  0.22750969476E+03  0.24945963055E+03  0.89281858051E+02 0.  0.
        -15    1    4    4    0    0 -0.16309081715E+02  0.11681184690E+02  0.82017506256E+02  0.84435226976E+02  0.00000000000E+00 0. -1.
        -15    1    4    4    0    0  0.54395375162E+01 -0.87178188051E+01  0.19533422566E+02  0.22071328240E+02  0.00000000000E+00 0. -1.
         15    1    4    4    0    0  0.39433297978E+02 -0.21581826091E+02  0.61285776411E+02  0.76004648523E+02  0.00000000000E+00 0.  1.
         15    1    4    4    0    0  0.17252599949E+02 -0.13579663111E+01  0.64672989530E+02  0.66948426809E+02  0.00000000000E+00 0.  1.
        -16    1    1    2    0    0 -0.29960602085E+02 -0.57047109676E+02  0.56597902323E+00  0.64438581082E+02  0.00000000000E+00 0.  1.
         16    1    3    3    0    0  0.53785432640E+02 -0.13041986579E+03 -0.27797788712E+02  0.14378779925E+03  0.00000000000E+00 0. -1.
    9900018    1    3    3    0    0 -0.69641184284E+02  0.20744340198E+03 -0.21342728602E+03  0.31898126024E+03  0.91187600000E+02 0.  0.
<mgrwt>
<rscale>  0 0.77655595E+03</rscale>
<asrwt>0</asrwt>
<pdfrwt beam="1">  1        1 0.60755128E-01 0.77655595E+03</pdfrwt>
<pdfrwt beam="2">  1       -1 0.58732144E-01 0.77655595E+03</pdfrwt>
<totfact> 0.18159517E+02</totfact>
</mgrwt>
</event>
<event>
11    1  0.3433674E-011  0.1408857E+04  0.7818608E-02  0.8947432E-01
          2   -1    0    0  501    0  0.00000000000E+00  0.00000000000E+00  0.27344867675E+04  0.27344867675E+04  0.00000000000E+00 0.  1.
         -2   -1    0    0    0  501 -0.00000000000E+00 -0.00000000000E+00 -0.18146721331E+03  0.18146721331E+03  0.00000000000E+00 0. -1.
    9900016    2    1    2    0    0  0.29362659837E+03  0.44562191935E+03  0.14361475624E+04  0.16781339130E+04  0.68470295359E+03 0.  0.
         23    2    3    3    0    0  0.27108786644E+02 -0.87968419750E+02  0.15139553935E+03  0.20134802185E+03  0.95640406625E+02 0.  0.
        -15    1    4    4    0    0  0.61112512411E+01 -0.23737093968E+02  0.77477393223E+02  0.81262189746E+02  0.00000000000E+00 0.  1.
        -15    1    4    4    0    0  0.39760740892E+02 -0.34038107765E+02  0.23304583517E+02  0.57294091401E+02  0.00000000000E+00 0. -1.
         15    1    4    4    0    0 -0.15760022125E+01 -0.12055343180E+02  0.15678257419E+02  0.19839930389E+02  0.00000000000E+00 0. -1.
         15    1    4    4    0    0 -0.17187203276E+02 -0.18137874837E+02  0.34935305193E+02  0.42951810311E+02  0.00000000000E+00 0.  1.
        -16    1    1    2    0    0 -0.29362659837E+03 -0.44562191935E+03  0.11168719918E+04  0.12378200678E+04  0.00000000000E+00 0.  1.
         16    1    3    3    0    0 -0.14799891624E+02  0.19958420465E+03  0.12946190120E+03  0.23835535530E+03  0.00000000000E+00 0. -1.
    9900018    1    3    3    0    0  0.28131770335E+03  0.33400613445E+03  0.11552901219E+04  0.12384305359E+04  0.91187600000E+02 0.  0.
<mgrwt>
<rscale>  0 0.14088573E+04</rscale>
<asrwt>0</asrwt>
<pdfrwt beam="1">  1        2 0.42069024E+00 0.14088573E+04</pdfrwt>
<pdfrwt beam="2">  1       -2 0.27918035E-01 0.14088573E+04</pdfrwt>
<totfact> 0.29038443E+01</totfact>
</mgrwt>
</event>
<event>
11    1  0.3433674E-011  0.1693564E+04  0.7818608E-02  0.8765043E-01
          2   -1    0    0  501    0  0.00000000000E+00  0.00000000000E+00  0.10103501152E+04  0.10103501152E+04  0.00000000000E+00 0. -1.
         -2   -1    0    0    0  501 -0.00000000000E+00 -0.00000000000E+00 -0.70969451735E+03  0.70969451735E+03  0.00000000000E+00 0.  1.
    9900016    2    1    2    0    0 -0.65406345616E+03 -0.19654826723E+03  0.31903990497E+03  0.10368402643E+04  0.71191365116E+03 0.  0.
         23    2    3    3    0    0  0.42764947963E+02  0.91751376457E+02  0.21896954604E+03  0.25747308864E+03  0.89986518013E+02 0.  0.
        -15    1    4    4    0    0  0.74647449120E+01  0.16454092155E+02  0.11159620501E+02  0.21236682768E+02  0.00000000000E+00 0.  1.
        -15    1    4    4    0    0  0.18897148071E+02  0.20742047875E+01  0.94495673451E+02  0.96388987087E+02  0.00000000000E+00 0.  1.
         15    1    4    4    0    0  0.16283706798E+02  0.59701128776E+02  0.10953526672E+03  0.12580683026E+03  0.00000000000E+00 0. -1.
         15    1    4    4    0    0  0.11934818151E+00  0.13521950738E+02  0.37789853696E+01  0.14040588527E+02  0.00000000000E+00 0. -1.
        -16    1    1    2    0    0  0.65406345616E+03  0.19654826723E+03 -0.18384307116E+02  0.68320436824E+03  0.00000000000E+00 0.  1.
         16    1    3    3    0    0 -0.41017298031E+03 -0.20380883105E+03  0.28991448785E+02  0.45893400124E+03  0.00000000000E+00 0. -1.
    9900018    1    3    3    0    0 -0.28665542381E+03 -0.84490812638E+02  0.71078910141E+02  0.32043317444E+03  0.91187600000E+02 0.  0.
<mgrwt>
<rscale>  0 0.16935642E+04</rscale>
<asrwt>0</asrwt>
<pdfrwt beam="1">  1        2 0.15543848E+00 0.16935642E+04</pdfrwt>
<pdfrwt beam="2">  1       -2 0.10918377E+00 0.16935642E+04</pdfrwt>
<totfact> 0.15800811E+01</totfact>
</mgrwt>
</event>
<event>
11    1  0.3433674E-011  0.1461499E+04  0.7818608E-02  0.8910467E-01
          1   -1    0    0  501    0  0.00000000000E+00  0.00000000000E+00  0.36731476267E+03  0.36731476267E+03  0.00000000000E+00 0. -1.
         -1   -1    0    0    0  501 -0.00000000000E+00 -0.00000000000E+00 -0.14537806109E+04  0.14537806109E+04  0.00000000000E+00 0.  1.
    9900016    2    1    2    0    0 -0.15539690779E+03  0.34432886267E+03 -0.11755293382E+04  0.14329679848E+04  0.72719836082E+03 0.  0.
         23    2    3    3    0    0  0.18111087385E+03 -0.73836799585E+02 -0.16065768027E+03  0.26886437617E+03  0.90687049464E+02 0.  0.
        -15    1    4    4    0    0  0.97734472642E+01 -0.12917964130E+02 -0.10873837795E+02  0.19509854358E+02  0.00000000000E+00 0.  1.
        -15    1    4    4    0    0  0.41155212767E+02 -0.26777531427E+02 -0.12701275288E+02  0.50715975010E+02  0.00000000000E+00 0. -1.
         15    1    4    4    0    0  0.35212602904E+01 -0.14462320038E+02 -0.20765221137E+02  0.25549019233E+02  0.00000000000E+00 0. -1.
         15    1    4    4    0    0  0.12666095353E+03 -0.19678983990E+02 -0.11631734605E+03  0.17308952757E+03  0.00000000000E+00 0.  1.
        -16    1    3    3    0    0 -0.24544093412E+03  0.27185595483E+03 -0.55918086938E+03  0.66845355635E+03  0.00000000000E+00 0.  1.
         16    1    1    2    0    0  0.15539690779E+03 -0.34432886267E+03  0.89063489982E+02  0.38812738871E+03  0.00000000000E+00 0. -1.
    9900018    1    3    3    0    0 -0.91066847529E+02  0.14630970743E+03 -0.45569078852E+03  0.49565005230E+03  0.91187600000E+02 0.  0.
<mgrwt>
<rscale>  0 0.14614993E+04</rscale>
<asrwt>0</asrwt>
<pdfrwt beam="1">  1        1 0.56509963E-01 0.14614993E+04</pdfrwt>
<pdfrwt beam="2">  1       -1 0.22365856E+00 0.14614993E+04</pdfrwt>
<totfact> 0.67830865E+00</totfact>
</mgrwt>
</event>
<event>
11    1  0.3433674E-011  0.1156051E+04  0.7818608E-02  0.9152219E-01
          2   -1    0    0  501    0  0.00000000000E+00  0.00000000000E+00  0.27526012625E+03  0.27526012625E+03  0.00000000000E+00 0. -1.
         -2   -1    0    0    0  501 -0.00000000000E+00 -0.00000000000E+00 -0.12138096426E+04  0.12138096426E+04  0.00000000000E+00 0.  1.
    9900016    2    1    2    0    0  0.40263283036E+02 -0.13705732051E+03 -0.22383267786E+03  0.76021724585E+03  0.71233654415E+03 0.  0.
         23    2    3    3    0    0  0.38388092942E+01  0.11479010221E+03 -0.28332919218E+03  0.31854883016E+03  0.89478612145E+02 0.  0.
        -15    1    4    4    0    0  0.24712278206E+01  0.14700868591E+02 -0.34992949371E+02  0.38035891076E+02  0.00000000000E+00 0. -1.
        -15    1    4    4    0    0 -0.28928600947E+02  0.73432005245E+02 -0.11069193769E+03  0.13594788861E+03  0.00000000000E+00 0. -1.
         15    1    4    4    0    0  0.14422725373E+02  0.23449835152E+02 -0.76131564820E+02  0.80956314996E+02  0.00000000000E+00 0.  1.
         15    1    4    4    0    0  0.15873457047E+02  0.32073932199E+01 -0.61512740306E+02  0.63608735484E+02  0.00000000000E+00 0.  1.
        -16    1    1    2    0    0 -0.40263283036E+02  0.13705732051E+03 -0.71471683845E+03  0.72885252296E+03  0.00000000000E+00 0.  1.
         16    1    3    3    0    0  0.24145397582E+02 -0.27689024873E+03 -0.64419718680E+02  0.28530879801E+03  0.00000000000E+00 0. -1.
    9900018    1    3    3    0    0  0.12279076159E+02  0.25042826008E+02  0.12391623300E+03  0.15635961768E+03  0.91187600000E+02 0.  0.
<mgrwt>
<rscale>  0 0.11560509E+04</rscale>
<asrwt>0</asrwt>
<pdfrwt beam="1">  1        2 0.42347712E-01 0.11560509E+04</pdfrwt>
<pdfrwt beam="2">  1       -2 0.18673994E+00 0.11560509E+04</pdfrwt>
<totfact> 0.19483106E+01</totfact>
</mgrwt>
</event>
<event>
11    1  0.3433675E-011  0.2049532E+04  0.7818608E-02  0.8583807E-01
          1   -1    0    0  501    0  0.00000000000E+00  0.00000000000E+00  0.90588443567E+03  0.90588443567E+03  0.00000000000E+00 0. -1.
         -1   -1    0    0    0  501 -0.00000000000E+00 -0.00000000000E+00 -0.11592483070E+04  0.11592483070E+04  0.00000000000E+00 0.  1.
    9900016    2    1    2    0    0 -0.68498550465E+02  0.21625222826E+03  0.73892240534E+03  0.10472481065E+04  0.70658700657E+03 0.  0.
         23    2    3    3    0    0 -0.77658162882E+02 -0.66695274545E+02 -0.90718852756E+02  0.16406159042E+03  0.90593848003E+02 0.  0.
        -15    1    4    4    0    0 -0.68050961325E+01 -0.13746734851E+02 -0.73729381105E+01  0.17018879775E+02  0.00000000000E+00 0. -1.
        -15    1    4    4    0    0 -0.49214503529E+02 -0.11146126708E+02 -0.80059240575E+02  0.94635012018E+02  0.00000000000E+00 0. -1.
         15    1    4    4    0    0 -0.24663363760E+02 -0.25046346900E+02 -0.39200754937E+01  0.35369025953E+02  0.00000000000E+00 0.  1.
         15    1    4    4    0    0  0.30248005396E+01 -0.16756066087E+02  0.63340142338E+00  0.17038672671E+02  0.00000000000E+00 0.  1.
        -16    1    1    2    0    0  0.68498550465E+02 -0.21625222826E+03 -0.99228627669E+03  0.10178846362E+04  0.00000000000E+00 0.  1.
         16    1    3    3    0    0  0.12821285436E+02  0.37640447064E+02  0.14041784156E+03  0.14593957258E+03  0.00000000000E+00 0. -1.
    9900018    1    3    3    0    0 -0.36616730182E+01  0.24530705574E+03  0.68922341654E+03  0.73724694353E+03  0.91187600000E+02 0.  0.
<mgrwt>
<rscale>  0 0.20495317E+04</rscale>
<asrwt>0</asrwt>
<pdfrwt beam="1">  1        1 0.13936684E+00 0.20495317E+04</pdfrwt>
<pdfrwt beam="2">  1       -1 0.17834589E+00 0.20495317E+04</pdfrwt>
<totfact> 0.35554901E+00</totfact>
</mgrwt>
</event>
<event>
11    1  0.3433674E-011  0.1017599E+04  0.7818608E-02  0.9289450E-01
          1   -1    0    0  501    0  0.00000000000E+00  0.00000000000E+00  0.60503789934E+03  0.60503789934E+03  0.00000000000E+00 0. -1.
         -1   -1    0    0    0  501 -0.00000000000E+00 -0.00000000000E+00 -0.42786923076E+03  0.42786923076E+03  0.00000000000E+00 0.  1.
    9900016    2    1    2    0    0  0.82468499578E+02  0.16233565022E+03 -0.62041204417E+02  0.73228231393E+03  0.70656518418E+03 0.  0.
         23    2    3    3    0    0  0.92062678866E+02  0.13774257725E+03  0.27037130861E+03  0.33008238766E+03  0.91679788891E+02 0.  0.
        -15    1    4    4    0    0  0.60298038465E+02  0.27173386498E+02  0.11067723740E+03  0.12893291766E+03  0.00000000000E+00 0. -1.
        -15    1    4    4    0    0  0.18130419901E+02  0.44352175536E+02  0.48623553780E+02  0.68264760915E+02  0.00000000000E+00 0. -1.
         15    1    4    4    0    0  0.19322245092E+02  0.26347684509E+02  0.50395215795E+02  0.60060198213E+02  0.00000000000E+00 0.  1.
         15    1    4    4    0    0 -0.56880245912E+01  0.39869330710E+02  0.60675301635E+02  0.72824510870E+02  0.00000000000E+00 0.  1.
        -16    1    3    3    0    0 -0.20781446820E+02  0.81263376090E+02 -0.45003517723E+02  0.95188872422E+02  0.00000000000E+00 0.  1.
         16    1    1    2    0    0 -0.82468499578E+02 -0.16233565022E+03  0.23920987300E+03  0.30062481617E+03  0.00000000000E+00 0. -1.
    9900018    1    3    3    0    0  0.11187267532E+02 -0.56670303120E+02 -0.28740899531E+03  0.30701105385E+03  0.91187600000E+02 0.  0.
<mgrwt>
<rscale>  0 0.10175993E+04</rscale>
<asrwt>0</asrwt>
<pdfrwt beam="1">  1        1 0.93082754E-01 0.10175993E+04</pdfrwt>
<pdfrwt beam="2">  1       -1 0.65826035E-01 0.10175993E+04</pdfrwt>
<totfact> 0.79299978E+01</totfact>
</mgrwt>
</event>
<event>
11    1  0.3433674E-011  0.7295172E+03  0.7818608E-02  0.9668044E-01
          2   -1    0    0  501    0  0.00000000000E+00  0.00000000000E+00  0.29392732184E+03  0.29392732184E+03  0.00000000000E+00 0.  1.
         -2   -1    0    0    0  501 -0.00000000000E+00 -0.00000000000E+00 -0.45265894977E+03  0.45265894977E+03  0.00000000000E+00 0. -1.
    9900016    2    1    2    0    0  0.29182788205E+01  0.16578519716E+02 -0.17630934977E+03  0.72224823610E+03  0.70019580409E+03 0.  0.
         23    2    3    3    0    0 -0.12052845194E+02 -0.13607413582E+03 -0.50791206322E+01  0.16425501294E+03  0.91063001778E+02 0.  0.
        -15    1    4    4    0    0 -0.26341911266E+00 -0.53662341018E+02  0.35575056231E+02  0.64384010896E+02  0.00000000000E+00 0.  1.
        -15    1    4    4    0    0 -0.10674001207E+02 -0.82495487108E+01 -0.72938043465E+01  0.15335870942E+02  0.00000000000E+00 0.  1.
         15    1    4    4    0    0  0.99138636097E+01 -0.43989090473E+02 -0.23957422346E+02  0.51061559492E+02  0.00000000000E+00 0. -1.
         15    1    4    4    0    0 -0.11029288484E+02 -0.30173155614E+02 -0.94029501705E+01  0.33473571606E+02  0.00000000000E+00 0. -1.
        -16    1    1    2    0    0 -0.29182788205E+01 -0.16578519716E+02  0.17577721849E+02  0.24338035513E+02  0.00000000000E+00 0.  1.
         16    1    3    3    0    0  0.58970807911E+02  0.10295243021E+03  0.16506895051E+03  0.20328432673E+03  0.00000000000E+00 0. -1.
    9900018    1    3    3    0    0 -0.43999683897E+02  0.49700225318E+02 -0.33629917965E+03  0.35470889643E+03  0.91187600000E+02 0.  0.
<mgrwt>
<rscale>  0 0.72951719E+03</rscale>
<asrwt>0</asrwt>
<pdfrwt beam="1">  1        2 0.45219588E-01 0.72951719E+03</pdfrwt>
<pdfrwt beam="2">  1       -2 0.69639838E-01 0.72951719E+03</pdfrwt>
<totfact> 0.21316171E+02</totfact>
</mgrwt>
</event>
<event>
11    1  0.3433674E-011  0.8772948E+03  0.7818608E-02  0.9454418E-01
         -2   -1    0    0    0  501 -0.00000000000E+00  0.00000000000E+00  0.60005804613E+02  0.60005804613E+02  0.00000000000E+00 0.  1.
          2   -1    0    0  501    0  0.00000000000E+00 -0.00000000000E+00 -0.32065490405E+04  0.32065490405E+04  0.00000000000E+00 0. -1.
    9900016    2    1    2    0    0 -0.11965099209E+03  0.94236198973E+02 -0.25414076671E+04  0.26425469303E+04  0.70788736920E+03 0.  0.
         23    2    3    3    0    0  0.30942728809E+02  0.26738753278E+03 -0.82437605199E+03  0.87286340107E+03  0.99202301770E+02 0.  0.
        -15    1    4    4    0    0  0.37261072046E+02  0.13200136455E+03 -0.35449509905E+03  0.38010462111E+03  0.00000000000E+00 0.  1.
        -15    1    4    4    0    0 -0.62138546780E+01  0.23581928369E+02 -0.47890550932E+02  0.53742201333E+02  0.00000000000E+00 0.  1.
         15    1    4    4    0    0 -0.10525474873E+02  0.10979816732E+03 -0.37801769290E+03  0.39378141057E+03  0.00000000000E+00 0. -1.
         15    1    4    4    0    0  0.10420986314E+02  0.20060725350E+01 -0.43972709109E+02  0.45235168057E+02  0.00000000000E+00 0. -1.
        -16    1    3    3    0    0 -0.21191749250E+03 -0.18633938655E+03 -0.14972107347E+04  0.15235719132E+04  0.00000000000E+00 0.  1.
         16    1    1    2    0    0  0.11965099209E+03 -0.94236198973E+02 -0.60513556882E+03  0.62400791482E+03  0.00000000000E+00 0. -1.
    9900018    1    3    3    0    0  0.61323771598E+02  0.13188052737E+02 -0.21982088040E+03  0.24611161605E+03  0.91187600000E+02 0.  0.
<mgrwt>
<rscale>  0 0.87729483E+03</rscale>
<asrwt>0</asrwt>
<pdfrwt beam="1">  1        2 0.49331542E+00 0.87729483E+03</pdfrwt>
<pdfrwt beam="2">  1       -2 0.92316588E-02 0.87729483E+03</pdfrwt>
<totfact> 0.10506014E+02</totfact>
</mgrwt>
</event>
<event>
11    1  0.3433674E-011  0.9685985E+03  0.7818608E-02  0.9343672E-01
         -2   -1    0    0    0  501 -0.00000000000E+00  0.00000000000E+00  0.37652701319E+03  0.37652701319E+03  0.00000000000E+00 0.  1.
          2   -1    0    0  501    0  0.00000000000E+00 -0.00000000000E+00 -0.62291882332E+03  0.62291882332E+03  0.00000000000E+00 0. -1.
    9900016    2    1    2    0    0 -0.19442456326E+03  0.37766194295E+02 -0.26619556750E+03  0.80039964831E+03  0.72839022552E+03 0.  0.
         23    2    3    3    0    0 -0.17446110771E+02  0.10231037198E+03 -0.35686974091E+03  0.38206193379E+03  0.88563707453E+02 0.  0.
        -15    1    4    4    0    0 -0.52448554681E+01  0.11528392334E+02 -0.55018496773E+02  0.56457482461E+02  0.00000000000E+00 0. -1.
        -15    1    4    4    0    0 -0.31188940305E+02  0.29140299984E+02 -0.13614151374E+03  0.14267592244E+03  0.00000000000E+00 0.  1.
         15    1    4    4    0    0  0.91156929874E+00  0.16499931380E+02 -0.99042348762E+02  0.10041148113E+03  0.00000000000E+00 0.  1.
         15    1    4    4    0    0  0.18076115704E+02  0.45141748281E+02 -0.66667381628E+02  0.82517047753E+02  0.00000000000E+00 0. -1.
        -16    1    1    2    0    0  0.19442456326E+03 -0.37766194295E+02  0.19803757361E+02  0.19904618820E+03  0.00000000000E+00 0.  1.
         16    1    3    3    0    0  0.38880487317E+02 -0.61503949974E+02  0.15847222691E+03  0.17437853898E+03  0.00000000000E+00 0. -1.
    9900018    1    3    3    0    0 -0.21585893981E+03 -0.30402277094E+01 -0.67798053499E+02  0.24395917554E+03  0.91187600000E+02 0.  0.
<mgrwt>
<rscale>  0 0.96859850E+03</rscale>
<asrwt>0</asrwt>
<pdfrwt beam="1">  1        2 0.95833664E-01 0.96859850E+03</pdfrwt>
<pdfrwt beam="2">  1       -2 0.57927234E-01 0.96859850E+03</pdfrwt>
<totfact> 0.13223477E+02</totfact>
</mgrwt>
</event>
<event>
11    1  0.3433674E-011  0.7642453E+03  0.7818608E-02  0.9613263E-01
         -1   -1    0    0    0  501 -0.00000000000E+00  0.00000000000E+00  0.10436699752E+03  0.10436699752E+03  0.00000000000E+00 0.  1.
          1   -1    0    0  501    0  0.00000000000E+00 -0.00000000000E+00 -0.13990795192E+04  0.13990795192E+04  0.00000000000E+00 0. -1.
    9900016    2    1    2    0    0 -0.19919784326E+02  0.36544401046E+02 -0.11442618259E+04  0.13473449379E+04  0.71012038724E+03 0.  0.
         23    2    3    3    0    0 -0.74429035762E+02 -0.17873784547E+03 -0.10058490553E+04  0.10285048994E+04  0.92752936567E+02 0.  0.
        -15    1    4    4    0    0 -0.42652206230E+02 -0.13928652082E+03 -0.87184305362E+03  0.88392887481E+03  0.00000000000E+00 0.  1.
        -15    1    4    4    0    0 -0.61309226339E+01 -0.86488055963E+01 -0.31399820332E+02  0.33141194418E+02  0.00000000000E+00 0. -1.
         15    1    4    4    0    0 -0.15135296788E+02 -0.72844937738E+01 -0.52067031677E+02  0.54709385357E+02  0.00000000000E+00 0.  1.
         15    1    4    4    0    0 -0.10510610110E+02 -0.23518025283E+02 -0.50539149656E+02  0.56725444785E+02  0.00000000000E+00 0. -1.
        -16    1    3    3    0    0 -0.20587354012E+02  0.86600413607E+02  0.10065906650E+02  0.89581210411E+02  0.00000000000E+00 0.  1.
         16    1    1    2    0    0  0.19919784326E+02 -0.36544401046E+02 -0.15045069574E+03  0.15610157880E+03  0.00000000000E+00 0. -1.
    9900018    1    3    3    0    0  0.75096605448E+02  0.12868183291E+03 -0.14847867731E+03  0.22925882814E+03  0.91187600000E+02 0.  0.
<mgrwt>
<rscale>  0 0.76424532E+03</rscale>
<asrwt>0</asrwt>
<pdfrwt beam="1">  1        1 0.21524299E+00 0.76424532E+03</pdfrwt>
<pdfrwt beam="2">  1       -1 0.16056462E-01 0.76424532E+03</pdfrwt>
<totfact> 0.23000627E+02</totfact>
</mgrwt>
</event>
