<event>
11    1  0.3300561E-012  0.2511164E+04  0.7818608E-02  0.9215989E-01
         -2   -1    0    0    0  501 -0.00000000000E+00  0.00000000000E+00  0.15697566968E+04  0.15697566968E+04  0.00000000000E+00 0.  1.
          2   -1    0    0  501    0  0.00000000000E+00 -0.00000000000E+00 -0.10877361418E+04  0.10877361418E+04  0.00000000000E+00 0. -1.
         24    2    1    2    0    0  0.12338600980E+02 -0.39476363794E+02 -0.31738181673E+02  0.94312868760E+02  0.78593769889E+02 0.  0.
    9900016    2    1    2    0    0 -0.11787342345E+03  0.51931701933E+03  0.69520116638E+03  0.20394376584E+04  0.18418515115E+04 0.  0.
        -15    1    3    3    0    0  0.14676538677E+02 -0.37957571785E+02  0.17998161621E+02  0.44498447895E+02  0.00000000000E+00 0.  1.
        -15    1    4    4    0    0  0.19282286004E+03 -0.29661698578E+02  0.10874796800E+03  0.22335306638E+03  0.00000000000E+00 0. -1.
         15    1    1    2    0    0  0.10553482247E+03 -0.47984065554E+03 -0.18144242979E+03  0.52374231143E+03  0.00000000000E+00 0. -1.
         15    1    4    4    0    0  0.50284298962E+03  0.51780195921E+01  0.78585521958E+02  0.50897305268E+03  0.00000000000E+00 0.  1.
        -16    1    4    4    0    0 -0.68226334594E+03  0.15042885035E+03  0.78157640798E+02  0.70300834209E+03  0.00000000000E+00 0.  1.
         16    1    3    3    0    0 -0.23379376970E+01 -0.15187920088E+01 -0.49736343294E+02  0.49814420865E+02  0.00000000000E+00 0. -1.
    9900018    1    4    4    0    0 -0.13127592718E+03  0.39337184797E+03  0.42971003562E+03  0.60410319726E+03  0.91187600000E+02 0.  0.
<mgrwt>
<rscale>  0 0.10889913E+04</rscale>
<asrwt>0</asrwt>
<pdfrwt beam="1">  1        2 0.16734402E+00 0.25111638E+04</pdfrwt>
<pdfrwt beam="2">  1       -2 0.24150103E+00 0.25111638E+04</pdfrwt>
<totfact> 0.14272073E+00</totfact>
</mgrwt>
</event>
<event>
12    1  0.3300561E-012  0.3869996E+04  0.7818608E-02  0.8031299E-01
         -1   -1    0    0    0  501 -0.00000000000E+00  0.00000000000E+00  0.20849661825E+04  0.20849661825E+04  0.00000000000E+00 0.  1.
          1   -1    0    0  501    0  0.00000000000E+00 -0.00000000000E+00 -0.17958167739E+04  0.17958167739E+04  0.00000000000E+00 0. -1.
         24    2    1    2    0    0 -0.92884639886E+03  0.65106150095E+03  0.38581516990E+03  0.12008603817E+04  0.81090075482E+02 0.  0.
    9900016    2    1    2    0    0  0.19649781695E+03 -0.57429823076E+03  0.78492426516E+02  0.19230160839E+04  0.18230194590E+04 0.  0.
         23    2    4    4    0    0 -0.16906957985E+03  0.29941826137E+03  0.15139810894E+03  0.39293613493E+03  0.11507215419E+03 0.  0.
        -15    1    3    3    0    0 -0.25955103876E+03  0.20989313605E+03  0.14429364308E+03  0.36365165436E+03  0.00000000000E+00 0.  1.
        -15    1    5    5    0    0 -0.46614437768E+02  0.33630208062E+02  0.67188297812E+02  0.88420382637E+02  0.00000000000E+00 0. -1.
         15    1    5    5    0    0 -0.12245514208E+03  0.26578805331E+03  0.84209811126E+02  0.30451575230E+03  0.00000000000E+00 0.  1.
         15    1    1    2    0    0  0.73234858191E+03 -0.76763270191E+02 -0.17515818788E+03  0.75690649083E+03  0.00000000000E+00 0. -1.
        -16    1    4    4    0    0  0.44604935006E+03 -0.10535434157E+04  0.22045781329E+03  0.11651246280E+04  0.00000000000E+00 0.  1.
         16    1    3    3    0    0 -0.66929536010E+03  0.44116836490E+03  0.24152152681E+03  0.83720872735E+03  0.00000000000E+00 0. -1.
    9900018    1    4    4    0    0 -0.80481953263E+02  0.17982692356E+03 -0.29336349571E+03  0.36495532089E+03  0.91187600000E+02 0.  0.
<mgrwt>
<rscale>  0 0.38699960E+04</rscale>
<asrwt>0</asrwt>
<pdfrwt beam="1">  1        1 0.27627950E+00 0.38699960E+04</pdfrwt>
<pdfrwt beam="2">  1       -1 0.32076403E+00 0.38699960E+04</pdfrwt>
<totfact> 0.78475733E-02</totfact>
</mgrwt>
</event>
<event>
12    1  0.3300561E-012  0.2215811E+04  0.7818608E-02  0.9156630E-01
         -2   -1    0    0    0  501 -0.00000000000E+00  0.00000000000E+00  0.14304723877E+04  0.14304723877E+04  0.00000000000E+00 0.  1.
          2   -1    0    0  501    0  0.00000000000E+00 -0.00000000000E+00 -0.99889002274E+03  0.99889002274E+03  0.00000000000E+00 0. -1.
         24    2    1    2    0    0 -0.11724660672E+03 -0.76316619950E+02  0.97193883987E+02  0.18846202390E+03  0.80624376590E+02 0.  0.
    9900016    2    1    2    0    0  0.43133841013E+03  0.12146343254E+03  0.22408289521E+03  0.19049551263E+04  0.18378886527E+04 0.  0.
         23    2    4    4    0    0 -0.27599245669E+02 -0.56465499450E+02 -0.44908364748E+03  0.46588010235E+03  0.10685539921E+03 0.  0.
        -15    1    5    5    0    0  0.76446135116E+01 -0.80495553135E+02 -0.27453065589E+03  0.28619059246E+03  0.00000000000E+00 0.  1.
        -15    1    3    3    0    0 -0.10195449792E+03 -0.44969443269E+02  0.10456908480E+03  0.15281251248E+03  0.00000000000E+00 0.  1.
         15    1    5    5    0    0 -0.35243859180E+02  0.24030053685E+02 -0.17455299159E+03  0.17968950989E+03  0.00000000000E+00 0. -1.
         15    1    1    2    0    0 -0.31409180341E+03 -0.45146812589E+02  0.11030558580E+03  0.33594526030E+03  0.00000000000E+00 0. -1.
        -16    1    4    4    0    0 -0.21210501875E+03  0.51825591175E+02  0.71633520145E+03  0.74887285417E+03  0.00000000000E+00 0.  1.
         16    1    3    3    0    0 -0.15292108799E+02 -0.31347176680E+02 -0.73752008172E+01  0.35649511419E+02  0.00000000000E+00 0. -1.
    9900018    1    4    4    0    0  0.67104267455E+03  0.12610334081E+03 -0.43168658764E+02  0.69020216975E+03  0.91187600000E+02 0.  0.
<mgrwt>
<rscale>  0 0.11512507E+04</rscale>
<asrwt>0</asrwt>
<pdfrwt beam="1">  1        2 0.15367539E+00 0.22158111E+04</pdfrwt>
<pdfrwt beam="2">  1       -2 0.22007267E+00 0.22158111E+04</pdfrwt>
<totfact> 0.22602104E+00</totfact>
</mgrwt>
</event>
<event>
12    1  0.3300561E-012  0.2545555E+04  0.7818608E-02  0.9026488E-01
         -1   -1    0    0    0  501 -0.00000000000E+00  0.00000000000E+00  0.60727585901E+03  0.60727585901E+03  0.00000000000E+00 0.  1.
          1   -1    0    0  501    0  0.00000000000E+00 -0.00000000000E+00 -0.32404612066E+04  0.32404612066E+04  0.00000000000E+00 0. -1.
        -24    2    1    2    0    0  0.13768845216E+03  0.74326978602E+02 -0.48906087077E+03  0.51950612038E+03  0.78888935796E+02 0.  0.
    9900016    2    1    2    0    0 -0.35790601168E+03  0.17693538170E+03 -0.23019316761E+04  0.29587290381E+04  0.18154297665E+04 0.  0.
         23    2    4    4    0    0  0.30352610404E+02  0.62005457962E+03 -0.97440467221E+02  0.63741007813E+03  0.10680824114E+03 0.  0.
        -15    1    5    5    0    0  0.27510182023E+02  0.48076448535E+03 -0.11999716321E+03  0.49627675713E+03  0.00000000000E+00 0. -1.
        -15    1    1    2    0    0  0.22021755951E+03 -0.25126236030E+03  0.15780719924E+03  0.36950190711E+03  0.00000000000E+00 0.  1.
         15    1    5    5    0    0  0.28424283814E+01  0.13929009427E+03  0.22556695990E+02  0.14113332099E+03  0.00000000000E+00 0.  1.
         15    1    3    3    0    0  0.14505830856E+03  0.76552856446E+02 -0.48168464306E+03  0.50884412945E+03  0.00000000000E+00 0. -1.
        -16    1    3    3    0    0 -0.73698563982E+01 -0.22258778440E+01 -0.73762277085E+01  0.10661990936E+02  0.00000000000E+00 0.  1.
         16    1    4    4    0    0 -0.30317144118E+03 -0.36844455409E+03 -0.99903227943E+03  0.11071268254E+04  0.00000000000E+00 0. -1.
    9900018    1    4    4    0    0 -0.85087180895E+02 -0.74674643832E+02 -0.12054589294E+04  0.12141921346E+04  0.91187600000E+02 0.  0.
<mgrwt>
<rscale>  0 0.13038869E+04</rscale>
<asrwt>0</asrwt>
<pdfrwt beam="1">  1        1 0.49853250E+00 0.25455552E+04</pdfrwt>
<pdfrwt beam="2">  1       -1 0.93427054E-01 0.25455552E+04</pdfrwt>
<totfact> 0.38720524E-01</totfact>
</mgrwt>
</event>
