<event>
11    1  0.1155407E-011  0.3465879E+04  0.7818608E-02  0.8670758E-01
          1   -1    0    0  501    0  0.00000000000E+00  0.00000000000E+00  0.30985381987E+04  0.30985381987E+04  0.00000000000E+00 0. -1.
         -1   -1    0    0    0  501 -0.00000000000E+00 -0.00000000000E+00 -0.13948629175E+04  0.13948629175E+04  0.00000000000E+00 0.  1.
    9900016    2    1    2    0    0  0.39180309657E+03 -0.32142630465E+03 -0.13731795626E+02  0.19131913148E+04  0.18448002355E+04 0.  0.
         23    2    3    3    0    0 -0.19171681162E+03 -0.19574781497E+03  0.70223971334E+03  0.75936496693E+03  0.91771428516E+02 0.  0.
        -15    1    1    2    0    0  0.83085966097E+02  0.78980372889E+02 -0.11729121529E+03  0.16400733596E+03  0.00000000000E+00 0.  1.
        -15    1    4    4    0    0 -0.38811665767E+02 -0.36632995965E+02  0.60156434310E+02  0.80418395793E+02  0.00000000000E+00 0. -1.
         15    1    4    4    0    0 -0.15290514585E+03 -0.15911481901E+03  0.64208327902E+03  0.67894657114E+03  0.00000000000E+00 0.  1.
         15    1    1    2    0    0 -0.42721002275E+03  0.72549618667E+02  0.20740509749E+04  0.21188344195E+04  0.00000000000E+00 0. -1.
        -16    1    3    3    0    0  0.52545160339E+03 -0.14628905852E+03 -0.13415361303E+03  0.56169125686E+03  0.00000000000E+00 0.  1.
         16    1    1    2    0    0 -0.47679039923E+02  0.16989631310E+03 -0.23935268278E+03  0.29736804604E+03  0.00000000000E+00 0. -1.
    9900018    1    3    3    0    0  0.58068304798E+02  0.20610568841E+02 -0.58181789594E+03  0.59213509100E+03  0.91187600000E+02 0.  0.
<mgrwt>
<rscale>  0 0.18683797E+04</rscale>
<asrwt>0</asrwt>
<pdfrwt beam="1">  1        1 0.47669818E+00 0.34658789E+04</pdfrwt>
<pdfrwt beam="2">  1       -1 0.21459429E+00 0.34658789E+04</pdfrwt>
<totfact> 0.48431662E-02</totfact>
</mgrwt>
</event>
<event>
11    1  0.1155407E-011  0.3058045E+04  0.7818608E-02  0.9200194E-01
          2   -1    0    0  501    0  0.00000000000E+00  0.00000000000E+00  0.22415686233E+04  0.22415686233E+04  0.00000000000E+00 0. -1.
         -2   -1    0    0    0  501 -0.00000000000E+00 -0.00000000000E+00 -0.11503644149E+04  0.11503644149E+04  0.00000000000E+00 0.  1.
    9900016    2    1    2    0    0  0.11702414572E+03  0.87756745935E+03  0.12350933230E+04  0.23865036052E+04  0.18401425610E+04 0.  0.
         23    2    3    3    0    0 -0.88853500146E+02  0.16810730693E+03  0.18103273299E+03  0.27757209922E+03  0.90102212609E+02 0.  0.
        -15    1    1    2    0    0 -0.14541142004E+03 -0.88146720806E+03 -0.46064374143E+02  0.89456740748E+03  0.00000000000E+00 0.  1.
        -15    1    4    4    0    0  0.50928811776E+01  0.77181893976E+02  0.47916223024E+02  0.90988717022E+02  0.00000000000E+00 0. -1.
         15    1    4    4    0    0 -0.93946381324E+02  0.90925412951E+02  0.13311650997E+03  0.18658338219E+03  0.00000000000E+00 0.  1.
         15    1    1    2    0    0  0.25065408934E+02  0.21482715740E+02 -0.51182372048E+02  0.60904983449E+02  0.00000000000E+00 0. -1.
        -16    1    1    2    0    0  0.33218653909E+01 -0.17582967024E+02 -0.46642368368E+02  0.49957042006E+02  0.00000000000E+00 0.  1.
         16    1    3    3    0    0 -0.36908076723E+02 -0.53967504158E+03  0.21572341750E+03  0.58236410388E+03  0.00000000000E+00 0. -1.
    9900018    1    3    3    0    0  0.24278572259E+03  0.12491351940E+04  0.83833717249E+03  0.15265674021E+04  0.91187600000E+02 0.  0.
<mgrwt>
<rscale>  0 0.11051421E+04</rscale>
<asrwt>0</asrwt>
<pdfrwt beam="1">  1        2 0.34485671E+00 0.30580447E+04</pdfrwt>
<pdfrwt beam="2">  1       -2 0.17697914E+00 0.30580447E+04</pdfrwt>
<totfact> 0.78886076E-01</totfact>
</mgrwt>
</event>
<event>
12    1  0.1155407E-011  0.2386494E+04  0.7818608E-02  0.8444577E-01
          1   -1    0    0  501    0  0.00000000000E+00  0.00000000000E+00  0.14340037875E+04  0.14340037875E+04  0.00000000000E+00 0. -1.
         -1   -1    0    0    0  501 -0.00000000000E+00 -0.00000000000E+00 -0.99291097939E+03  0.99291097939E+03  0.00000000000E+00 0.  1.
         24    2    1    2    0    0  0.16354502972E+03  0.15102179269E+03  0.28447757852E+03  0.37311209005E+03  0.93437575142E+02 0.  0.
    9900016    2    1    2    0    0 -0.11695189570E+03 -0.25249297232E+02 -0.32597425875E-01  0.18475790544E+04  0.18437009216E+04 0.  0.
         23    2    4    4    0    0 -0.24970215989E+03  0.26002172201E+03  0.77455313652E+03  0.85918778425E+03  0.91151646973E+02 0.  0.
        -15    1    3    3    0    0  0.17085714972E+03  0.12002616706E+03  0.23600534093E+03  0.31511421316E+03  0.00000000000E+00 0.  1.
        -15    1    5    5    0    0 -0.11016885793E+03  0.62967981762E+02  0.32503543188E+03  0.34892717860E+03  0.00000000000E+00 0. -1.
         15    1    1    2    0    0 -0.46593134022E+02 -0.12577249546E+03  0.15664782702E+03  0.20622362247E+03  0.00000000000E+00 0. -1.
         15    1    5    5    0    0 -0.13953330196E+03  0.19705374025E+03  0.44951770464E+03  0.51026060566E+03  0.00000000000E+00 0.  1.
        -16    1    4    4    0    0  0.14705491247E+03 -0.36813804516E+03 -0.76787573173E+03  0.86416659676E+03  0.00000000000E+00 0.  1.
         16    1    3    3    0    0 -0.73121199934E+01  0.30995625632E+02  0.48472237589E+02  0.57997876892E+02  0.00000000000E+00 0. -1.
    9900018    1    4    4    0    0 -0.14304648284E+02  0.82867025918E+02 -0.67100022155E+01  0.12422467336E+03  0.91187600000E+02 0.  0.
<mgrwt>
<rscale>  0 0.23864938E+04</rscale>
<asrwt>0</asrwt>
<pdfrwt beam="1">  1        1 0.22061597E+00 0.23864938E+04</pdfrwt>
<pdfrwt beam="2">  1       -1 0.15275554E+00 0.23864938E+04</pdfrwt>
<totfact> 0.21668854E+00</totfact>
</mgrwt>
</event>
<event>
12    1  0.1155407E-011  0.3757939E+04  0.7818608E-02  0.8753616E-01
          2   -1    0    0  501    0  0.00000000000E+00  0.00000000000E+00  0.29531250866E+04  0.29531250866E+04  0.00000000000E+00 0. -1.
         -2   -1    0    0    0  501 -0.00000000000E+00 -0.00000000000E+00 -0.13040102503E+04  0.13040102503E+04  0.00000000000E+00 0.  1.
        -24    2    1    2    0    0  0.11204853374E+03  0.99746346645E+02  0.11000061497E+03  0.19622675045E+03  0.62454741327E+02 0.  0.
    9900016    2    1    2    0    0  0.91068151151E+03 -0.91498275226E+03  0.15801270310E+04  0.27523715434E+04  0.18472177528E+04 0.  0.
         23    2    4    4    0    0  0.85857472139E+02  0.39791767253E+03  0.39876975877E+03  0.57665075612E+03  0.88310782985E+02 0.  0.
        -15    1    1    2    0    0 -0.10227300453E+04  0.81523640562E+03 -0.41012809681E+02  0.13085370431E+04  0.00000000000E+00 0.  1.
        -15    1    5    5    0    0  0.31518951112E+02  0.31884134615E+03  0.31432895172E+03  0.44883843216E+03  0.00000000000E+00 0.  1.
         15    1    3    3    0    0  0.64117908163E+02  0.56930866280E+02  0.24332450605E+02  0.89130790611E+02  0.00000000000E+00 0. -1.
         15    1    5    5    0    0  0.54338521027E+02  0.79076326378E+02  0.84440807056E+02  0.12781232396E+03  0.00000000000E+00 0. -1.
        -16    1    3    3    0    0  0.47930625578E+02  0.42815480366E+02  0.85668164365E+02  0.10709595983E+03  0.00000000000E+00 0.  1.
         16    1    4    4    0    0  0.57500877428E+03 -0.11681645926E+04  0.43906284206E+03  0.13740523226E+04  0.00000000000E+00 0. -1.
    9900018    1    4    4    0    0  0.24981526510E+03 -0.14473583215E+03  0.74229443015E+03  0.80166846464E+03  0.91187600000E+02 0.  0.
<mgrwt>
<rscale>  0 0.17136523E+04</rscale>
<asrwt>0</asrwt>
<pdfrwt beam="1">  1        2 0.45432693E+00 0.37579391E+04</pdfrwt>
<pdfrwt beam="2">  1       -2 0.20061696E+00 0.37579391E+04</pdfrwt>
<totfact> 0.19616821E-01</totfact>
</mgrwt>
</event>
<event>
12    1  0.1155407E-011  0.3953646E+04  0.7818608E-02  0.8554307E-01
         -2   -1    0    0    0  501 -0.00000000000E+00  0.00000000000E+00  0.25811169824E+04  0.25811169824E+04  0.00000000000E+00 0. -1.
          2   -1    0    0  501    0  0.00000000000E+00 -0.00000000000E+00 -0.19646427774E+04  0.19646427774E+04  0.00000000000E+00 0.  1.
         24    2    1    2    0    0  0.12282121237E+03  0.29254187980E+03 -0.34852062787E+03  0.47605113519E+03  0.67024276359E+02 0.  0.
    9900016    2    1    2    0    0  0.18634482743E+03 -0.96049877420E+02 -0.96146900691E+03  0.21087252812E+04  0.18650334278E+04 0.  0.
         23    2    4    4    0    0 -0.42855853056E+03 -0.69757805709E+02 -0.64426186296E+03  0.78228539187E+03  0.91479619022E+02 0.  0.
        -15    1    5    5    0    0 -0.32823114754E+02 -0.11948370324E+02 -0.10668330691E+03  0.11225617305E+03  0.00000000000E+00 0.  1.
        -15    1    3    3    0    0  0.75055914179E+01  0.25960826536E+02 -0.63954497734E+02  0.69429649267E+02  0.00000000000E+00 0.  1.
         15    1    5    5    0    0 -0.39573541581E+03 -0.57809435384E+02 -0.53757855605E+03  0.67002921882E+03  0.00000000000E+00 0. -1.
         15    1    1    2    0    0 -0.30916603980E+03 -0.19649200238E+03  0.19264638398E+04  0.19609833434E+04  0.00000000000E+00 0. -1.
        -16    1    4    4    0    0  0.55045483623E+03 -0.29585203077E+03  0.26221141859E+03  0.67770478741E+03  0.00000000000E+00 0.  1.
         16    1    3    3    0    0  0.11531562096E+03  0.26658105326E+03 -0.28456613014E+03  0.40662148593E+03  0.00000000000E+00 0. -1.
    9900018    1    4    4    0    0  0.64448521760E+02  0.26955995905E+03 -0.57941856254E+03  0.64873510195E+03  0.91187600000E+02 0.  0.
<mgrwt>
<rscale>  0 0.21158195E+04</rscale>
<asrwt>0</asrwt>
<pdfrwt beam="1">  1        2 0.30225273E+00 0.39536456E+04</pdfrwt>
<pdfrwt beam="2">  1       -2 0.39709492E+00 0.39536456E+04</pdfrwt>
<totfact> 0.42085315E-02</totfact>
</mgrwt>
</event>
