<event>
12    1  0.2703825E-013  0.8778176E+03  0.7818608E-02  0.9453743E-01
         -2   -1    0    0    0  501 -0.00000000000E+00  0.00000000000E+00  0.37548112962E+03  0.37548112962E+03  0.00000000000E+00 0.  1.
          2   -1    0    0  501    0  0.00000000000E+00 -0.00000000000E+00 -0.51305093233E+03  0.51305093233E+03  0.00000000000E+00 0. -1.
    9900016    2    1    2    0    0  0.14020796536E+03 -0.40946946357E+02 -0.11586904765E+03  0.74086402635E+03  0.71702088070E+03 0.  0.
         23    2    3    3    0    0 -0.43307664573E+02 -0.55541780450E+01 -0.19853098555E+03  0.22835454502E+03  0.10404250720E+03 0.  0.
         23    2    3    3    0    0 -0.26337066319E+02 -0.98285404250E+02 -0.55259657360E+01  0.14736259317E+03  0.10644968680E+03 0.  0.
        -15    1    4    4    0    0  0.51237539128E+01  0.38294549830E+02 -0.12072619961E+03  0.12675780320E+03  0.00000000000E+00 0.  1.
        -15    1    5    5    0    0  0.31095771446E+02  0.22785260585E+01 -0.48358234638E+01  0.31551923419E+02  0.00000000000E+00 0. -1.
         15    1    4    4    0    0 -0.48431418486E+02 -0.43848727875E+02 -0.77804785946E+02  0.10159674182E+03  0.00000000000E+00 0. -1.
         15    1    5    5    0    0 -0.57432837766E+02 -0.10056393031E+03 -0.69014227220E+00  0.11581066976E+03  0.00000000000E+00 0.  1.
        -16    1    3    3    0    0  0.19926309894E+03  0.12725818694E+03  0.90086169706E+02  0.25301372832E+03  0.00000000000E+00 0.  1.
         16    1    1    2    0    0 -0.14020796536E+03  0.40946946357E+02 -0.21700755057E+02  0.14766803560E+03  0.00000000000E+00 0. -1.
    9900018    1    3    3    0    0  0.10589597312E+02 -0.64365551000E+02 -0.18982660683E+01  0.11213315983E+03  0.91187600000E+02 0.  0.
<mgrwt>
<rscale>  0 0.87781762E+03</rscale>
<asrwt>0</asrwt>
<pdfrwt beam="1">  1        2 0.78930912E-01 0.87781762E+03</pdfrwt>
<pdfrwt beam="2">  1       -2 0.57766328E-01 0.87781762E+03</pdfrwt>
<totfact> 0.16844809E+02</totfact>
</mgrwt>
</event>
<event>
11    1  0.2703825E-013  0.9265968E+03  0.7818608E-02  0.9392932E-01
         -1   -1    0    0    0  501 -0.00000000000E+00  0.00000000000E+00  0.14112041122E+04  0.14112041122E+04  0.00000000000E+00 0.  1.
          1   -1    0    0  501    0  0.00000000000E+00 -0.00000000000E+00 -0.15210089660E+03  0.15210089660E+03  0.00000000000E+00 0. -1.
    9900016    2    1    2    0    0  0.48924685888E+02  0.60231014286E+02  0.12966296548E+04  0.14771096863E+04  0.70326606894E+03 0.  0.
         23    2    3    3    0    0 -0.21045997555E+03 -0.42233169178E+02  0.41666072707E+03  0.48065462725E+03  0.10651604258E+03 0.  0.
        -15    1    3    3    0    0  0.15852353493E+03  0.23539615232E+02  0.34863709648E+03  0.38370776595E+03  0.00000000000E+00 0.  1.
        -15    1    4    4    0    0 -0.49555559530E+02 -0.20195235584E+02  0.30178191067E+02  0.61435529107E+02  0.00000000000E+00 0.  1.
         15    1    4    4    0    0 -0.16090441602E+03 -0.22037933594E+02  0.38648253600E+03  0.41921909814E+03  0.00000000000E+00 0. -1.
         15    1    3    3    0    0  0.17802920470E+02  0.85591572918E+02  0.24340565824E+03  0.25862941789E+03  0.00000000000E+00 0. -1.
        -16    1    3    3    0    0  0.10025862798E+03 -0.35941205596E+02  0.17689495155E+03  0.20648338100E+03  0.00000000000E+00 0.  1.
         16    1    1    2    0    0 -0.48924685888E+02 -0.60231014286E+02 -0.37526439241E+02  0.86195322455E+02  0.00000000000E+00 0. -1.
    9900018    1    3    3    0    0 -0.17200421945E+02  0.29274200909E+02  0.11103122150E+03  0.14763449426E+03  0.91187600000E+02 0.  0.
<mgrwt>
<rscale>  0 0.92659681E+03</rscale>
<asrwt>0</asrwt>
<pdfrwt beam="1">  1        1 0.23400139E-01 0.92659681E+03</pdfrwt>
<pdfrwt beam="2">  1       -1 0.21710832E+00 0.92659681E+03</pdfrwt>
<totfact> 0.24805274E+01</totfact>
</mgrwt>
</event>
<event>
12    1  0.2703825E-013  0.1118179E+04  0.7818608E-02  0.9187652E-01
         -2   -1    0    0    0  501 -0.00000000000E+00  0.00000000000E+00  0.21294389881E+04  0.21294389881E+04  0.00000000000E+00 0.  1.
          2   -1    0    0  501    0  0.00000000000E+00 -0.00000000000E+00 -0.14679031965E+03  0.14679031965E+03  0.00000000000E+00 0. -1.
    9900016    2    1    2    0    0 -0.10073449566E+01 -0.28261224444E+03  0.17596438135E+04  0.19162267234E+04  0.70406520250E+03 0.  0.
         23    2    3    3    0    0 -0.54219581341E+02  0.28219923868E+02  0.14691586137E+03  0.19297979194E+03  0.10918242839E+03 0.  0.
         23    2    3    3    0    0 -0.96249929427E+01  0.30953884619E+02  0.72431774140E+02  0.10809926084E+03  0.73405073576E+02 0.  0.
        -15    1    4    4    0    0 -0.29963358598E+02 -0.21413113803E+02  0.13013250936E+03  0.13524346304E+03  0.00000000000E+00 0.  1.
        -15    1    5    5    0    0 -0.28679618063E+02 -0.11871524407E+02  0.41956602188E+02  0.52190133658E+02  0.00000000000E+00 0. -1.
         15    1    4    4    0    0 -0.24256222743E+02  0.49633037671E+02  0.16783352010E+02  0.57736328900E+02  0.00000000000E+00 0.  1.
         15    1    5    5    0    0  0.19054625121E+02  0.42825409026E+02  0.30475171952E+02  0.55909127181E+02  0.00000000000E+00 0. -1.
        -16    1    3    3    0    0  0.10591540830E+03 -0.36344918895E+03  0.12908137840E+04  0.13451816277E+04  0.00000000000E+00 0.  1.
         16    1    1    2    0    0  0.10073449566E+01  0.28261224444E+03  0.22300485494E+03  0.36000258440E+03  0.00000000000E+00 0. -1.
    9900018    1    3    3    0    0 -0.43078178971E+02  0.21663136030E+02  0.24948239407E+03  0.26996604289E+03  0.91187600000E+02 0.  0.
<mgrwt>
<rscale>  0 0.11181789E+04</rscale>
<asrwt>0</asrwt>
<pdfrwt beam="1">  1        2 0.22583128E-01 0.11181789E+04</pdfrwt>
<pdfrwt beam="2">  1       -2 0.32760598E+00 0.11181789E+04</pdfrwt>
<totfact> 0.53360539E+00</totfact>
</mgrwt>
</event>
<event>
12    1  0.2703825E-013  0.7767857E+03  0.7818608E-02  0.9594240E-01
         -2   -1    0    0    0  501 -0.00000000000E+00  0.00000000000E+00  0.15092139205E+03  0.15092139205E+03  0.00000000000E+00 0.  1.
          2   -1    0    0  501    0  0.00000000000E+00 -0.00000000000E+00 -0.99952024552E+03  0.99952024552E+03  0.00000000000E+00 0. -1.
    9900016    2    1    2    0    0 -0.42726549927E+01 -0.68944444696E+02 -0.80294416671E+03  0.10676410189E+04  0.70026167843E+03 0.  0.
         23    2    3    3    0    0 -0.16536864106E+03 -0.46607013258E+02 -0.19132692047E+03  0.27768637949E+03  0.10480808043E+03 0.  0.
         23    2    3    3    0    0 -0.38396338729E+02  0.92208143893E+02 -0.10551174006E+03  0.15852462601E+03  0.63409061922E+02 0.  0.
        -15    1    5    5    0    0  0.12524318295E+02  0.26465256700E+02 -0.79644382231E+01  0.30343049240E+02  0.00000000000E+00 0. -1.
        -15    1    4    4    0    0 -0.26427374619E+02 -0.55076596852E+02 -0.46181838592E+02  0.76580675538E+02  0.00000000000E+00 0.  1.
         15    1    5    5    0    0 -0.50920657024E+02  0.65742887193E+02 -0.97547301837E+02  0.12818157677E+03  0.00000000000E+00 0.  1.
         15    1    4    4    0    0 -0.13894126644E+03  0.84695835935E+01 -0.14514508188E+03  0.20110570395E+03  0.00000000000E+00 0. -1.
        -16    1    3    3    0    0  0.78493604768E+02 -0.10662101778E+03 -0.35647936178E+02  0.13711332093E+03  0.00000000000E+00 0.  1.
         16    1    1    2    0    0  0.42726549927E+01  0.68944444696E+02 -0.45654686761E+02  0.82800618707E+02  0.00000000000E+00 0. -1.
    9900018    1    3    3    0    0  0.12099872003E+03 -0.79245575499E+01 -0.47045757000E+03  0.49431669244E+03  0.91187600000E+02 0.  0.
<mgrwt>
<rscale>  0 0.77678565E+03</rscale>
<asrwt>0</asrwt>
<pdfrwt beam="1">  1        2 0.15377234E+00 0.77678565E+03</pdfrwt>
<pdfrwt beam="2">  1       -2 0.23218676E-01 0.77678565E+03</pdfrwt>
<totfact> 0.41498840E+02</totfact>
</mgrwt>
</event>
<event>
12    1  0.2703825E-013  0.9604602E+03  0.7818608E-02  0.9353007E-01
         -1   -1    0    0    0  501 -0.00000000000E+00  0.00000000000E+00  0.28817069440E+03  0.28817069440E+03  0.00000000000E+00 0.  1.
          1   -1    0    0  501    0  0.00000000000E+00 -0.00000000000E+00 -0.80029292797E+03  0.80029292797E+03  0.00000000000E+00 0. -1.
    9900016    2    1    2    0    0  0.33300666424E+01 -0.10542861845E+03 -0.18737997715E+03  0.74701989929E+03  0.71540281741E+03 0.  0.
         23    2    3    3    0    0 -0.55358076496E+02 -0.40864984864E+02  0.58505087097E+01  0.13801708871E+03  0.11949905733E+03 0.  0.
         23    2    3    3    0    0  0.19536347576E+03 -0.17753191724E+02  0.10654588734E+03  0.23496598788E+03  0.73313885954E+02 0.  0.
        -15    1    4    4    0    0  0.15878993606E+02 -0.58021293370E+02  0.19994129423E+02  0.63390678602E+02  0.00000000000E+00 0. -1.
        -15    1    5    5    0    0  0.35844963343E+02  0.25155931435E+02  0.28661788170E+02  0.52337179753E+02  0.00000000000E+00 0.  1.
         15    1    4    4    0    0 -0.71237070102E+02  0.17156308506E+02 -0.14143620713E+02  0.74626410105E+02  0.00000000000E+00 0. -1.
         15    1    5    5    0    0  0.15951851242E+03 -0.42909123159E+02  0.77884099168E+02  0.18262880813E+03  0.00000000000E+00 0.  1.
        -16    1    3    3    0    0 -0.12563388981E+03 -0.38626304185E+02 -0.17945829631E+03  0.22244357882E+03  0.00000000000E+00 0.  1.
         16    1    1    2    0    0 -0.33300666424E+01  0.10542861845E+03 -0.32474225641E+03  0.34144372309E+03  0.00000000000E+00 0. -1.
    9900018    1    3    3    0    0 -0.11041442812E+02 -0.81841376813E+01 -0.12031807689E+03  0.15159324388E+03  0.91187600000E+02 0.  0.
<mgrwt>
<rscale>  0 0.96046024E+03</rscale>
<asrwt>0</asrwt>
<pdfrwt beam="1">  1        1 0.12312199E+00 0.96046024E+03</pdfrwt>
<pdfrwt beam="2">  1       -1 0.44333953E-01 0.96046024E+03</pdfrwt>
<totfact> 0.11172742E+02</totfact>
</mgrwt>
</event>
<event>
12    1  0.2703825E-013  0.1084098E+04  0.7818608E-02  0.9220831E-01
          2   -1    0    0  501    0  0.00000000000E+00  0.00000000000E+00  0.13095755914E+04  0.13095755914E+04  0.00000000000E+00 0. -1.
         -2   -1    0    0    0  501 -0.00000000000E+00 -0.00000000000E+00 -0.22436065548E+03  0.22436065548E+03  0.00000000000E+00 0.  1.
    9900016    2    1    2    0    0 -0.73398192689E+01  0.22861019836E+03  0.48417204352E+03  0.89084289888E+03  0.71194241833E+03 0.  0.
         23    2    3    3    0    0  0.22976768076E+03  0.32482705670E+02  0.31261940639E+03  0.39708026339E+03  0.78061059680E+02 0.  0.
         23    2    3    3    0    0 -0.17770507593E+03 -0.49272279055E+01  0.80249206449E+02  0.20837120244E+03  0.73316105209E+02 0.  0.
        -15    1    4    4    0    0  0.52302027409E+02 -0.19509074616E+02  0.44579030654E+02  0.71438057347E+02  0.00000000000E+00 0.  1.
        -15    1    5    5    0    0 -0.15033955061E+03  0.16190307669E+02  0.42246212274E+02  0.15699951908E+03  0.00000000000E+00 0.  1.
         15    1    4    4    0    0  0.17746565335E+03  0.51991780286E+02  0.26804037573E+03  0.32564220604E+03  0.00000000000E+00 0. -1.
         15    1    5    5    0    0 -0.27365525326E+02 -0.21117535574E+02  0.38002994175E+02  0.51371683361E+02  0.00000000000E+00 0. -1.
        -16    1    3    3    0    0 -0.69620886271E+01  0.15387975911E+03  0.39617429700E+02  0.15905028035E+03  0.00000000000E+00 0.  1.
         16    1    1    2    0    0  0.73398192689E+01 -0.22861019836E+03  0.60104289236E+03  0.64309334797E+03  0.00000000000E+00 0. -1.
    9900018    1    3    3    0    0 -0.52440335464E+02  0.47174961484E+02  0.51686000987E+02  0.12634115270E+03  0.91187600000E+02 0.  0.
<mgrwt>
<rscale>  0 0.10840982E+04</rscale>
<asrwt>0</asrwt>
<pdfrwt beam="1">  1        2 0.20147316E+00 0.10840982E+04</pdfrwt>
<pdfrwt beam="2">  1       -2 0.34517025E-01 0.10840982E+04</pdfrwt>
<totfact> 0.12746662E+02</totfact>
</mgrwt>
</event>
<event>
12    1  0.2703825E-013  0.8998727E+03  0.7818608E-02  0.9425741E-01
         -1   -1    0    0    0  501 -0.00000000000E+00  0.00000000000E+00  0.53428674299E+03  0.53428674299E+03  0.00000000000E+00 0.  1.
          1   -1    0    0  501    0  0.00000000000E+00 -0.00000000000E+00 -0.37890273274E+03  0.37890273274E+03  0.00000000000E+00 0. -1.
    9900016    2    1    2    0    0  0.66099000896E+02 -0.83512499929E+01 -0.26666201534E+02  0.71933101988E+03  0.71574241775E+03 0.  0.
         23    2    3    3    0    0  0.18150875950E+03 -0.54042551851E+02 -0.20385283860E+03  0.30038351236E+03  0.11317352829E+03 0.  0.
         23    2    3    3    0    0 -0.19556460797E+01 -0.28927760386E+02 -0.11510549701E+02  0.12155325652E+03  0.11748217543E+03 0.  0.
        -15    1    5    5    0    0  0.43174384390E+02 -0.51497829633E+02  0.75278900755E+01  0.67621912523E+02  0.00000000000E+00 0. -1.
        -15    1    4    4    0    0  0.11598178353E+03  0.18210059418E+02 -0.14458643998E+03  0.18624880939E+03  0.00000000000E+00 0.  1.
         15    1    4    4    0    0  0.65526975976E+02 -0.72252611269E+02 -0.59266398620E+02  0.11413470297E+03  0.00000000000E+00 0. -1.
         15    1    5    5    0    0 -0.45130030470E+02  0.22570069247E+02 -0.19038439776E+02  0.53931343995E+02  0.00000000000E+00 0.  1.
        -16    1    1    2    0    0 -0.66099000896E+02  0.83512499929E+01  0.18205021178E+03  0.19385845585E+03  0.00000000000E+00 0.  1.
         16    1    3    3    0    0 -0.11564833518E+03  0.10867260181E+02  0.11784247602E+03  0.16546747091E+03  0.00000000000E+00 0. -1.
    9900018    1    3    3    0    0  0.21942226496E+01  0.63751802063E+02  0.70854710743E+02  0.13192678010E+03  0.91187600000E+02 0.  0.
<mgrwt>
<rscale>  0 0.89987267E+03</rscale>
<asrwt>0</asrwt>
<pdfrwt beam="1">  1        1 0.58292728E-01 0.89987267E+03</pdfrwt>
<pdfrwt beam="2">  1       -1 0.82197960E-01 0.89987267E+03</pdfrwt>
<totfact> 0.95724772E+01</totfact>
</mgrwt>
</event>
<event>
12    1  0.2703825E-013  0.8079678E+03  0.7818608E-02  0.9548555E-01
          2   -1    0    0  501    0  0.00000000000E+00  0.00000000000E+00  0.26898700688E+03  0.26898700688E+03  0.00000000000E+00 0. -1.
         -2   -1    0    0    0  501 -0.00000000000E+00 -0.00000000000E+00 -0.60673190363E+03  0.60673190363E+03  0.00000000000E+00 0.  1.
    9900016    2    1    2    0    0  0.45237425615E+02 -0.63849454736E+02 -0.29621518003E+03  0.78713056525E+03  0.72505718141E+03 0.  0.
         23    2    3    3    0    0  0.25145628397E+02 -0.83776312196E+01 -0.14368514349E+03  0.18064421465E+03  0.10622817185E+03 0.  0.
         23    2    3    3    0    0 -0.52809277794E+02 -0.13558583848E+03  0.80639871875E+02  0.18361784310E+03  0.77719907042E+02 0.  0.
        -15    1    5    5    0    0 -0.59542488094E+02 -0.59890456050E+02  0.63638251944E+02  0.10574498440E+03  0.00000000000E+00 0. -1.
        -15    1    4    4    0    0 -0.89267292370E+01  0.44646741942E+02 -0.48883263046E+02  0.66802630689E+02  0.00000000000E+00 0. -1.
         15    1    4    4    0    0  0.34072357634E+02 -0.53024373161E+02 -0.94801880441E+02  0.11384158396E+03  0.00000000000E+00 0.  1.
         15    1    5    5    0    0  0.67332102996E+01 -0.75695382433E+02  0.17001619930E+02  0.77872858705E+02  0.00000000000E+00 0.  1.
        -16    1    1    2    0    0 -0.45237425615E+02  0.63849454736E+02 -0.41529716709E+02  0.88588345262E+02  0.00000000000E+00 0.  1.
         16    1    3    3    0    0  0.16447989471E+03  0.13196256324E+03 -0.11474056628E+03  0.24006905550E+03  0.00000000000E+00 0. -1.
    9900018    1    3    3    0    0 -0.91578819694E+02 -0.51848548277E+02 -0.11842934215E+03  0.18279945200E+03  0.91187600000E+02 0.  0.
<mgrwt>
<rscale>  0 0.80796782E+03</rscale>
<asrwt>0</asrwt>
<pdfrwt beam="1">  1        2 0.41382616E-01 0.80796782E+03</pdfrwt>
<pdfrwt beam="2">  1       -2 0.93343371E-01 0.80796782E+03</pdfrwt>
<totfact> 0.12126987E+02</totfact>
</mgrwt>
</event>
<event>
11    1  0.2703825E-013  0.9134191E+03  0.7818608E-02  0.9408961E-01
          2   -1    0    0  501    0  0.00000000000E+00  0.00000000000E+00  0.16087863081E+04  0.16087863081E+04  0.00000000000E+00 0. -1.
         -2   -1    0    0    0  501 -0.00000000000E+00 -0.00000000000E+00 -0.12965277255E+03  0.12965277255E+03  0.00000000000E+00 0.  1.
    9900016    2    1    2    0    0  0.11521040176E+02  0.62179944353E+01  0.85684922206E+03  0.11160170658E+04  0.71493503473E+03 0.  0.
         23    2    3    3    0    0 -0.95233375056E+01 -0.71819234709E+02  0.19808840769E+03  0.22131044845E+03  0.67011945947E+02 0.  0.
        -15    1    3    3    0    0 -0.39190302792E+02  0.10878198955E+01 -0.22329600523E+02  0.45118446833E+02  0.00000000000E+00 0.  1.
        -15    1    4    4    0    0 -0.30939092895E+01 -0.10543796975E+02 -0.26720705624E+01  0.11308575969E+02  0.00000000000E+00 0. -1.
         15    1    3    3    0    0  0.13560982348E+03  0.48985659554E+02  0.40278585089E+02  0.14970632412E+03  0.00000000000E+00 0.  1.
         15    1    4    4    0    0 -0.64294282161E+01 -0.61275437734E+02  0.20076047825E+03  0.21000187248E+03  0.00000000000E+00 0. -1.
        -16    1    3    3    0    0 -0.10916450795E+03  0.12314915512E+02  0.56501589088E+03  0.57559665034E+03  0.00000000000E+00 0.  1.
         16    1    1    2    0    0 -0.11521040176E+02 -0.62179944353E+01  0.62228431345E+03  0.62242201486E+03  0.00000000000E+00 0. -1.
    9900018    1    3    3    0    0  0.33789364949E+02  0.15648834183E+02  0.75795938927E+02  0.12428519601E+03  0.91187600000E+02 0.  0.
<mgrwt>
<rscale>  0 0.91341908E+03</rscale>
<asrwt>0</asrwt>
<pdfrwt beam="1">  1        2 0.24750557E+00 0.91341908E+03</pdfrwt>
<pdfrwt beam="2">  1       -2 0.19946582E-01 0.91341908E+03</pdfrwt>
<totfact> 0.23749569E+02</totfact>
</mgrwt>
</event>
<event>
12    1  0.2703825E-013  0.1553136E+04  0.7818608E-02  0.8849867E-01
          1   -1    0    0  501    0  0.00000000000E+00  0.00000000000E+00  0.20662506824E+04  0.20662506824E+04  0.00000000000E+00 0. -1.
         -1   -1    0    0    0  501 -0.00000000000E+00 -0.00000000000E+00 -0.29186078861E+03  0.29186078861E+03  0.00000000000E+00 0.  1.
    9900016    2    1    2    0    0  0.81381087357E+02 -0.76063159665E+00  0.15314974095E+03  0.73482988941E+03  0.71407048902E+03 0.  0.
         23    2    3    3    0    0  0.14886790189E+03 -0.15593594157E+02  0.25063738149E+03  0.29921119932E+03  0.65600551866E+02 0.  0.
         23    2    3    3    0    0 -0.87568577020E+02 -0.40697361770E+02 -0.64288746660E+01  0.14389294375E+03  0.10648623336E+03 0.  0.
        -15    1    5    5    0    0  0.65206248452E+01 -0.45297793474E+02  0.13278159112E+02  0.47652052961E+02  0.00000000000E+00 0. -1.
        -15    1    4    4    0    0  0.10346661812E+03 -0.32193266742E+02  0.12993662027E+03  0.16919004928E+03  0.00000000000E+00 0.  1.
         15    1    5    5    0    0 -0.94089201865E+02  0.46004317036E+01 -0.19707033778E+02  0.96240890788E+02  0.00000000000E+00 0. -1.
         15    1    4    4    0    0  0.45401283772E+02  0.16599672586E+02  0.12070076122E+03  0.13002115003E+03  0.00000000000E+00 0.  1.
        -16    1    3    3    0    0 -0.67332198750E+00  0.13838301110E+03 -0.93065097645E+02  0.16676757336E+03  0.00000000000E+00 0.  1.
         16    1    1    2    0    0 -0.81381087357E+02  0.76063159665E+00  0.16212401529E+04  0.16232815816E+04  0.00000000000E+00 0. -1.
    9900018    1    3    3    0    0  0.20755084475E+02 -0.82852686771E+02  0.20063317712E+01  0.12495817299E+03  0.91187600000E+02 0.  0.
<mgrwt>
<rscale>  0 0.15531356E+04</rscale>
<asrwt>0</asrwt>
<pdfrwt beam="1">  1        1 0.31788471E+00 0.15531356E+04</pdfrwt>
<pdfrwt beam="2">  1       -1 0.44901661E-01 0.15531356E+04</pdfrwt>
<totfact> 0.12734274E+01</totfact>
</mgrwt>
</event>
<event>
12    1  0.2703825E-013  0.2594330E+04  0.7818608E-02  0.8370130E-01
         -2   -1    0    0    0  501 -0.00000000000E+00  0.00000000000E+00  0.83304982692E+03  0.83304982692E+03  0.00000000000E+00 0.  1.
          2   -1    0    0  501    0  0.00000000000E+00 -0.00000000000E+00 -0.20198509310E+04  0.20198509310E+04  0.00000000000E+00 0. -1.
    9900016    2    1    2    0    0 -0.17275222204E+03 -0.33429176822E+02  0.67082698324E+03  0.98695784591E+03  0.70222226402E+03 0.  0.
         23    2    3    3    0    0 -0.14355252768E+03 -0.64995932830E+02 -0.29443342332E+02  0.19106584903E+03  0.10395888018E+03 0.  0.
         23    2    3    3    0    0 -0.61948645945E+02 -0.30284352319E+02  0.31981142601E+03  0.33308335789E+03  0.62533178137E+02 0.  0.
        -15    1    5    5    0    0 -0.57112298209E+02  0.49723696179E+01  0.18735386754E+03  0.19592858584E+03  0.00000000000E+00 0.  1.
        -15    1    4    4    0    0 -0.34384477535E+02 -0.50052875046E+02 -0.50386163532E+02  0.78907211782E+02  0.00000000000E+00 0.  1.
         15    1    5    5    0    0 -0.48363477356E+01 -0.35256721937E+02  0.13245755847E+03  0.13715477205E+03  0.00000000000E+00 0. -1.
         15    1    4    4    0    0 -0.10916805015E+03 -0.14943057784E+02  0.20942821200E+02  0.11215863725E+03  0.00000000000E+00 0. -1.
        -16    1    3    3    0    0 -0.18358984674E+02 -0.80254790965E+02  0.82560926269E+02  0.11659412651E+03  0.00000000000E+00 0.  1.
         16    1    1    2    0    0  0.17275222204E+03  0.33429176822E+02 -0.18576280873E+04  0.18659429120E+04  0.00000000000E+00 0. -1.
    9900018    1    3    3    0    0  0.51107936267E+02  0.14210589929E+03  0.29789797329E+03  0.34621451248E+03  0.91187600000E+02 0.  0.
<mgrwt>
<rscale>  0 0.25943296E+04</rscale>
<asrwt>0</asrwt>
<pdfrwt beam="1">  1        2 0.31074629E+00 0.25943296E+04</pdfrwt>
<pdfrwt beam="2">  1       -2 0.12816151E+00 0.25943296E+04</pdfrwt>
<totfact> 0.25952781E+00</totfact>
</mgrwt>
</event>
<event>
12    1  0.2703825E-013  0.1310268E+04  0.7818608E-02  0.9021462E-01
          2   -1    0    0  501    0  0.00000000000E+00  0.00000000000E+00  0.66074116323E+03  0.66074116323E+03  0.00000000000E+00 0. -1.
         -2   -1    0    0    0  501 -0.00000000000E+00 -0.00000000000E+00 -0.64957452173E+03  0.64957452173E+03  0.00000000000E+00 0.  1.
    9900016    2    1    2    0    0  0.26675138443E+03  0.36031571070E+03 -0.86330391158E+02  0.85152446464E+03  0.71878874850E+03 0.  0.
         23    2    3    3    0    0 -0.32221397890E+02  0.83304370289E+02 -0.11550674892E+02  0.14874174981E+03  0.11837589896E+03 0.  0.
         23    2    3    3    0    0 -0.34067824731E+02 -0.36002585156E+02  0.54613447595E+02  0.12894540408E+03  0.10577091167E+03 0.  0.
        -15    1    4    4    0    0 -0.44847665854E+02 -0.12657469510E+02  0.13962976721E+02  0.48646576301E+02  0.00000000000E+00 0.  1.
        -15    1    5    5    0    0  0.59314159879E+01 -0.45814907006E+02  0.70928369484E+02  0.84646447044E+02  0.00000000000E+00 0.  1.
         15    1    5    5    0    0 -0.39999240719E+02  0.98123218497E+01 -0.16314921889E+02  0.44298957036E+02  0.00000000000E+00 0. -1.
         15    1    4    4    0    0  0.12626267963E+02  0.95961839799E+02 -0.25513651614E+02  0.10009517350E+03  0.00000000000E+00 0. -1.
        -16    1    3    3    0    0  0.30178647849E+03  0.31584419863E+03 -0.17058875449E+03  0.46897031843E+03  0.00000000000E+00 0.  1.
         16    1    1    2    0    0 -0.26675138443E+03 -0.36031571070E+03  0.97497032657E+02  0.45879122033E+03  0.00000000000E+00 0. -1.
    9900018    1    3    3    0    0  0.31254128565E+02 -0.28302730681E+01  0.41195590630E+02  0.10486699232E+03  0.91187600000E+02 0.  0.
<mgrwt>
<rscale>  0 0.13102681E+04</rscale>
<asrwt>0</asrwt>
<pdfrwt beam="1">  1        2 0.10165249E+00 0.13102681E+04</pdfrwt>
<pdfrwt beam="2">  1       -2 0.99934542E-01 0.13102681E+04</pdfrwt>
<totfact> 0.35708369E+01</totfact>
</mgrwt>
</event>
<event>
12    1  0.2703826E-013  0.1276561E+04  0.7818608E-02  0.9048361E-01
          1   -1    0    0  501    0  0.00000000000E+00  0.00000000000E+00  0.41593644773E+03  0.41593644773E+03  0.00000000000E+00 0. -1.
         -1   -1    0    0    0  501 -0.00000000000E+00 -0.00000000000E+00 -0.97948197081E+03  0.97948197081E+03  0.00000000000E+00 0.  1.
    9900016    2    1    2    0    0  0.14559657814E+03  0.10616762877E+03 -0.80747933971E+03  0.10921468639E+04  0.71294597220E+03 0.  0.
         23    2    3    3    0    0  0.21778525875E+03  0.22927486882E+02 -0.57365511627E+03  0.61899232389E+03  0.78199846681E+02 0.  0.
         23    2    3    3    0    0 -0.83614053740E+02 -0.36593884496E+02  0.25500981658E+02  0.10963413184E+03  0.55126404136E+02 0.  0.
        -15    1    5    5    0    0 -0.83991246592E+02 -0.23776284552E+02  0.76106631837E+01  0.87622847507E+02  0.00000000000E+00 0.  1.
        -15    1    4    4    0    0  0.10049877367E+03  0.85995360288E+00 -0.16435856332E+03  0.19265118833E+03  0.00000000000E+00 0.  1.
         15    1    4    4    0    0  0.11728648508E+03  0.22067533279E+02 -0.40929655295E+03  0.42634113556E+03  0.00000000000E+00 0. -1.
         15    1    5    5    0    0  0.37719285180E+00 -0.12817599944E+02  0.17890318475E+02  0.22011284331E+02  0.00000000000E+00 0. -1.
        -16    1    3    3    0    0  0.63890301231E+02  0.26449539105E+01 -0.17187669574E+03  0.18338638147E+03  0.00000000000E+00 0.  1.
         16    1    1    2    0    0 -0.14559657814E+03 -0.10616762877E+03  0.24393381663E+03  0.30327155465E+03  0.00000000000E+00 0. -1.
    9900018    1    3    3    0    0 -0.52464928100E+02  0.11718907248E+03 -0.87448509358E+02  0.18013402669E+03  0.91187600000E+02 0.  0.
<mgrwt>
<rscale>  0 0.12765614E+04</rscale>
<asrwt>0</asrwt>
<pdfrwt beam="1">  1        1 0.63990222E-01 0.12765614E+04</pdfrwt>
<pdfrwt beam="2">  1       -1 0.15068953E+00 0.12765614E+04</pdfrwt>
<totfact> 0.19313719E+01</totfact>
</mgrwt>
</event>
<event>
11    1  0.2703825E-013  0.8274180E+03  0.7818608E-02  0.9521157E-01
         -1   -1    0    0    0  501 -0.00000000000E+00  0.00000000000E+00  0.35822387596E+03  0.35822387596E+03  0.00000000000E+00 0.  1.
          1   -1    0    0  501    0  0.00000000000E+00 -0.00000000000E+00 -0.47778814793E+03  0.47778814793E+03  0.00000000000E+00 0. -1.
    9900016    2    1    2    0    0  0.11240285035E+02 -0.20440876516E+02  0.12108645313E+01  0.71300467844E+03  0.71262194173E+03 0.  0.
         23    2    3    3    0    0  0.14059954449E+03 -0.59052015451E+01 -0.15539937842E+03  0.24050504573E+03  0.11785841884E+03 0.  0.
        -15    1    3    3    0    0 -0.63532765504E+02 -0.11253686664E+02  0.10201412040E+03  0.12070600034E+03  0.00000000000E+00 0.  1.
        -15    1    4    4    0    0  0.25571860117E+01 -0.23788499659E+02  0.85756018112E+01  0.25415996198E+02  0.00000000000E+00 0.  1.
         15    1    4    4    0    0  0.13804235848E+03  0.17883298114E+02 -0.16397498023E+03  0.21508904953E+03  0.00000000000E+00 0. -1.
         15    1    3    3    0    0 -0.13190120266E+02 -0.19036180198E+02  0.11725886591E+03  0.11952404387E+03  0.00000000000E+00 0. -1.
        -16    1    3    3    0    0 -0.57177227979E+02  0.44318512858E+02  0.47365320996E+02  0.86468720440E+02  0.00000000000E+00 0.  1.
         16    1    1    2    0    0 -0.11240285035E+02  0.20440876516E+02 -0.12077513650E+03  0.12300734546E+03  0.00000000000E+00 0. -1.
    9900018    1    3    3    0    0  0.45408542961E+01 -0.28564320968E+02 -0.11002806435E+03  0.14580086807E+03  0.91187600000E+02 0.  0.
<mgrwt>
<rscale>  0 0.82741797E+03</rscale>
<asrwt>0</asrwt>
<pdfrwt beam="1">  1        1 0.73505869E-01 0.82741797E+03</pdfrwt>
<pdfrwt beam="2">  1       -1 0.55111366E-01 0.82741797E+03</pdfrwt>
<totfact> 0.15874483E+02</totfact>
</mgrwt>
</event>
<event>
11    1  0.2703825E-013  0.9478331E+03  0.7818608E-02  0.9367687E-01
         -3   -1    0    0    0  501 -0.00000000000E+00  0.00000000000E+00  0.42834601512E+03  0.42834601512E+03  0.00000000000E+00 0.  1.
          3   -1    0    0  501    0  0.00000000000E+00 -0.00000000000E+00 -0.52433523044E+03  0.52433523044E+03  0.00000000000E+00 0. -1.
    9900016    2    1    2    0    0 -0.25958692839E+02 -0.16253263470E+03  0.31805499988E+02  0.74430130330E+03  0.72517730880E+03 0.  0.
         23    2    3    3    0    0 -0.87325519398E+02  0.44099727522E+02 -0.13742090728E+03  0.18512901528E+03  0.76273942055E+02 0.  0.
        -15    1    4    4    0    0 -0.40753083190E+02  0.43526486313E+02 -0.27331716952E+02  0.65592618120E+02  0.00000000000E+00 0.  1.
        -15    1    3    3    0    0 -0.83262289827E+02 -0.12569453969E+03  0.65309789010E+02  0.16430792664E+03  0.00000000000E+00 0.  1.
         15    1    4    4    0    0 -0.46572436208E+02  0.57324120825E+00 -0.11008919033E+03  0.11953639716E+03  0.00000000000E+00 0. -1.
         15    1    3    3    0    0  0.14282654391E+02  0.32278936519E+02 -0.40797433664E+02  0.53947702017E+02  0.00000000000E+00 0. -1.
        -16    1    3    3    0    0  0.89386506044E+01 -0.95203545736E+02  0.16088884689E+03  0.18715991998E+03  0.00000000000E+00 0.  1.
         16    1    1    2    0    0  0.25958692839E+02  0.16253263470E+03 -0.12779471530E+03  0.20837994226E+03  0.00000000000E+00 0. -1.
    9900018    1    3    3    0    0  0.12140781139E+03 -0.18013213314E+02 -0.16174794963E+02  0.15375673939E+03  0.91187600000E+02 0.  0.
<mgrwt>
<rscale>  0 0.94783312E+03</rscale>
<asrwt>0</asrwt>
<pdfrwt beam="1">  1        3 0.80666958E-01 0.94783312E+03</pdfrwt>
<pdfrwt beam="2">  1       -3 0.65899387E-01 0.94783312E+03</pdfrwt>
<totfact> 0.83295202E+00</totfact>
</mgrwt>
</event>
<event>
12    1  0.2703825E-013  0.8043989E+03  0.7818608E-02  0.9553672E-01
         -1   -1    0    0    0  501 -0.00000000000E+00  0.00000000000E+00  0.16501813140E+03  0.16501813140E+03  0.00000000000E+00 0.  1.
          1   -1    0    0  501    0  0.00000000000E+00 -0.00000000000E+00 -0.98028244634E+03  0.98028244634E+03  0.00000000000E+00 0. -1.
    9900016    2    1    2    0    0 -0.43681043523E+02 -0.72439040301E+02 -0.76710475648E+03  0.10479620386E+04  0.70895647180E+03 0.  0.
         23    2    3    3    0    0 -0.19786987822E+02 -0.14796032506E+03 -0.57211681412E+03  0.60320653263E+03  0.11940137909E+03 0.  0.
         23    2    3    3    0    0 -0.71076385868E+02  0.14082795657E+03 -0.24456627144E+03  0.30089363556E+03  0.76419583969E+02 0.  0.
        -15    1    5    5    0    0 -0.70736055713E+02  0.97762303798E+02 -0.22100717427E+03  0.25180394894E+03  0.00000000000E+00 0.  1.
        -15    1    4    4    0    0 -0.68172710273E+02 -0.10891257129E+03 -0.36479688403E+03  0.38676379511E+03  0.00000000000E+00 0. -1.
         15    1    5    5    0    0 -0.34033015529E+00  0.43065652772E+02 -0.23559097175E+02  0.49089686625E+02  0.00000000000E+00 0. -1.
         15    1    4    4    0    0  0.48385722450E+02 -0.39047753770E+02 -0.20731993009E+03  0.21644273752E+03  0.00000000000E+00 0.  1.
        -16    1    1    2    0    0  0.43681043523E+02  0.72439040301E+02 -0.48159558461E+02  0.97338539100E+02  0.00000000000E+00 0.  1.
         16    1    3    3    0    0  0.20980988315E+02 -0.22653179883E+02  0.14209491389E+02  0.33989381798E+02  0.00000000000E+00 0. -1.
    9900018    1    3    3    0    0  0.26201341852E+02 -0.42653491933E+02  0.35368837702E+02  0.10987248865E+03  0.91187600000E+02 0.  0.
<mgrwt>
<rscale>  0 0.80439885E+03</rscale>
<asrwt>0</asrwt>
<pdfrwt beam="1">  1        1 0.15081268E+00 0.80439885E+03</pdfrwt>
<pdfrwt beam="2">  1       -1 0.25387405E-01 0.80439885E+03</pdfrwt>
<totfact> 0.21596699E+02</totfact>
</mgrwt>
</event>
<event>
11    1  0.2703825E-013  0.1028489E+04  0.7818608E-02  0.9277839E-01
          2   -1    0    0  501    0  0.00000000000E+00  0.00000000000E+00  0.44070330015E+03  0.44070330015E+03  0.00000000000E+00 0. -1.
         -2   -1    0    0    0  501 -0.00000000000E+00 -0.00000000000E+00 -0.60005783791E+03  0.60005783791E+03  0.00000000000E+00 0.  1.
    9900016    2    1    2    0    0  0.27367307418E+02  0.19059483740E+03 -0.30551270720E+03  0.79902249396E+03  0.71275772183E+03 0.  0.
         23    2    3    3    0    0 -0.10125983428E+03  0.54278134854E+02  0.11068665132E+03  0.17420398587E+03  0.69970164718E+02 0.  0.
        -15    1    4    4    0    0 -0.65020351497E+02  0.59886315730E+02  0.45521885061E+02  0.99429668309E+02  0.00000000000E+00 0.  1.
        -15    1    3    3    0    0  0.34551565369E+02  0.69183518180E+02 -0.36314287259E+02  0.85433584241E+02  0.00000000000E+00 0.  1.
         15    1    4    4    0    0 -0.36239482786E+02 -0.56081808758E+01  0.65164766259E+02  0.74774317562E+02  0.00000000000E+00 0. -1.
         15    1    3    3    0    0  0.89044916281E+02  0.75958119578E+02 -0.86455361389E+02  0.14551000845E+03  0.00000000000E+00 0. -1.
        -16    1    3    3    0    0 -0.76258449520E+02 -0.68125649520E+01 -0.25431495313E+03  0.26558964127E+03  0.00000000000E+00 0.  1.
         16    1    1    2    0    0 -0.27367307418E+02 -0.19059483740E+03  0.14615816944E+03  0.24173864411E+03  0.00000000000E+00 0. -1.
    9900018    1    3    3    0    0  0.81289109570E+02 -0.20123702563E+01 -0.39114756735E+02  0.12828527412E+03  0.91187600000E+02 0.  0.
<mgrwt>
<rscale>  0 0.10284891E+04</rscale>
<asrwt>0</asrwt>
<pdfrwt beam="1">  1        2 0.67800508E-01 0.10284891E+04</pdfrwt>
<pdfrwt beam="2">  1       -2 0.92316590E-01 0.10284891E+04</pdfrwt>
<totfact> 0.70784875E+01</totfact>
</mgrwt>
</event>
<event>
12    1  0.2703825E-013  0.1069497E+04  0.7818608E-02  0.9235443E-01
          1   -1    0    0  501    0  0.00000000000E+00  0.00000000000E+00  0.11419637316E+04  0.11419637316E+04  0.00000000000E+00 0. -1.
         -1   -1    0    0    0  501 -0.00000000000E+00 -0.00000000000E+00 -0.25040709522E+03  0.25040709522E+03  0.00000000000E+00 0.  1.
    9900016    2    1    2    0    0 -0.68883044169E+02  0.11083128021E+03  0.29896978676E+03  0.78558616915E+03  0.71465673530E+03 0.  0.
         23    2    3    3    0    0  0.15408519416E+03  0.22219820383E+02  0.10667455081E+03  0.20321998612E+03  0.75385247161E+02 0.  0.
         23    2    3    3    0    0 -0.92481063923E+02 -0.68459014606E+02  0.90142056033E+02  0.16224479465E+03  0.70415902037E+02 0.  0.
        -15    1    5    5    0    0 -0.10252118321E+02 -0.49411635164E+02  0.35360469027E+02  0.61619626657E+02  0.00000000000E+00 0. -1.
        -15    1    4    4    0    0  0.11660625117E+03  0.45542036359E+02  0.59472708969E+02  0.13859328267E+03  0.00000000000E+00 0.  1.
         15    1    4    4    0    0  0.37478942986E+02 -0.23322215975E+02  0.47201841845E+02  0.64626703450E+02  0.00000000000E+00 0. -1.
         15    1    5    5    0    0 -0.82228945602E+02 -0.19047379443E+02  0.54781587006E+02  0.10062516799E+03  0.00000000000E+00 0.  1.
        -16    1    3    3    0    0  0.72336745743E+02  0.15950414791E+03  0.91190001406E+02  0.19745833571E+03  0.00000000000E+00 0.  1.
         16    1    1    2    0    0  0.68883044169E+02 -0.11083128021E+03  0.59258684958E+03  0.60678465764E+03  0.00000000000E+00 0. -1.
    9900018    1    3    3    0    0 -0.20282392015E+03 -0.24336734726E+01  0.10963178513E+02  0.22266305268E+03  0.91187600000E+02 0.  0.
<mgrwt>
<rscale>  0 0.10694967E+04</rscale>
<asrwt>0</asrwt>
<pdfrwt beam="1">  1        1 0.17568672E+00 0.10694967E+04</pdfrwt>
<pdfrwt beam="2">  1       -1 0.38524169E-01 0.10694967E+04</pdfrwt>
<totfact> 0.76755910E+01</totfact>
</mgrwt>
</event>
<event>
12    1  0.2703825E-013  0.1798369E+04  0.7818608E-02  0.8707167E-01
          1   -1    0    0  501    0  0.00000000000E+00  0.00000000000E+00  0.11632307467E+04  0.11632307467E+04  0.00000000000E+00 0. -1.
         -1   -1    0    0    0  501 -0.00000000000E+00 -0.00000000000E+00 -0.69507502195E+03  0.69507502195E+03  0.00000000000E+00 0.  1.
    9900016    2    1    2    0    0 -0.67869231253E+03 -0.32387203883E+03  0.17583945845E+03  0.10514816539E+04  0.71356695597E+03 0.  0.
         23    2    3    3    0    0 -0.18122238641E+02  0.99339372280E+01  0.49796225793E+02  0.12581954168E+03  0.11368286732E+03 0.  0.
         23    2    3    3    0    0 -0.55065380076E+01 -0.12896368634E+02  0.10171417794E+03  0.12419281990E+03  0.69867333110E+02 0.  0.
        -15    1    4    4    0    0 -0.46924767767E+02 -0.18838874292E+02  0.65008279534E+02  0.82358444756E+02  0.00000000000E+00 0.  1.
        -15    1    5    5    0    0  0.17921715172E+02 -0.34628210461E+02  0.50060628060E+02  0.63453662749E+02  0.00000000000E+00 0.  1.
         15    1    4    4    0    0  0.28802529126E+02  0.28772811520E+02 -0.15212053742E+02  0.43461096924E+02  0.00000000000E+00 0. -1.
         15    1    5    5    0    0 -0.23428253180E+02  0.21731841827E+02  0.51653549877E+02  0.60739157149E+02  0.00000000000E+00 0. -1.
        -16    1    3    3    0    0 -0.36988770442E+03 -0.16797745966E+02  0.51557075537E+02  0.37384115636E+03  0.00000000000E+00 0.  1.
         16    1    1    2    0    0  0.67869231253E+03  0.32387203883E+03  0.29231626626E+03  0.80682411475E+03  0.00000000000E+00 0. -1.
    9900018    1    3    3    0    0 -0.28517583146E+03 -0.30411186146E+03 -0.27228020813E+02  0.42762813593E+03  0.91187600000E+02 0.  0.
<mgrwt>
<rscale>  0 0.17983689E+04</rscale>
<asrwt>0</asrwt>
<pdfrwt beam="1">  1        1 0.17895858E+00 0.17983689E+04</pdfrwt>
<pdfrwt beam="2">  1       -1 0.10693462E+00 0.17983689E+04</pdfrwt>
<totfact> 0.87564854E+00</totfact>
</mgrwt>
</event>
<event>
12    1  0.2703825E-013  0.1870662E+04  0.7818608E-02  0.8669599E-01
         -1   -1    0    0    0  501 -0.00000000000E+00  0.00000000000E+00  0.47896668635E+03  0.47896668635E+03  0.00000000000E+00 0.  1.
          1   -1    0    0  501    0  0.00000000000E+00 -0.00000000000E+00 -0.18265240815E+04  0.18265240815E+04  0.00000000000E+00 0. -1.
    9900016    2    1    2    0    0  0.71993422936E+03  0.21779973238E+03 -0.11081527050E+04  0.15161514088E+04  0.71061287556E+03 0.  0.
         23    2    3    3    0    0  0.18530005520E+02  0.85874914232E+01 -0.36697818608E+02  0.79492561520E+02  0.67492453896E+02 0.  0.
         23    2    3    3    0    0  0.36788113528E+03  0.11584783730E+03 -0.34509813369E+03  0.52300181457E+03  0.75371911659E+02 0.  0.
        -15    1    4    4    0    0  0.39300839790E+02 -0.12177714330E+02 -0.21348112382E+02  0.46352935579E+02  0.00000000000E+00 0. -1.
        -15    1    5    5    0    0  0.64021900418E+02  0.22453183810E+02 -0.10336819847E+03  0.12364438383E+03  0.00000000000E+00 0. -1.
         15    1    4    4    0    0 -0.20770834270E+02  0.20765205753E+02 -0.15349706226E+02  0.33139625941E+02  0.00000000000E+00 0.  1.
         15    1    5    5    0    0  0.30385923486E+03  0.93394653492E+02 -0.24172993522E+03  0.39935743075E+03  0.00000000000E+00 0.  1.
        -16    1    1    2    0    0 -0.71993422936E+03 -0.21779973238E+03 -0.23940469017E+03  0.78933935902E+03  0.00000000000E+00 0.  1.
         16    1    3    3    0    0  0.54740009280E+02  0.83994570914E+02 -0.57458629357E+03  0.58326749037E+03  0.00000000000E+00 0. -1.
    9900018    1    3    3    0    0  0.27878307928E+03  0.93698327355E+01 -0.15177045913E+03  0.33038954238E+03  0.91187600000E+02 0.  0.
<mgrwt>
<rscale>  0 0.18706621E+04</rscale>
<asrwt>0</asrwt>
<pdfrwt beam="1">  1        1 0.28100370E+00 0.18706621E+04</pdfrwt>
<pdfrwt beam="2">  1       -1 0.73687184E-01 0.18706621E+04</pdfrwt>
<totfact> 0.68001131E+00</totfact>
</mgrwt>
</event>
<event>
12    1  0.2703825E-013  0.9997431E+03  0.7818608E-02  0.9308827E-01
          5   -1    0    0  501    0  0.00000000000E+00  0.00000000000E+00  0.66564271037E+03  0.66564271037E+03  0.00000000000E+00 0. -1.
         -5   -1    0    0    0  501 -0.00000000000E+00 -0.00000000000E+00 -0.37538392423E+03  0.37538392423E+03  0.00000000000E+00 0.  1.
    9900016    2    1    2    0    0 -0.19300306755E+03 -0.97034075420E+02  0.35492541053E+03  0.81553258106E+03  0.70175177082E+03 0.  0.
         23    2    3    3    0    0 -0.19259541074E+03 -0.73184131975E+02  0.14186279271E+03  0.26011569859E+03  0.71317706669E+02 0.  0.
         23    2    3    3    0    0  0.16103828710E+03 -0.38476860445E+02  0.15669701654E+03  0.23437582559E+03  0.54445146005E+02 0.  0.
        -15    1    5    5    0    0  0.74866222464E+02  0.48258046416E+01  0.89753312022E+02  0.11697818889E+03  0.00000000000E+00 0. -1.
        -15    1    4    4    0    0 -0.12899297169E+03 -0.11667116243E+02  0.82512232892E+02  0.15356945310E+03  0.00000000000E+00 0.  1.
         15    1    4    4    0    0 -0.63602439050E+02 -0.61517015733E+02  0.59350559819E+02  0.10654624549E+03  0.00000000000E+00 0. -1.
         15    1    5    5    0    0  0.86172064639E+02 -0.43302665086E+02  0.66943704521E+02  0.11739763670E+03  0.00000000000E+00 0.  1.
        -16    1    3    3    0    0 -0.16207423960E+03  0.10971613846E+02 -0.59986458014E+02  0.17316700205E+03  0.00000000000E+00 0.  1.
         16    1    1    2    0    0  0.19300306755E+03  0.97034075420E+02 -0.64666624393E+02  0.22549405355E+03  0.00000000000E+00 0. -1.
    9900018    1    3    3    0    0  0.62829569612E+00  0.36553031540E+01  0.11635205929E+03  0.14787405483E+03  0.91187600000E+02 0.  0.
<mgrwt>
<rscale>  0 0.99974311E+03</rscale>
<asrwt>0</asrwt>
<pdfrwt beam="1">  1        5 0.10240657E+00 0.99974311E+03</pdfrwt>
<pdfrwt beam="2">  1       -5 0.57751373E-01 0.99974311E+03</pdfrwt>
<totfact> 0.20075078E+00</totfact>
</mgrwt>
</event>
<event>
12    1  0.2703825E-013  0.9291274E+03  0.7818608E-02  0.9389886E-01
          2   -1    0    0  501    0  0.00000000000E+00  0.00000000000E+00  0.20429753779E+04  0.20429753779E+04  0.00000000000E+00 0. -1.
         -2   -1    0    0    0  501 -0.00000000000E+00 -0.00000000000E+00 -0.10563976041E+03  0.10563976041E+03  0.00000000000E+00 0.  1.
    9900016    2    1    2    0    0  0.45538308951E+01  0.19494017287E+03  0.13860295020E+04  0.15638409585E+04  0.69749434029E+03 0.  0.
         23    2    3    3    0    0  0.97977188720E+02  0.12060672078E+03  0.31833003303E+03  0.36143451366E+03  0.71801024605E+02 0.  0.
         23    2    3    3    0    0 -0.21514381486E+02 -0.70067039669E+02  0.37788966824E+03  0.39067131027E+03  0.66717408915E+02 0.  0.
        -15    1    4    4    0    0  0.10365847048E+03  0.10842750797E+03  0.31278786233E+03  0.34689746296E+03  0.00000000000E+00 0.  1.
        -15    1    5    5    0    0 -0.40321394028E+02 -0.69381686398E+02  0.31069319073E+03  0.32088922075E+03  0.00000000000E+00 0. -1.
         15    1    5    5    0    0  0.18807012542E+02 -0.68535327159E+00  0.67196477505E+02  0.69782089528E+02  0.00000000000E+00 0. -1.
         15    1    4    4    0    0 -0.56812817631E+01  0.12179212810E+02  0.55421706966E+01  0.14537050704E+02  0.00000000000E+00 0.  1.
        -16    1    3    3    0    0  0.60739243716E+02  0.20875392367E+03  0.21288738478E+03  0.30428357658E+03  0.00000000000E+00 0.  1.
         16    1    1    2    0    0 -0.45538308951E+01 -0.19494017287E+03  0.55130611544E+03  0.58477417975E+03  0.00000000000E+00 0. -1.
    9900018    1    3    3    0    0 -0.13264822006E+03 -0.64353431911E+02  0.47692241597E+03  0.50745155802E+03  0.91187600000E+02 0.  0.
<mgrwt>
<rscale>  0 0.92912740E+03</rscale>
<asrwt>0</asrwt>
<pdfrwt beam="1">  1        2 0.31430387E+00 0.92912740E+03</pdfrwt>
<pdfrwt beam="2">  1       -2 0.16252272E-01 0.92912740E+03</pdfrwt>
<totfact> 0.19524993E+02</totfact>
</mgrwt>
</event>
<event>
12    1  0.2703825E-013  0.9396971E+03  0.7818608E-02  0.9377275E-01
          2   -1    0    0  501    0  0.00000000000E+00  0.00000000000E+00  0.15790363690E+04  0.15790363690E+04  0.00000000000E+00 0. -1.
         -2   -1    0    0    0  501 -0.00000000000E+00 -0.00000000000E+00 -0.13980529254E+03  0.13980529254E+03  0.00000000000E+00 0.  1.
    9900016    2    1    2    0    0 -0.44243530591E+02 -0.18476687297E+03  0.10028359369E+04  0.12428826242E+04  0.70921154387E+03 0.  0.
         23    2    3    3    0    0  0.97036289718E+02 -0.10648131882E+03  0.17940075846E+03  0.25512793632E+03  0.11023302126E+03 0.  0.
         23    2    3    3    0    0 -0.12840668950E+03 -0.12550674268E+03  0.45871987713E+03  0.49656075209E+03  0.62517473351E+02 0.  0.
        -15    1    5    5    0    0 -0.45320001044E+02 -0.40898833829E+02  0.24133213661E+03  0.24893335909E+03  0.00000000000E+00 0.  1.
        -15    1    4    4    0    0  0.41084758476E+02  0.17997080500E+02  0.41346088266E+02  0.61002879444E+02  0.00000000000E+00 0.  1.
         15    1    5    5    0    0 -0.83086688455E+02 -0.84607908850E+02  0.21738774052E+03  0.24762739300E+03  0.00000000000E+00 0. -1.
         15    1    4    4    0    0  0.55951531243E+02 -0.12447839932E+03  0.13805467019E+03  0.19412505687E+03  0.00000000000E+00 0. -1.
        -16    1    3    3    0    0  0.69797632557E+02 -0.42459375493E+02 -0.14106911206E+02  0.82906652457E+02  0.00000000000E+00 0.  1.
         16    1    1    2    0    0  0.44243530591E+02  0.18476687297E+03  0.43639513962E+03  0.47595903734E+03  0.00000000000E+00 0. -1.
    9900018    1    3    3    0    0 -0.82670763367E+02  0.89680564020E+02  0.37882221250E+03  0.40828728336E+03  0.91187600000E+02 0.  0.
<mgrwt>
<rscale>  0 0.93969706E+03</rscale>
<asrwt>0</asrwt>
<pdfrwt beam="1">  1        2 0.24292866E+00 0.93969706E+03</pdfrwt>
<pdfrwt beam="2">  1       -2 0.21508508E-01 0.93969706E+03</pdfrwt>
<totfact> 0.21563001E+02</totfact>
</mgrwt>
</event>
<event>
11    1  0.2703825E-013  0.9186737E+03  0.7818608E-02  0.9402535E-01
         -2   -1    0    0    0  501 -0.00000000000E+00  0.00000000000E+00  0.74254066250E+02  0.74254066250E+02  0.00000000000E+00 0.  1.
          2   -1    0    0  501    0  0.00000000000E+00 -0.00000000000E+00 -0.28414651290E+04  0.28414651290E+04  0.00000000000E+00 0. -1.
    9900016    2    1    2    0    0 -0.62620417147E+02 -0.81806898107E+02 -0.26952674930E+04  0.27900626695E+04  0.71370102706E+03 0.  0.
         23    2    3    3    0    0  0.11655786091E+02 -0.52556267534E+02 -0.69303630720E+02  0.11103613373E+03  0.68029487394E+02 0.  0.
        -15    1    3    3    0    0 -0.10645292467E+02  0.25307931662E+02 -0.11982273053E+03  0.12292802938E+03  0.00000000000E+00 0. -1.
        -15    1    4    4    0    0 -0.58076514452E+01  0.88804107405E+01  0.60826196602E+01  0.12230648885E+02  0.00000000000E+00 0. -1.
         15    1    3    3    0    0 -0.17144417253E+03  0.88594784784E+02 -0.10137009742E+04  0.10319068782E+04  0.00000000000E+00 0.  1.
         15    1    4    4    0    0  0.17463437536E+02 -0.61436678275E+02 -0.75386250380E+02  0.98805484840E+02  0.00000000000E+00 0.  1.
        -16    1    1    2    0    0  0.62620417147E+02  0.81806898107E+02 -0.71943569762E+02  0.12565652570E+03  0.00000000000E+00 0.  1.
         16    1    3    3    0    0  0.79597865691E+02 -0.18781107834E+03 -0.10041418460E+04  0.10246509982E+04  0.00000000000E+00 0. -1.
    9900018    1    3    3    0    0  0.28215396069E+02  0.44657731317E+02 -0.48829831154E+03  0.49954062996E+03  0.91187600000E+02 0.  0.
<mgrwt>
<rscale>  0 0.91867370E+03</rscale>
<asrwt>0</asrwt>
<pdfrwt beam="1">  1        2 0.43714852E+00 0.91867370E+03</pdfrwt>
<pdfrwt beam="2">  1       -2 0.11423701E-01 0.91867370E+03</pdfrwt>
<totfact> 0.12410611E+02</totfact>
</mgrwt>
</event>
<event>
11    1  0.2703825E-013  0.1218300E+04  0.7818608E-02  0.9096988E-01
         -1   -1    0    0    0  501 -0.00000000000E+00  0.00000000000E+00  0.22407945269E+03  0.22407945269E+03  0.00000000000E+00 0.  1.
          1   -1    0    0  501    0  0.00000000000E+00 -0.00000000000E+00 -0.16559469138E+04  0.16559469138E+04  0.00000000000E+00 0. -1.
    9900016    2    1    2    0    0  0.23136059405E+03  0.27935671347E+03 -0.12283256201E+04  0.14640970710E+04  0.70938600660E+03 0.  0.
         23    2    3    3    0    0  0.12306890683E+03 -0.28955034190E+02 -0.17130573621E+03  0.23706442650E+03  0.10425707276E+03 0.  0.
        -15    1    4    4    0    0  0.16203613777E+02 -0.22572676450E+02  0.73918285817E+01  0.28752772933E+02  0.00000000000E+00 0. -1.
        -15    1    3    3    0    0  0.32536029517E+02  0.19414974463E+02  0.19361508045E+02  0.42548824237E+02  0.00000000000E+00 0.  1.
         15    1    3    3    0    0  0.15002007332E+03  0.11326938255E+03 -0.27086028569E+03  0.32969875612E+03  0.00000000000E+00 0. -1.
         15    1    4    4    0    0  0.10686529305E+03 -0.63823577401E+01 -0.17869756480E+03  0.20831165357E+03  0.00000000000E+00 0.  1.
        -16    1    1    2    0    0 -0.23136059405E+03 -0.27935671347E+03 -0.20354184100E+03  0.41592929553E+03  0.00000000000E+00 0.  1.
         16    1    3    3    0    0 -0.12118485530E+03  0.89019149458E+02 -0.46752009864E+03  0.49110611965E+03  0.00000000000E+00 0. -1.
    9900018    1    3    3    0    0  0.46920439687E+02  0.86608241189E+02 -0.33800100760E+03  0.36367894445E+03  0.91187600000E+02 0.  0.
<mgrwt>
<rscale>  0 0.12182999E+04</rscale>
<asrwt>0</asrwt>
<pdfrwt beam="1">  1        1 0.25476106E+00 0.12182999E+04</pdfrwt>
<pdfrwt beam="2">  1       -1 0.34473762E-01 0.12182999E+04</pdfrwt>
<totfact> 0.40265619E+01</totfact>
</mgrwt>
</event>
<event>
12    1  0.2703825E-013  0.1081997E+04  0.7818608E-02  0.9222919E-01
         -2   -1    0    0    0  501 -0.00000000000E+00  0.00000000000E+00  0.21803162689E+03  0.21803162689E+03  0.00000000000E+00 0.  1.
          2   -1    0    0  501    0  0.00000000000E+00 -0.00000000000E+00 -0.13423708758E+04  0.13423708758E+04  0.00000000000E+00 0. -1.
    9900016    2    1    2    0    0  0.86703586804E+02 -0.21512669581E+03 -0.10947351094E+04  0.13265790387E+04  0.71243945640E+03 0.  0.
         23    2    3    3    0    0  0.43955240324E+02 -0.11122983205E+03 -0.11706932337E+03  0.18098607528E+03  0.68895531645E+02 0.  0.
         23    2    3    3    0    0  0.84498771229E+02 -0.31924600475E+02  0.56566917921E+01  0.11864545629E+03  0.76717166795E+02 0.  0.
        -15    1    4    4    0    0 -0.86013145335E+01 -0.37966536475E+02 -0.84772785326E+01  0.39840993398E+02  0.00000000000E+00 0.  1.
        -15    1    5    5    0    0  0.33504103992E+02 -0.44066175298E+02  0.27554573145E+02  0.61835323974E+02  0.00000000000E+00 0. -1.
         15    1    4    4    0    0  0.52556554858E+02 -0.73263295571E+02 -0.10859204484E+03  0.14114508188E+03  0.00000000000E+00 0.  1.
         15    1    5    5    0    0  0.50994667237E+02  0.12141574824E+02 -0.21897881353E+02  0.56810132314E+02  0.00000000000E+00 0. -1.
        -16    1    1    2    0    0 -0.86703586804E+02  0.21512669581E+03 -0.29604139498E+02  0.23382346394E+03  0.00000000000E+00 0.  1.
         16    1    3    3    0    0  0.54942257509E+01 -0.72687942216E+02 -0.87368458280E+03  0.87672029387E+03  0.00000000000E+00 0. -1.
    9900018    1    3    3    0    0 -0.47244650500E+02  0.71567893092E+00 -0.10963789503E+03  0.15022721331E+03  0.91187600000E+02 0.  0.
<mgrwt>
<rscale>  0 0.10819969E+04</rscale>
<asrwt>0</asrwt>
<pdfrwt beam="1">  1        2 0.20651859E+00 0.10819969E+04</pdfrwt>
<pdfrwt beam="2">  1       -2 0.33543327E-01 0.10819969E+04</pdfrwt>
<totfact> 0.12885302E+02</totfact>
</mgrwt>
</event>
<event>
11    1  0.2703825E-013  0.1094961E+04  0.7818608E-02  0.9210117E-01
         -2   -1    0    0    0  501 -0.00000000000E+00  0.00000000000E+00  0.17131157457E+03  0.17131157457E+03  0.00000000000E+00 0.  1.
          2   -1    0    0  501    0  0.00000000000E+00 -0.00000000000E+00 -0.17496479491E+04  0.17496479491E+04  0.00000000000E+00 0. -1.
    9900016    2    1    2    0    0 -0.20956314257E+03  0.10385154849E+02 -0.15384926620E+04  0.17073896672E+04  0.71006706898E+03 0.  0.
         23    2    3    3    0    0  0.35819822601E+02  0.17396715547E+03 -0.17515290704E+03  0.27425610299E+03  0.11397472662E+03 0.  0.
        -15    1    4    4    0    0 -0.18354334767E+02  0.76301061666E+02 -0.16432354753E+02  0.80179522940E+02  0.00000000000E+00 0.  1.
        -15    1    3    3    0    0 -0.27970145111E+02 -0.10528571763E+03 -0.35349549845E+03  0.36990063365E+03  0.00000000000E+00 0.  1.
         15    1    4    4    0    0  0.54174157368E+02  0.97666093806E+02 -0.15872055229E+03  0.19407658005E+03  0.00000000000E+00 0. -1.
         15    1    3    3    0    0  0.16259232684E+02 -0.13719080578E+02 -0.83595292262E+02  0.86259774563E+02  0.00000000000E+00 0. -1.
        -16    1    1    2    0    0  0.20956314257E+03 -0.10385154849E+02 -0.39843712537E+02  0.21356985648E+03  0.00000000000E+00 0.  1.
         16    1    3    3    0    0 -0.13404086819E+03 -0.61358521996E+02 -0.67822700930E+03  0.69406318063E+03  0.00000000000E+00 0. -1.
    9900018    1    3    3    0    0 -0.99631184561E+02  0.16781319577E+02 -0.24802195491E+03  0.28290997532E+03  0.91187600000E+02 0.  0.
<mgrwt>
<rscale>  0 0.10949611E+04</rscale>
<asrwt>0</asrwt>
<pdfrwt beam="1">  1        2 0.26917658E+00 0.10949611E+04</pdfrwt>
<pdfrwt beam="2">  1       -2 0.26355630E-01 0.10949611E+04</pdfrwt>
<totfact> 0.11911846E+02</totfact>
</mgrwt>
</event>
<event>
12    1  0.2703825E-013  0.2537172E+04  0.7818608E-02  0.8389861E-01
          2   -1    0    0  501    0  0.00000000000E+00  0.00000000000E+00  0.16503076006E+04  0.16503076006E+04  0.00000000000E+00 0. -1.
         -2   -1    0    0    0  501 -0.00000000000E+00 -0.00000000000E+00 -0.97515782758E+03  0.97515782758E+03  0.00000000000E+00 0.  1.
    9900016    2    1    2    0    0  0.10449121417E+04  0.27748740236E+03 -0.11095552193E+03  0.12887522290E+04  0.69262582796E+03 0.  0.
         23    2    3    3    0    0  0.24537357507E+03  0.20427532708E+03 -0.92482889485E+02  0.34876487518E+03  0.10558055084E+03 0.  0.
         23    2    3    3    0    0  0.42277642922E+03  0.35448727519E+02  0.15991225274E+03  0.46540626539E+03  0.10504542779E+03 0.  0.
        -15    1    5    5    0    0  0.22212178047E+03  0.39786222823E+02  0.13553078215E+03  0.26322921912E+03  0.00000000000E+00 0. -1.
        -15    1    4    4    0    0  0.14999261756E+03  0.10037036952E+03 -0.10216485972E+03  0.20738769240E+03  0.00000000000E+00 0. -1.
         15    1    5    5    0    0  0.20065464875E+03 -0.43374953041E+01  0.24381470583E+02  0.20217704627E+03  0.00000000000E+00 0.  1.
         15    1    4    4    0    0  0.95380957512E+02  0.10390495756E+03  0.96819702362E+01  0.14137718278E+03  0.00000000000E+00 0.  1.
        -16    1    3    3    0    0  0.14514890817E+03  0.63197445227E+02 -0.15779739039E+03  0.22352212204E+03  0.00000000000E+00 0.  1.
         16    1    1    2    0    0 -0.10449121417E+04 -0.27748740236E+03  0.78610529499E+03  0.13367131993E+04  0.00000000000E+00 0. -1.
    9900018    1    3    3    0    0  0.23161322919E+03 -0.25434097465E+02 -0.20587494793E+02  0.25105896635E+03  0.91187600000E+02 0.  0.
<mgrwt>
<rscale>  0 0.25371719E+04</rscale>
<asrwt>0</asrwt>
<pdfrwt beam="1">  1        2 0.25389348E+00 0.25371719E+04</pdfrwt>
<pdfrwt beam="2">  1       -2 0.15002428E+00 0.25371719E+04</pdfrwt>
<totfact> 0.27839350E+00</totfact>
</mgrwt>
</event>
<event>
12    1  0.2703825E-013  0.1184669E+04  0.7818608E-02  0.9126383E-01
         -2   -1    0    0    0  501 -0.00000000000E+00  0.00000000000E+00  0.32674173412E+03  0.32674173412E+03  0.00000000000E+00 0. -1.
          2   -1    0    0  501    0  0.00000000000E+00 -0.00000000000E+00 -0.10738140926E+04  0.10738140926E+04  0.00000000000E+00 0.  1.
    9900016    2    1    2    0    0  0.94807533602E+02 -0.79736485444E+02 -0.91897755773E+02  0.73377240193E+03  0.71737742143E+03 0.  0.
         23    2    3    3    0    0 -0.80235171405E+00  0.10422615565E+02  0.49695958325E+02  0.93514409905E+02  0.78523766483E+02 0.  0.
         23    2    3    3    0    0 -0.50215478360E+02 -0.10311081677E+03 -0.17574958533E+03  0.23637765552E+03  0.10877979815E+03 0.  0.
        -15    1    5    5    0    0 -0.26613840051E+02  0.40796160530E+01 -0.98619648814E+02  0.10222903150E+03  0.00000000000E+00 0.  1.
        -15    1    4    4    0    0 -0.32820089396E+02  0.17039487842E+02  0.48245960967E+02  0.60787952453E+02  0.00000000000E+00 0.  1.
         15    1    4    4    0    0  0.32017737682E+02 -0.66168722765E+01  0.14499973580E+01  0.32726457452E+02  0.00000000000E+00 0. -1.
         15    1    5    5    0    0 -0.23601638309E+02 -0.10719043283E+03 -0.77129936517E+02  0.13414862402E+03  0.00000000000E+00 0. -1.
        -16    1    1    2    0    0 -0.94807533602E+02  0.79736485444E+02 -0.65517460276E+03  0.66678342484E+03  0.00000000000E+00 0.  1.
         16    1    3    3    0    0  0.20276581751E+03  0.66369704871E+02  0.13037492557E+03  0.25003306920E+03  0.00000000000E+00 0. -1.
    9900018    1    3    3    0    0 -0.56940453838E+02 -0.53417989106E+02 -0.96219054335E+02  0.15384726730E+03  0.91187600000E+02 0.  0.
<mgrwt>
<rscale>  0 0.11846685E+04</rscale>
<asrwt>0</asrwt>
<pdfrwt beam="1">  1        2 0.16520217E+00 0.11846685E+04</pdfrwt>
<pdfrwt beam="2">  1       -2 0.50267960E-01 0.11846685E+04</pdfrwt>
<totfact> 0.83601303E+01</totfact>
</mgrwt>
</event>
<event>
11    1  0.2703825E-013  0.2281477E+04  0.7818608E-02  0.8485261E-01
          2   -1    0    0  501    0  0.00000000000E+00  0.00000000000E+00  0.99540875209E+03  0.99540875209E+03  0.00000000000E+00 0. -1.
         -2   -1    0    0    0  501 -0.00000000000E+00 -0.00000000000E+00 -0.13072861084E+04  0.13072861084E+04  0.00000000000E+00 0.  1.
    9900016    2    1    2    0    0 -0.72296334707E+02 -0.38120483420E+03  0.79442872631E+03  0.11303224648E+04  0.70424994691E+03 0.  0.
         23    2    3    3    0    0 -0.67192121531E+02  0.11868318047E+03  0.33494659280E+02  0.15451045698E+03  0.64429112928E+02 0.  0.
        -15    1    3    3    0    0 -0.24549724485E+02 -0.93176666425E+02  0.10042106677E+03  0.13917244982E+03  0.00000000000E+00 0.  1.
        -15    1    4    4    0    0 -0.42278599331E+02  0.11330788089E+03  0.41395677773E+02  0.12782706275E+03  0.00000000000E+00 0. -1.
         15    1    4    4    0    0 -0.24913522200E+02  0.53752995734E+01 -0.79010184934E+01  0.26683394221E+02  0.00000000000E+00 0.  1.
         15    1    3    3    0    0 -0.25634903243E+02 -0.11540774726E+03  0.21768028044E+03  0.24771112386E+03  0.00000000000E+00 0. -1.
        -16    1    1    2    0    0  0.72296334707E+02  0.38120483420E+03 -0.11063060826E+04  0.11723723957E+04  0.00000000000E+00 0.  1.
         16    1    3    3    0    0  0.33545280107E+02 -0.28141864803E+03  0.26259054704E+03  0.38636192446E+03  0.00000000000E+00 0. -1.
    9900018    1    3    3    0    0  0.11535134445E+02 -0.98849529499E+01  0.18024217278E+03  0.20256650973E+03  0.91187600000E+02 0.  0.
<mgrwt>
<rscale>  0 0.22814767E+04</rscale>
<asrwt>0</asrwt>
<pdfrwt beam="1">  1        2 0.15313981E+00 0.22814767E+04</pdfrwt>
<pdfrwt beam="2">  1       -2 0.20112094E+00 0.22814767E+04</pdfrwt>
<totfact> 0.30104433E+00</totfact>
</mgrwt>
</event>
<event>
12    1  0.2703825E-013  0.9988086E+03  0.7818608E-02  0.9309852E-01
         -2   -1    0    0    0  501 -0.00000000000E+00  0.00000000000E+00  0.39127694416E+03  0.39127694416E+03  0.00000000000E+00 0.  1.
          2   -1    0    0  501    0  0.00000000000E+00 -0.00000000000E+00 -0.63741209460E+03  0.63741209460E+03  0.00000000000E+00 0. -1.
    9900016    2    1    2    0    0 -0.17060331063E+02 -0.23973386034E+03 -0.24093629517E+03  0.78829268524E+03  0.71104970331E+03 0.  0.
         23    2    3    3    0    0 -0.71123938297E+02 -0.52458604303E+02  0.40114574245E+02  0.14420862273E+03  0.10666033958E+03 0.  0.
         23    2    3    3    0    0 -0.11529163097E+03  0.74727781653E+02 -0.17201729982E+02  0.15803084880E+03  0.76167237936E+02 0.  0.
        -15    1    5    5    0    0 -0.11814934427E+02  0.31239202425E+02 -0.30211297453E+02  0.45035574132E+02  0.00000000000E+00 0.  1.
        -15    1    4    4    0    0 -0.82496749066E+01 -0.34209270805E+02  0.65206282711E+02  0.74095820733E+02  0.00000000000E+00 0.  1.
         15    1    5    5    0    0 -0.10347669655E+03  0.43488579228E+02  0.13009567470E+02  0.11299527467E+03  0.00000000000E+00 0. -1.
         15    1    4    4    0    0 -0.62874263391E+02 -0.18249333497E+02 -0.25091708466E+02  0.70112801996E+02  0.00000000000E+00 0. -1.
        -16    1    1    2    0    0  0.17060331063E+02  0.23973386034E+03 -0.51988552690E+01  0.24039635352E+03  0.00000000000E+00 0.  1.
         16    1    3    3    0    0  0.51471176718E+02 -0.22960993656E+03 -0.83090272758E+02  0.24954758750E+03  0.00000000000E+00 0. -1.
    9900018    1    3    3    0    0  0.11788406149E+03 -0.32393101134E+02 -0.18075886667E+03  0.23650562621E+03  0.91187600000E+02 0.  0.
<mgrwt>
<rscale>  0 0.99880860E+03</rscale>
<asrwt>0</asrwt>
<pdfrwt beam="1">  1        2 0.98063399E-01 0.99880860E+03</pdfrwt>
<pdfrwt beam="2">  1       -2 0.60196453E-01 0.99880860E+03</pdfrwt>
<totfact> 0.11836171E+02</totfact>
</mgrwt>
</event>
<event>
12    1  0.2703825E-013  0.1140987E+04  0.7818608E-02  0.9166139E-01
         -1   -1    0    0    0  501 -0.00000000000E+00  0.00000000000E+00  0.24706600478E+03  0.24706600478E+03  0.00000000000E+00 0.  1.
          1   -1    0    0  501    0  0.00000000000E+00 -0.00000000000E+00 -0.13173111512E+04  0.13173111512E+04  0.00000000000E+00 0. -1.
    9900016    2    1    2    0    0 -0.18486463587E+02 -0.32256957341E+03 -0.56107206167E+03  0.96134306966E+03  0.71062350100E+03 0.  0.
         23    2    3    3    0    0  0.87965694631E+02 -0.40049602267E+02  0.21772921918E+02  0.12632088342E+03  0.78364350224E+02 0.  0.
         23    2    3    3    0    0 -0.42671664945E+02  0.24209447765E+02  0.17288888235E+02  0.12190403007E+03  0.11024844009E+03 0.  0.
        -15    1    4    4    0    0 -0.51715208995E+01 -0.30334722234E+02  0.45284701304E+01  0.31103810750E+02  0.00000000000E+00 0. -1.
        -15    1    5    5    0    0 -0.22421516773E+02  0.37507548692E+01 -0.46589140396E+02  0.51839565771E+02  0.00000000000E+00 0.  1.
         15    1    5    5    0    0 -0.20250148171E+02  0.20458692896E+02  0.63878028631E+02  0.70064464301E+02  0.00000000000E+00 0. -1.
         15    1    4    4    0    0  0.93137215531E+02 -0.97148800335E+01  0.17244451788E+02  0.95217072673E+02  0.00000000000E+00 0.  1.
        -16    1    3    3    0    0 -0.25463912788E+02 -0.24834141483E+03 -0.50743280511E+03  0.56551739220E+03  0.00000000000E+00 0.  1.
         16    1    1    2    0    0  0.18486463587E+02  0.32256957341E+03 -0.50917308476E+03  0.60303408633E+03  0.00000000000E+00 0. -1.
    9900018    1    3    3    0    0 -0.38316580486E+02 -0.58388004077E+02 -0.92701066715E+02  0.14760076397E+03  0.91187600000E+02 0.  0.
<mgrwt>
<rscale>  0 0.11409869E+04</rscale>
<asrwt>0</asrwt>
<pdfrwt beam="1">  1        1 0.20266326E+00 0.11409869E+04</pdfrwt>
<pdfrwt beam="2">  1       -1 0.38010154E-01 0.11409869E+04</pdfrwt>
<totfact> 0.58377581E+01</totfact>
</mgrwt>
</event>
<event>
12    1  0.2703825E-013  0.1116677E+04  0.7818608E-02  0.9189088E-01
         -2   -1    0    0    0  501 -0.00000000000E+00  0.00000000000E+00  0.15569416364E+03  0.15569416364E+03  0.00000000000E+00 0.  1.
          2   -1    0    0  501    0  0.00000000000E+00 -0.00000000000E+00 -0.20022718382E+04  0.20022718382E+04  0.00000000000E+00 0. -1.
    9900016    2    1    2    0    0  0.57668399173E+02 -0.24943124810E+02 -0.19289885293E+04  0.20543351536E+04  0.70380989845E+03 0.  0.
         23    2    3    3    0    0 -0.95423542235E+02 -0.34630360011E+02 -0.28787233607E+03  0.31159040889E+03  0.62555469723E+02 0.  0.
         23    2    3    3    0    0  0.17258685635E+03  0.18960302116E+02 -0.26971673173E+03  0.34088601460E+03  0.11537089552E+03 0.  0.
        -15    1    5    5    0    0  0.17821442514E+03 -0.66590125227E+01 -0.20900602133E+03  0.27475123426E+03  0.00000000000E+00 0. -1.
        -15    1    4    4    0    0 -0.58916311186E+02  0.11813310262E+02 -0.13959028019E+03  0.15197411736E+03  0.00000000000E+00 0. -1.
         15    1    4    4    0    0 -0.36507231048E+02 -0.46443670274E+02 -0.14828205588E+03  0.15961629154E+03  0.00000000000E+00 0.  1.
         15    1    5    5    0    0 -0.56275687894E+01  0.25619314639E+02 -0.60710710399E+02  0.66134780337E+02  0.00000000000E+00 0.  1.
        -16    1    1    2    0    0 -0.57668399173E+02  0.24943124810E+02  0.82410854750E+02  0.10363084830E+03  0.00000000000E+00 0.  1.
         16    1    3    3    0    0 -0.85894587527E+02 -0.63305137103E+02 -0.10731992276E+04  0.10784906132E+04  0.00000000000E+00 0. -1.
    9900018    1    3    3    0    0  0.66399672586E+02  0.54032070188E+02 -0.29820023392E+03  0.32336811690E+03  0.91187600000E+02 0.  0.
<mgrwt>
<rscale>  0 0.11166773E+04</rscale>
<asrwt>0</asrwt>
<pdfrwt beam="1">  1        2 0.30804178E+00 0.11166773E+04</pdfrwt>
<pdfrwt beam="2">  1       -2 0.23952951E-01 0.11166773E+04</pdfrwt>
<totfact> 0.10263635E+02</totfact>
</mgrwt>
</event>
<event>
11    1  0.2703825E-013  0.8646831E+03  0.7818608E-02  0.9470839E-01
          1   -1    0    0  501    0  0.00000000000E+00  0.00000000000E+00  0.12873244821E+04  0.12873244821E+04  0.00000000000E+00 0. -1.
         -1   -1    0    0    0  501 -0.00000000000E+00 -0.00000000000E+00 -0.14519978283E+03  0.14519978283E+03  0.00000000000E+00 0.  1.
    9900016    2    1    2    0    0 -0.93401608413E+02 -0.11241322302E+03  0.89682757243E+03  0.11469874484E+04  0.69994279691E+03 0.  0.
         23    2    3    3    0    0 -0.15886007592E+03 -0.10814080857E+03  0.68795866686E+03  0.71834140612E+03  0.76133371375E+02 0.  0.
        -15    1    4    4    0    0 -0.49522788804E+02 -0.42385153541E+02  0.37072589003E+03  0.37641292936E+03  0.00000000000E+00 0.  1.
        -15    1    3    3    0    0 -0.23291545257E+02 -0.43408720769E+02 -0.28528371912E+01  0.49345230765E+02  0.00000000000E+00 0.  1.
         15    1    3    3    0    0  0.10164150484E+02 -0.53377699218E+02 -0.25935579469E+00  0.54337427196E+02  0.00000000000E+00 0. -1.
         15    1    4    4    0    0 -0.10933728712E+03 -0.65755655033E+02  0.31723277683E+03  0.34192847676E+03  0.00000000000E+00 0. -1.
        -16    1    3    3    0    0 -0.14360402809E+02  0.66010337401E+02 -0.79366504378E+01  0.68018940250E+02  0.00000000000E+00 0.  1.
         16    1    1    2    0    0  0.93401608413E+02  0.11241322302E+03  0.24529712688E+03  0.28553681657E+03  0.00000000000E+00 0. -1.
    9900018    1    3    3    0    0  0.92946265091E+02  0.26503668140E+02  0.21991774899E+03  0.25694444406E+03  0.91187600000E+02 0.  0.
<mgrwt>
<rscale>  0 0.86468314E+03</rscale>
<asrwt>0</asrwt>
<pdfrwt beam="1">  1        1 0.19804991E+00 0.86468314E+03</pdfrwt>
<pdfrwt beam="2">  1       -1 0.22338429E-01 0.86468314E+03</pdfrwt>
<totfact> 0.15817513E+02</totfact>
</mgrwt>
</event>
<event>
12    1  0.2703825E-013  0.1252231E+04  0.7818608E-02  0.9068328E-01
         -1   -1    0    0    0  501 -0.00000000000E+00  0.00000000000E+00  0.13123811484E+04  0.13123811484E+04  0.00000000000E+00 0.  1.
          1   -1    0    0  501    0  0.00000000000E+00 -0.00000000000E+00 -0.29870947007E+03  0.29870947007E+03  0.00000000000E+00 0. -1.
    9900016    2    1    2    0    0  0.16960840475E+03 -0.28465428526E+03  0.30055272114E+03  0.82474863169E+03  0.69288043284E+03 0.  0.
         23    2    3    3    0    0  0.65309877457E+02  0.29292742060E+02  0.99288543130E+00  0.10402526549E+03  0.75477315843E+02 0.  0.
         23    2    3    3    0    0 -0.99762698439E+02  0.41747432196E+02 -0.57890839896E+02  0.14435853460E+03  0.76109086663E+02 0.  0.
        -15    1    5    5    0    0 -0.66626540059E+02 -0.54311682890E+01 -0.65645856492E+01  0.67169094188E+02  0.00000000000E+00 0. -1.
        -15    1    4    4    0    0  0.76875933873E+02  0.64077260285E+01  0.76858388046E+01  0.77524449561E+02  0.00000000000E+00 0. -1.
         15    1    5    5    0    0 -0.33136158380E+02  0.47178600485E+02 -0.51326254247E+02  0.77189440411E+02  0.00000000000E+00 0.  1.
         15    1    4    4    0    0 -0.11566056415E+02  0.22885016032E+02 -0.66929533733E+01  0.26500815924E+02  0.00000000000E+00 0.  1.
        -16    1    3    3    0    0  0.12834371240E+03 -0.89685258011E+02  0.87987000555E+02  0.17960307983E+03  0.00000000000E+00 0.  1.
         16    1    1    2    0    0 -0.16960840475E+03  0.28465428526E+03  0.71311895716E+03  0.78634198676E+03  0.00000000000E+00 0. -1.
    9900018    1    3    3    0    0  0.75717513328E+02 -0.26600920150E+03  0.26946367505E+03  0.39676175178E+03  0.91187600000E+02 0.  0.
<mgrwt>
<rscale>  0 0.12522311E+04</rscale>
<asrwt>0</asrwt>
<pdfrwt beam="1">  1        1 0.45955304E-01 0.12522311E+04</pdfrwt>
<pdfrwt beam="2">  1       -1 0.20190479E+00 0.12522311E+04</pdfrwt>
<totfact> 0.12696928E+01</totfact>
</mgrwt>
</event>
<event>
11    1  0.2703825E-013  0.9599834E+03  0.7818608E-02  0.9353557E-01
          3   -1    0    0  501    0  0.00000000000E+00  0.00000000000E+00  0.23363637076E+03  0.23363637076E+03  0.00000000000E+00 0. -1.
         -3   -1    0    0    0  501 -0.00000000000E+00 -0.00000000000E+00 -0.98611372243E+03  0.98611372243E+03  0.00000000000E+00 0.  1.
    9900016    2    1    2    0    0  0.81487318802E+02  0.34991919770E+02 -0.83464070272E+03  0.10988557847E+04  0.70922092136E+03 0.  0.
         23    2    3    3    0    0 -0.20023220166E+03  0.27450432301E+02 -0.55409177273E+03  0.59360237897E+03  0.67079288067E+02 0.  0.
        -15    1    3    3    0    0  0.12560378264E+03 -0.58056157894E+02 -0.52151322544E+02  0.14787355452E+03  0.00000000000E+00 0.  1.
        -15    1    4    4    0    0 -0.89316110622E+02  0.23812444910E+02 -0.34148901626E+03  0.35377838879E+03  0.00000000000E+00 0.  1.
         15    1    4    4    0    0 -0.11091609104E+03  0.36379873913E+01 -0.21260275648E+03  0.23982399018E+03  0.00000000000E+00 0. -1.
         15    1    3    3    0    0  0.34826620017E+02 -0.50157009475E+02 -0.22479574300E+02  0.65068812207E+02  0.00000000000E+00 0. -1.
        -16    1    3    3    0    0  0.29931120775E+02  0.53324064228E+02 -0.85217352312E+02  0.10488720109E+03  0.00000000000E+00 0.  1.
         16    1    1    2    0    0 -0.81487318802E+02 -0.34991919770E+02  0.82163351050E+02  0.12089430851E+03  0.00000000000E+00 0. -1.
    9900018    1    3    3    0    0  0.91357997029E+02  0.62430590611E+02 -0.12070068083E+03  0.18742383789E+03  0.91187600000E+02 0.  0.
<mgrwt>
<rscale>  0 0.95998340E+03</rscale>
<asrwt>0</asrwt>
<pdfrwt beam="1">  1        3 0.35944057E-01 0.95998340E+03</pdfrwt>
<pdfrwt beam="2">  1       -3 0.15170980E+00 0.95998340E+03</pdfrwt>
<totfact> 0.62929345E+00</totfact>
</mgrwt>
</event>
