<event>
11    1  0.3322492E-015  0.3314867E+04  0.7818608E-02  0.8648603E-01
         -2   -1    0    0    0  501 -0.00000000000E+00  0.00000000000E+00  0.19869157986E+04  0.19869157986E+04  0.00000000000E+00 0.  1.
          2   -1    0    0  501    0  0.00000000000E+00 -0.00000000000E+00 -0.17105795419E+04  0.17105795419E+04  0.00000000000E+00 0. -1.
         23    2    1    2    0    0 -0.27385278189E+03  0.21420364681E+03  0.85172820874E+02  0.37712052398E+03  0.11868838077E+03 0.  0.
    9900016    2    1    2    0    0  0.36715107738E+03  0.69906884044E+02  0.25562323087E+03  0.22396699199E+04  0.21934199844E+04 0.  0.
        -15    1    3    3    0    0 -0.85890590656E+02  0.83380471688E+02  0.87208128301E+02  0.14810386310E+03  0.00000000000E+00 0. -1.
        -15    1    4    4    0    0  0.33546756366E+03 -0.39075680424E+03 -0.87660480684E+03  0.10166933430E+04  0.00000000000E+00 0.  1.
         15    1    4    4    0    0  0.37752831671E+01  0.36019696947E+02  0.10574244363E+03  0.11177269665E+03  0.00000000000E+00 0. -1.
         15    1    3    3    0    0 -0.18796219124E+03  0.13082317512E+03 -0.20353074262E+01  0.22901666088E+03  0.00000000000E+00 0.  1.
        -16    1    4    4    0    0  0.27908230561E+02  0.42464399134E+03  0.10264855941E+04  0.11112038803E+04  0.00000000000E+00 0.  1.
         16    1    1    2    0    0  0.58541423402E+02 -0.52682684986E+03 -0.37445285478E+03  0.64899042246E+03  0.00000000000E+00 0. -1.
    9900018    1    1    2    0    0 -0.15183971889E+03  0.24271631901E+03  0.30999305968E+03  0.43171447415E+03  0.91187600000E+02 0.  0.
<mgrwt>
<rscale>  0 0.19126145E+04</rscale>
<asrwt>0</asrwt>
<pdfrwt beam="1">  1        2 0.26316608E+00 0.33148673E+04</pdfrwt>
<pdfrwt beam="2">  1       -2 0.30567936E+00 0.33148673E+04</pdfrwt>
<totfact> 0.23362456E-01</totfact>
</mgrwt>
</event>
<event>
12    1  0.3322492E-015  0.3974542E+04  0.7818608E-02  0.8522240E-01
         -2   -1    0    0    0  501 -0.00000000000E+00  0.00000000000E+00  0.15788812198E+04  0.15788812198E+04  0.00000000000E+00 0.  1.
          2   -1    0    0  501    0  0.00000000000E+00 -0.00000000000E+00 -0.38004488705E+04  0.38004488705E+04  0.00000000000E+00 0. -1.
         23    2    1    2    0    0 -0.36393745879E+02  0.35007337334E+03 -0.12291590133E+04  0.12827628808E+04  0.10379237413E+03 0.  0.
    9900016    2    1    2    0    0  0.55816073994E+03 -0.70337514955E+03 -0.14831933926E+04  0.28255357616E+04  0.22310333228E+04 0.  0.
        -24    2    4    4    0    0  0.13538028180E+04 -0.63633507658E+03 -0.13502412615E+04  0.20160810335E+04  0.61048092257E+02 0.  0.
        -15    1    4    4    0    0 -0.79564207805E+03 -0.67040072974E+02 -0.13295213114E+03  0.80945472815E+03  0.00000000000E+00 0.  1.
        -15    1    3    3    0    0 -0.10327289143E+02  0.28529129132E+03 -0.83465159148E+03  0.88212303732E+03  0.00000000000E+00 0.  1.
         15    1    3    3    0    0 -0.26066456736E+02  0.64782082014E+02 -0.39450742179E+03  0.40063984346E+03  0.00000000000E+00 0. -1.
         15    1    5    5    0    0  0.10413686013E+04 -0.50665461537E+03 -0.10718945575E+04  0.15780067825E+04  0.00000000000E+00 0. -1.
        -16    1    5    5    0    0  0.31243421670E+03 -0.12968046121E+03 -0.27834670395E+03  0.43807425099E+03  0.00000000000E+00 0.  1.
         16    1    1    2    0    0 -0.73383867989E+03  0.28265780484E+03  0.61613240447E+03  0.99901640756E+03  0.00000000000E+00 0. -1.
    9900018    1    1    2    0    0  0.21207168583E+03  0.70643971377E+02 -0.12534764931E+03  0.27201504040E+03  0.91187600000E+02 0.  0.
<mgrwt>
<rscale>  0 0.21908651E+04</rscale>
<asrwt>0</asrwt>
<pdfrwt beam="1">  1        2 0.58468444E+00 0.39745425E+04</pdfrwt>
<pdfrwt beam="2">  1       -2 0.24290480E+00 0.39745425E+04</pdfrwt>
<totfact> 0.26674072E-02</totfact>
</mgrwt>
</event>
<event>
12    1  0.3322492E-015  0.3244199E+04  0.7818608E-02  0.8797188E-01
          1   -1    0    0  501    0  0.00000000000E+00  0.00000000000E+00  0.10474355634E+04  0.10474355634E+04  0.00000000000E+00 0.  1.
         -1   -1    0    0    0  501 -0.00000000000E+00 -0.00000000000E+00 -0.29011423946E+04  0.29011423946E+04  0.00000000000E+00 0. -1.
         23    2    1    2    0    0  0.14103651730E+03 -0.11338569649E+03 -0.25740229714E+03  0.33291512357E+03  0.10876084564E+03 0.  0.
    9900016    2    1    2    0    0 -0.23484088992E+03  0.18351237037E+02 -0.57185782350E+03  0.22726388747E+04  0.21868651245E+04 0.  0.
        -24    2    4    4    0    0  0.95776414616E+02 -0.89461639360E+03  0.31732589173E+03  0.95602755158E+03  0.61492637903E+02 0.  0.
        -15    1    3    3    0    0  0.97231243493E+02 -0.15861180449E+02 -0.85321216999E+02  0.13032728735E+03  0.00000000000E+00 0.  1.
        -15    1    4    4    0    0 -0.33061730454E+03  0.91296763063E+03 -0.88918371524E+03  0.13166113231E+04  0.00000000000E+00 0.  1.
         15    1    5    5    0    0  0.81137717635E+02 -0.52122609550E+03  0.16786997902E+03  0.55357050292E+03  0.00000000000E+00 0. -1.
         15    1    3    3    0    0  0.43805273809E+02 -0.97524516042E+02 -0.17208108014E+03  0.20258783622E+03  0.00000000000E+00 0. -1.
        -16    1    5    5    0    0  0.14638696981E+02 -0.37339029810E+03  0.14945591272E+03  0.40245704865E+03  0.00000000000E+00 0.  1.
         16    1    1    2    0    0  0.16921375152E+03  0.15137895317E+03 -0.11435859858E+04  0.11659064234E+04  0.00000000000E+00 0. -1.
    9900018    1    1    2    0    0 -0.75409378905E+02 -0.56344493717E+02  0.11913927526E+03  0.17711753641E+03  0.91187600000E+02 0.  0.
<mgrwt>
<rscale>  0 0.16385849E+04</rscale>
<asrwt>0</asrwt>
<pdfrwt beam="1">  1        1 0.16114393E+00 0.32441994E+04</pdfrwt>
<pdfrwt beam="2">  1       -1 0.44632960E+00 0.32441994E+04</pdfrwt>
<totfact> 0.39403402E-02</totfact>
</mgrwt>
</event>
<event>
12    1  0.3322492E-015  0.4293863E+04  0.7818608E-02  0.8489629E-01
          2   -1    0    0  501    0  0.00000000000E+00  0.00000000000E+00  0.27427254141E+04  0.27427254141E+04  0.00000000000E+00 0. -1.
         -2   -1    0    0    0  501 -0.00000000000E+00 -0.00000000000E+00 -0.20677409746E+04  0.20677409746E+04  0.00000000000E+00 0.  1.
         23    2    1    2    0    0 -0.19187792827E+03 -0.26558330007E+03  0.37915957744E+03  0.50642499314E+03  0.73161874544E+02 0.  0.
    9900016    2    1    2    0    0 -0.29085339588E+03 -0.59327277280E+03 -0.74410995327E+03  0.24167258920E+04  0.22023387872E+04 0.  0.
        -24    2    4    4    0    0 -0.64906818208E+03  0.30668649263E+03  0.47004684295E+03  0.86352878975E+03  0.96911435897E+02 0.  0.
        -15    1    4    4    0    0  0.35821478620E+03 -0.89995926543E+03 -0.12141567962E+04  0.15531971022E+04  0.00000000000E+00 0.  1.
        -15    1    3    3    0    0 -0.11659922822E+03 -0.15053780003E+03  0.27241349502E+03  0.33236444083E+03  0.00000000000E+00 0. -1.
         15    1    3    3    0    0 -0.75278700041E+02 -0.11504550004E+03  0.10674608242E+03  0.17406055231E+03  0.00000000000E+00 0.  1.
         15    1    5    5    0    0 -0.28444942002E+03  0.14880059294E+03  0.26577491097E+03  0.41676059352E+03  0.00000000000E+00 0. -1.
        -16    1    5    5    0    0 -0.36461876206E+03  0.15788589969E+03  0.20427193198E+03  0.44676819623E+03  0.00000000000E+00 0.  1.
         16    1    1    2    0    0  0.37143916910E+03  0.38323084340E+03 -0.18545925356E+03  0.56500271717E+03  0.00000000000E+00 0. -1.
    9900018    1    1    2    0    0  0.11129215504E+03  0.47562522948E+03  0.12253940689E+04  0.13223127864E+04  0.91187600000E+02 0.  0.
<mgrwt>
<rscale>  0 0.22705376E+04</rscale>
<asrwt>0</asrwt>
<pdfrwt beam="1">  1        2 0.42195776E+00 0.42938631E+04</pdfrwt>
<pdfrwt beam="2">  1       -2 0.31811400E+00 0.42938631E+04</pdfrwt>
<totfact> 0.46624758E-02</totfact>
</mgrwt>
</event>
<event>
12    1  0.3322492E-015  0.3673918E+04  0.7818608E-02  0.8465197E-01
          2   -1    0    0  501    0  0.00000000000E+00  0.00000000000E+00  0.15512999782E+04  0.15512999782E+04  0.00000000000E+00 0. -1.
         -2   -1    0    0    0  501 -0.00000000000E+00 -0.00000000000E+00 -0.29927235874E+04  0.29927235874E+04  0.00000000000E+00 0.  1.
         23    2    1    2    0    0 -0.57358778555E+03  0.12445205946E+03 -0.42280512275E+03  0.73150993660E+03  0.10886391818E+03 0.  0.
    9900016    2    1    2    0    0  0.18939689705E+03  0.56758178612E+02 -0.17084957605E+04  0.27974823677E+04  0.22063220885E+04 0.  0.
        -24    2    4    4    0    0  0.30550597569E+03 -0.41609166592E+03  0.38542637804E+03  0.64769674675E+03  0.67017962059E+02 0.  0.
        -15    1    3    3    0    0 -0.59303468918E+02 -0.11058755921E+02 -0.74089182272E+02  0.95542683854E+02  0.00000000000E+00 0.  1.
        -15    1    4    4    0    0 -0.11610907864E+03  0.47284984453E+03 -0.20939221386E+04  0.21497856210E+04  0.00000000000E+00 0.  1.
         15    1    3    3    0    0 -0.51428431664E+03  0.13551081538E+03 -0.34871594048E+03  0.63596725275E+03  0.00000000000E+00 0. -1.
         15    1    5    5    0    0  0.23590587931E+03 -0.27803387289E+03  0.24936720251E+03  0.44174474536E+03  0.00000000000E+00 0. -1.
        -16    1    5    5    0    0  0.69600096382E+02 -0.13805779303E+03  0.13605917553E+03  0.20595200139E+03  0.00000000000E+00 0.  1.
         16    1    1    2    0    0  0.23143752852E+03 -0.34737424213E+02  0.74262683591E+03  0.77862997352E+03  0.00000000000E+00 0. -1.
    9900018    1    1    2    0    0  0.15275335999E+03 -0.14647281386E+03 -0.52749561838E+02  0.23640128776E+03  0.91187600000E+02 0.  0.
<mgrwt>
<rscale>  0 0.23325481E+04</rscale>
<asrwt>0</asrwt>
<pdfrwt beam="1">  1        2 0.23866154E+00 0.36739184E+04</pdfrwt>
<pdfrwt beam="2">  1       -2 0.46041901E+00 0.36739184E+04</pdfrwt>
<totfact> 0.27898951E-02</totfact>
</mgrwt>
</event>
<event>
12    1  0.3322492E-015  0.3656484E+04  0.7818608E-02  0.8807026E-01
          1   -1    0    0  501    0  0.00000000000E+00  0.00000000000E+00  0.41936677234E+04  0.41936677234E+04  0.00000000000E+00 0. -1.
         -1   -1    0    0    0  501 -0.00000000000E+00 -0.00000000000E+00 -0.86031413518E+03  0.86031413518E+03  0.00000000000E+00 0.  1.
         23    2    1    2    0    0 -0.82607358333E+02  0.18353748710E+01  0.10595635786E+03  0.17689601298E+03  0.11505696582E+03 0.  0.
    9900016    2    1    2    0    0 -0.75800570555E+02 -0.10276246294E+03  0.11514095920E+04  0.24997954056E+04  0.22151584979E+04 0.  0.
        -24    2    4    4    0    0  0.91206443850E+03  0.43853223693E+03  0.22501561804E+03  0.10413431358E+04  0.97935873661E+02 0.  0.
        -15    1    4    4    0    0 -0.98786500905E+03 -0.54129469987E+03  0.92639397392E+03  0.14584522697E+04  0.00000000000E+00 0.  1.
        -15    1    3    3    0    0 -0.21414999067E+01 -0.37422964863E+02  0.71939918613E+02  0.81119764614E+02  0.00000000000E+00 0.  1.
         15    1    3    3    0    0 -0.80465858426E+02  0.39258339734E+02  0.34016439249E+02  0.95776248361E+02  0.00000000000E+00 0. -1.
         15    1    5    5    0    0  0.12585076381E+03  0.34296171522E+02  0.52565845239E+02  0.14063360274E+03  0.00000000000E+00 0. -1.
        -16    1    5    5    0    0  0.78621367468E+03  0.40423606541E+03  0.17244977280E+03  0.90070953307E+03  0.00000000000E+00 0.  1.
         16    1    1    2    0    0 -0.44373547554E+02  0.49405428730E+02  0.21393859528E+04  0.21404163527E+04  0.00000000000E+00 0. -1.
    9900018    1    1    2    0    0  0.20278147644E+03  0.51521659343E+02 -0.63398314390E+02  0.23687408729E+03  0.91187600000E+02 0.  0.
<mgrwt>
<rscale>  0 0.16221980E+04</rscale>
<asrwt>0</asrwt>
<pdfrwt beam="1">  1        1 0.64517964E+00 0.36564838E+04</pdfrwt>
<pdfrwt beam="2">  1       -1 0.13235602E+00 0.36564838E+04</pdfrwt>
<totfact> 0.24822957E-02</totfact>
</mgrwt>
</event>
<event>
11    1  0.3322492E-015  0.4244480E+04  0.7818608E-02  0.8560508E-01
         -1   -1    0    0    0  501 -0.00000000000E+00  0.00000000000E+00  0.33436443260E+04  0.33436443260E+04  0.00000000000E+00 0.  1.
          1   -1    0    0  501    0  0.00000000000E+00 -0.00000000000E+00 -0.15921298184E+04  0.15921298184E+04  0.00000000000E+00 0. -1.
    9900016    2    1    2    0    0  0.20395198184E+03  0.15567139098E+02  0.85254288513E+03  0.23559053439E+04  0.21866919929E+04 0.  0.
        -24    2    3    3    0    0 -0.24523256946E+03  0.82190976370E+03  0.11016131839E+04  0.13998764724E+04  0.10211688641E+03 0.  0.
        -15    1    3    3    0    0  0.44918455130E+03 -0.80634262460E+03 -0.24907029873E+03  0.95602887147E+03  0.00000000000E+00 0.  1.
        -15    1    1    2    0    0 -0.93447271036E+02 -0.24686540353E+02 -0.14489678196E+03  0.17417489820E+03  0.00000000000E+00 0.  1.
         15    1    1    2    0    0 -0.11458497375E+03 -0.14299923755E+02  0.73038826034E+01  0.11570458388E+03  0.00000000000E+00 0. -1.
         15    1    4    4    0    0 -0.13535910657E+03  0.50511884512E+03  0.74686273632E+03  0.91174068809E+03  0.00000000000E+00 0. -1.
        -16    1    4    4    0    0 -0.10987346289E+03  0.31679091858E+03  0.35475044754E+03  0.48813578435E+03  0.00000000000E+00 0.  1.
         16    1    1    2    0    0  0.68389944198E+03 -0.61154662475E+03  0.32239314050E+02  0.91801257854E+03  0.00000000000E+00 0. -1.
    9900018    1    1    2    0    0 -0.67981917903E+03  0.63496594976E+03  0.10043252077E+04  0.13719767399E+04  0.91187600000E+02 0.  0.
<mgrwt>
<rscale>  0 0.21016703E+04</rscale>
<asrwt>0</asrwt>
<pdfrwt beam="1">  1        1 0.24494305E+00 0.42444800E+04</pdfrwt>
<pdfrwt beam="2">  1       -1 0.51440682E+00 0.42444800E+04</pdfrwt>
<totfact> 0.51850939E-03</totfact>
</mgrwt>
</event>
<event>
10    1  0.3322492E-015  0.3262336E+04  0.7818608E-02  0.8884304E-01
         -1   -1    0    0    0  501 -0.00000000000E+00  0.00000000000E+00  0.12501737851E+04  0.12501737851E+04  0.00000000000E+00 0.  1.
          1   -1    0    0  501    0  0.00000000000E+00 -0.00000000000E+00 -0.23849153044E+04  0.23849153044E+04  0.00000000000E+00 0. -1.
    9900016    2    1    2    0    0  0.33308433006E+02  0.49419831124E+03 -0.84414801511E+03  0.23754079092E+04  0.21644018668E+04 0.  0.
        -15    1    1    2    0    0  0.49019555336E+02  0.71895465669E+02 -0.16796010876E+01  0.87032728608E+02  0.00000000000E+00 0. -1.
        -15    1    3    3    0    0  0.27218746055E+03  0.60825369405E+01 -0.51161487952E+03  0.57954533548E+03  0.00000000000E+00 0.  1.
         15    1    1    2    0    0  0.19400035689E-01 -0.29901068543E+02  0.65908819491E+02  0.72374351556E+02  0.00000000000E+00 0.  1.
         15    1    3    3    0    0 -0.64008231451E+03  0.43474768543E+03  0.46412491907E+03  0.90228757048E+03  0.00000000000E+00 0. -1.
        -16    1    1    2    0    0 -0.15532772950E+03  0.21969268741E+03 -0.15182881033E+03  0.30893942464E+03  0.00000000000E+00 0.  1.
         16    1    3    3    0    0  0.40120328697E+03  0.53368088871E+02 -0.79665805466E+03  0.89357500326E+03  0.00000000000E+00 0. -1.
    9900018    1    1    2    0    0  0.72980341119E+02 -0.75588539577E+03 -0.20299391227E+03  0.79133467543E+03  0.91187600000E+02 0.  0.
<mgrwt>
<rscale>  0 0.15002246E+04</rscale>
<asrwt>0</asrwt>
<pdfrwt beam="1">  1        1 0.36691005E+00 0.32623358E+04</pdfrwt>
<pdfrwt beam="2">  1       -1 0.19233443E+00 0.32623358E+04</pdfrwt>
<totfact> 0.22891497E-01</totfact>
</mgrwt>
</event>
<event>
12    1  0.3322492E-015  0.3036349E+04  0.7818608E-02  0.8899126E-01
         -1   -1    0    0    0  501 -0.00000000000E+00  0.00000000000E+00  0.14364630040E+04  0.14364630040E+04  0.00000000000E+00 0. -1.
          1   -1    0    0  501    0  0.00000000000E+00 -0.00000000000E+00 -0.19359556603E+04  0.19359556603E+04  0.00000000000E+00 0.  1.
         23    2    1    2    0    0 -0.87311874657E+02 -0.12691616340E+03  0.19357490508E+03  0.25797562811E+03  0.73137574703E+02 0.  0.
    9900016    2    1    2    0    0  0.44030304640E+03  0.43971477893E+03 -0.43917583562E+03  0.23251359613E+04  0.21968536511E+04 0.  0.
         24    2    4    4    0    0  0.22780850908E+03 -0.26139450528E+03  0.80507236280E+03  0.88123093113E+03  0.90568429633E+02 0.  0.
        -15    1    5    5    0    0  0.61156658183E+02 -0.11646582219E+03  0.38141753721E+03  0.40346469767E+03  0.00000000000E+00 0.  1.
        -15    1    3    3    0    0  0.10213875058E+02 -0.31669842703E+02  0.49358985856E+02  0.59528242585E+02  0.00000000000E+00 0. -1.
         15    1    4    4    0    0  0.21249453732E+03  0.70110928420E+03 -0.12442481984E+04  0.14439050301E+04  0.00000000000E+00 0. -1.
         15    1    3    3    0    0 -0.97525749715E+02 -0.95246320700E+02  0.14421591922E+03  0.19844738552E+03  0.00000000000E+00 0.  1.
        -16    1    1    2    0    0 -0.39214991367E+03 -0.20299427290E+03 -0.38932000835E+03  0.58869202349E+03  0.00000000000E+00 0.  1.
         16    1    5    5    0    0  0.16665185090E+03 -0.14492868309E+03  0.42365482559E+03  0.47776623346E+03  0.00000000000E+00 0. -1.
    9900018    1    1    2    0    0  0.39158741924E+02 -0.10980434262E+03  0.13542828260E+03  0.20061505140E+03  0.91187600000E+02 0.  0.
<mgrwt>
<rscale>  0 0.14781325E+04</rscale>
<asrwt>0</asrwt>
<pdfrwt beam="1">  1        1 0.29783933E+00 0.30363486E+04</pdfrwt>
<pdfrwt beam="2">  1       -1 0.22099431E+00 0.30363486E+04</pdfrwt>
<totfact> 0.29981601E-01</totfact>
</mgrwt>
</event>
