<event>
11    1  0.2519919E-009  0.2888936E+04  0.7818608E-02  0.9038647E-01
          2   -1    0    0  501    0  0.00000000000E+00  0.00000000000E+00  0.22222711845E+04  0.22222711845E+04  0.00000000000E+00 0. -1.
         -2   -1    0    0    0  501 -0.00000000000E+00 -0.00000000000E+00 -0.11644542325E+04  0.11644542325E+04  0.00000000000E+00 0.  1.
         24    2    1    2    0    0  0.62595471956E+02  0.54720935116E+02  0.41053255061E+03  0.42616313522E+03  0.78520499628E+02 0.  0.
    9900016    2    1    2    0    0  0.41771279994E+03  0.80471442816E+01 -0.16646440232E+03  0.20135548988E+04  0.19626880021E+04 0.  0.
        -15    1    3    3    0    0  0.76835006836E+02  0.35385832742E+02  0.36513864401E+03  0.37480929122E+03  0.00000000000E+00 0.  1.
        -15    1    4    4    0    0  0.78926290097E+03 -0.43715791576E+03 -0.17869058540E+03  0.91976806613E+03  0.00000000000E+00 0.  1.
         15    1    1    2    0    0 -0.48030827189E+03 -0.62768079398E+02  0.81374880375E+03  0.94700738300E+03  0.00000000000E+00 0. -1.
         15    1    4    4    0    0 -0.33748091354E+03  0.68512689270E+01 -0.91874374863E+01  0.33767545943E+03  0.00000000000E+00 0. -1.
        -16    1    4    4    0    0 -0.25037461266E+03 -0.31467653889E+01 -0.35335768687E+02  0.25287539490E+03  0.00000000000E+00 0.  1.
         16    1    3    3    0    0 -0.14239534880E+02  0.19335102374E+02  0.45393906599E+02  0.51353844001E+02  0.00000000000E+00 0. -1.
    9900018    1    4    4    0    0  0.21630542517E+03  0.44150055651E+03  0.56749389254E+02  0.50323597837E+03  0.91187600000E+02 0.  0.
<mgrwt>
<rscale>  0 0.12886094E+04</rscale>
<asrwt>0</asrwt>
<pdfrwt beam="1">  1        2 0.34188787E+00 0.28889361E+04</pdfrwt>
<pdfrwt beam="2">  1       -2 0.17914680E+00 0.28889361E+04</pdfrwt>
<totfact> 0.78758636E-01</totfact>
</mgrwt>
</event>
<event>
11    1  0.2449611E-009  0.4133367E+04  0.7818608E-02  0.8285428E-01
          2   -1    0    0  501    0  0.00000000000E+00  0.00000000000E+00  0.20823296787E+04  0.20823296787E+04  0.00000000000E+00 0. -1.
         -2   -1    0    0    0  501 -0.00000000000E+00 -0.00000000000E+00 -0.30986236242E+04  0.30986236242E+04  0.00000000000E+00 0.  1.
        -24    2    1    2    0    0 -0.11446223726E+04  0.93812173285E+03 -0.84026273438E+03  0.17037319055E+04  0.80175940637E+02 0.  0.
         24    2    1    2    0    0  0.92111231246E+03 -0.19078194555E+03 -0.13434888208E+03  0.95454261040E+03  0.90864349625E+02 0.  0.
        -15    1    4    4    0    0  0.54465790669E+03 -0.88068732369E+02 -0.40600615044E+02  0.55322395725E+03  0.00000000000E+00 0.  1.
        -15    1    1    2    0    0  0.57555826067E+03  0.37350270635E+03 -0.19163779624E+03  0.71238797577E+03  0.00000000000E+00 0.  1.
         15    1    1    2    0    0 -0.15912706098E+03 -0.14020640820E+04  0.27148184237E+03  0.14369438063E+04  0.00000000000E+00 0. -1.
         15    1    3    3    0    0 -0.46803553300E+03  0.39268395224E+03 -0.39172079307E+03  0.72574315444E+03  0.00000000000E+00 0. -1.
        -16    1    3    3    0    0 -0.67658683964E+03  0.54543778061E+03 -0.44854194131E+03  0.97798875106E+03  0.00000000000E+00 0.  1.
         16    1    4    4    0    0  0.37645440578E+03 -0.10271321318E+03 -0.93748267035E+02  0.40131865315E+03  0.00000000000E+00 0. -1.
    9900018    1    1    2    0    0 -0.19292113952E+03  0.28122158838E+03 -0.12152637512E+03  0.37334700493E+03  0.91187600000E+02 0.  0.
<mgrwt>
<rscale>  0 0.28581866E+04</rscale>
<asrwt>0</asrwt>
<pdfrwt beam="1">  1        2 0.32035841E+00 0.41333667E+04</pdfrwt>
<pdfrwt beam="2">  1       -2 0.47671133E+00 0.41333667E+04</pdfrwt>
<totfact> 0.10554970E-02</totfact>
</mgrwt>
</event>
<event>
11    1  0.2449611E-009  0.4145618E+04  0.7818608E-02  0.8239758E-01
          1   -1    0    0  501    0  0.00000000000E+00  0.00000000000E+00  0.30332867848E+04  0.30332867848E+04  0.00000000000E+00 0. -1.
         -1   -1    0    0    0  501 -0.00000000000E+00 -0.00000000000E+00 -0.23189960751E+04  0.23189960751E+04  0.00000000000E+00 0.  1.
        -24    2    1    2    0    0 -0.10209370237E+04  0.54157298496E+03  0.18932375273E+03  0.11735579395E+04  0.76033213759E+02 0.  0.
    9900016    2    1    2    0    0  0.12992826579E+04 -0.80400540513E+03 -0.37549633734E+03  0.24924005927E+04  0.19330036468E+04 0.  0.
        -15    1    4    4    0    0  0.71589324164E+03 -0.37608986234E+03 -0.16541012385E+02  0.80883887337E+03  0.00000000000E+00 0.  1.
        -15    1    1    2    0    0 -0.21747701877E+03 -0.29990414849E+03  0.10337288179E+04  0.10981047404E+04  0.00000000000E+00 0.  1.
         15    1    3    3    0    0 -0.57749683116E+03  0.31341926262E+03  0.69949148198E+02  0.66077765361E+03  0.00000000000E+00 0. -1.
         15    1    4    4    0    0 -0.37505195888E+03  0.22809654519E+03 -0.27736205864E+03  0.51925111205E+03  0.00000000000E+00 0. -1.
        -16    1    3    3    0    0 -0.44344019252E+03  0.22815372233E+03  0.11937460453E+03  0.51278028586E+03  0.00000000000E+00 0.  1.
         16    1    4    4    0    0  0.95844137510E+03 -0.65601208798E+03 -0.81593266313E+02  0.11643106073E+04  0.00000000000E+00 0. -1.
    9900018    1    1    2    0    0 -0.60868615403E+02  0.56233656866E+03 -0.13326552352E+03  0.58821958736E+03  0.91187600000E+02 0.  0.
<mgrwt>
<rscale>  0 0.30139536E+04</rscale>
<asrwt>0</asrwt>
<pdfrwt beam="1">  1        1 0.46665951E+00 0.41456184E+04</pdfrwt>
<pdfrwt beam="2">  1       -1 0.35676863E+00 0.41456184E+04</pdfrwt>
<totfact> 0.58970671E-03</totfact>
</mgrwt>
</event>
<event>
11    1  0.2449611E-009  0.2195852E+04  0.7818608E-02  0.8732723E-01
         -2   -1    0    0    0  501 -0.00000000000E+00  0.00000000000E+00  0.25618197564E+04  0.25618197564E+04  0.00000000000E+00 0.  1.
          2   -1    0    0  501    0  0.00000000000E+00 -0.00000000000E+00 -0.12657349053E+04  0.12657349053E+04  0.00000000000E+00 0. -1.
        -24    2    1    2    0    0  0.21215487914E+03 -0.85858867050E+03 -0.47436569415E+03  0.10068703518E+04  0.81122720437E+02 0.  0.
    9900016    2    1    2    0    0 -0.34317961969E+03  0.90878710354E+03  0.13485924748E+04  0.23761040618E+04  0.16980879243E+04 0.  0.
        -15    1    4    4    0    0  0.14222592352E+02  0.26613605918E+03  0.43520918180E+02  0.27004583768E+03  0.00000000000E+00 0.  1.
        -15    1    1    2    0    0  0.13102474055E+03 -0.50198433037E+02  0.42185807049E+03  0.44458024805E+03  0.00000000000E+00 0.  1.
         15    1    4    4    0    0 -0.16103862785E+03 -0.27046165996E+03  0.18725878831E+03  0.36626329732E+03  0.00000000000E+00 0. -1.
         15    1    3    3    0    0  0.13257335218E+03 -0.56435542284E+03 -0.35336869206E+03  0.67892721961E+03  0.00000000000E+00 0. -1.
        -16    1    3    3    0    0  0.79581526961E+02 -0.29423324766E+03 -0.12099700209E+03  0.32794313223E+03  0.00000000000E+00 0.  1.
         16    1    4    4    0    0  0.34872909624E+03  0.34667162041E+03  0.20787669496E+03  0.53385945273E+03  0.00000000000E+00 0. -1.
    9900018    1    4    4    0    0 -0.54509268044E+03  0.56644108391E+03  0.90993607331E+03  0.12059354741E+04  0.91187600000E+02 0.  0.
<mgrwt>
<rscale>  0 0.17511396E+04</rscale>
<asrwt>0</asrwt>
<pdfrwt beam="1">  1        2 0.19472845E+00 0.21958517E+04</pdfrwt>
<pdfrwt beam="2">  1       -2 0.39412612E+00 0.21958517E+04</pdfrwt>
<totfact> 0.12421605E-01</totfact>
</mgrwt>
</event>
<event>
12    1  0.2449611E-009  0.3651663E+04  0.7818608E-02  0.8078759E-01
         -2   -1    0    0    0  501 -0.00000000000E+00  0.00000000000E+00  0.24453688274E+04  0.24453688274E+04  0.00000000000E+00 0.  1.
          2   -1    0    0  501    0  0.00000000000E+00 -0.00000000000E+00 -0.13632545994E+04  0.13632545994E+04  0.00000000000E+00 0. -1.
        -24    2    1    2    0    0 -0.44827819819E+03 -0.67733972346E+03 -0.25707048195E+03  0.85569024117E+03  0.79863084053E+02 0.  0.
    9900016    2    1    2    0    0  0.40311014671E+03  0.68983121144E+03  0.15224917318E+04  0.25786073349E+04  0.19216841113E+04 0.  0.
         24    2    4    4    0    0 -0.17107136945E+03  0.12565561040E+04  0.87713259255E+03  0.15454810426E+04  0.10464899563E+03 0.  0.
        -15    1    5    5    0    0 -0.13334714866E+03  0.87207196542E+03  0.55313306947E+03  0.10412718989E+04  0.00000000000E+00 0.  1.
        -15    1    1    2    0    0 -0.93272947588E+02 -0.97751238987E+02 -0.10919245917E+03  0.17371856727E+03  0.00000000000E+00 0.  1.
         15    1    3    3    0    0 -0.19032520073E+03 -0.35698816670E+03 -0.11566122654E+03  0.42076329750E+03  0.00000000000E+00 0. -1.
         15    1    4    4    0    0  0.57418151616E+03 -0.56672489252E+03  0.64535913924E+03  0.10331262923E+04  0.00000000000E+00 0. -1.
        -16    1    3    3    0    0 -0.25795299745E+03 -0.32035155676E+03 -0.14140925541E+03  0.43492694367E+03  0.00000000000E+00 0.  1.
         16    1    5    5    0    0 -0.37724220791E+02  0.38448413854E+03  0.32399952308E+03  0.50420914369E+03  0.00000000000E+00 0. -1.
    9900018    1    1    2    0    0  0.13844099906E+03  0.85259751014E+02 -0.74114562640E+02  0.20060728340E+03  0.91187600000E+02 0.  0.
<mgrwt>
<rscale>  0 0.36516628E+04</rscale>
<asrwt>0</asrwt>
<pdfrwt beam="1">  1        2 0.20973148E+00 0.36516628E+04</pdfrwt>
<pdfrwt beam="2">  1       -2 0.37621059E+00 0.36516628E+04</pdfrwt>
<totfact> 0.13051000E-01</totfact>
</mgrwt>
</event>
<event>
12    1  0.2449611E-009  0.4434146E+04  0.7818608E-02  0.7922268E-01
         -2   -1    0    0    0  501 -0.00000000000E+00  0.00000000000E+00  0.22347752229E+04  0.22347752229E+04  0.00000000000E+00 0.  1.
          2   -1    0    0  501    0  0.00000000000E+00 -0.00000000000E+00 -0.21995108380E+04  0.21995108380E+04  0.00000000000E+00 0. -1.
         24    2    1    2    0    0  0.73573344093E+03 -0.11922275948E+04 -0.82471193139E+02  0.14056453470E+04  0.79542504288E+02 0.  0.
    9900016    2    1    2    0    0 -0.11411233092E+04  0.73866607545E+03  0.27721531997E+03  0.22327257865E+04  0.17494073643E+04 0.  0.
        -24    2    4    4    0    0 -0.10407210505E+04  0.63332181564E+03  0.94744556441E+03  0.15468784221E+04  0.10479946674E+03 0.  0.
        -15    1    4    4    0    0 -0.10040225875E+03  0.10534425980E+03 -0.67023024444E+03  0.68584736436E+03  0.00000000000E+00 0.  1.
        -15    1    3    3    0    0  0.64181751198E+03 -0.99770016215E+03 -0.51545523153E+02  0.11874309551E+04  0.00000000000E+00 0.  1.
         15    1    5    5    0    0 -0.20051218838E+03  0.79151777956E+02  0.14752671925E+03  0.26121691089E+03  0.00000000000E+00 0. -1.
         15    1    1    2    0    0  0.36509960063E+03  0.47595618765E+03  0.77856873253E+01  0.59991051655E+03  0.00000000000E+00 0. -1.
        -16    1    5    5    0    0 -0.84020886210E+03  0.55417003769E+03  0.79991884516E+03  0.12856615112E+04  0.00000000000E+00 0.  1.
         16    1    3    3    0    0  0.93915928941E+02 -0.19452743262E+03 -0.30925669985E+02  0.21821439186E+03  0.00000000000E+00 0. -1.
    9900018    1    1    2    0    0  0.40290267675E+02 -0.22394668334E+02 -0.16726542927E+03  0.19600441082E+03  0.91187600000E+02 0.  0.
<mgrwt>
<rscale>  0 0.44341458E+04</rscale>
<asrwt>0</asrwt>
<pdfrwt beam="1">  1        2 0.33838628E+00 0.44341458E+04</pdfrwt>
<pdfrwt beam="2">  1       -2 0.34381157E+00 0.44341458E+04</pdfrwt>
<totfact> 0.66980392E-02</totfact>
</mgrwt>
</event>
<event>
11    1  0.2449611E-009  0.4254789E+04  0.7818608E-02  0.8311628E-01
          2   -1    0    0  501    0  0.00000000000E+00  0.00000000000E+00  0.20678665322E+04  0.20678665322E+04  0.00000000000E+00 0.  1.
         -2   -1    0    0    0  501 -0.00000000000E+00 -0.00000000000E+00 -0.30533611900E+04  0.30533611900E+04  0.00000000000E+00 0. -1.
        -24    2    1    2    0    0  0.35026276870E+03 -0.67909330612E+03 -0.89339783754E+02  0.77308728563E+03  0.76358553485E+02 0.  0.
    9900016    2    1    2    0    0  0.52166159188E+03 -0.85092155189E+03 -0.98749156840E+03  0.22617414881E+04  0.17731713559E+04 0.  0.
        -15    1    1    2    0    0 -0.85170045219E+03  0.13373399241E+04  0.46798397665E+03  0.16531426845E+04  0.00000000000E+00 0.  1.
        -15    1    4    4    0    0  0.20129569752E+03 -0.13024617534E+03  0.21882600620E+03  0.32460567620E+03  0.00000000000E+00 0.  1.
         15    1    3    3    0    0  0.69771995204E+02 -0.17192814894E+03 -0.50140149513E+02  0.19220159809E+03  0.00000000000E+00 0. -1.
         15    1    4    4    0    0  0.11390336243E+03 -0.42300430559E+03 -0.14405879419E+04  0.15057224967E+04  0.00000000000E+00 0. -1.
        -16    1    3    3    0    0  0.28049077350E+03 -0.50716515717E+03 -0.39199634241E+02  0.58088568754E+03  0.00000000000E+00 0.  1.
         16    1    4    4    0    0  0.20646253193E+03 -0.29767107095E+03  0.23427036733E+03  0.43141331526E+03  0.00000000000E+00 0. -1.
    9900018    1    1    2    0    0 -0.20223908388E+02  0.19267493389E+03 -0.37664728225E+03  0.43325626393E+03  0.91187600000E+02 0.  0.
<mgrwt>
<rscale>  0 0.27732298E+04</rscale>
<asrwt>0</asrwt>
<pdfrwt beam="1">  1        2 0.31813331E+00 0.42547893E+04</pdfrwt>
<pdfrwt beam="2">  1       -2 0.46974787E+00 0.42547893E+04</pdfrwt>
<totfact> 0.11883224E-02</totfact>
</mgrwt>
</event>
<event>
11    1  0.2449611E-009  0.3927741E+04  0.7818608E-02  0.8019284E-01
          1   -1    0    0  501    0  0.00000000000E+00  0.00000000000E+00  0.26012438783E+04  0.26012438783E+04  0.00000000000E+00 0. -1.
         -1   -1    0    0    0  501 -0.00000000000E+00 -0.00000000000E+00 -0.14826705221E+04  0.14826705221E+04  0.00000000000E+00 0.  1.
        -24    2    1    2    0    0  0.96041459701E+03 -0.71278272154E+02  0.29474118917E+03  0.10102785300E+04  0.79457846862E+02 0.  0.
    9900016    2    1    2    0    0 -0.46021551701E+03 -0.58380768563E+03  0.80136709764E+03  0.22491109095E+04  0.19656248173E+04 0.  0.
        -15    1    1    2    0    0 -0.50019908000E+03  0.65508595778E+03  0.22465069469E+02  0.82452496085E+03  0.00000000000E+00 0.  1.
        -15    1    4    4    0    0  0.31634538157E+02 -0.21889596262E+03 -0.74860588610E+02  0.23349581191E+03  0.00000000000E+00 0.  1.
         15    1    3    3    0    0  0.79564372708E+03 -0.87021328000E+02  0.25535747516E+03  0.84013635328E+03  0.00000000000E+00 0. -1.
         15    1    4    4    0    0 -0.77886022588E+03 -0.73896347923E+03  0.55650319792E+03  0.12092915630E+04  0.00000000000E+00 0. -1.
        -16    1    3    3    0    0  0.16477086993E+03  0.15743055846E+02  0.39383714003E+02  0.17014217676E+03  0.00000000000E+00 0.  1.
         16    1    4    4    0    0 -0.13550298436E+01 -0.11290442951E+03 -0.50750021436E+02  0.12379342060E+03  0.00000000000E+00 0. -1.
    9900018    1    4    4    0    0  0.28836520056E+03  0.48695618573E+03  0.37047450976E+03  0.68253011398E+03  0.91187600000E+02 0.  0.
<mgrwt>
<rscale>  0 0.39277411E+04</rscale>
<asrwt>0</asrwt>
<pdfrwt beam="1">  1        1 0.40019136E+00 0.39277411E+04</pdfrwt>
<pdfrwt beam="2">  1       -1 0.22810316E+00 0.39277411E+04</pdfrwt>
<totfact> 0.88086401E-02</totfact>
</mgrwt>
</event>
<event>
11    1  0.2449611E-009  0.5568182E+04  0.7818608E-02  0.7746376E-01
          2   -1    0    0  501    0  0.00000000000E+00  0.00000000000E+00  0.46755731968E+04  0.46755731968E+04  0.00000000000E+00 0. -1.
         -2   -1    0    0    0  501 -0.00000000000E+00 -0.00000000000E+00 -0.16577996831E+04  0.16577996831E+04  0.00000000000E+00 0.  1.
        -24    2    1    2    0    0  0.39772762772E+03  0.10397835370E+04  0.31385168365E+04  0.33310625872E+04  0.79705440412E+02 0.  0.
    9900016    2    1    2    0    0 -0.38360842993E+03 -0.40800195312E+03 -0.73419055476E+03  0.21215919337E+04  0.19101035420E+04 0.  0.
        -15    1    1    2    0    0 -0.14119197790E+02 -0.63178158386E+03  0.61344723192E+03  0.88071835896E+03  0.00000000000E+00 0.  1.
        -15    1    4    4    0    0  0.34160376926E+02  0.10299809484E+03 -0.67150421003E+02  0.12761159012E+03  0.00000000000E+00 0.  1.
         15    1    4    4    0    0 -0.67436398455E+02 -0.30307007535E+03 -0.70445246674E+03  0.76983921458E+03  0.00000000000E+00 0. -1.
         15    1    3    3    0    0  0.17871648679E+03  0.49811230391E+03  0.16061521795E+04  0.16910884878E+04  0.00000000000E+00 0. -1.
        -16    1    3    3    0    0  0.21901114093E+03  0.54167123307E+03  0.15323646570E+04  0.16399740994E+04  0.00000000000E+00 0.  1.
         16    1    4    4    0    0 -0.15954871420E+03  0.42177904907E+03 -0.23223410129E+03  0.50723370969E+03  0.00000000000E+00 0. -1.
    9900018    1    4    4    0    0 -0.19078369419E+03 -0.62970902167E+03  0.26964643427E+03  0.71690741931E+03  0.91187600000E+02 0.  0.
<mgrwt>
<rscale>  0 0.55681824E+04</rscale>
<asrwt>0</asrwt>
<pdfrwt beam="1">  1        2 0.71931895E+00 0.55681824E+04</pdfrwt>
<pdfrwt beam="2">  1       -2 0.25504611E+00 0.55681824E+04</pdfrwt>
<totfact> 0.33478249E-03</totfact>
</mgrwt>
</event>
<event>
11    1  0.2449611E-009  0.5374433E+04  0.7818608E-02  0.7773207E-01
         -1   -1    0    0    0  501 -0.00000000000E+00  0.00000000000E+00  0.25317032793E+04  0.25317032793E+04  0.00000000000E+00 0.  1.
          1   -1    0    0  501    0  0.00000000000E+00 -0.00000000000E+00 -0.28522826235E+04  0.28522826235E+04  0.00000000000E+00 0. -1.
         24    2    1    2    0    0  0.31097036796E+03 -0.15154440203E+04  0.99363046460E+03  0.18404837871E+04  0.82498012043E+02 0.  0.
    9900016    2    1    2    0    0 -0.10301877705E+03  0.13905352571E+04 -0.98719817828E+03  0.26405562449E+04  0.20133990835E+04 0.  0.
        -15    1    3    3    0    0  0.13857202535E+03 -0.56018140310E+03  0.33209548175E+03  0.66580238779E+03  0.00000000000E+00 0.  1.
        -15    1    4    4    0    0  0.50551297139E+03  0.89351871833E+03 -0.14130843918E+04  0.17466329216E+04  0.00000000000E+00 0.  1.
         15    1    4    4    0    0 -0.22976405241E+03  0.17780362325E+03  0.16380045604E+03  0.33352097029E+03  0.00000000000E+00 0. -1.
         15    1    1    2    0    0 -0.33775826908E+03  0.39797679690E+03 -0.24527499976E+03  0.57673737932E+03  0.00000000000E+00 0. -1.
        -16    1    4    4    0    0 -0.37876769603E+03  0.31921291549E+03  0.26208575750E+03  0.56040235301E+03  0.00000000000E+00 0.  1.
         16    1    3    3    0    0  0.17239834261E+03 -0.95526261717E+03  0.66153498284E+03  0.11746813993E+04  0.00000000000E+00 0. -1.
    9900018    1    1    2    0    0  0.12980667817E+03 -0.27306803369E+03 -0.81736630721E+02  0.32620849149E+03  0.91187600000E+02 0.  0.
<mgrwt>
<rscale>  0 0.53744333E+04</rscale>
<asrwt>0</asrwt>
<pdfrwt beam="1">  1        1 0.43881271E+00 0.53744333E+04</pdfrwt>
<pdfrwt beam="2">  1       -1 0.38949281E+00 0.53744333E+04</pdfrwt>
<totfact> 0.45241565E-03</totfact>
</mgrwt>
</event>
