<event>
12    1  0.1703488E-011  0.5033188E+04  0.7818608E-02  0.7823408E-01
         -1   -1    0    0    0  501 -0.00000000000E+00  0.00000000000E+00  0.16012519769E+04  0.16012519769E+04  0.00000000000E+00 0.  1.
          1   -1    0    0  501    0  0.00000000000E+00 -0.00000000000E+00 -0.39551836819E+04  0.39551836819E+04  0.00000000000E+00 0. -1.
    9900016    2    1    2    0    0  0.15697937115E+04 -0.44543534896E+03 -0.16580549178E+04  0.29678123364E+04  0.18428507826E+04 0.  0.
    9900016    2    1    2    0    0 -0.15697937115E+04  0.44543534896E+03 -0.69587678730E+03  0.25886233225E+04  0.18852218055E+04 0.  0.
        -24    2    4    4    0    0  0.23854690636E+03 -0.11231789088E+03 -0.58739409887E+03  0.64935834586E+03  0.84347488418E+02 0.  0.
        -15    1    3    3    0    0  0.26748598401E+03 -0.27732374321E+03  0.31627960940E+03  0.49848771451E+03  0.00000000000E+00 0.  1.
        -15    1    4    4    0    0 -0.17389959896E+04  0.53027310515E+03 -0.11095141506E+03  0.18214298873E+04  0.00000000000E+00 0.  1.
         15    1    5    5    0    0  0.17232249244E+03 -0.11381670726E+03 -0.48815768692E+03  0.53004453733E+03  0.00000000000E+00 0. -1.
         15    1    3    3    0    0  0.13094799454E+04 -0.15607803241E+03 -0.20251144439E+04  0.24166478002E+04  0.00000000000E+00 0. -1.
        -16    1    5    5    0    0  0.66224413921E+02  0.14988163717E+01 -0.99236411953E+02  0.11931380853E+03  0.00000000000E+00 0.  1.
         16    1    3    3    0    0 -0.71722178977E+01 -0.12033573340E+02  0.50779916703E+02  0.52676821633E+02  0.00000000000E+00 0. -1.
    9900018    1    4    4    0    0 -0.69344628281E+02  0.27480134689E+02  0.24687266369E+01  0.11783508934E+03  0.91187600000E+02 0.  0.
<mgrwt>
<rscale>  0 0.50331881E+04</rscale>
<asrwt>0</asrwt>
<pdfrwt beam="1">  1        1 0.60848980E+00 0.50331881E+04</pdfrwt>
<pdfrwt beam="2">  1       -1 0.24634646E+00 0.50331881E+04</pdfrwt>
<totfact> 0.55531197E-03</totfact>
</mgrwt>
</event>
<event>
13    1  0.1703488E-011  0.4171545E+04  0.7818608E-02  0.7970807E-01
          2   -1    0    0  501    0  0.00000000000E+00  0.00000000000E+00  0.25072732941E+04  0.25072732941E+04  0.00000000000E+00 0.  1.
         -2   -1    0    0    0  501 -0.00000000000E+00 -0.00000000000E+00 -0.17351311292E+04  0.17351311292E+04  0.00000000000E+00 0. -1.
    9900016    2    1    2    0    0  0.47405073432E+03 -0.23739106317E+03 -0.37984684334E+03  0.19635826939E+04  0.18521054926E+04 0.  0.
        -24    2    3    3    0    0  0.81130459888E+03 -0.84993718680E+03 -0.18969820394E+02  0.11766995079E+04  0.60444223328E+02 0.  0.
    9900016    2    1    2    0    0 -0.47405073432E+03  0.23739106317E+03  0.11519890083E+04  0.22788217294E+04  0.18933756055E+04 0.  0.
         24    2    5    5    0    0 -0.54068621308E+03 -0.47916367405E+03  0.12734329373E+04  0.14662677765E+04  0.79814402627E+02 0.  0.
        -15    1    6    6    0    0 -0.42252746230E+03 -0.41396480974E+03  0.10547965318E+04  0.12093353727E+04  0.00000000000E+00 0.  1.
        -15    1    3    3    0    0 -0.33725386456E+03  0.61254612363E+03 -0.36087702295E+03  0.78688318601E+03  0.00000000000E+00 0.  1.
         15    1    5    5    0    0  0.55216568695E+02  0.69404262075E+03 -0.15293405309E+03  0.71283438011E+03  0.00000000000E+00 0. -1.
         15    1    4    4    0    0  0.22512382981E+03 -0.27343530166E+03 -0.15451362064E+02  0.35452270384E+03  0.00000000000E+00 0. -1.
        -16    1    4    4    0    0  0.58618076907E+03 -0.57650188514E+03 -0.35184583302E+01  0.82217680406E+03  0.00000000000E+00 0.  1.
         16    1    6    6    0    0 -0.11815875078E+03 -0.65198864308E+02  0.21863640552E+03  0.25693240378E+03  0.00000000000E+00 0. -1.
    9900018    1    5    5    0    0  0.11418910068E+02  0.22512116472E+02  0.31490124107E+02  0.99719572829E+02  0.91187600000E+02 0.  0.
<mgrwt>
<rscale>  0 0.41715455E+04</rscale>
<asrwt>0</asrwt>
<pdfrwt beam="1">  1        2 0.38573435E+00 0.41715455E+04</pdfrwt>
<pdfrwt beam="2">  1       -2 0.26694325E+00 0.41715455E+04</pdfrwt>
<totfact> 0.13571650E-01</totfact>
</mgrwt>
</event>
<event>
13    1  0.1703488E-011  0.3842449E+04  0.7818608E-02  0.8037106E-01
         -1   -1    0    0    0  501 -0.00000000000E+00  0.00000000000E+00  0.18211847799E+04  0.18211847799E+04  0.00000000000E+00 0.  1.
          1   -1    0    0  501    0  0.00000000000E+00 -0.00000000000E+00 -0.20267596297E+04  0.20267596297E+04  0.00000000000E+00 0. -1.
    9900016    2    1    2    0    0 -0.34099887469E+03 -0.16974287783E+03 -0.25979661184E+03  0.19068141600E+04  0.18502305489E+04 0.  0.
        -24    2    3    3    0    0 -0.76558210329E+03 -0.54580236715E+03 -0.71046117382E+03  0.11823901095E+04  0.96307375703E+02 0.  0.
    9900016    2    1    2    0    0  0.34379062300E+03  0.15386705053E+03  0.47612036171E+02  0.18482932816E+04  0.18088819993E+04 0.  0.
         24    2    5    5    0    0  0.32663237876E+03  0.43568452779E+03  0.84159006729E+03  0.10056091120E+04  0.80412226640E+02 0.  0.
        -15    1    6    6    0    0  0.96396723875E+02  0.19155716823E+03  0.34739611106E+03  0.40825302822E+03  0.00000000000E+00 0.  1.
        -15    1    3    3    0    0  0.42458322860E+03  0.37605948932E+03  0.45066456198E+03  0.72442405050E+03  0.00000000000E+00 0.  1.
         15    1    5    5    0    0  0.17158244236E+02 -0.28181747726E+03 -0.79397803112E+03  0.84268416962E+03  0.00000000000E+00 0. -1.
         15    1    4    4    0    0 -0.16620489539E+03 -0.95465313047E+02 -0.10377794432E+03  0.21796227879E+03  0.00000000000E+00 0. -1.
        -16    1    4    4    0    0 -0.59937720790E+03 -0.45033705410E+03 -0.60668322950E+03  0.96442783069E+03  0.00000000000E+00 0.  1.
         16    1    6    6    0    0  0.23023565489E+03  0.24412735956E+03  0.49419395623E+03  0.59735608379E+03  0.00000000000E+00 0. -1.
    9900018    1    1    2    0    0 -0.27917483100E+01  0.15875827302E+02  0.66097258189E+01  0.92836967962E+02  0.91187600000E+02 0.  0.
<mgrwt>
<rscale>  0 0.38424491E+04</rscale>
<asrwt>0</asrwt>
<pdfrwt beam="1">  1        1 0.31180917E+00 0.38424491E+04</pdfrwt>
<pdfrwt beam="2">  1       -1 0.28018227E+00 0.38424491E+04</pdfrwt>
<totfact> 0.10057901E-01</totfact>
</mgrwt>
</event>
<event>
13    1  0.1703488E-011  0.4705297E+04  0.7818608E-02  0.7875649E-01
          2   -1    0    0  501    0  0.00000000000E+00  0.00000000000E+00  0.17174434563E+04  0.17174434563E+04  0.00000000000E+00 0. -1.
         -2   -1    0    0    0  501 -0.00000000000E+00 -0.00000000000E+00 -0.32227879821E+04  0.32227879821E+04  0.00000000000E+00 0.  1.
    9900016    2    1    2    0    0  0.20515212455E+03 -0.80589337790E+03  0.46415187156E+03  0.20798109863E+04  0.18489524732E+04 0.  0.
         24    2    3    3    0    0 -0.74638466367E+03 -0.70219343220E+03  0.33556038457E+02  0.10302450238E+04  0.10056400439E+03 0.  0.
    9900016    2    1    2    0    0 -0.19449581179E+03  0.79602041615E+03 -0.18271108503E+04  0.26907152525E+04  0.17972582973E+04 0.  0.
        -24    2    5    5    0    0  0.42282260118E+03  0.55318513554E+03  0.47426710931E+02  0.70226307435E+03  0.78303170063E+02 0.  0.
        -15    1    5    5    0    0 -0.61731841297E+03  0.24283528062E+03 -0.18745375612E+04  0.19884521782E+04  0.00000000000E+00 0.  1.
        -15    1    4    4    0    0 -0.29137775661E+03 -0.33792556587E+03  0.32565991913E+02  0.44738711307E+03  0.00000000000E+00 0.  1.
         15    1    6    6    0    0  0.18521969723E+03  0.29329328804E+03 -0.49379220508E+00  0.34688259236E+03  0.00000000000E+00 0. -1.
         15    1    3    3    0    0  0.95153678823E+03 -0.10369994571E+03  0.43059583310E+03  0.10495659625E+04  0.00000000000E+00 0. -1.
        -16    1    6    6    0    0  0.23760290394E+03  0.25989184749E+03  0.47920503136E+02  0.35538048199E+03  0.00000000000E+00 0.  1.
         16    1    4    4    0    0 -0.45500690706E+03 -0.36426786633E+03  0.99004654426E+00  0.58285791074E+03  0.00000000000E+00 0. -1.
    9900018    1    1    2    0    0 -0.10656312762E+02  0.98729617509E+01 -0.14238554707E+03  0.16970519963E+03  0.91187600000E+02 0.  0.
<mgrwt>
<rscale>  0 0.47052975E+04</rscale>
<asrwt>0</asrwt>
<pdfrwt beam="1">  1        2 0.26422207E+00 0.47052975E+04</pdfrwt>
<pdfrwt beam="2">  1       -2 0.49581353E+00 0.47052975E+04</pdfrwt>
<totfact> 0.12579997E-02</totfact>
</mgrwt>
</event>
<event>
12    1  0.1703488E-011  0.5466819E+04  0.7818608E-02  0.7760271E-01
          1   -1    0    0  501    0  0.00000000000E+00  0.00000000000E+00  0.26729845787E+04  0.26729845787E+04  0.00000000000E+00 0. -1.
         -1   -1    0    0    0  501 -0.00000000000E+00 -0.00000000000E+00 -0.27952000903E+04  0.27952000903E+04  0.00000000000E+00 0.  1.
    9900016    2    1    2    0    0  0.11229069647E+03 -0.82543907855E+03 -0.18674473086E+04  0.27555303907E+04  0.18470596662E+04 0.  0.
    9900016    2    1    2    0    0 -0.14913603679E+03  0.79659078944E+03  0.16082375450E+04  0.25415624715E+04  0.17934083061E+04 0.  0.
         24    2    4    4    0    0 -0.90246045002E+03  0.23428119434E+03  0.11868282469E+04  0.15113801824E+04  0.79913867556E+02 0.  0.
        -15    1    3    3    0    0 -0.57197947396E+03 -0.10531702308E+04 -0.15077132807E+04  0.19260133412E+04  0.00000000000E+00 0.  1.
        -15    1    5    5    0    0 -0.30672212303E+03  0.41372449503E+02  0.38221089490E+03  0.49180820298E+03  0.00000000000E+00 0.  1.
         15    1    3    3    0    0  0.38819777433E+03  0.93956963969E+02 -0.95311116194E+02  0.41062103202E+03  0.00000000000E+00 0. -1.
         15    1    4    4    0    0  0.75332441323E+03  0.56230959510E+03  0.42140929807E+03  0.10301822891E+04  0.00000000000E+00 0. -1.
        -16    1    3    3    0    0  0.29607239611E+03  0.13377418831E+03 -0.26442291173E+03  0.41889601746E+03  0.00000000000E+00 0.  1.
         16    1    5    5    0    0 -0.59573832699E+03  0.19290874484E+03  0.80461735202E+03  0.10195719794E+04  0.00000000000E+00 0. -1.
    9900018    1    1    2    0    0  0.36845340317E+02  0.28848289114E+02  0.13699425195E+03  0.17109180678E+03  0.91187600000E+02 0.  0.
<mgrwt>
<rscale>  0 0.54668187E+04</rscale>
<asrwt>0</asrwt>
<pdfrwt beam="1">  1        1 0.41122840E+00 0.54668187E+04</pdfrwt>
<pdfrwt beam="2">  1       -1 0.43003078E+00 0.54668187E+04</pdfrwt>
<totfact> 0.31788503E-03</totfact>
</mgrwt>
</event>
<event>
13    1  0.1703488E-011  0.4204399E+04  0.7818608E-02  0.7964536E-01
         -2   -1    0    0    0  501 -0.00000000000E+00  0.00000000000E+00  0.27858801708E+04  0.27858801708E+04  0.00000000000E+00 0.  1.
          2   -1    0    0  501    0  0.00000000000E+00 -0.00000000000E+00 -0.15863005172E+04  0.15863005172E+04  0.00000000000E+00 0. -1.
    9900016    2    1    2    0    0  0.31700174097E+03 -0.36490232905E+03  0.14455507274E+04  0.23950141506E+04  0.18473851960E+04 0.  0.
        -24    2    3    3    0    0  0.33831991664E+03  0.36483600173E+03 -0.23682344501E+03  0.56106885369E+03  0.10558049216E+03 0.  0.
    9900016    2    1    2    0    0 -0.25987651858E+03  0.37915882755E+03 -0.23383387537E+03  0.18679464442E+04  0.17953407520E+04 0.  0.
         24    2    5    5    0    0  0.43408647645E+03  0.39877349977E+03  0.55746854504E+03  0.81526943089E+03  0.80260158741E+02 0.  0.
        -15    1    6    6    0    0  0.24997660330E+03  0.26694563279E+03  0.30574698513E+03  0.47668594691E+03  0.00000000000E+00 0.  1.
        -15    1    3    3    0    0 -0.21318175676E+02 -0.72973833078E+03  0.16823741724E+04  0.18339452969E+04  0.00000000000E+00 0.  1.
         15    1    5    5    0    0 -0.69396299502E+03 -0.19614672218E+02 -0.79130242041E+03  0.10526770133E+04  0.00000000000E+00 0. -1.
         15    1    4    4    0    0  0.22779273546E+01  0.42810782387E+02 -0.14416339873E+02  0.45230331603E+02  0.00000000000E+00 0. -1.
        -16    1    4    4    0    0  0.33604198929E+03  0.32202521934E+03 -0.22240710514E+03  0.51583852209E+03  0.00000000000E+00 0.  1.
         16    1    6    6    0    0  0.18410987315E+03  0.13182786698E+03  0.25172155990E+03  0.33858348398E+03  0.00000000000E+00 0. -1.
    9900018    1    1    2    0    0 -0.57125222390E+02 -0.14256498500E+02 -0.12137198445E+02  0.10922009322E+03  0.91187600000E+02 0.  0.
<mgrwt>
<rscale>  0 0.42043992E+04</rscale>
<asrwt>0</asrwt>
<pdfrwt beam="1">  1        2 0.24404623E+00 0.42043992E+04</pdfrwt>
<pdfrwt beam="2">  1       -2 0.42859695E+00 0.42043992E+04</pdfrwt>
<totfact> 0.42370838E-02</totfact>
</mgrwt>
</event>
<event>
13    1  0.1703488E-011  0.3878382E+04  0.7818608E-02  0.8029540E-01
          1   -1    0    0  501    0  0.00000000000E+00  0.00000000000E+00  0.38940168825E+04  0.38940168825E+04  0.00000000000E+00 0. -1.
         -1   -1    0    0    0  501 -0.00000000000E+00 -0.00000000000E+00 -0.96570270426E+03  0.96570270426E+03  0.00000000000E+00 0.  1.
    9900016    2    1    2    0    0 -0.90296523995E+02 -0.27500708418E+03  0.92761942656E+03  0.20883879842E+04  0.18485411040E+04 0.  0.
        -24    2    3    3    0    0 -0.57879437028E+03  0.50186081108E+03  0.88113960610E+03  0.11695222452E+04  0.67142236077E+02 0.  0.
    9900016    2    1    2    0    0  0.87584355258E+02  0.24329810033E+03  0.18579887453E+04  0.25990150387E+04  0.17988585295E+04 0.  0.
         24    2    5    5    0    0 -0.35524219001E+03  0.56105869941E+02 -0.24443211378E+03  0.44232550408E+03  0.80993278173E+02 0.  0.
        -15    1    6    6    0    0 -0.15891316428E+03 -0.14555680412E+02 -0.11637790510E+03  0.19750716040E+03  0.00000000000E+00 0.  1.
        -15    1    3    3    0    0  0.48849784628E+03 -0.77686789526E+03  0.46479820464E+02  0.91886573895E+03  0.00000000000E+00 0.  1.
         15    1    4    4    0    0 -0.40331752608E+03  0.34459214539E+03  0.56206545765E+03  0.77286891009E+03  0.00000000000E+00 0. -1.
         15    1    5    5    0    0  0.44282654527E+03  0.18719223039E+03  0.21024208590E+04  0.21566895346E+04  0.00000000000E+00 0. -1.
        -16    1    4    4    0    0 -0.17547684420E+03  0.15726866569E+03  0.31907414845E+03  0.39665333513E+03  0.00000000000E+00 0.  1.
         16    1    6    6    0    0 -0.19632902574E+03  0.70661550352E+02 -0.12805420868E+03  0.24481834368E+03  0.00000000000E+00 0. -1.
    9900018    1    1    2    0    0  0.27121687373E+01  0.31708983842E+02  0.14270600641E+03  0.17231656384E+03  0.91187600000E+02 0.  0.
<mgrwt>
<rscale>  0 0.38783825E+04</rscale>
<asrwt>0</asrwt>
<pdfrwt beam="1">  1        1 0.59907951E+00 0.38783825E+04</pdfrwt>
<pdfrwt beam="2">  1       -1 0.14856965E+00 0.38783825E+04</pdfrwt>
<totfact> 0.33477004E-02</totfact>
</mgrwt>
</event>
<event>
13    1  0.1703488E-011  0.4648266E+04  0.7818608E-02  0.7885182E-01
         -2   -1    0    0    0  501 -0.00000000000E+00  0.00000000000E+00  0.15647287430E+04  0.15647287430E+04  0.00000000000E+00 0.  1.
          2   -1    0    0  501    0  0.00000000000E+00 -0.00000000000E+00 -0.34520961118E+04  0.34520961118E+04  0.00000000000E+00 0. -1.
    9900016    2    1    2    0    0  0.50790502876E+03  0.17651584042E+03  0.44977523182E+03  0.19646163051E+04  0.18352912867E+04 0.  0.
        -24    2    3    3    0    0  0.23941845242E+03 -0.13774510307E+03 -0.69325299109E+03  0.74914993342E+03  0.65810366364E+02 0.  0.
    9900016    2    1    2    0    0 -0.50790502876E+03 -0.17651584042E+03 -0.23371426006E+04  0.30522085497E+04  0.18880191035E+04 0.  0.
         24    2    5    5    0    0 -0.72986983443E+03  0.64774325514E+03 -0.88281947550E+03  0.13183466711E+04  0.79915074694E+02 0.  0.
        -15    1    3    3    0    0  0.26848657634E+03  0.31426094349E+03  0.11430282229E+04  0.12154663717E+04  0.00000000000E+00 0.  1.
        -15    1    6    6    0    0 -0.10330355254E+03  0.92099070310E+02 -0.16497836840E+03  0.21534095003E+03  0.00000000000E+00 0.  1.
         15    1    4    4    0    0  0.72834056257E+02 -0.19585664617E+02 -0.13394438471E+03  0.15371888694E+03  0.00000000000E+00 0. -1.
         15    1    5    5    0    0  0.22003775240E+03 -0.82337937989E+03 -0.12953745219E+04  0.15506016148E+04  0.00000000000E+00 0. -1.
        -16    1    4    4    0    0  0.16658439616E+03 -0.11815943845E+03 -0.55930860638E+03  0.59543104648E+03  0.00000000000E+00 0.  1.
         16    1    6    6    0    0 -0.62656628189E+03  0.55564418484E+03 -0.71784110711E+03  0.11030057211E+04  0.00000000000E+00 0. -1.
    9900018    1    5    5    0    0  0.19270532722E+01 -0.87971567808E+00 -0.15894860317E+03  0.18326026377E+03  0.91187600000E+02 0.  0.
<mgrwt>
<rscale>  0 0.46482659E+04</rscale>
<asrwt>0</asrwt>
<pdfrwt beam="1">  1        2 0.53109170E+00 0.46482659E+04</pdfrwt>
<pdfrwt beam="2">  1       -2 0.24072750E+00 0.46482659E+04</pdfrwt>
<totfact> 0.48100485E-02</totfact>
</mgrwt>
</event>
<event>
13    1  0.1703488E-011  0.4748509E+04  0.7818608E-02  0.7868518E-01
          2   -1    0    0  501    0  0.00000000000E+00  0.00000000000E+00  0.29964437545E+04  0.29964437545E+04  0.00000000000E+00 0. -1.
         -2   -1    0    0    0  501 -0.00000000000E+00 -0.00000000000E+00 -0.18812581992E+04  0.18812581992E+04  0.00000000000E+00 0.  1.
    9900016    2    1    2    0    0  0.89041532993E+03  0.81097276061E+03 -0.29896808898E+03  0.22191448093E+04  0.18397569101E+04 0.  0.
        -24    2    3    3    0    0 -0.40937660672E+03 -0.13756153331E+03  0.26396424969E+03  0.51442512469E+03  0.91889619783E+02 0.  0.
    9900016    2    1    2    0    0 -0.90402336028E+03 -0.74586229226E+03  0.13286444942E+04  0.25169536672E+04  0.17877893545E+04 0.  0.
         24    2    5    5    0    0  0.41841677098E+03  0.21232335802E+03  0.48296308903E+03  0.67789285253E+03  0.78304352045E+02 0.  0.
        -15    1    3    3    0    0  0.12997919366E+04  0.94853429393E+03 -0.56293233867E+03  0.17047196847E+04  0.00000000000E+00 0.  1.
        -15    1    6    6    0    0  0.14314797127E+03  0.35069340074E+02  0.13085567959E+03  0.19708985051E+03  0.00000000000E+00 0.  1.
         15    1    5    5    0    0 -0.13224401313E+04 -0.95818565028E+03  0.84568140515E+03  0.18390608147E+04  0.00000000000E+00 0. -1.
         15    1    4    4    0    0 -0.14184589469E+03 -0.29760113936E+01  0.91849502437E+02  0.16901315210E+03  0.00000000000E+00 0. -1.
        -16    1    4    4    0    0 -0.26753071202E+03 -0.13458552192E+03  0.17211474726E+03  0.34541197259E+03  0.00000000000E+00 0.  1.
         16    1    6    6    0    0  0.27526879971E+03  0.17725401795E+03  0.35210740945E+03  0.48080300203E+03  0.00000000000E+00 0. -1.
    9900018    1    1    2    0    0  0.13608030354E+02 -0.65110468354E+02  0.85509150075E+02  0.14160347707E+03  0.91187600000E+02 0.  0.
<mgrwt>
<rscale>  0 0.47485090E+04</rscale>
<asrwt>0</asrwt>
<pdfrwt beam="1">  1        2 0.46099135E+00 0.47485090E+04</pdfrwt>
<pdfrwt beam="2">  1       -2 0.28942434E+00 0.47485090E+04</pdfrwt>
<totfact> 0.47921917E-02</totfact>
</mgrwt>
</event>
<event>
13    1  0.1703488E-011  0.4166842E+04  0.7818608E-02  0.7971710E-01
          1   -1    0    0  501    0  0.00000000000E+00  0.00000000000E+00  0.22718035858E+04  0.22718035858E+04  0.00000000000E+00 0. -1.
         -1   -1    0    0    0  501 -0.00000000000E+00 -0.00000000000E+00 -0.19106591767E+04  0.19106591767E+04  0.00000000000E+00 0.  1.
    9900016    2    1    2    0    0 -0.49618382150E+03  0.59179349803E+03 -0.31194842932E+03  0.20201455913E+04  0.18404506129E+04 0.  0.
        -24    2    3    3    0    0  0.39788358256E+03 -0.33451975146E+03  0.29035451152E+03  0.59881466868E+03  0.63706009762E+02 0.  0.
    9900016    2    1    2    0    0  0.48429890114E+03 -0.50616283580E+03  0.66685199043E+03  0.20365078383E+04  0.17921847997E+04 0.  0.
         24    2    5    5    0    0 -0.22259391995E+03 -0.17267855139E+03 -0.53110322538E+03  0.60612120262E+03  0.77112521358E+02 0.  0.
        -15    1    3    3    0    0 -0.89406740406E+03  0.92631324949E+03 -0.60230294084E+03  0.14213309227E+04  0.00000000000E+00 0.  1.
        -15    1    6    6    0    0 -0.14739729719E+03 -0.81824124499E+02 -0.25276293899E+03  0.30382602571E+03  0.00000000000E+00 0.  1.
         15    1    5    5    0    0  0.70689282110E+03 -0.33348428441E+03  0.11979552158E+04  0.14303866357E+04  0.00000000000E+00 0. -1.
         15    1    4    4    0    0  0.29676670437E+03 -0.24675774286E+03  0.24636900696E+03  0.45788377136E+03  0.00000000000E+00 0. -1.
        -16    1    4    4    0    0  0.10111687819E+03 -0.87762008594E+02  0.43985504558E+02  0.14093089732E+03  0.00000000000E+00 0.  1.
         16    1    6    6    0    0 -0.75196622763E+02 -0.90854426891E+02 -0.27834028639E+03  0.30229517692E+03  0.00000000000E+00 0. -1.
    9900018    1    1    2    0    0  0.11884920360E+02 -0.85630662232E+02  0.62408479572E+01  0.12580933281E+03  0.91187600000E+02 0.  0.
<mgrwt>
<rscale>  0 0.41668417E+04</rscale>
<asrwt>0</asrwt>
<pdfrwt beam="1">  1        1 0.34950824E+00 0.41668417E+04</pdfrwt>
<pdfrwt beam="2">  1       -1 0.29394757E+00 0.41668417E+04</pdfrwt>
<totfact> 0.54306059E-02</totfact>
</mgrwt>
</event>
<event>
13    1  0.1703488E-011  0.4132269E+04  0.7818608E-02  0.7978383E-01
          2   -1    0    0  501    0  0.00000000000E+00  0.00000000000E+00  0.15196046273E+04  0.15196046273E+04  0.00000000000E+00 0.  1.
         -2   -1    0    0    0  501 -0.00000000000E+00 -0.00000000000E+00 -0.28092247927E+04  0.28092247927E+04  0.00000000000E+00 0. -1.
    9900016    2    1    2    0    0  0.17183150816E+03 -0.81653497019E+03 -0.97253913325E+03  0.22431279298E+04  0.18410690153E+04 0.  0.
         24    2    3    3    0    0 -0.40096893256E+03  0.39763562693E+03  0.28146428814E+02  0.56870797712E+03  0.61207557604E+02 0.  0.
    9900016    2    1    2    0    0 -0.17183150816E+03  0.81653497019E+03 -0.31708103211E+03  0.20857014902E+04  0.18850344561E+04 0.  0.
        -24    2    5    5    0    0  0.59296601873E+02 -0.14254546388E+03 -0.87488312739E+03  0.89203833931E+03  0.80477424953E+02 0.  0.
        -15    1    4    4    0    0 -0.23702287764E+03  0.23112088534E+03  0.46529886864E+02  0.33430784995E+03  0.00000000000E+00 0.  1.
        -15    1    5    5    0    0 -0.22114182559E+03  0.88919860021E+03  0.56773910281E+03  0.10779172262E+04  0.00000000000E+00 0.  1.
         15    1    6    6    0    0  0.35669695842E+02 -0.41605769522E+02 -0.14839985902E+03  0.15819571870E+03  0.00000000000E+00 0. -1.
         15    1    3    3    0    0  0.57280044072E+03 -0.12141705971E+04 -0.10006855621E+04  0.16744199527E+04  0.00000000000E+00 0. -1.
        -16    1    6    6    0    0  0.23626906031E+02 -0.10093969436E+03 -0.72648326837E+03  0.73384262060E+03  0.00000000000E+00 0.  1.
         16    1    4    4    0    0 -0.16394605492E+03  0.16651474159E+03 -0.18383458051E+02  0.23440012718E+03  0.00000000000E+00 0. -1.
    9900018    1    5    5    0    0 -0.99862844500E+01  0.69881833869E+02 -0.99370075309E+01  0.11574592474E+03  0.91187600000E+02 0.  0.
<mgrwt>
<rscale>  0 0.41322686E+04</rscale>
<asrwt>0</asrwt>
<pdfrwt beam="1">  1        2 0.23378533E+00 0.41322686E+04</pdfrwt>
<pdfrwt beam="2">  1       -2 0.43218843E+00 0.41322686E+04</pdfrwt>
<totfact> 0.43981892E-02</totfact>
</mgrwt>
</event>
<event>
13    1  0.1974215E-011  0.4403872E+04  0.7818608E-02  0.7927686E-01
         -1   -1    0    0    0  501 -0.00000000000E+00  0.00000000000E+00  0.15504414301E+04  0.15504414301E+04  0.00000000000E+00 0.  1.
          1   -1    0    0  501    0  0.00000000000E+00 -0.00000000000E+00 -0.31271876502E+04  0.31271876502E+04  0.00000000000E+00 0. -1.
    9900016    2    1    2    0    0 -0.26501211987E+03 -0.45028684868E+03  0.34144568144E+03  0.19305806561E+04  0.18269008858E+04 0.  0.
        -24    2    3    3    0    0 -0.31110663810E+03 -0.73976946233E+02 -0.72713528672E+03  0.79673801585E+03  0.61691262396E+02 0.  0.
    9900016    2    1    2    0    0  0.26425827854E+03  0.42215188967E+03 -0.18003571261E+04  0.25954161160E+04  0.18019029879E+04 0.  0.
         24    2    5    5    0    0 -0.53937996370E+03  0.15278564943E+03  0.41394538596E+02  0.56799366615E+03  0.81419267036E+02 0.  0.
        -15    1    6    6    0    0 -0.24286186071E+03  0.11063501085E+03  0.13924182178E+02  0.26723748214E+03  0.00000000000E+00 0.  1.
        -15    1    3    3    0    0  0.46094518229E+02 -0.37630990245E+03  0.10685809682E+04  0.11338426402E+04  0.00000000000E+00 0.  1.
         15    1    5    5    0    0  0.80363824224E+03  0.26936624024E+03 -0.18417516646E+04  0.20274224498E+04  0.00000000000E+00 0. -1.
         15    1    4    4    0    0 -0.22730659578E+03 -0.25314528369E+02 -0.51773379202E+03  0.56600123077E+03  0.00000000000E+00 0. -1.
        -16    1    4    4    0    0 -0.83800042319E+02 -0.48662417864E+02 -0.20940149470E+03  0.23073678508E+03  0.00000000000E+00 0.  1.
         16    1    6    6    0    0 -0.29651810299E+03  0.42150638575E+02  0.27470356418E+02  0.30075618400E+03  0.00000000000E+00 0. -1.
    9900018    1    1    2    0    0  0.75384132734E+00  0.28134959010E+02 -0.11783477547E+03  0.15163230823E+03  0.91187600000E+02 0.  0.
<mgrwt>
<rscale>  0 0.44038716E+04</rscale>
<asrwt>0</asrwt>
<pdfrwt beam="1">  1        1 0.48110579E+00 0.44038716E+04</pdfrwt>
<pdfrwt beam="2">  1       -1 0.23852945E+00 0.44038716E+04</pdfrwt>
<totfact> 0.30231195E-02</totfact>
</mgrwt>
</event>
<event>
13    1  0.1703488E-011  0.4615626E+04  0.7818608E-02  0.7890701E-01
         -2   -1    0    0    0  501 -0.00000000000E+00  0.00000000000E+00  0.15429061130E+04  0.15429061130E+04  0.00000000000E+00 0.  1.
          2   -1    0    0  501    0  0.00000000000E+00 -0.00000000000E+00 -0.34519281454E+04  0.34519281454E+04  0.00000000000E+00 0. -1.
    9900016    2    1    2    0    0 -0.49325147800E+03 -0.95986059211E+03 -0.58258919837E+02  0.21391624980E+04  0.18460749482E+04 0.  0.
        -24    2    3    3    0    0 -0.13816384344E+03  0.24633434124E+03 -0.67798752087E+03  0.73735759558E+03  0.65263236107E+02 0.  0.
    9900016    2    1    2    0    0  0.49325147800E+03  0.95986059211E+03 -0.18507631126E+04  0.28556717604E+04  0.18880963236E+04 0.  0.
         24    2    5    5    0    0 -0.63635259815E+03  0.19296196607E+03 -0.23034540461E+03  0.70809098073E+03  0.78453056326E+02 0.  0.
        -15    1    6    6    0    0 -0.40654052935E+03  0.12514701095E+03 -0.10709555576E+03  0.43864157853E+03  0.00000000000E+00 0.  1.
        -15    1    3    3    0    0 -0.35508763455E+03 -0.12061949334E+04  0.61972860104E+03  0.14018049024E+04  0.00000000000E+00 0.  1.
         15    1    4    4    0    0 -0.76445732577E+02  0.17199430253E+03 -0.50918644398E+03  0.54285985748E+03  0.00000000000E+00 0. -1.
         15    1    5    5    0    0  0.10751253475E+04  0.69593226059E+03 -0.14949212322E+04  0.19685034201E+04  0.00000000000E+00 0. -1.
        -16    1    4    4    0    0 -0.61718110865E+02  0.74340038708E+02 -0.16880107690E+03  0.19449773810E+03  0.00000000000E+00 0.  1.
         16    1    6    6    0    0 -0.22981206880E+03  0.67814955120E+02 -0.12324984885E+03  0.26944940220E+03  0.00000000000E+00 0. -1.
    9900018    1    5    5    0    0  0.54478728602E+02  0.70966365454E+02 -0.12549647574E+03  0.17907735957E+03  0.91187600000E+02 0.  0.
<mgrwt>
<rscale>  0 0.46156261E+04</rscale>
<asrwt>0</asrwt>
<pdfrwt beam="1">  1        2 0.53106587E+00 0.46156261E+04</pdfrwt>
<pdfrwt beam="2">  1       -2 0.23737017E+00 0.46156261E+04</pdfrwt>
<totfact> 0.50609685E-02</totfact>
</mgrwt>
</event>
<event>
13    1  0.1703488E-011  0.4910100E+04  0.7818608E-02  0.7842527E-01
          2   -1    0    0  501    0  0.00000000000E+00  0.00000000000E+00  0.23162828918E+04  0.23162828918E+04  0.00000000000E+00 0. -1.
         -2   -1    0    0    0  501 -0.00000000000E+00 -0.00000000000E+00 -0.26021308678E+04  0.26021308678E+04  0.00000000000E+00 0.  1.
    9900016    2    1    2    0    0 -0.28689986981E+02 -0.15607507055E+03  0.14635091592E+04  0.23448963466E+04  0.18252389636E+04 0.  0.
         24    2    3    3    0    0 -0.45973640167E+03 -0.86261400125E+03  0.60912764312E+03  0.11553728928E+04  0.91594549778E+02 0.  0.
    9900016    2    1    2    0    0  0.28689986981E+02  0.15607507055E+03 -0.17493571352E+04  0.25735174130E+04  0.18808399575E+04 0.  0.
        -24    2    5    5    0    0 -0.39803916572E+03 -0.94296300088E+01  0.25204212673E+03  0.47858721888E+03  0.83644468217E+02 0.  0.
        -15    1    4    4    0    0 -0.37058190830E+03 -0.61130512206E+03  0.45503069378E+03  0.84739473405E+03  0.00000000000E+00 0.  1.
        -15    1    5    5    0    0  0.41137640118E+03  0.14855378152E+03 -0.19242021774E+04  0.19732847714E+04  0.00000000000E+00 0.  1.
         15    1    6    6    0    0 -0.14840894110E+03  0.22115871095E+02  0.58106118553E+02  0.16090570707E+03  0.00000000000E+00 0. -1.
         15    1    3    3    0    0  0.43104641469E+03  0.70653893070E+03  0.85438151606E+03  0.11895234538E+04  0.00000000000E+00 0. -1.
        -16    1    6    6    0    0 -0.24963022462E+03 -0.31545501104E+02  0.19393600818E+03  0.31768151181E+03  0.00000000000E+00 0.  1.
         16    1    4    4    0    0 -0.89154493363E+02 -0.25130887919E+03  0.15409694934E+03  0.30797815871E+03  0.00000000000E+00 0. -1.
    9900018    1    5    5    0    0  0.15352751521E+02  0.16950919035E+02 -0.77197084500E+02  0.12164542278E+03  0.91187600000E+02 0.  0.
<mgrwt>
<rscale>  0 0.49101003E+04</rscale>
<asrwt>0</asrwt>
<pdfrwt beam="1">  1        2 0.35635122E+00 0.49101003E+04</pdfrwt>
<pdfrwt beam="2">  1       -2 0.40032782E+00 0.49101003E+04</pdfrwt>
<totfact> 0.24049417E-02</totfact>
</mgrwt>
</event>
<event>
13    1  0.1703488E-011  0.4420328E+04  0.7818608E-02  0.7924735E-01
          1   -1    0    0  501    0  0.00000000000E+00  0.00000000000E+00  0.29701613790E+04  0.29701613790E+04  0.00000000000E+00 0. -1.
         -1   -1    0    0    0  501 -0.00000000000E+00 -0.00000000000E+00 -0.16446326016E+04  0.16446326016E+04  0.00000000000E+00 0.  1.
    9900016    2    1    2    0    0  0.17900766379E+03 -0.79818323797E+03 -0.23168793164E+03  0.20272003073E+04  0.18403047473E+04 0.  0.
        -24    2    3    3    0    0  0.88157035340E+02  0.58964702164E+03  0.49552635669E+02  0.60824896105E+03  0.10980009977E+03 0.  0.
    9900016    2    1    2    0    0 -0.21485076608E+03  0.73661370549E+03  0.14400950093E+04  0.24229479742E+04  0.17911009594E+04 0.  0.
         24    2    5    5    0    0 -0.37685299935E+03  0.13815884836E+03 -0.34382628342E+03  0.53435905163E+03  0.78848160344E+02 0.  0.
        -15    1    3    3    0    0  0.90850628454E+02 -0.13878302596E+04 -0.28124056731E+03  0.14189513462E+04  0.00000000000E+00 0.  1.
        -15    1    6    6    0    0 -0.36705616096E+03  0.14718408452E+03 -0.32898452915E+03  0.51441636877E+03  0.00000000000E+00 0.  1.
         15    1    5    5    0    0  0.16200223327E+03  0.59845485712E+03  0.17839212927E+04  0.18885889225E+04  0.00000000000E+00 0. -1.
         15    1    4    4    0    0  0.10998426572E+03  0.44381028909E+03  0.18838932233E+02  0.45762322579E+03  0.00000000000E+00 0. -1.
        -16    1    4    4    0    0 -0.21827230375E+02  0.14583673255E+03  0.30713703435E+02  0.15062573527E+03  0.00000000000E+00 0.  1.
         16    1    6    6    0    0 -0.97968383893E+01 -0.90252361534E+01 -0.14841754271E+02  0.19942682866E+02  0.00000000000E+00 0. -1.
    9900018    1    1    2    0    0  0.35843102286E+02  0.61569532482E+02  0.11712169970E+03  0.16464569914E+03  0.91187600000E+02 0.  0.
<mgrwt>
<rscale>  0 0.44203277E+04</rscale>
<asrwt>0</asrwt>
<pdfrwt beam="1">  1        1 0.45694790E+00 0.44203277E+04</pdfrwt>
<pdfrwt beam="2">  1       -1 0.25302040E+00 0.44203277E+04</pdfrwt>
<totfact> 0.31657581E-02</totfact>
</mgrwt>
</event>
<event>
13    1  0.1703488E-011  0.3970527E+04  0.7818608E-02  0.8010519E-01
          2   -1    0    0  501    0  0.00000000000E+00  0.00000000000E+00  0.21699121117E+04  0.21699121117E+04  0.00000000000E+00 0. -1.
         -2   -1    0    0    0  501 -0.00000000000E+00 -0.00000000000E+00 -0.18163271869E+04  0.18163271869E+04  0.00000000000E+00 0.  1.
    9900016    2    1    2    0    0  0.18799503813E+03 -0.61391254353E+03  0.34720460450E+03  0.19813778438E+04  0.18420305038E+04 0.  0.
        -24    2    3    3    0    0 -0.33181455544E+03  0.52514677716E+03 -0.13600000442E+03  0.63931046702E+03  0.65892604131E+02 0.  0.
    9900016    2    1    2    0    0 -0.18871955791E+03  0.58126537200E+03  0.80346538797E+01  0.19079889719E+04  0.18074492682E+04 0.  0.
         24    2    5    5    0    0 -0.25795763183E+03 -0.60766021199E+03 -0.21164243500E+03  0.69695801501E+03  0.71867108939E+02 0.  0.
        -15    1    3    3    0    0  0.51980959357E+03 -0.11390593207E+04  0.48320460892E+03  0.13420673767E+04  0.00000000000E+00 0.  1.
        -15    1    6    6    0    0 -0.10448919648E+03 -0.17762979587E+03 -0.45272752749E+02  0.21099753246E+03  0.00000000000E+00 0.  1.
         15    1    5    5    0    0  0.69238073921E+02  0.11889255840E+04  0.21967708888E+03  0.12110309569E+04  0.00000000000E+00 0. -1.
         15    1    4    4    0    0 -0.18834455255E+03  0.34884041629E+03 -0.10320553658E+03  0.40965191235E+03  0.00000000000E+00 0. -1.
        -16    1    4    4    0    0 -0.14347000289E+03  0.17630636087E+03 -0.32794467840E+02  0.22965855467E+03  0.00000000000E+00 0.  1.
         16    1    6    6    0    0 -0.15346843536E+03 -0.43003041611E+03 -0.16636968225E+03  0.48596048255E+03  0.00000000000E+00 0. -1.
    9900018    1    1    2    0    0  0.72451977884E+00  0.32647171535E+02 -0.16543334979E+01  0.96872482941E+02  0.91187600000E+02 0.  0.
<mgrwt>
<rscale>  0 0.39705266E+04</rscale>
<asrwt>0</asrwt>
<pdfrwt beam="1">  1        2 0.33383263E+00 0.39705266E+04</pdfrwt>
<pdfrwt beam="2">  1       -2 0.27943495E+00 0.39705266E+04</pdfrwt>
<totfact> 0.18022760E-01</totfact>
</mgrwt>
</event>
<event>
13    1  0.1703488E-011  0.5097981E+04  0.7818608E-02  0.7813568E-01
          1   -1    0    0  501    0  0.00000000000E+00  0.00000000000E+00  0.19348762558E+04  0.19348762558E+04  0.00000000000E+00 0. -1.
         -1   -1    0    0    0  501 -0.00000000000E+00 -0.00000000000E+00 -0.33580193503E+04  0.33580193503E+04  0.00000000000E+00 0.  1.
    9900016    2    1    2    0    0  0.10890161350E+04  0.78274843708E+02  0.68728211341E+03  0.22497297005E+04  0.18430528828E+04 0.  0.
         24    2    3    3    0    0  0.11211366698E+03  0.34288915150E+03 -0.54407119902E+03  0.65580682162E+03  0.62663172111E+02 0.  0.
    9900016    2    1    2    0    0 -0.10134666676E+04 -0.44411834856E+02 -0.19091508804E+04  0.28071977750E+04  0.17906465777E+04 0.  0.
        -24    2    5    5    0    0 -0.69811597072E+03  0.10741504933E+03  0.14329320103E+03  0.72512568876E+03  0.79814921144E+02 0.  0.
        -15    1    4    4    0    0  0.16841317787E+02  0.14804046205E+03 -0.23389693463E+03  0.27732180660E+03  0.00000000000E+00 0.  1.
        -15    1    5    5    0    0 -0.31535069687E+03 -0.15182688418E+03 -0.20524440814E+04  0.20820720862E+04  0.00000000000E+00 0.  1.
         15    1    3    3    0    0  0.97690246800E+03 -0.26461430779E+03  0.12313533124E+04  0.15939228789E+04  0.00000000000E+00 0. -1.
         15    1    6    6    0    0 -0.12959359083E+03  0.49273984435E+02  0.15356662536E+02  0.13949283641E+03  0.00000000000E+00 0. -1.
        -16    1    6    6    0    0 -0.56852237989E+03  0.58141064893E+02  0.12793653849E+03  0.58563285234E+03  0.00000000000E+00 0.  1.
         16    1    4    4    0    0  0.95272349195E+02  0.19484868945E+03 -0.31017426439E+03  0.37848501502E+03  0.00000000000E+00 0. -1.
    9900018    1    1    2    0    0 -0.75549467394E+02 -0.33863008852E+02 -0.20127432743E+03  0.23596813062E+03  0.91187600000E+02 0.  0.
<mgrwt>
<rscale>  0 0.50979807E+04</rscale>
<asrwt>0</asrwt>
<pdfrwt beam="1">  1        1 0.29767327E+00 0.50979807E+04</pdfrwt>
<pdfrwt beam="2">  1       -1 0.51661836E+00 0.50979807E+04</pdfrwt>
<totfact> 0.27871473E-03</totfact>
</mgrwt>
</event>
<event>
13    1  0.1703488E-011  0.4093554E+04  0.7818608E-02  0.7985935E-01
         -1   -1    0    0    0  501 -0.00000000000E+00  0.00000000000E+00  0.17836777949E+04  0.17836777949E+04  0.00000000000E+00 0.  1.
          1   -1    0    0  501    0  0.00000000000E+00 -0.00000000000E+00 -0.23486845138E+04  0.23486845138E+04  0.00000000000E+00 0. -1.
    9900016    2    1    2    0    0  0.27153258996E+01 -0.65767190694E+03  0.23587963662E+03  0.19785629539E+04  0.18510895303E+04 0.  0.
        -24    2    3    3    0    0  0.65792109706E+03  0.14298706494E-01 -0.46883023852E+03  0.81303227826E+03  0.91430425921E+02 0.  0.
    9900016    2    1    2    0    0 -0.27153258996E+01  0.65767190694E+03 -0.80088635547E+03  0.21537993549E+04  0.18880924227E+04 0.  0.
         24    2    5    5    0    0  0.88695794041E+02 -0.49794520574E+03 -0.73914131248E+03  0.89916858359E+03  0.79736378780E+02 0.  0.
        -15    1    6    6    0    0  0.99686632535E+02 -0.37566676809E+03 -0.57970633176E+03  0.69794152795E+03  0.00000000000E+00 0.  1.
        -15    1    3    3    0    0 -0.65520577116E+03 -0.65768620564E+03  0.70470987514E+03  0.11655306756E+04  0.00000000000E+00 0.  1.
         15    1    4    4    0    0  0.45979203070E+03 -0.21996396698E+02 -0.28206481310E+03  0.53986397523E+03  0.00000000000E+00 0. -1.
         15    1    5    5    0    0 -0.83904949559E+02  0.11150450624E+04  0.30364327903E+02  0.11186096389E+04  0.00000000000E+00 0. -1.
        -16    1    4    4    0    0  0.19812906636E+03  0.22010695405E+02 -0.18676542542E+03  0.27316830303E+03  0.00000000000E+00 0.  1.
         16    1    6    6    0    0 -0.10990838494E+02 -0.12227843765E+03 -0.15943498072E+03  0.20122705564E+03  0.00000000000E+00 0. -1.
    9900018    1    5    5    0    0 -0.75061703813E+01  0.40572050249E+02 -0.92109370895E+02  0.13602113239E+03  0.91187600000E+02 0.  0.
<mgrwt>
<rscale>  0 0.40935542E+04</rscale>
<asrwt>0</asrwt>
<pdfrwt beam="1">  1        1 0.36133608E+00 0.40935542E+04</pdfrwt>
<pdfrwt beam="2">  1       -1 0.27441197E+00 0.40935542E+04</pdfrwt>
<totfact> 0.64753710E-02</totfact>
</mgrwt>
</event>
<event>
12    1  0.1703488E-011  0.4818732E+04  0.7818608E-02  0.7857094E-01
         -2   -1    0    0    0  501 -0.00000000000E+00  0.00000000000E+00  0.21347657785E+04  0.21347657785E+04  0.00000000000E+00 0.  1.
          2   -1    0    0  501    0  0.00000000000E+00 -0.00000000000E+00 -0.27192891835E+04  0.27192891835E+04  0.00000000000E+00 0. -1.
    9900016    2    1    2    0    0  0.41677644803E+03  0.23348276212E+03  0.11638197488E+04  0.22370888076E+04  0.18498305646E+04 0.  0.
    9900016    2    1    2    0    0 -0.41677644803E+03 -0.23348276212E+03 -0.17483431538E+04  0.26169661544E+04  0.18877476691E+04 0.  0.
         24    2    4    4    0    0  0.55291561992E+03 -0.59018741724E+03 -0.55461587006E+03  0.98456217165E+03  0.87903562601E+02 0.  0.
        -15    1    3    3    0    0  0.62167500651E+03  0.43166224337E+03  0.15488920122E+04  0.17239137367E+04  0.00000000000E+00 0.  1.
        -15    1    5    5    0    0  0.20601907801E+03 -0.20022794588E+03 -0.24600184036E+03  0.37822215202E+03  0.00000000000E+00 0.  1.
         15    1    3    3    0    0 -0.12042229068E+03 -0.37192673994E+01 -0.19054660368E+03  0.22544038950E+03  0.00000000000E+00 0. -1.
         15    1    4    4    0    0 -0.92796437805E+03  0.38868366749E+03 -0.10493215428E+04  0.14537085610E+04  0.00000000000E+00 0. -1.
        -16    1    3    3    0    0 -0.84476267807E+02 -0.19446021385E+03 -0.19452565974E+03  0.28773468141E+03  0.00000000000E+00 0.  1.
         16    1    5    5    0    0  0.34689654191E+03 -0.38995947135E+03 -0.30861402970E+03  0.60634001964E+03  0.00000000000E+00 0. -1.
    9900018    1    4    4    0    0 -0.41727689895E+02 -0.31979012372E+02 -0.14440574092E+03  0.17869542171E+03  0.91187600000E+02 0.  0.
<mgrwt>
<rscale>  0 0.48187324E+04</rscale>
<asrwt>0</asrwt>
<pdfrwt beam="1">  1        2 0.41835218E+00 0.48187324E+04</pdfrwt>
<pdfrwt beam="2">  1       -2 0.32842551E+00 0.48187324E+04</pdfrwt>
<totfact> 0.40547288E-02</totfact>
</mgrwt>
</event>
<event>
13    1  0.1703488E-011  0.4704963E+04  0.7818608E-02  0.7875704E-01
          2   -1    0    0  501    0  0.00000000000E+00  0.00000000000E+00  0.34465402127E+04  0.34465402127E+04  0.00000000000E+00 0. -1.
         -2   -1    0    0    0  501 -0.00000000000E+00 -0.00000000000E+00 -0.16057175898E+04  0.16057175898E+04  0.00000000000E+00 0.  1.
    9900016    2    1    2    0    0 -0.81456843140E+03  0.37388640976E+03  0.21014259087E+04  0.29332254525E+04  0.18397032175E+04 0.  0.
         24    2    3    3    0    0  0.52236587154E+03  0.11196747616E+02  0.17789402686E+03  0.56280101329E+03  0.11003283539E+03 0.  0.
    9900016    2    1    2    0    0  0.78037364191E+03 -0.35176082426E+03 -0.23126808165E+03  0.20149431683E+04  0.18093624146E+04 0.  0.
        -24    2    5    5    0    0  0.83120173236E+03 -0.92672256698E+03  0.23913513741E+03  0.12703334122E+04  0.82766708946E+02 0.  0.
        -15    1    5    5    0    0 -0.50828090454E+02  0.57496174272E+03 -0.47040321907E+03  0.74460975610E+03  0.00000000000E+00 0.  1.
        -15    1    4    4    0    0  0.29420246800E+03  0.60302262839E+01  0.42168993550E+02  0.29727038168E+03  0.00000000000E+00 0.  1.
         15    1    3    3    0    0 -0.13369343029E+04  0.36268966215E+03  0.19235318819E+04  0.23704244392E+04  0.00000000000E+00 0. -1.
         15    1    6    6    0    0  0.40640510826E+03 -0.42087423906E+03  0.76445349952E+02  0.59003739597E+03  0.00000000000E+00 0. -1.
        -16    1    6    6    0    0  0.42479662410E+03 -0.50584832792E+03  0.16268978746E+03  0.68029601620E+03  0.00000000000E+00 0.  1.
         16    1    4    4    0    0  0.22816340353E+03  0.51665213324E+01  0.13572503331E+03  0.26553063161E+03  0.00000000000E+00 0. -1.
    9900018    1    1    2    0    0  0.34194789491E+02 -0.22125585504E+02 -0.29335204089E+02  0.10408918174E+03  0.91187600000E+02 0.  0.
<mgrwt>
<rscale>  0 0.47049634E+04</rscale>
<asrwt>0</asrwt>
<pdfrwt beam="1">  1        2 0.53023695E+00 0.47049634E+04</pdfrwt>
<pdfrwt beam="2">  1       -2 0.24703348E+00 0.47049634E+04</pdfrwt>
<totfact> 0.44164598E-02</totfact>
</mgrwt>
</event>
<event>
13    1  0.1703488E-011  0.4097824E+04  0.7818608E-02  0.7985098E-01
         -4   -1    0    0    0  501 -0.00000000000E+00  0.00000000000E+00  0.18501771374E+04  0.18501771374E+04  0.00000000000E+00 0.  1.
          4   -1    0    0  501    0  0.00000000000E+00 -0.00000000000E+00 -0.22689934311E+04  0.22689934311E+04  0.00000000000E+00 0. -1.
    9900016    2    1    2    0    0  0.19953852430E+03 -0.39437185061E+03 -0.91462400567E+03  0.21036669839E+04  0.18421544257E+04 0.  0.
         24    2    3    3    0    0 -0.87159987617E+02 -0.34813874975E+03  0.52019633205E+03  0.63975341472E+03  0.99412047780E+02 0.  0.
    9900016    2    1    2    0    0 -0.16568260252E+03  0.41156181756E+03  0.49018681027E+03  0.19165667800E+04  0.17989194698E+04 0.  0.
        -24    2    5    5    0    0  0.81295684274E+02 -0.55427860026E+03 -0.30372091793E+03  0.64215104414E+03  0.79232648034E+02 0.  0.
        -15    1    4    4    0    0  0.21831155790E+02 -0.55295627076E+02  0.71683964883E+02  0.93127850605E+02  0.00000000000E+00 0.  1.
        -15    1    5    5    0    0 -0.24697828680E+03  0.96584041782E+03  0.79390772820E+03  0.12744157358E+04  0.00000000000E+00 0.  1.
         15    1    6    6    0    0  0.39394229975E+02 -0.10698504945E+03 -0.86686475353E+02  0.14322098718E+03  0.00000000000E+00 0. -1.
         15    1    3    3    0    0  0.28669851192E+03 -0.46233100853E+02 -0.14348203377E+04  0.14639135691E+04  0.00000000000E+00 0. -1.
        -16    1    6    6    0    0  0.41901454299E+02 -0.44729355081E+03 -0.21703444258E+03  0.49893005695E+03  0.00000000000E+00 0.  1.
         16    1    4    4    0    0 -0.10899114341E+03 -0.29284312268E+03  0.44851236717E+03  0.54662556412E+03  0.00000000000E+00 0. -1.
    9900018    1    1    2    0    0 -0.33855921777E+02 -0.17189966958E+02  0.56209016935E+01  0.98936804744E+02  0.91187600000E+02 0.  0.
<mgrwt>
<rscale>  0 0.40978237E+04</rscale>
<asrwt>0</asrwt>
<pdfrwt beam="1">  1        4 0.34907591E+00 0.40978237E+04</pdfrwt>
<pdfrwt beam="2">  1       -4 0.28464264E+00 0.40978237E+04</pdfrwt>
<totfact> 0.88507843E-04</totfact>
</mgrwt>
</event>
<event>
13    1  0.1703488E-011  0.4331397E+04  0.7818608E-02  0.7940838E-01
          2   -1    0    0  501    0  0.00000000000E+00  0.00000000000E+00  0.32002425215E+04  0.32002425215E+04  0.00000000000E+00 0. -1.
         -2   -1    0    0    0  501 -0.00000000000E+00 -0.00000000000E+00 -0.14655919964E+04  0.14655919964E+04  0.00000000000E+00 0.  1.
    9900016    2    1    2    0    0  0.16840048465E+03  0.33473046530E+03  0.19828929515E+04  0.27271149868E+04  0.18343632374E+04 0.  0.
         24    2    3    3    0    0 -0.41299502215E+03 -0.25632857651E+03 -0.86401246007E+02  0.49791109262E+03  0.64661065479E+02 0.  0.
    9900016    2    1    2    0    0 -0.16840048465E+03 -0.33473046530E+03 -0.24824242648E+03  0.19387195311E+04  0.18858965799E+04 0.  0.
        -24    2    5    5    0    0 -0.88900240986E+02  0.63933718683E+03  0.30653024267E+03  0.71911659124E+03  0.80700624559E+02 0.  0.
        -15    1    4    4    0    0 -0.16210409378E+03 -0.12438802785E+03 -0.61337622988E+02  0.21333640732E+03  0.00000000000E+00 0.  1.
        -15    1    5    5    0    0 -0.72897868279E+02 -0.98340618583E+03 -0.54628310383E+03  0.11273096536E+04  0.00000000000E+00 0.  1.
         15    1    3    3    0    0  0.58139550679E+03  0.59105904181E+03  0.20692941975E+04  0.22292038942E+04  0.00000000000E+00 0. -1.
         15    1    6    6    0    0 -0.94282836502E+02  0.48079785380E+03  0.25490092668E+03  0.55229549328E+03  0.00000000000E+00 0. -1.
        -16    1    6    6    0    0  0.53825955162E+01  0.15853933304E+03  0.51629315997E+02  0.16682109796E+03  0.00000000000E+00 0.  1.
         16    1    4    4    0    0 -0.25089092836E+03 -0.13194054866E+03 -0.25063623019E+02  0.28457468530E+03  0.00000000000E+00 0. -1.
    9900018    1    5    5    0    0 -0.66023753805E+01  0.93385336967E+01 -0.84895653234E+01  0.92293286242E+02  0.91187600000E+02 0.  0.
<mgrwt>
<rscale>  0 0.43313969E+04</rscale>
<asrwt>0</asrwt>
<pdfrwt beam="1">  1        2 0.49234500E+00 0.43313969E+04</pdfrwt>
<pdfrwt beam="2">  1       -2 0.22547569E+00 0.43313969E+04</pdfrwt>
<totfact> 0.90787182E-02</totfact>
</mgrwt>
</event>
<event>
13    1  0.1703488E-011  0.5405041E+04  0.7818608E-02  0.7768892E-01
          2   -1    0    0  501    0  0.00000000000E+00  0.00000000000E+00  0.34494787155E+04  0.34494787155E+04  0.00000000000E+00 0. -1.
         -2   -1    0    0    0  501 -0.00000000000E+00 -0.00000000000E+00 -0.21173106721E+04  0.21173106721E+04  0.00000000000E+00 0.  1.
    9900016    2    1    2    0    0 -0.65930778893E+03 -0.76497905868E+03  0.23713484586E+04  0.31733089306E+04  0.18511391995E+04 0.  0.
         24    2    3    3    0    0  0.86480406478E+02  0.14359132289E+03 -0.24155224732E+03  0.30818235923E+03  0.92366388070E+02 0.  0.
    9900016    2    1    2    0    0  0.63061117546E+03  0.73161955385E+03 -0.99954655106E+03  0.22847497174E+04  0.18132981931E+04 0.  0.
        -24    2    5    5    0    0 -0.47605420027E+03 -0.20354125217E+03  0.13947399868E+00  0.52446390658E+03  0.83700220585E+02 0.  0.
        -15    1    5    5    0    0  0.11066653757E+04  0.93516080603E+03 -0.99968602506E+03  0.17602858108E+04  0.00000000000E+00 0.  1.
        -15    1    4    4    0    0  0.50686409012E+02  0.69504493783E+02 -0.19620221158E+03  0.21423187098E+03  0.00000000000E+00 0.  1.
         15    1    6    6    0    0 -0.26004273069E+03 -0.80300783774E+02  0.30757362412E+02  0.27389131604E+03  0.00000000000E+00 0. -1.
         15    1    3    3    0    0 -0.74578819541E+03 -0.90857038157E+03  0.26129007059E+04  0.28651265713E+04  0.00000000000E+00 0. -1.
        -16    1    6    6    0    0 -0.21601146958E+03 -0.12324046840E+03 -0.30617888413E+02  0.25057259054E+03  0.00000000000E+00 0.  1.
         16    1    4    4    0    0  0.35793997466E+02  0.74086829104E+02 -0.45350035734E+02  0.93950488250E+02  0.00000000000E+00 0. -1.
    9900018    1    1    2    0    0  0.28696613470E+02  0.33359504828E+02 -0.39633864143E+02  0.10873073976E+03  0.91187600000E+02 0.  0.
<mgrwt>
<rscale>  0 0.54050414E+04</rscale>
<asrwt>0</asrwt>
<pdfrwt beam="1">  1        2 0.53068903E+00 0.54050414E+04</pdfrwt>
<pdfrwt beam="2">  1       -2 0.32574010E+00 0.54050414E+04</pdfrwt>
<totfact> 0.13688285E-02</totfact>
</mgrwt>
</event>
