<event>
12    1  0.5566902E-013  0.9926025E+03  0.7818608E-02  0.9952271E-01
          1   -1    0    0  501    0  0.00000000000E+00  0.00000000000E+00  0.20161605006E+03  0.20161605006E+03  0.00000000000E+00 0. -1.
         -1   -1    0    0    0  501 -0.00000000000E+00 -0.00000000000E+00 -0.15418834898E+04  0.15418834898E+04  0.00000000000E+00 0.  1.
         23    2    1    2    0    0 -0.62130167780E+02 -0.25280828120E+02 -0.21207783817E+03  0.24081145149E+03  0.92270622135E+02 0.  0.
    9900016    2    1    2    0    0 -0.45541514825E+02 -0.50632886786E+02 -0.11850026127E+04  0.13592175283E+04  0.66227137826E+03 0.  0.
         23    2    4    4    0    0  0.18013906355E+03  0.12274262098E+03 -0.81604375466E+03  0.85108201076E+03  0.10439035543E+03 0.  0.
        -15    1    3    3    0    0 -0.98262866730E+01 -0.34612599347E+02 -0.16790598837E+03  0.17171781758E+03  0.00000000000E+00 0.  1.
        -15    1    5    5    0    0  0.10732353279E+03  0.12362220918E+02 -0.41324480784E+03  0.42713280886E+03  0.00000000000E+00 0.  1.
         15    1    3    3    0    0 -0.52303881107E+02  0.93317712265E+01 -0.44171849802E+02  0.69093633918E+02  0.00000000000E+00 0. -1.
         15    1    5    5    0    0  0.72815530752E+02  0.11038040006E+03 -0.40279894682E+03  0.42394920191E+03  0.00000000000E+00 0. -1.
        -16    1    4    4    0    0 -0.18336001119E+03 -0.73104564714E+02 -0.27249403746E+03  0.33647908038E+03  0.00000000000E+00 0.  1.
         16    1    1    2    0    0  0.10767168261E+03  0.75913714907E+02  0.56813011163E+02  0.14347055999E+03  0.00000000000E+00 0. -1.
    9900018    1    4    4    0    0 -0.42320567176E+02 -0.10027094305E+03 -0.96464820576E+02  0.17165643719E+03  0.91187600000E+02 0.  0.
<mgrwt>
<rscale>  0 0.57793542E+03</rscale>
<asrwt>0</asrwt>
<pdfrwt beam="1">  1        1 0.31017855E-01 0.99260250E+03</pdfrwt>
<pdfrwt beam="2">  1       -1 0.23721284E+00 0.99260250E+03</pdfrwt>
<totfact> 0.12549472E+01</totfact>
</mgrwt>
</event>
<event>
12    1  0.5566902E-013  0.9532410E+03  0.7818608E-02  0.9361370E-01
          2   -1    0    0  501    0  0.00000000000E+00  0.00000000000E+00  0.14368147725E+04  0.14368147725E+04  0.00000000000E+00 0. -1.
         -2   -1    0    0    0  501 -0.00000000000E+00 -0.00000000000E+00 -0.15810464755E+03  0.15810464755E+03  0.00000000000E+00 0.  1.
    9900016    2    1    2    0    0 -0.37625427863E+02  0.10242156345E+03  0.12760448914E+04  0.14857729453E+04  0.75320968563E+03 0.  0.
         23    2    3    3    0    0  0.12547398118E+02 -0.77017469475E+01  0.18642183742E+03  0.20832484865E+03  0.91811693100E+02 0.  0.
         23    2    3    3    0    0  0.79801748458E+02  0.17021822942E+03  0.14782966172E+03  0.26826646587E+03  0.12153486390E+03 0.  0.
        -15    1    4    4    0    0  0.47077336500E+02 -0.23856116363E+02  0.12923688296E+03  0.13959785749E+03  0.00000000000E+00 0.  1.
        -15    1    5    5    0    0  0.75973544121E+01  0.59024357089E+02 -0.11892808463E+02  0.60688000601E+02  0.00000000000E+00 0.  1.
         15    1    5    5    0    0  0.72204394046E+02  0.11119387233E+03  0.15972247018E+03  0.20757846527E+03  0.00000000000E+00 0. -1.
         15    1    4    4    0    0 -0.34529938382E+02  0.16154369416E+02  0.57184954467E+02  0.68726991155E+02  0.00000000000E+00 0. -1.
        -16    1    1    2    0    0  0.37625427863E+02 -0.10242156345E+03  0.26652335207E+01  0.10914647476E+03  0.00000000000E+00 0.  1.
         16    1    3    3    0    0 -0.18748420106E+03  0.63594768991E+02  0.48751880368E+03  0.52618362216E+03  0.00000000000E+00 0. -1.
    9900018    1    3    3    0    0  0.57509626623E+02 -0.12368968801E+03  0.45427458857E+03  0.48299800858E+03  0.91187600000E+02 0.  0.
<mgrwt>
<rscale>  0 0.95324098E+03</rscale>
<asrwt>0</asrwt>
<pdfrwt beam="1">  1        2 0.22104842E+00 0.95324098E+03</pdfrwt>
<pdfrwt beam="2">  1       -2 0.24323793E-01 0.95324098E+03</pdfrwt>
<totfact> 0.20777445E+02</totfact>
</mgrwt>
</event>
<event>
12    1  0.5566902E-013  0.1146235E+04  0.7818608E-02  0.9161264E-01
          1   -1    0    0  501    0  0.00000000000E+00  0.00000000000E+00  0.28579006855E+03  0.28579006855E+03  0.00000000000E+00 0. -1.
         -1   -1    0    0    0  501 -0.00000000000E+00 -0.00000000000E+00 -0.11493177407E+04  0.11493177407E+04  0.00000000000E+00 0.  1.
    9900016    2    1    2    0    0 -0.11232564152E+03 -0.30624335408E+03 -0.66985713446E+03  0.10557526738E+04  0.74799938899E+03 0.  0.
         23    2    3    3    0    0 -0.15009177207E+02 -0.56214855796E+02 -0.11124998383E+03  0.15260367808E+03  0.86752165678E+02 0.  0.
         23    2    3    3    0    0  0.13652231290E+03 -0.93440972837E+01 -0.19795087039E+03  0.26294712728E+03  0.10597636804E+03 0.  0.
        -15    1    4    4    0    0 -0.49398375141E+02 -0.28572867190E+02 -0.81096647276E+02  0.99162868078E+02  0.00000000000E+00 0.  1.
        -15    1    5    5    0    0  0.15313812850E+03 -0.15267165191E+02 -0.16539958091E+03  0.22592342530E+03  0.00000000000E+00 0.  1.
         15    1    5    5    0    0 -0.16615815600E+02  0.59230679072E+01 -0.32551289488E+02  0.37023701987E+02  0.00000000000E+00 0. -1.
         15    1    4    4    0    0  0.34389197934E+02 -0.27641988605E+02 -0.30153336550E+02  0.53440810002E+02  0.00000000000E+00 0. -1.
        -16    1    3    3    0    0  0.28636460287E+01  0.81437033292E+02 -0.16898370701E+03  0.18760512812E+03  0.00000000000E+00 0.  1.
         16    1    1    2    0    0  0.11232564152E+03  0.30624335408E+03 -0.19367053770E+03  0.37935513550E+03  0.00000000000E+00 0. -1.
    9900018    1    3    3    0    0 -0.23670242324E+03 -0.32212143429E+03 -0.19167257323E+03  0.45259674029E+03  0.91187600000E+02 0.  0.
<mgrwt>
<rscale>  0 0.11462349E+04</rscale>
<asrwt>0</asrwt>
<pdfrwt beam="1">  1        1 0.43967703E-01 0.11462349E+04</pdfrwt>
<pdfrwt beam="2">  1       -1 0.17681811E+00 0.11462349E+04</pdfrwt>
<totfact> 0.20363195E+01</totfact>
</mgrwt>
</event>
<event>
11    1  0.5566902E-013  0.8300606E+03  0.7818608E-02  0.9517497E-01
         -1   -1    0    0    0  501 -0.00000000000E+00  0.00000000000E+00  0.66773979861E+03  0.66773979861E+03  0.00000000000E+00 0.  1.
          1   -1    0    0  501    0  0.00000000000E+00 -0.00000000000E+00 -0.25796000534E+03  0.25796000534E+03  0.00000000000E+00 0. -1.
         23    2    1    2    0    0  0.16297513938E+02 -0.15345134903E+02  0.10175310642E+03  0.14195937475E+03  0.96424516011E+02 0.  0.
    9900016    2    1    2    0    0  0.40946754224E+02  0.10502110706E+02  0.27916325793E+03  0.71944844952E+03  0.66173031964E+03 0.  0.
        -15    1    4    4    0    0  0.60999661377E+02  0.13685496404E+02  0.79221001832E+00  0.62521029235E+02  0.00000000000E+00 0.  1.
        -15    1    3    3    0    0 -0.31050752325E+02  0.16449422470E+01  0.82381060803E+02  0.88053927987E+02  0.00000000000E+00 0.  1.
         15    1    3    3    0    0  0.47348266263E+02 -0.16990077150E+02  0.19372045620E+02  0.53905446767E+02  0.00000000000E+00 0. -1.
         15    1    4    4    0    0  0.17861735446E+03 -0.26388058104E+02 -0.60047823039E+02  0.19027934721E+03  0.00000000000E+00 0. -1.
        -16    1    4    4    0    0 -0.10588536024E+03 -0.96387429731E+02  0.12997066238E+03  0.19337688383E+03  0.00000000000E+00 0.  1.
         16    1    1    2    0    0 -0.57244268162E+02  0.48430241966E+01  0.28863428917E+02  0.64291979668E+02  0.00000000000E+00 0. -1.
    9900018    1    4    4    0    0 -0.92784901377E+02  0.11959210214E+03  0.20844820858E+03  0.27327118924E+03  0.91187600000E+02 0.  0.
<mgrwt>
<rscale>  0 0.83006063E+03</rscale>
<asrwt>0</asrwt>
<pdfrwt beam="1">  1        1 0.39686155E-01 0.83006063E+03</pdfrwt>
<pdfrwt beam="2">  1       -1 0.10272920E+00 0.83006063E+03</pdfrwt>
<totfact> 0.96735126E+01</totfact>
</mgrwt>
</event>
<event>
12    1  0.5566902E-013  0.1213383E+04  0.7818608E-02  0.9101222E-01
          2   -1    0    0  501    0  0.00000000000E+00  0.00000000000E+00  0.24313122353E+04  0.24313122353E+04  0.00000000000E+00 0.  1.
         -2   -1    0    0    0  501 -0.00000000000E+00 -0.00000000000E+00 -0.15138934165E+03  0.15138934165E+03  0.00000000000E+00 0. -1.
    9900016    2    1    2    0    0 -0.19246305854E+03  0.30609129037E+03  0.13542074900E+04  0.15888792007E+04  0.74828155234E+03 0.  0.
         23    2    3    3    0    0 -0.17214040113E+01  0.17472657204E+02  0.17429941125E+03  0.19811167606E+03  0.92518616768E+02 0.  0.
         23    2    3    3    0    0 -0.86596769625E+01  0.35471486355E+03  0.32061296003E+03  0.48306863794E+03  0.68300910663E+02 0.  0.
        -15    1    4    4    0    0 -0.24222566881E+02  0.37158176155E+02  0.37500631743E+02  0.58084078564E+02  0.00000000000E+00 0. -1.
        -15    1    5    5    0    0 -0.59212684336E+01  0.11257300857E+03  0.14632377504E+03  0.18471164235E+03  0.00000000000E+00 0.  1.
         15    1    5    5    0    0 -0.27384085289E+01  0.24214185498E+03  0.17428918499E+03  0.29835699559E+03  0.00000000000E+00 0. -1.
         15    1    4    4    0    0  0.22501162870E+02 -0.19685518950E+02  0.13679877951E+03  0.14002759750E+03  0.00000000000E+00 0.  1.
        -16    1    1    2    0    0  0.19246305854E+03 -0.30609129037E+03  0.92571540365E+03  0.99382237623E+03  0.00000000000E+00 0.  1.
         16    1    3    3    0    0 -0.10247576893E+03  0.45437513152E+02  0.50126172841E+03  0.51364303868E+03  0.00000000000E+00 0. -1.
    9900018    1    3    3    0    0 -0.79606208634E+02 -0.11153374353E+03  0.35803339027E+03  0.39405584800E+03  0.91187600000E+02 0.  0.
<mgrwt>
<rscale>  0 0.12133833E+04</rscale>
<asrwt>0</asrwt>
<pdfrwt beam="1">  1        2 0.37404801E+00 0.12133833E+04</pdfrwt>
<pdfrwt beam="2">  1       -2 0.23290670E-01 0.12133833E+04</pdfrwt>
<totfact> 0.61634611E+01</totfact>
</mgrwt>
</event>
<event>
12    1  0.5566902E-013  0.1224008E+04  0.7818608E-02  0.9759544E-01
         -1   -1    0    0    0  501 -0.00000000000E+00  0.00000000000E+00  0.30776157742E+03  0.30776157742E+03  0.00000000000E+00 0.  1.
          1   -1    0    0  501    0  0.00000000000E+00 -0.00000000000E+00 -0.14760770635E+04  0.14760770635E+04  0.00000000000E+00 0. -1.
         23    2    1    2    0    0  0.21546302597E+02  0.66753853391E+02 -0.44398619433E+02  0.12209752271E+03  0.89533499578E+02 0.  0.
    9900016    2    1    2    0    0 -0.78292838461E+02  0.34673142216E+03 -0.48451143250E+03  0.89817740008E+03  0.66754690181E+03 0.  0.
         23    2    4    4    0    0 -0.27687695087E+03 -0.47332157724E+02 -0.23187785361E+03  0.37161696756E+03  0.73692960986E+02 0.  0.
        -15    1    5    5    0    0 -0.66369555898E+02 -0.18019360285E+02 -0.10041171382E+03  0.12170508439E+03  0.00000000000E+00 0.  1.
        -15    1    3    3    0    0  0.42374623773E+02 -0.45491690840E+00 -0.24613628916E+02  0.49006595655E+02  0.00000000000E+00 0. -1.
         15    1    5    5    0    0 -0.21050739497E+03 -0.29312797439E+02 -0.13146613979E+03  0.24991188316E+03  0.00000000000E+00 0. -1.
         15    1    3    3    0    0 -0.20828321176E+02  0.67208770299E+02 -0.19784990517E+02  0.73090927056E+02  0.00000000000E+00 0.  1.
        -16    1    1    2    0    0  0.56746535864E+02 -0.41348527555E+03 -0.63940543418E+03  0.76356371816E+03  0.00000000000E+00 0.  1.
         16    1    4    4    0    0  0.42599840740E+02  0.12631910035E+03 -0.11262425391E+03  0.17451499682E+03  0.00000000000E+00 0. -1.
    9900018    1    4    4    0    0  0.15598427167E+03  0.26774447953E+03 -0.14000932498E+03  0.35204543571E+03  0.91187600000E+02 0.  0.
<mgrwt>
<rscale>  0 0.67579574E+03</rscale>
<asrwt>0</asrwt>
<pdfrwt beam="1">  1        1 0.22708878E+00 0.12240075E+04</pdfrwt>
<pdfrwt beam="2">  1       -1 0.47347935E-01 0.12240075E+04</pdfrwt>
<totfact> 0.29866914E+01</totfact>
</mgrwt>
</event>
<event>
12    1  0.5566902E-013  0.1474882E+04  0.7818608E-02  0.8901330E-01
          2   -1    0    0  501    0  0.00000000000E+00  0.00000000000E+00  0.23806175985E+04  0.23806175985E+04  0.00000000000E+00 0. -1.
         -2   -1    0    0    0  501 -0.00000000000E+00 -0.00000000000E+00 -0.22843622521E+03  0.22843622521E+03  0.00000000000E+00 0.  1.
    9900016    2    1    2    0    0  0.38001223800E+03  0.27145574522E+03  0.18469250525E+04  0.20511300439E+04  0.76020048998E+03 0.  0.
         23    2    3    3    0    0  0.38285881519E+02 -0.18806667400E+02  0.19447270172E+03  0.21887559390E+03  0.90925213391E+02 0.  0.
         23    2    3    3    0    0  0.78558720354E+02  0.20366444115E+03  0.43095158209E+03  0.48623611383E+03  0.55277618920E+02 0.  0.
        -15    1    5    5    0    0  0.57880696262E+02  0.14413654280E+03  0.35536040766E+03  0.38782281689E+03  0.00000000000E+00 0. -1.
        -15    1    4    4    0    0  0.31326771555E+02  0.30554980726E+02  0.52164898863E+02  0.68089280629E+02  0.00000000000E+00 0.  1.
         15    1    4    4    0    0  0.69591099642E+01 -0.49361648125E+02  0.14230780285E+03  0.15078631327E+03  0.00000000000E+00 0. -1.
         15    1    5    5    0    0  0.20678024092E+02  0.59527898349E+02  0.75591174429E+02  0.98413296935E+02  0.00000000000E+00 0.  1.
        -16    1    1    2    0    0 -0.38001223800E+03 -0.27145574522E+03  0.30525632078E+03  0.55792377976E+03  0.00000000000E+00 0.  1.
         16    1    3    3    0    0 -0.22421682387E+02 -0.13405677849E+03  0.11323062939E+03  0.17690428806E+03  0.00000000000E+00 0. -1.
    9900018    1    3    3    0    0  0.28558931852E+03  0.22065474997E+03  0.11082701393E+04  0.11691140482E+04  0.91187600000E+02 0.  0.
<mgrwt>
<rscale>  0 0.14748821E+04</rscale>
<asrwt>0</asrwt>
<pdfrwt beam="1">  1        2 0.36624884E+00 0.14748821E+04</pdfrwt>
<pdfrwt beam="2">  1       -2 0.35144036E-01 0.14748821E+04</pdfrwt>
<totfact> 0.30073003E+01</totfact>
</mgrwt>
</event>
<event>
12    1  0.5566902E-013  0.8180113E+03  0.7818608E-02  0.1017728E+00
         -2   -1    0    0    0  501 -0.00000000000E+00  0.00000000000E+00  0.68084237533E+03  0.68084237533E+03  0.00000000000E+00 0.  1.
          2   -1    0    0  501    0  0.00000000000E+00 -0.00000000000E+00 -0.31064172965E+03  0.31064172965E+03  0.00000000000E+00 0. -1.
         23    2    1    2    0    0 -0.41440206232E+02 -0.91140185265E+01  0.30176332530E+02  0.10561788758E+03  0.91892171082E+02 0.  0.
    9900016    2    1    2    0    0 -0.59104176141E+02  0.45819744847E+02  0.37782998089E+03  0.77235079252E+03  0.66946060346E+03 0.  0.
         23    2    4    4    0    0 -0.12993740910E+03  0.84720336667E+02  0.23053039888E+03  0.28632592933E+03  0.69115897373E+02 0.  0.
        -15    1    5    5    0    0 -0.57339381345E+02  0.23870124325E+02  0.14869424026E+03  0.16114454559E+03  0.00000000000E+00 0. -1.
        -15    1    3    3    0    0  0.12995564306E+02  0.19200829048E+02  0.37224935397E+02  0.43854901016E+02  0.00000000000E+00 0.  1.
         15    1    3    3    0    0 -0.54435770538E+02 -0.28314847575E+02 -0.70486028672E+01  0.61762986567E+02  0.00000000000E+00 0. -1.
         15    1    5    5    0    0 -0.72598027753E+02  0.60850212343E+02  0.81836158618E+02  0.12518138373E+03  0.00000000000E+00 0.  1.
        -16    1    4    4    0    0  0.14956566342E+03 -0.19185772737E+03  0.15957215234E+03  0.29093392210E+03  0.00000000000E+00 0.  1.
         16    1    1    2    0    0  0.10054438237E+03 -0.36705726320E+02 -0.37805667734E+02  0.11351542487E+03  0.00000000000E+00 0. -1.
    9900018    1    4    4    0    0 -0.78732430461E+02  0.15295713555E+03 -0.12272570333E+02  0.19509094109E+03  0.91187600000E+02 0.  0.
<mgrwt>
<rscale>  0 0.48515549E+03</rscale>
<asrwt>0</asrwt>
<pdfrwt beam="1">  1        2 0.47791036E-01 0.81801126E+03</pdfrwt>
<pdfrwt beam="2">  1       -2 0.10474498E+00 0.81801126E+03</pdfrwt>
<totfact> 0.78610908E+01</totfact>
</mgrwt>
</event>
<event>
12    1  0.5566902E-013  0.1163491E+04  0.7818608E-02  0.9859620E-01
         -1   -1    0    0    0  501 -0.00000000000E+00  0.00000000000E+00  0.16780355053E+04  0.16780355053E+04  0.00000000000E+00 0.  1.
          1   -1    0    0  501    0  0.00000000000E+00 -0.00000000000E+00 -0.23617867270E+03  0.23617867270E+03  0.00000000000E+00 0. -1.
         23    2    1    2    0    0 -0.18667737006E+02  0.23609478445E+01  0.10065746815E+03  0.13867815519E+03  0.93518160554E+02 0.  0.
    9900016    2    1    2    0    0 -0.76197421987E+02 -0.41617114335E+02  0.14682498534E+04  0.16121889330E+04  0.66019504101E+03 0.  0.
         23    2    4    4    0    0  0.19713020712E+03 -0.11998170374E+02  0.39357921713E+03  0.44647779214E+03  0.73712577372E+02 0.  0.
        -15    1    3    3    0    0  0.14415311351E+02 -0.82873443109E+01 -0.12178817381E+02  0.20610794984E+02  0.00000000000E+00 0.  1.
        -15    1    5    5    0    0  0.12519076426E+03  0.15597619115E+02  0.29872516097E+03  0.32427262446E+03  0.00000000000E+00 0.  1.
         15    1    5    5    0    0  0.71939442868E+02 -0.27595789488E+02  0.94854056166E+02  0.12220516768E+03  0.00000000000E+00 0. -1.
         15    1    3    3    0    0 -0.33083048357E+02  0.10648292155E+02  0.11283628553E+03  0.11806736021E+03  0.00000000000E+00 0. -1.
        -16    1    4    4    0    0  0.10447497122E+02 -0.25176799615E+02 -0.18290748781E+02  0.32826405925E+02  0.00000000000E+00 0.  1.
         16    1    1    2    0    0  0.94865158993E+02  0.39256166490E+02 -0.12705048900E+03  0.16334708982E+03  0.00000000000E+00 0. -1.
    9900018    1    4    4    0    0 -0.28377512623E+03 -0.44421443459E+01  0.10929613851E+04  0.11328847349E+04  0.91187600000E+02 0.  0.
<mgrwt>
<rscale>  0 0.62258811E+03</rscale>
<asrwt>0</asrwt>
<pdfrwt beam="1">  1        1 0.36335181E-01 0.11634915E+04</pdfrwt>
<pdfrwt beam="2">  1       -1 0.25815930E+00 0.11634915E+04</pdfrwt>
<totfact> 0.73513843E+00</totfact>
</mgrwt>
</event>
<event>
12    1  0.5566902E-013  0.9701143E+03  0.7818608E-02  0.9341944E-01
         -2   -1    0    0    0  501 -0.00000000000E+00  0.00000000000E+00  0.26934535122E+03  0.26934535122E+03  0.00000000000E+00 0.  1.
          2   -1    0    0  501    0  0.00000000000E+00 -0.00000000000E+00 -0.87352701997E+03  0.87352701997E+03  0.00000000000E+00 0. -1.
    9900016    2    1    2    0    0  0.72766344492E+02  0.17133750643E+03 -0.40147397934E+03  0.86765992717E+03  0.74632493669E+03 0.  0.
         23    2    3    3    0    0  0.37672409362E+02  0.42890943052E+01 -0.27329140280E+02  0.99082452126E+02  0.87366147069E+02 0.  0.
         23    2    3    3    0    0  0.24562263435E+03  0.10337802386E+03 -0.34813086988E+02  0.27676936935E+03  0.66119879474E+02 0.  0.
        -15    1    4    4    0    0  0.19200092446E+02 -0.41167864308E+02 -0.19334082110E+02  0.49368444706E+02  0.00000000000E+00 0. -1.
        -15    1    5    5    0    0  0.27892759414E+02  0.52284991154E+01  0.16022535860E+02  0.32589337000E+02  0.00000000000E+00 0.  1.
         15    1    5    5    0    0  0.21772987494E+03  0.98149524741E+02 -0.50835622848E+02  0.24418003235E+03  0.00000000000E+00 0. -1.
         15    1    4    4    0    0  0.18472316916E+02  0.45456958613E+02 -0.79950581697E+01  0.49714007420E+02  0.00000000000E+00 0.  1.
        -16    1    1    2    0    0 -0.72766344492E+02 -0.17133750643E+03 -0.20270768940E+03  0.27521244402E+03  0.00000000000E+00 0.  1.
         16    1    3    3    0    0 -0.16458644440E+03 -0.64476044680E+02 -0.10411726534E+03  0.20514936744E+03  0.00000000000E+00 0. -1.
    9900018    1    3    3    0    0 -0.45942254820E+02  0.12814643295E+03 -0.23521448674E+03  0.28665873826E+03  0.91187600000E+02 0.  0.
<mgrwt>
<rscale>  0 0.97011431E+03</rscale>
<asrwt>0</asrwt>
<pdfrwt beam="1">  1        2 0.13438877E+00 0.97011431E+03</pdfrwt>
<pdfrwt beam="2">  1       -2 0.41437747E-01 0.97011431E+03</pdfrwt>
<totfact> 0.16852041E+02</totfact>
</mgrwt>
</event>
<event>
12    1  0.5566902E-013  0.9702564E+03  0.7818608E-02  0.9341782E-01
          1   -1    0    0  501    0  0.00000000000E+00  0.00000000000E+00  0.19799166417E+03  0.19799166417E+03  0.00000000000E+00 0. -1.
         -1   -1    0    0    0  501 -0.00000000000E+00 -0.00000000000E+00 -0.11886832150E+04  0.11886832150E+04  0.00000000000E+00 0.  1.
    9900016    2    1    2    0    0  0.89541127926E+01  0.15607439693E+03 -0.62355715680E+03  0.98764222788E+03  0.74978280121E+03 0.  0.
         23    2    3    3    0    0 -0.19543100110E+02  0.82054941378E+01 -0.10172205668E+03  0.13929815007E+03  0.92775723676E+02 0.  0.
         23    2    3    3    0    0  0.15733171923E+03 -0.62502153682E+02 -0.26282635443E+03  0.31771555458E+03  0.56618830372E+02 0.  0.
        -15    1    4    4    0    0  0.28036789121E+02  0.29661655025E+02 -0.30278363418E+02  0.50819825013E+02  0.00000000000E+00 0.  1.
        -15    1    5    5    0    0  0.45176965725E+02 -0.31346771684E+02 -0.12971231229E+03  0.14088599038E+03  0.00000000000E+00 0.  1.
         15    1    4    4    0    0 -0.47579889231E+02 -0.21456160888E+02 -0.71443693257E+02  0.88478325060E+02  0.00000000000E+00 0. -1.
         15    1    5    5    0    0  0.11215475350E+03 -0.31155381997E+02 -0.13311404214E+03  0.17682956420E+03  0.00000000000E+00 0. -1.
        -16    1    1    2    0    0 -0.89541127926E+01 -0.15607439693E+03 -0.36713439408E+03  0.39903265134E+03  0.00000000000E+00 0.  1.
         16    1    3    3    0    0  0.17208261068E+02 -0.48886251355E+02  0.63820026826E+02  0.82213050330E+02  0.00000000000E+00 0. -1.
    9900018    1    3    3    0    0 -0.14604276739E+03  0.25925730783E+03 -0.32282877252E+03  0.44841547290E+03  0.91187600000E+02 0.  0.
<mgrwt>
<rscale>  0 0.97025639E+03</rscale>
<asrwt>0</asrwt>
<pdfrwt beam="1">  1        1 0.30460256E-01 0.97025639E+03</pdfrwt>
<pdfrwt beam="2">  1       -1 0.18287434E+00 0.97025639E+03</pdfrwt>
<totfact> 0.30091905E+01</totfact>
</mgrwt>
</event>
<event>
11    1  0.5566902E-013  0.1023348E+04  0.7818608E-02  0.9971815E-01
         -3   -1    0    0    0  501 -0.00000000000E+00  0.00000000000E+00  0.16757920548E+04  0.16757920548E+04  0.00000000000E+00 0.  1.
          3   -1    0    0  501    0  0.00000000000E+00 -0.00000000000E+00 -0.18776587491E+03  0.18776587491E+03  0.00000000000E+00 0. -1.
         23    2    1    2    0    0  0.11638720832E+02 -0.20743625257E+02  0.14926516001E+03  0.17846989715E+03  0.94898147435E+02 0.  0.
    9900016    2    1    2    0    0  0.13232871751E+03 -0.13151865276E+03  0.58216372439E+03  0.90000848744E+03  0.66052451126E+03 0.  0.
        -15    1    3    3    0    0 -0.36592065123E+02  0.21961578146E+01  0.97200207633E+02  0.10388302413E+03  0.00000000000E+00 0.  1.
        -15    1    4    4    0    0 -0.71187887164E+02 -0.30903922295E+02  0.49811157254E+02  0.92216696314E+02  0.00000000000E+00 0.  1.
         15    1    3    3    0    0  0.48230785955E+02 -0.22939783072E+02  0.52064952373E+02  0.74586873020E+02  0.00000000000E+00 0. -1.
         15    1    4    4    0    0  0.48320871622E+02 -0.67963563713E+02 -0.59222888731E+02  0.10228051220E+03  0.00000000000E+00 0. -1.
        -16    1    1    2    0    0 -0.14396743834E+03  0.15226227802E+03  0.75659729550E+03  0.78507954513E+03  0.00000000000E+00 0.  1.
         16    1    4    4    0    0  0.89267164691E+02  0.42580652182E+02  0.55712917663E+03  0.56583978128E+03  0.00000000000E+00 0. -1.
    9900018    1    4    4    0    0  0.65928568361E+02 -0.75231818936E+02  0.34446279240E+02  0.13967149764E+03  0.91187600000E+02 0.  0.
<mgrwt>
<rscale>  0 0.56903562E+03</rscale>
<asrwt>0</asrwt>
<pdfrwt beam="1">  1        3 0.28887059E-01 0.10233477E+04</pdfrwt>
<pdfrwt beam="2">  1       -3 0.25781415E+00 0.10233477E+04</pdfrwt>
<totfact> 0.20162626E+00</totfact>
</mgrwt>
</event>
<event>
12    1  0.5566902E-013  0.1699470E+04  0.7818608E-02  0.8761667E-01
         -2   -1    0    0    0  501 -0.00000000000E+00  0.00000000000E+00  0.54742067453E+03  0.54742067453E+03  0.00000000000E+00 0. -1.
          2   -1    0    0  501    0  0.00000000000E+00 -0.00000000000E+00 -0.13190026692E+04  0.13190026692E+04  0.00000000000E+00 0.  1.
    9900016    2    1    2    0    0 -0.38770653088E+03  0.35202208306E+03 -0.94825175110E+03  0.13137497475E+04  0.74331764043E+03 0.  0.
         23    2    3    3    0    0 -0.48240455946E+02  0.47590776220E+02 -0.11682923604E+03  0.16313973959E+03  0.91506724722E+02 0.  0.
         23    2    3    3    0    0 -0.15124488648E+03 -0.56280873876E+02 -0.39363416496E+03  0.43015986368E+03  0.63616822081E+02 0.  0.
        -15    1    5    5    0    0 -0.43364885124E+02 -0.48665409914E+02 -0.15623635828E+03  0.16928861460E+03  0.00000000000E+00 0.  1.
        -15    1    4    4    0    0 -0.68451870670E+02  0.55071949234E+02 -0.72720858545E+02  0.11404780339E+03  0.00000000000E+00 0.  1.
         15    1    4    4    0    0  0.20211414724E+02 -0.74811730140E+01 -0.44108377494E+02  0.49091936201E+02  0.00000000000E+00 0. -1.
         15    1    5    5    0    0 -0.10788000136E+03 -0.76154639617E+01 -0.23739780667E+03  0.26087124908E+03  0.00000000000E+00 0. -1.
        -16    1    3    3    0    0 -0.24385302425E+03  0.26491653405E+03 -0.13347198202E+03  0.38400499663E+03  0.00000000000E+00 0.  1.
         16    1    1    2    0    0  0.38770653088E+03 -0.35202208306E+03  0.17666975648E+03  0.55267359617E+03  0.00000000000E+00 0. -1.
    9900018    1    3    3    0    0  0.55631835798E+02  0.95795646668E+02 -0.30431636808E+03  0.33644514761E+03  0.91187600000E+02 0.  0.
<mgrwt>
<rscale>  0 0.16994697E+04</rscale>
<asrwt>0</asrwt>
<pdfrwt beam="1">  1        2 0.20292349E+00 0.16994697E+04</pdfrwt>
<pdfrwt beam="2">  1       -2 0.84218565E-01 0.16994697E+04</pdfrwt>
<totfact> 0.18871775E+01</totfact>
</mgrwt>
</event>
<event>
12    1  0.5566902E-013  0.1018325E+04  0.7818608E-02  0.9288671E-01
         -2   -1    0    0    0  501 -0.00000000000E+00  0.00000000000E+00  0.49073859934E+03  0.49073859934E+03  0.00000000000E+00 0.  1.
          2   -1    0    0  501    0  0.00000000000E+00 -0.00000000000E+00 -0.52827811378E+03  0.52827811378E+03  0.00000000000E+00 0. -1.
    9900016    2    1    2    0    0 -0.82074312568E+00 -0.22000432877E+03 -0.23242460716E+01  0.79621030965E+03  0.76520773440E+03 0.  0.
         23    2    3    3    0    0 -0.33659760021E+02 -0.80463511723E+02 -0.69711373368E+01  0.13178692152E+03  0.98548666980E+02 0.  0.
         23    2    3    3    0    0  0.17384353960E+03  0.83097873538E+02 -0.18032615167E+02  0.22075405358E+03  0.10620896438E+03 0.  0.
        -15    1    4    4    0    0  0.28998255272E+02 -0.28560756105E+02 -0.25910152872E+02  0.48248850970E+02  0.00000000000E+00 0. -1.
        -15    1    5    5    0    0  0.91262898179E+01  0.16440269904E+02  0.31144875996E+02  0.36380969492E+02  0.00000000000E+00 0. -1.
         15    1    4    4    0    0 -0.62658015292E+02 -0.51902755619E+02  0.18939015535E+02  0.83538070547E+02  0.00000000000E+00 0.  1.
         15    1    5    5    0    0  0.16471724978E+03  0.66657603635E+02 -0.49177491163E+02  0.18437308408E+03  0.00000000000E+00 0.  1.
        -16    1    1    2    0    0  0.82074312568E+00  0.22000432877E+03 -0.35215268361E+02  0.22280640346E+03  0.00000000000E+00 0.  1.
         16    1    3    3    0    0 -0.27072053192E+02  0.88899582508E+02  0.35315250689E+02  0.99414278478E+02  0.00000000000E+00 0. -1.
    9900018    1    3    3    0    0 -0.11393246951E+03 -0.31153827310E+03 -0.12635744257E+02  0.34425505608E+03  0.91187600000E+02 0.  0.
<mgrwt>
<rscale>  0 0.10183250E+04</rscale>
<asrwt>0</asrwt>
<pdfrwt beam="1">  1        2 0.81273555E-01 0.10183250E+04</pdfrwt>
<pdfrwt beam="2">  1       -2 0.75498246E-01 0.10183250E+04</pdfrwt>
<totfact> 0.90685141E+01</totfact>
</mgrwt>
</event>
<event>
12    1  0.5566902E-013  0.9937704E+03  0.7818608E-02  0.1001145E+00
          1   -1    0    0  501    0  0.00000000000E+00  0.00000000000E+00  0.12032325950E+04  0.12032325950E+04  0.00000000000E+00 0. -1.
         -1   -1    0    0    0  501 -0.00000000000E+00 -0.00000000000E+00 -0.24629200324E+03  0.24629200324E+03  0.00000000000E+00 0.  1.
         23    2    1    2    0    0 -0.36059780755E+01  0.22393407882E+02  0.98243085898E+02  0.13615450875E+03  0.91497970099E+02 0.  0.
    9900016    2    1    2    0    0 -0.47051222311E+02 -0.12733734047E+03  0.95005399627E+03  0.11652978461E+04  0.66097493025E+03 0.  0.
         23    2    4    4    0    0 -0.21426042900E+03 -0.79898730918E+02  0.66363888536E+03  0.70544128621E+03  0.70281572989E+02 0.  0.
        -15    1    5    5    0    0 -0.12275478990E+03 -0.51594875887E+02  0.28035136449E+03  0.31036697187E+03  0.00000000000E+00 0.  1.
        -15    1    3    3    0    0  0.31940306902E+02  0.41188717166E+02  0.68817657934E+02  0.86328232174E+02  0.00000000000E+00 0.  1.
         15    1    5    5    0    0 -0.91505639097E+02 -0.28303855031E+02  0.38328752087E+03  0.39507431434E+03  0.00000000000E+00 0. -1.
         15    1    3    3    0    0 -0.35546284978E+02 -0.18795309283E+02  0.29425427965E+02  0.49826276579E+02  0.00000000000E+00 0. -1.
        -16    1    1    2    0    0  0.50657200387E+02  0.10494393258E+03 -0.91356490395E+02  0.14807224343E+03  0.00000000000E+00 0.  1.
         16    1    4    4    0    0  0.17336709286E+03 -0.12471161009E+03  0.26146636072E+03  0.33760004794E+03  0.00000000000E+00 0. -1.
    9900018    1    4    4    0    0 -0.61578861795E+01  0.77273000544E+02  0.24948750191E+02  0.12225651191E+03  0.91187600000E+02 0.  0.
<mgrwt>
<rscale>  0 0.55151197E+03</rscale>
<asrwt>0</asrwt>
<pdfrwt beam="1">  1        1 0.18511270E+00 0.99377039E+03</pdfrwt>
<pdfrwt beam="2">  1       -1 0.37891078E-01 0.99377039E+03</pdfrwt>
<totfact> 0.71655551E+01</totfact>
</mgrwt>
</event>
