<event>
12    1  0.1700883E-007  0.5160115E+04  0.7818608E-02  0.7804272E-01
         -2   -1    0    0    0  501 -0.00000000000E+00  0.00000000000E+00  0.19341161908E+04  0.19341161908E+04  0.00000000000E+00 0.  1.
          2   -1    0    0  501    0  0.00000000000E+00 -0.00000000000E+00 -0.34417250293E+04  0.34417250293E+04  0.00000000000E+00 0. -1.
    9900016    2    1    2    0    0  0.11924406469E+03  0.58561022230E+02 -0.26249212041E+04  0.32170822453E+04  0.18551976458E+04 0.  0.
         24    2    3    3    0    0 -0.71685303171E+03 -0.45593333591E+03 -0.96121498330E+03  0.12853262596E+04  0.79849067365E+02 0.  0.
    9900016    2    1    2    0    0 -0.11924406469E+03 -0.58561022230E+02  0.11173123656E+04  0.21587589748E+04  0.18423367903E+04 0.  0.
        -15    1    4    4    0    0 -0.22123163818E+03 -0.17796427088E+03 -0.28953078927E+03  0.40551547119E+03  0.00000000000E+00 0.  1.
        -15    1    5    5    0    0  0.49369642769E+03 -0.80579592012E+02  0.18083686803E+02  0.50055594401E+03  0.00000000000E+00 0.  1.
         15    1    5    5    0    0  0.14487375547E+03 -0.10255000212E+03  0.62049767663E+02  0.18802947010E+03  0.00000000000E+00 0. -1.
         15    1    3    3    0    0  0.83609709640E+03  0.51449435814E+03 -0.16637062208E+04  0.19317559857E+04  0.00000000000E+00 0. -1.
        -16    1    5    5    0    0 -0.86052567474E+03  0.11322586200E+03  0.73232969123E+03  0.11356193506E+04  0.00000000000E+00 0.  1.
         16    1    4    4    0    0 -0.49562139353E+03 -0.27796906503E+03 -0.67168419403E+03  0.87981078838E+03  0.00000000000E+00 0. -1.
    9900018    1    5    5    0    0  0.10271142689E+03  0.11342709899E+02  0.30484921990E+03  0.33455421018E+03  0.91187600000E+02 0.  0.
<mgrwt>
<rscale>  0 0.51601148E+04</rscale>
<asrwt>0</asrwt>
<pdfrwt beam="1">  1        2 0.52949615E+00 0.51601148E+04</pdfrwt>
<pdfrwt beam="2">  1       -2 0.29755634E+00 0.51601148E+04</pdfrwt>
<totfact> 0.21068792E-02</totfact>
</mgrwt>
</event>
<event>
13    1  0.1700883E-007  0.4435588E+04  0.7818608E-02  0.7922011E-01
          2   -1    0    0  501    0  0.00000000000E+00  0.00000000000E+00  0.40006219840E+04  0.40006219840E+04  0.00000000000E+00 0. -1.
         -2   -1    0    0    0  501 -0.00000000000E+00 -0.00000000000E+00 -0.12294613518E+04  0.12294613518E+04  0.00000000000E+00 0.  1.
    9900016    2    1    2    0    0  0.12656931015E+03  0.91250889484E+03  0.41810964427E+03  0.21010268475E+04  0.18414140941E+04 0.  0.
        -24    2    3    3    0    0  0.24587793247E+03 -0.84552844610E+02  0.93344099174E+03  0.97234041748E+03  0.80800131130E+02 0.  0.
    9900016    2    1    2    0    0 -0.12656931015E+03 -0.91250889484E+03  0.23530509880E+04  0.31290564883E+04  0.18453870275E+04 0.  0.
         23    2    5    5    0    0 -0.38819986529E+03  0.22751320398E+03 -0.24630242767E+02  0.46790968414E+03  0.12598186480E+03 0.  0.
        -15    1    6    6    0    0 -0.30448607596E+03  0.11793961359E+03  0.63018273126E+01  0.32659031819E+03  0.00000000000E+00 0. -1.
        -15    1    3    3    0    0 -0.11930862232E+03  0.99706173945E+03 -0.51533134747E+03  0.11286864300E+04  0.00000000000E+00 0.  1.
         15    1    6    6    0    0 -0.83713789337E+02  0.10957359039E+03 -0.30932070080E+02  0.14131936596E+03  0.00000000000E+00 0.  1.
         15    1    4    4    0    0  0.19174793318E+03 -0.29608123762E+02  0.62638284654E+03  0.65574338069E+03  0.00000000000E+00 0. -1.
        -16    1    4    4    0    0  0.54129999290E+02 -0.54944720848E+02  0.30705814520E+03  0.31659703679E+03  0.00000000000E+00 0.  1.
         16    1    5    5    0    0  0.21400891820E+03 -0.75914098824E+03  0.14004756954E+04  0.16073042744E+04  0.00000000000E+00 0. -1.
    9900018    1    5    5    0    0  0.47621636945E+02 -0.38088111058E+03  0.97720553537E+03  0.10538425297E+04  0.91187600000E+02 0.  0.
<mgrwt>
<rscale>  0 0.44355879E+04</rscale>
<asrwt>0</asrwt>
<pdfrwt beam="1">  1        2 0.61548030E+00 0.44355879E+04</pdfrwt>
<pdfrwt beam="2">  1       -2 0.18914790E+00 0.44355879E+04</pdfrwt>
<totfact> 0.40709147E-02</totfact>
</mgrwt>
</event>
<event>
13    1  0.1700883E-007  0.4495920E+04  0.7818608E-02  0.7911351E-01
         -1   -1    0    0    0  501 -0.00000000000E+00  0.00000000000E+00  0.26093329686E+04  0.26093329686E+04  0.00000000000E+00 0.  1.
          1   -1    0    0  501    0  0.00000000000E+00 -0.00000000000E+00 -0.19366348468E+04  0.19366348468E+04  0.00000000000E+00 0. -1.
    9900016    2    1    2    0    0 -0.44863869413E+03  0.40402733677E+03 -0.81382531189E+03  0.20965420755E+04  0.18353915848E+04 0.  0.
         24    2    3    3    0    0  0.71707280315E+03  0.18751019423E+03 -0.28308038584E+03  0.79752200468E+03  0.80952857543E+02 0.  0.
    9900016    2    1    2    0    0  0.44863869413E+03 -0.40402733677E+03  0.14865234336E+04  0.24494257399E+04  0.18507889587E+04 0.  0.
         23    2    5    5    0    0 -0.80928679888E+02  0.29911072181E+03 -0.24691410047E+03  0.40363956135E+03  0.77082081854E+02 0.  0.
        -15    1    4    4    0    0  0.23199424258E+03  0.74692993685E+02 -0.13153128718E+03  0.27694918560E+03  0.00000000000E+00 0.  1.
        -15    1    6    6    0    0 -0.50465564994E+02  0.19420811320E+03 -0.20437269835E+03  0.28641187879E+03  0.00000000000E+00 0.  1.
         15    1    6    6    0    0 -0.30463114894E+02  0.10490260862E+03 -0.42541402122E+02  0.11722768256E+03  0.00000000000E+00 0. -1.
         15    1    3    3    0    0 -0.11657114973E+04  0.21651714254E+03 -0.53074492605E+03  0.12990200708E+04  0.00000000000E+00 0. -1.
        -16    1    5    5    0    0 -0.12756704770E+03 -0.11537673751E+02  0.20944613830E+03  0.24550795185E+03  0.00000000000E+00 0.  1.
         16    1    4    4    0    0  0.48507856057E+03  0.11281720055E+03 -0.15154909866E+03  0.52057281908E+03  0.00000000000E+00 0. -1.
    9900018    1    5    5    0    0  0.65713442172E+03 -0.69160038483E+03  0.15239913958E+04  0.18002782267E+04  0.91187600000E+02 0.  0.
<mgrwt>
<rscale>  0 0.44959204E+04</rscale>
<asrwt>0</asrwt>
<pdfrwt beam="1">  1        1 0.29794382E+00 0.44959204E+04</pdfrwt>
<pdfrwt beam="2">  1       -1 0.40143584E+00 0.44959204E+04</pdfrwt>
<totfact> 0.17294191E-02</totfact>
</mgrwt>
</event>
<event>
13    1  0.1700883E-007  0.4368312E+04  0.7818608E-02  0.7934106E-01
         -2   -1    0    0    0  501 -0.00000000000E+00  0.00000000000E+00  0.32014232486E+04  0.32014232486E+04  0.00000000000E+00 0.  1.
          2   -1    0    0  501    0  0.00000000000E+00 -0.00000000000E+00 -0.14901304105E+04  0.14901304105E+04  0.00000000000E+00 0. -1.
    9900016    2    1    2    0    0 -0.83362289097E+03  0.81065641473E+03  0.71044509199E+03  0.22830501945E+04  0.18318010303E+04 0.  0.
         24    2    3    3    0    0  0.21539770368E+03 -0.46021066526E+03  0.88232757734E+02  0.52160319503E+03  0.78069496986E+02 0.  0.
    9900016    2    1    2    0    0  0.83362289097E+03 -0.81065641473E+03  0.10008477461E+04  0.24085034646E+04  0.18566372239E+04 0.  0.
         23    2    5    5    0    0  0.32809349124E+03  0.30209514436E+03 -0.25687119282E+03  0.52527160379E+03  0.10497920176E+03 0.  0.
        -15    1    4    4    0    0  0.60185134632E+02 -0.73006026634E+02  0.35816324054E+02  0.10116787743E+03  0.00000000000E+00 0.  1.
        -15    1    6    6    0    0  0.25078947661E+03  0.16687031838E+03 -0.15121372476E+03  0.33705586375E+03  0.00000000000E+00 0.  1.
         15    1    3    3    0    0 -0.10490205947E+04  0.12708670800E+04  0.62221233425E+03  0.17614469995E+04  0.00000000000E+00 0. -1.
         15    1    6    6    0    0  0.77304014633E+02  0.13522482597E+03 -0.10565746806E+03  0.18821574003E+03  0.00000000000E+00 0. -1.
        -16    1    5    5    0    0  0.26013184463E+03 -0.56781789514E+03  0.10893060689E+04  0.12556565814E+04  0.00000000000E+00 0.  1.
         16    1    4    4    0    0  0.15521256905E+03 -0.38720463863E+03  0.52416433680E+02  0.42043531760E+03  0.00000000000E+00 0. -1.
    9900018    1    5    5    0    0  0.24539755510E+03 -0.54493366394E+03  0.16841286995E+03  0.62757527940E+03  0.91187600000E+02 0.  0.
<mgrwt>
<rscale>  0 0.43683123E+04</rscale>
<asrwt>0</asrwt>
<pdfrwt beam="1">  1        2 0.22925083E+00 0.43683123E+04</pdfrwt>
<pdfrwt beam="2">  1       -2 0.49252665E+00 0.43683123E+04</pdfrwt>
<totfact> 0.18140538E-02</totfact>
</mgrwt>
</event>
<event>
12    1  0.1700883E-007  0.4404247E+04  0.7818608E-02  0.7927618E-01
         -2   -1    0    0    0  501 -0.00000000000E+00  0.00000000000E+00  0.13657575381E+04  0.13657575381E+04  0.00000000000E+00 0.  1.
          2   -1    0    0  501    0  0.00000000000E+00 -0.00000000000E+00 -0.35506648355E+04  0.35506648355E+04  0.00000000000E+00 0. -1.
    9900016    2    1    2    0    0  0.41594858936E+03  0.30083918632E+01  0.17663464984E+03  0.18938104852E+04  0.18391019752E+04 0.  0.
        -24    2    3    3    0    0 -0.59652380237E+03 -0.18063154134E+03 -0.36923111380E+03  0.72899573560E+03  0.81454076687E+02 0.  0.
    9900016    2    1    2    0    0 -0.41594858936E+03 -0.30083918632E+01 -0.23615419472E+04  0.30226118884E+04  0.18401847679E+04 0.  0.
        -15    1    3    3    0    0  0.10124723917E+04  0.18363993320E+03  0.54586576364E+03  0.11648147496E+04  0.00000000000E+00 0.  1.
        -15    1    5    5    0    0  0.18225764419E+03 -0.22350763299E+03 -0.28840565294E+03  0.40786190251E+03  0.00000000000E+00 0. -1.
         15    1    5    5    0    0  0.23426635799E+03 -0.40016904431E+03 -0.74853067343E+03  0.88051925565E+03  0.00000000000E+00 0.  1.
         15    1    4    4    0    0 -0.60772582736E+02  0.56699756513E+01 -0.29163280498E+02  0.67645786015E+02  0.00000000000E+00 0. -1.
        -16    1    4    4    0    0 -0.53575121963E+03 -0.18630151699E+03 -0.34006783330E+03  0.66134994959E+03  0.00000000000E+00 0.  1.
         16    1    5    5    0    0 -0.17485886148E+03  0.23990162892E+03 -0.64769248807E+03  0.71248436621E+03  0.00000000000E+00 0. -1.
    9900018    1    5    5    0    0 -0.65761373006E+03  0.38076665652E+03 -0.67691313277E+03  0.10217463640E+04  0.91187600000E+02 0.  0.
<mgrwt>
<rscale>  0 0.44042467E+04</rscale>
<asrwt>0</asrwt>
<pdfrwt beam="1">  1        2 0.54625612E+00 0.44042467E+04</pdfrwt>
<pdfrwt beam="2">  1       -2 0.21011655E+00 0.44042467E+04</pdfrwt>
<totfact> 0.65222607E-02</totfact>
</mgrwt>
</event>
<event>
12    1  0.1700883E-007  0.4128372E+04  0.7818608E-02  0.7979139E-01
          2   -1    0    0  501    0  0.00000000000E+00  0.00000000000E+00  0.17565805523E+04  0.17565805523E+04  0.00000000000E+00 0. -1.
         -2   -1    0    0    0  501 -0.00000000000E+00 -0.00000000000E+00 -0.24256584089E+04  0.24256584089E+04  0.00000000000E+00 0.  1.
    9900016    2    1    2    0    0  0.36429691770E+03 -0.29955060792E+03 -0.11385370292E+04  0.22218022480E+04  0.18487011255E+04 0.  0.
        -24    2    3    3    0    0  0.49381280241E+03 -0.10411429274E+04 -0.68939906908E+03  0.13451846347E+04  0.80130805861E+02 0.  0.
    9900016    2    1    2    0    0 -0.36429691770E+03  0.29955060792E+03  0.46945917253E+03  0.19604367132E+04  0.18440383350E+04 0.  0.
        -15    1    3    3    0    0 -0.12951588471E+03  0.74159231945E+03 -0.44913796011E+03  0.87661761326E+03  0.00000000000E+00 0.  1.
        -15    1    5    5    0    0 -0.92616538229E+02 -0.26350705610E+03 -0.30435261587E+03  0.41309116010E+03  0.00000000000E+00 0.  1.
         15    1    4    4    0    0  0.23674149154E+03 -0.40854392919E+03 -0.27409012458E+03  0.54596709817E+03  0.00000000000E+00 0. -1.
         15    1    5    5    0    0 -0.10197623633E+03 -0.54867722547E+02 -0.10741617908E+03  0.15794890085E+03  0.00000000000E+00 0. -1.
        -16    1    4    4    0    0  0.25707131087E+03 -0.63259899819E+03 -0.41530894450E+03  0.79921753657E+03  0.00000000000E+00 0.  1.
         16    1    5    5    0    0  0.10194410630E+03  0.46024850572E+03  0.24135087371E+02  0.47202096380E+03  0.00000000000E+00 0. -1.
    9900018    1    5    5    0    0 -0.27164824945E+03  0.15767688085E+03  0.85709288011E+03  0.91737568842E+03  0.91187600000E+02 0.  0.
<mgrwt>
<rscale>  0 0.41283723E+04</rscale>
<asrwt>0</asrwt>
<pdfrwt beam="1">  1        2 0.27024316E+00 0.41283723E+04</pdfrwt>
<pdfrwt beam="2">  1       -2 0.37317822E+00 0.41283723E+04</pdfrwt>
<totfact> 0.78868211E-02</totfact>
</mgrwt>
</event>
