<event>
12    1  0.3519377E-014  0.1486987E+04  0.7818608E-02  0.9268681E-01
         -2   -1    0    0    0  501 -0.00000000000E+00  0.00000000000E+00  0.49175061931E+03  0.49175061931E+03  0.00000000000E+00 0.  1.
          2   -1    0    0  501    0  0.00000000000E+00 -0.00000000000E+00 -0.26878349440E+04  0.26878349440E+04  0.00000000000E+00 0. -1.
         23    2    1    2    0    0 -0.30348512961E+03  0.14497029852E+03 -0.14945248958E+04  0.15354091380E+04  0.10371569676E+03 0.  0.
    9900016    2    1    2    0    0  0.19971808134E+03  0.32379690421E+03 -0.37848270658E+03  0.89404539074E+03  0.71507779600E+03 0.  0.
         23    2    4    4    0    0 -0.59180515641E+02 -0.14684626126E+03  0.55835273956E+02  0.20327366221E+03  0.11461433615E+03 0.  0.
        -15    1    5    5    0    0 -0.31362249302E+02 -0.15824147740E+03  0.30979663271E+02  0.16426714640E+03  0.00000000000E+00 0.  1.
        -15    1    3    3    0    0 -0.46306431000E+02  0.67437674639E+02 -0.41326479833E+03  0.42128365628E+03  0.00000000000E+00 0. -1.
         15    1    3    3    0    0 -0.25717869861E+03  0.77532623883E+02 -0.10812600974E+04  0.11141254818E+04  0.00000000000E+00 0.  1.
         15    1    5    5    0    0 -0.27818266339E+02  0.11395216137E+02  0.24855610686E+02  0.39006515808E+02  0.00000000000E+00 0. -1.
        -16    1    1    2    0    0 -0.18061064783E+03 -0.12349339695E+03 -0.80163201951E+02  0.23301708982E+03  0.00000000000E+00 0.  1.
         16    1    4    4    0    0  0.25889859698E+03  0.47064316547E+03 -0.43431798053E+03  0.69077172853E+03  0.00000000000E+00 0. -1.
    9900018    1    1    2    0    0  0.28437769610E+03 -0.34527380578E+03 -0.24291352034E+03  0.51711394466E+03  0.91187600000E+02 0.  0.
<mgrwt>
<rscale>  0 0.10371798E+04</rscale>
<asrwt>0</asrwt>
<pdfrwt beam="1">  1        2 0.41351307E+00 0.14869870E+04</pdfrwt>
<pdfrwt beam="2">  1       -2 0.75653941E-01 0.14869870E+04</pdfrwt>
<totfact> 0.40642644E+00</totfact>
</mgrwt>
</event>
<event>
12    1  0.3519377E-014  0.1056214E+04  0.7818608E-02  0.9567538E-01
          2   -1    0    0  501    0  0.00000000000E+00  0.00000000000E+00  0.18239012581E+04  0.18239012581E+04  0.00000000000E+00 0.  1.
         -2   -1    0    0    0  501 -0.00000000000E+00 -0.00000000000E+00 -0.30302751268E+03  0.30302751268E+03  0.00000000000E+00 0. -1.
         23    2    1    2    0    0 -0.22616039951E+03  0.22831101489E+03  0.73862698535E+03  0.81258541711E+03  0.10700836786E+03 0.  0.
    9900016    2    1    2    0    0  0.22292063689E+03 -0.16980226699E+03  0.57370634693E+03  0.95056750435E+03  0.70421103910E+03 0.  0.
         23    2    4    4    0    0 -0.17343223204E+03 -0.94478133477E+01 -0.50958480738E+02  0.19358976726E+03  0.68645691350E+02 0.  0.
        -15    1    5    5    0    0 -0.46781298728E+02  0.19567966184E+02 -0.37283181534E+02  0.62939898606E+02  0.00000000000E+00 0.  1.
        -15    1    3    3    0    0 -0.14028174792E+03  0.20675556071E+03  0.56043913969E+03  0.61361132648E+03  0.00000000000E+00 0.  1.
         15    1    3    3    0    0 -0.85878651589E+02  0.21555454177E+02  0.17818784566E+03  0.19897409064E+03  0.00000000000E+00 0. -1.
         15    1    5    5    0    0 -0.12665093332E+03 -0.29015779532E+02 -0.13675299204E+02  0.13064986866E+03  0.00000000000E+00 0. -1.
        -16    1    4    4    0    0  0.39635286894E+03 -0.16035445364E+03  0.62466482767E+03  0.75697773709E+03  0.00000000000E+00 0.  1.
         16    1    1    2    0    0  0.11280288971E+03 -0.89194078348E+02  0.14658987017E+03  0.20535010488E+03  0.00000000000E+00 0. -1.
    9900018    1    1    2    0    0 -0.10956312709E+03  0.30685330447E+02  0.61950542952E+02  0.15842574440E+03  0.91187600000E+02 0.  0.
<mgrwt>
<rscale>  0 0.79482474E+03</rscale>
<asrwt>0</asrwt>
<pdfrwt beam="1">  1        2 0.28060019E+00 0.10562142E+04</pdfrwt>
<pdfrwt beam="2">  1       -2 0.46619619E-01 0.10562142E+04</pdfrwt>
<totfact> 0.36396410E+01</totfact>
</mgrwt>
</event>
<event>
12    1  0.3519377E-014  0.1277363E+04  0.7818608E-02  0.9542033E-01
         -1   -1    0    0    0  501 -0.00000000000E+00  0.00000000000E+00  0.34183387840E+03  0.34183387840E+03  0.00000000000E+00 0.  1.
          1   -1    0    0  501    0  0.00000000000E+00 -0.00000000000E+00 -0.22746964040E+04  0.22746964040E+04  0.00000000000E+00 0. -1.
         23    2    1    2    0    0  0.15642621162E+03  0.87320480546E+02 -0.10331722649E+04  0.10541283609E+04  0.10792426224E+03 0.  0.
    9900016    2    1    2    0    0 -0.28592239303E+02  0.14155280833E+03 -0.47195374076E+03  0.86113101779E+03  0.70565684485E+03 0.  0.
         23    2    4    4    0    0 -0.31763193931E+02 -0.87469472720E+02 -0.58798294457E+03  0.60437425292E+03  0.10432873689E+03 0.  0.
        -15    1    5    5    0    0  0.36291007675E+02 -0.49891841644E+02 -0.23861348762E+03  0.24646019877E+03  0.00000000000E+00 0. -1.
        -15    1    3    3    0    0  0.79792229456E+02  0.10343133381E+03 -0.66820206261E+03  0.68085155296E+03  0.00000000000E+00 0.  1.
         15    1    5    5    0    0 -0.68054201606E+02 -0.37577631076E+02 -0.34936945695E+03  0.35791405415E+03  0.00000000000E+00 0.  1.
         15    1    3    3    0    0  0.76633982169E+02 -0.16110853267E+02 -0.36497020229E+03  0.37327680798E+03  0.00000000000E+00 0. -1.
        -16    1    4    4    0    0  0.31709546275E+01  0.22902228105E+03  0.11602920381E+03  0.25675676487E+03  0.00000000000E+00 0.  1.
         16    1    1    2    0    0 -0.23751995552E+03 -0.11493990318E+03 -0.32439951441E+02  0.26585571475E+03  0.00000000000E+00 0. -1.
    9900018    1    1    2    0    0  0.10968598320E+03 -0.11393338569E+03 -0.39529656849E+03  0.43541518891E+03  0.91187600000E+02 0.  0.
<mgrwt>
<rscale>  0 0.81254565E+03</rscale>
<asrwt>0</asrwt>
<pdfrwt beam="1">  1        1 0.34995330E+00 0.12773634E+04</pdfrwt>
<pdfrwt beam="2">  1       -1 0.52589826E-01 0.12773634E+04</pdfrwt>
<totfact> 0.69502101E+00</totfact>
</mgrwt>
</event>
