<event>
11    1  0.1348905E-011  0.3582544E+04  0.7818608E-02  0.8369765E-01
          2   -1    0    0  501    0  0.00000000000E+00  0.00000000000E+00  0.29483154967E+04  0.29483154967E+04  0.00000000000E+00 0. -1.
         -2   -1    0    0    0  501 -0.00000000000E+00 -0.00000000000E+00 -0.17815233291E+04  0.17815233291E+04  0.00000000000E+00 0.  1.
    9900016    2    1    2    0    0  0.28191905157E+03  0.26062551760E+03 -0.63087654528E+03  0.19878532126E+04  0.18455761072E+04 0.  0.
        -24    2    3    3    0    0  0.14297578291E+03 -0.57399660994E+03  0.74616484603E+02  0.59958364478E+03  0.63393568927E+02 0.  0.
        -15    1    1    2    0    0 -0.21634075197E+03 -0.43569490687E+03  0.22447296320E+03  0.53574386048E+03  0.00000000000E+00 0.  1.
        -15    1    3    3    0    0  0.24164241331E+03  0.55033307625E+03  0.15426617199E+02  0.60124498438E+03  0.00000000000E+00 0.  1.
         15    1    4    4    0    0  0.74164040630E+02 -0.34805789335E+03  0.73568158217E+02  0.36339630702E+03  0.00000000000E+00 0. -1.
         15    1    1    2    0    0 -0.43772944438E+03 -0.32555212377E+02 -0.12419739702E+03  0.45617091288E+03  0.00000000000E+00 0. -1.
        -16    1    4    4    0    0  0.68811742283E+02 -0.22593871659E+03  0.10483263858E+01  0.23618733776E+03  0.00000000000E+00 0.  1.
         16    1    1    2    0    0  0.37215114478E+03  0.20762460165E+03  0.16973931467E+04  0.17500708398E+04  0.00000000000E+00 0. -1.
    9900018    1    3    3    0    0 -0.10269914465E+03  0.28428905130E+03 -0.72091964709E+03  0.78702458344E+03  0.91187600000E+02 0.  0.
<mgrwt>
<rscale>  0 0.25954015E+04</rscale>
<asrwt>0</asrwt>
<pdfrwt beam="1">  1        2 0.45358700E+00 0.35825436E+04</pdfrwt>
<pdfrwt beam="2">  1       -2 0.27408051E+00 0.35825436E+04</pdfrwt>
<totfact> 0.67726942E-02</totfact>
</mgrwt>
</event>
<event>
11    1  0.1348905E-011  0.5263873E+04  0.7818608E-02  0.7789043E-01
         -2   -1    0    0    0  501 -0.00000000000E+00  0.00000000000E+00  0.26352283461E+04  0.26352283461E+04  0.00000000000E+00 0.  1.
          2   -1    0    0  501    0  0.00000000000E+00 -0.00000000000E+00 -0.26286485644E+04  0.26286485644E+04  0.00000000000E+00 0. -1.
    9900016    2    1    2    0    0 -0.11889596416E+04  0.41241055653E+03 -0.17756643984E+03  0.22360492377E+04  0.18397496722E+04 0.  0.
         24    2    3    3    0    0 -0.13848001313E+04  0.33226910568E+03  0.38130450135E+03  0.14754587522E+04  0.59255752796E+02 0.  0.
        -15    1    4    4    0    0 -0.56625175220E+03  0.12778699363E+03  0.12644921464E+03  0.59410433973E+03  0.00000000000E+00 0.  1.
        -15    1    1    2    0    0 -0.10562819963E+03 -0.63304051700E+02 -0.15801305637E+02  0.12415474529E+03  0.00000000000E+00 0.  1.
         15    1    3    3    0    0  0.24506031829E+03  0.19177370264E+03 -0.51564165329E+03  0.60226076349E+03  0.00000000000E+00 0. -1.
         15    1    1    2    0    0  0.18404119812E+04 -0.94149930481E+03  0.31108166457E+03  0.20905284030E+04  0.00000000000E+00 0. -1.
        -16    1    1    2    0    0 -0.54582413996E+03  0.59239279999E+03 -0.11113413731E+03  0.81314452449E+03  0.00000000000E+00 0.  1.
         16    1    4    4    0    0 -0.81854837914E+03  0.20448211206E+03  0.25485528672E+03  0.88135441243E+03  0.00000000000E+00 0. -1.
    9900018    1    3    3    0    0 -0.49219828584E+02 -0.11163225180E+03 -0.43229287894E+02  0.15832972208E+03  0.91187600000E+02 0.  0.
<mgrwt>
<rscale>  0 0.52638728E+04</rscale>
<asrwt>0</asrwt>
<pdfrwt beam="1">  1        2 0.40440747E+00 0.52638728E+04</pdfrwt>
<pdfrwt beam="2">  1       -2 0.40541974E+00 0.52638728E+04</pdfrwt>
<totfact> 0.14289710E-02</totfact>
</mgrwt>
</event>
<event>
10    1  0.1348905E-011  0.3756103E+04  0.7818608E-02  0.8055641E-01
          1   -1    0    0  501    0  0.00000000000E+00  0.00000000000E+00  0.31543998115E+04  0.31543998115E+04  0.00000000000E+00 0. -1.
         -1   -1    0    0    0  501 -0.00000000000E+00 -0.00000000000E+00 -0.11181455897E+04  0.11181455897E+04  0.00000000000E+00 0.  1.
    9900016    2    1    2    0    0  0.42350695448E+03 -0.42901733411E+03  0.15346327730E+04  0.24753154434E+04  0.18462596738E+04 0.  0.
        -15    1    3    3    0    0  0.18986373067E+03  0.26112117544E+03  0.87068636441E+03  0.92861577073E+03  0.00000000000E+00 0.  1.
        -15    1    1    2    0    0 -0.36834523570E+03  0.18584144092E+03 -0.17512485753E+03  0.44820081387E+03  0.00000000000E+00 0.  1.
         15    1    1    2    0    0 -0.44653037473E+03  0.43513848150E+03  0.66696948816E+03  0.91300776107E+03  0.00000000000E+00 0. -1.
         15    1    3    3    0    0  0.42116632131E+02 -0.30020797762E+03  0.15677887459E+03  0.34128910919E+03  0.00000000000E+00 0. -1.
        -16    1    3    3    0    0  0.23685713211E+01 -0.68967441797E+03  0.17586682401E+03  0.71174823689E+03  0.00000000000E+00 0.  1.
         16    1    1    2    0    0  0.39136865594E+03 -0.19196258831E+03  0.97768181644E+01  0.43602138289E+03  0.00000000000E+00 0. -1.
    9900018    1    3    3    0    0  0.18915802036E+03  0.29974388604E+03  0.33130070999E+03  0.49366232661E+03  0.91187600000E+02 0.  0.
<mgrwt>
<rscale>  0 0.37561034E+04</rscale>
<asrwt>0</asrwt>
<pdfrwt beam="1">  1        1 0.48529227E+00 0.37561034E+04</pdfrwt>
<pdfrwt beam="2">  1       -1 0.17202240E+00 0.37561034E+04</pdfrwt>
<totfact> 0.87241370E-02</totfact>
</mgrwt>
</event>
<event>
11    1  0.1348905E-011  0.4837129E+04  0.7818608E-02  0.8071437E-01
          2   -1    0    0  501    0  0.00000000000E+00  0.00000000000E+00  0.34275661893E+04  0.34275661893E+04  0.00000000000E+00 0. -1.
         -2   -1    0    0    0  501 -0.00000000000E+00 -0.00000000000E+00 -0.41181223081E+04  0.41181223081E+04  0.00000000000E+00 0.  1.
    9900016    2    1    2    0    0 -0.77863834275E+02 -0.22940493109E+03  0.86007146716E+03  0.20243268974E+04  0.18164490248E+04 0.  0.
         24    2    3    3    0    0  0.71711127941E+01 -0.81430611176E+03  0.37891100071E+03  0.90304984843E+03  0.93699593294E+02 0.  0.
        -15    1    4    4    0    0  0.48440938528E+02 -0.35623394711E+03  0.17777109915E+03  0.40106322855E+03  0.00000000000E+00 0.  1.
        -15    1    1    2    0    0 -0.34498079601E+03  0.12583521614E+03 -0.13241799046E+03  0.39035980253E+03  0.00000000000E+00 0.  1.
         15    1    3    3    0    0  0.11127074816E+03  0.53294807900E+03 -0.48644608679E+02  0.54660875611E+03  0.00000000000E+00 0. -1.
         15    1    1    2    0    0 -0.55260015840E+03 -0.58198592664E+03  0.16524371786E+04  0.18370147476E+04  0.00000000000E+00 0. -1.
        -16    1    1    2    0    0  0.97544478869E+03  0.68555564160E+03 -0.30706467741E+04  0.32939870499E+04  0.00000000000E+00 0.  1.
         16    1    4    4    0    0 -0.41269825734E+02 -0.45807216465E+03  0.20113990156E+03  0.50198661988E+03  0.00000000000E+00 0. -1.
    9900018    1    3    3    0    0 -0.19630569523E+03  0.51953101674E+02  0.52980507513E+03  0.57466829283E+03  0.91187600000E+02 0.  0.
<mgrwt>
<rscale>  0 0.36843565E+04</rscale>
<asrwt>0</asrwt>
<pdfrwt beam="1">  1        2 0.52731788E+00 0.48371293E+04</pdfrwt>
<pdfrwt beam="2">  1       -2 0.63355727E+00 0.48371293E+04</pdfrwt>
<totfact> 0.23934286E-04</totfact>
</mgrwt>
</event>
<event>
10    1  0.1348905E-011  0.2836349E+04  0.7818608E-02  0.8353563E-01
         -2   -1    0    0    0  501 -0.00000000000E+00  0.00000000000E+00  0.28725687183E+04  0.28725687183E+04  0.00000000000E+00 0.  1.
          2   -1    0    0  501    0  0.00000000000E+00 -0.00000000000E+00 -0.22077374372E+04  0.22077374372E+04  0.00000000000E+00 0. -1.
    9900016    2    1    2    0    0 -0.28588360494E+03  0.41178485636E+03  0.21596812579E+03  0.19213618928E+04  0.18421978961E+04 0.  0.
        -15    1    1    2    0    0 -0.64269911941E+03  0.35196443847E+03 -0.10964479837E+03  0.74092044502E+03  0.00000000000E+00 0.  1.
        -15    1    3    3    0    0  0.56635343384E+02 -0.12227653404E+03 -0.28091004925E+02  0.13765252433E+03  0.00000000000E+00 0.  1.
         15    1    1    2    0    0  0.19837276395E+03 -0.12669299967E+04  0.78396963894E+03  0.15030208797E+04  0.00000000000E+00 0. -1.
         15    1    3    3    0    0 -0.11590242620E+03  0.90481465115E+03  0.34082167708E+03  0.97379789530E+03  0.00000000000E+00 0. -1.
        -16    1    1    2    0    0  0.73020996040E+03  0.50318070189E+03 -0.22546168521E+03  0.91500293798E+03  0.00000000000E+00 0.  1.
         16    1    3    3    0    0  0.23509385033E+03 -0.11486424204E+03 -0.81292425819E+02  0.27399155289E+03  0.00000000000E+00 0. -1.
    9900018    1    3    3    0    0 -0.46171037246E+03 -0.25588901871E+03 -0.15470120543E+02  0.53591992028E+03  0.91187600000E+02 0.  0.
<mgrwt>
<rscale>  0 0.26435319E+04</rscale>
<asrwt>0</asrwt>
<pdfrwt beam="1">  1        2 0.33965191E+00 0.28363489E+04</pdfrwt>
<pdfrwt beam="2">  1       -2 0.44193365E+00 0.28363489E+04</pdfrwt>
<totfact> 0.16416488E-02</totfact>
</mgrwt>
</event>
