<event>
11    1  0.5365362E-010  0.2893054E+04  0.7818608E-02  0.8446239E-01
         -2   -1    0    0    0  501 -0.00000000000E+00  0.00000000000E+00  0.12347628424E+04  0.12347628424E+04  0.00000000000E+00 0.  1.
          2   -1    0    0  501    0  0.00000000000E+00 -0.00000000000E+00 -0.39717532663E+04  0.39717532663E+04  0.00000000000E+00 0. -1.
    9900016    2    1    2    0    0  0.42141928474E+02  0.24927550529E+03 -0.12191174314E+04  0.22213232063E+04  0.18395964926E+04 0.  0.
         24    2    3    3    0    0 -0.49397046431E+03 -0.12103877288E+02  0.22934717090E+03  0.55028633068E+03  0.77856261682E+02 0.  0.
        -15    1    1    2    0    0  0.14018065208E+03  0.32434548989E+02  0.81927687588E+02  0.16557403534E+03  0.00000000000E+00 0.  1.
        -15    1    4    4    0    0 -0.10716382259E+03  0.69617096559E+01  0.85094209749E+02  0.13701669535E+03  0.00000000000E+00 0.  1.
         15    1    1    2    0    0  0.57062303716E+03 -0.70304600784E+03 -0.17245724405E+04  0.19478281347E+04  0.00000000000E+00 0. -1.
         15    1    3    3    0    0  0.27403683167E+03  0.27942297724E+03 -0.12962179712E+04  0.13540141854E+04  0.00000000000E+00 0. -1.
        -16    1    1    2    0    0 -0.75294561772E+03  0.42133595356E+03  0.12477176043E+03  0.87179073246E+03  0.00000000000E+00 0.  1.
         16    1    4    4    0    0 -0.38680664172E+03 -0.19065586944E+02  0.14425296115E+03  0.41326963533E+03  0.00000000000E+00 0. -1.
    9900018    1    3    3    0    0  0.26207556112E+03 -0.18043594666E+02 -0.15224663107E+03  0.31702269021E+03  0.91187600000E+02 0.  0.
<mgrwt>
<rscale>  0 0.23820914E+04</rscale>
<asrwt>0</asrwt>
<pdfrwt beam="1">  1        2 0.61103896E+00 0.28930540E+04</pdfrwt>
<pdfrwt beam="2">  1       -2 0.18996352E+00 0.28930540E+04</pdfrwt>
<totfact> 0.46378964E-02</totfact>
</mgrwt>
</event>
<event>
11    1  0.5365362E-010  0.2727251E+04  0.7818608E-02  0.8470692E-01
          2   -1    0    0  501    0  0.00000000000E+00  0.00000000000E+00  0.11239282751E+04  0.11239282751E+04  0.00000000000E+00 0. -1.
         -2   -1    0    0    0  501 -0.00000000000E+00 -0.00000000000E+00 -0.46559309580E+04  0.46559309580E+04  0.00000000000E+00 0.  1.
    9900016    2    1    2    0    0  0.22042967004E+03  0.10390460295E+03 -0.10613693411E+04  0.21578093375E+04  0.18628609322E+04 0.  0.
        -24    2    3    3    0    0  0.90971495626E+03  0.45434278983E+03 -0.62256317186E+03  0.11949716789E+04  0.79773041025E+02 0.  0.
        -15    1    1    2    0    0  0.52236220460E+03 -0.53811553777E+03 -0.25953079005E+04  0.27014910148E+04  0.00000000000E+00 0.  1.
        -15    1    3    3    0    0 -0.54338975143E+03 -0.13767153723E+03 -0.39495310740E+03  0.68572139471E+03  0.00000000000E+00 0.  1.
         15    1    1    2    0    0 -0.77977540191E+02  0.50613925746E+02  0.12152826904E+03  0.15300779859E+03  0.00000000000E+00 0. -1.
         15    1    4    4    0    0  0.58392079560E+03  0.26221614173E+03 -0.35807085158E+03  0.73344088737E+03  0.00000000000E+00 0. -1.
        -16    1    4    4    0    0  0.32579416066E+03  0.19212664811E+03 -0.26449232028E+03  0.46153079152E+03  0.00000000000E+00 0.  1.
         16    1    1    2    0    0 -0.66481433445E+03  0.38359700907E+03  0.31462896595E+01  0.76755108220E+03  0.00000000000E+00 0. -1.
    9900018    1    3    3    0    0 -0.14589553480E+03 -0.21276664966E+03 -0.43853061871E+02  0.27711626388E+03  0.91187600000E+02 0.  0.
<mgrwt>
<rscale>  0 0.23184236E+04</rscale>
<asrwt>0</asrwt>
<pdfrwt beam="1">  1        2 0.17291204E+00 0.27272509E+04</pdfrwt>
<pdfrwt beam="2">  1       -2 0.71629708E+00 0.27272509E+04</pdfrwt>
<totfact> 0.34784781E-03</totfact>
</mgrwt>
</event>
<event>
11    1  0.5365362E-010  0.2795232E+04  0.7818608E-02  0.8427818E-01
         -2   -1    0    0    0  501 -0.00000000000E+00  0.00000000000E+00  0.14676400002E+04  0.14676400002E+04  0.00000000000E+00 0. -1.
          2   -1    0    0  501    0  0.00000000000E+00 -0.00000000000E+00 -0.39120087933E+04  0.39120087933E+04  0.00000000000E+00 0.  1.
    9900016    2    1    2    0    0  0.13151176812E+03  0.43178719874E+03 -0.16346028962E+04  0.25100034348E+04  0.18505283256E+04 0.  0.
         24    2    3    3    0    0  0.72982204796E+03  0.46452064327E+03 -0.26574002960E+03  0.90823540395E+03  0.76512325448E+02 0.  0.
        -15    1    4    4    0    0  0.42587911210E+03  0.23789352096E+03 -0.17628129889E+03  0.51869204908E+03  0.00000000000E+00 0.  1.
        -15    1    1    2    0    0 -0.61931869770E+03 -0.41543709074E+03 -0.45418949611E+03  0.87317336426E+03  0.00000000000E+00 0.  1.
         15    1    1    2    0    0 -0.31144556951E+03  0.36643967974E+03  0.54920095972E+03  0.72999868206E+03  0.00000000000E+00 0. -1.
         15    1    3    3    0    0 -0.57896964124E+02 -0.23908778746E+03 -0.42017804819E+03  0.48689282265E+03  0.00000000000E+00 0. -1.
        -16    1    1    2    0    0  0.79925249909E+03 -0.38278978774E+03 -0.90477736051E+03  0.12664733124E+04  0.00000000000E+00 0.  1.
         16    1    4    4    0    0  0.30394293586E+03  0.22662712231E+03 -0.89458730703E+02  0.38954335487E+03  0.00000000000E+00 0. -1.
    9900018    1    3    3    0    0 -0.54041331571E+03  0.20635434292E+03 -0.94868481846E+03  0.11148752082E+04  0.91187600000E+02 0.  0.
<mgrwt>
<rscale>  0 0.24314619E+04</rscale>
<asrwt>0</asrwt>
<pdfrwt beam="1">  1        2 0.60184750E+00 0.27952325E+04</pdfrwt>
<pdfrwt beam="2">  1       -2 0.22579077E+00 0.27952325E+04</pdfrwt>
<totfact> 0.30269557E-02</totfact>
</mgrwt>
</event>
<event>
11    1  0.5365362E-010  0.6351808E+04  0.7818608E-02  0.7648249E-01
          2   -1    0    0  501    0  0.00000000000E+00  0.00000000000E+00  0.29931512585E+04  0.29931512585E+04  0.00000000000E+00 0. -1.
         -2   -1    0    0    0  501 -0.00000000000E+00 -0.00000000000E+00 -0.33698154693E+04  0.33698154693E+04  0.00000000000E+00 0.  1.
    9900016    2    1    2    0    0 -0.15837749388E+04 -0.57991363712E+03  0.41905682192E+03  0.25232260560E+04  0.18293217941E+04 0.  0.
        -24    2    3    3    0    0 -0.30773292169E+03 -0.73682231747E+03  0.67885348945E+03  0.10511904958E+04  0.80948871118E+02 0.  0.
        -15    1    1    2    0    0  0.12038977568E+04  0.14425402426E+04 -0.16664682328E+04  0.25114554607E+04  0.00000000000E+00 0.  1.
        -15    1    3    3    0    0 -0.11347220407E+04  0.15625179551E+03  0.19972648209E+02  0.11456036138E+04  0.00000000000E+00 0.  1.
         15    1    1    2    0    0  0.25050921234E+03 -0.25121753295E+03  0.18364914416E+03  0.39948982776E+03  0.00000000000E+00 0. -1.
         15    1    4    4    0    0 -0.14031535764E+03 -0.23742319738E+03  0.24097949674E+03  0.36623666132E+03  0.00000000000E+00 0. -1.
        -16    1    4    4    0    0 -0.16741756406E+03 -0.49939912009E+03  0.43787399271E+03  0.68495383450E+03  0.00000000000E+00 0.  1.
         16    1    1    2    0    0  0.12936796960E+03 -0.61140907258E+03  0.68709805594E+03  0.92879538331E+03  0.00000000000E+00 0. -1.
    9900018    1    3    3    0    0 -0.14131997639E+03  0.65688484749E+00 -0.27976931574E+03  0.32643194643E+03  0.91187600000E+02 0.  0.
<mgrwt>
<rscale>  0 0.63518084E+04</rscale>
<asrwt>0</asrwt>
<pdfrwt beam="1">  1        2 0.46048481E+00 0.63518084E+04</pdfrwt>
<pdfrwt beam="2">  1       -2 0.51843315E+00 0.63518084E+04</pdfrwt>
<totfact> 0.14928970E-03</totfact>
</mgrwt>
</event>
<event>
11    1  0.5365362E-010  0.3406305E+04  0.7818608E-02  0.8306925E-01
          2   -1    0    0  501    0  0.00000000000E+00  0.00000000000E+00  0.35040597273E+04  0.35040597273E+04  0.00000000000E+00 0. -1.
         -2   -1    0    0    0  501 -0.00000000000E+00 -0.00000000000E+00 -0.22557892064E+04  0.22557892064E+04  0.00000000000E+00 0.  1.
    9900016    2    1    2    0    0 -0.49615286520E+03  0.61572139073E+03  0.28831774619E+03  0.20250710779E+04  0.18418754711E+04 0.  0.
        -24    2    3    3    0    0 -0.32442961115E+03  0.64539613116E+03  0.28186053003E+03  0.77900470973E+03  0.74914889692E+02 0.  0.
        -15    1    3    3    0    0 -0.59602178327E+03 -0.35376033283E+03 -0.79504811587E+02  0.69764557927E+03  0.00000000000E+00 0.  1.
        -15    1    1    2    0    0  0.65781916619E+03 -0.28454687620E+01 -0.11057607160E+04  0.12866393874E+04  0.00000000000E+00 0.  1.
         15    1    1    2    0    0  0.39277307842E+03 -0.60436855053E+02  0.24633795678E+03  0.46755287779E+03  0.00000000000E+00 0. -1.
         15    1    4    4    0    0 -0.12472978574E+03  0.24056557337E+03  0.14485067744E+03  0.30726378455E+03  0.00000000000E+00 0. -1.
        -16    1    4    4    0    0 -0.19969982541E+03  0.40483055779E+03  0.13700985259E+03  0.47174092518E+03  0.00000000000E+00 0.  1.
         16    1    1    2    0    0 -0.55443937942E+03 -0.55243906691E+03  0.18193755340E+04  0.19805855906E+04  0.00000000000E+00 0. -1.
    9900018    1    3    3    0    0  0.42429852921E+03  0.32408559241E+03  0.85962027750E+02  0.54842078891E+03  0.91187600000E+02 0.  0.
<mgrwt>
<rscale>  0 0.27882503E+04</rscale>
<asrwt>0</asrwt>
<pdfrwt beam="1">  1        2 0.53908611E+00 0.34063051E+04</pdfrwt>
<pdfrwt beam="2">  1       -2 0.34704449E+00 0.34063051E+04</pdfrwt>
<totfact> 0.10185654E-02</totfact>
</mgrwt>
</event>
<event>
11    1  0.5365362E-010  0.2814491E+04  0.7818608E-02  0.8504456E-01
         -1   -1    0    0    0  501 -0.00000000000E+00  0.00000000000E+00  0.12957810958E+04  0.12957810958E+04  0.00000000000E+00 0.  1.
          1   -1    0    0  501    0  0.00000000000E+00 -0.00000000000E+00 -0.30635847989E+04  0.30635847989E+04  0.00000000000E+00 0. -1.
    9900016    2    1    2    0    0 -0.40067317614E+03 -0.63043223576E+03 -0.67996824544E+03  0.21056177988E+04  0.18475079707E+04 0.  0.
        -24    2    3    3    0    0  0.14551202784E+03 -0.58474773537E+03 -0.58941741880E+03  0.84672695610E+03  0.80187158260E+02 0.  0.
        -15    1    1    2    0    0 -0.82436795128E+02  0.10281130884E+04 -0.14411769087E+03  0.10414327902E+04  0.00000000000E+00 0.  1.
        -15    1    3    3    0    0 -0.21485530939E+03 -0.31648178703E+03  0.43222649548E+03  0.57718564508E+03  0.00000000000E+00 0.  1.
         15    1    4    4    0    0  0.38784337546E+01 -0.90509028455E+02 -0.59478753857E+02  0.10837273015E+03  0.00000000000E+00 0. -1.
         15    1    1    2    0    0 -0.75117524942E+02 -0.24397322857E+02 -0.46610344024E+02  0.91708211661E+02  0.00000000000E+00 0. -1.
        -16    1    4    4    0    0  0.14163359408E+03 -0.49423870691E+03 -0.52993866494E+03  0.73835422595E+03  0.00000000000E+00 0.  1.
         16    1    1    2    0    0  0.55822749621E+03 -0.37328352977E+03 -0.89710742285E+03  0.11206070941E+04  0.00000000000E+00 0. -1.
    9900018    1    3    3    0    0 -0.33132989459E+03  0.27079728664E+03 -0.52277732212E+03  0.68170519759E+03  0.91187600000E+02 0.  0.
<mgrwt>
<rscale>  0 0.22338843E+04</rscale>
<asrwt>0</asrwt>
<pdfrwt beam="1">  1        1 0.47132073E+00 0.28144910E+04</pdfrwt>
<pdfrwt beam="2">  1       -1 0.19935094E+00 0.28144910E+04</pdfrwt>
<totfact> 0.68327850E-02</totfact>
</mgrwt>
</event>
<event>
11    1  0.5365362E-010  0.5784989E+04  0.7818608E-02  0.7717647E-01
          1   -1    0    0  501    0  0.00000000000E+00  0.00000000000E+00  0.23513031371E+04  0.23513031371E+04  0.00000000000E+00 0. -1.
         -1   -1    0    0    0  501 -0.00000000000E+00 -0.00000000000E+00 -0.35582502732E+04  0.35582502732E+04  0.00000000000E+00 0.  1.
    9900016    2    1    2    0    0  0.11361276042E+03 -0.48268659879E+03 -0.76155819816E+03  0.20350682147E+04  0.18208892161E+04 0.  0.
         24    2    3    3    0    0  0.45302828023E+03 -0.73910056201E+03 -0.33788338107E+03  0.93381966883E+03  0.79685200904E+02 0.  0.
        -15    1    1    2    0    0 -0.75819833502E+03 -0.44698218311E+03 -0.31991526159E+03  0.93648468318E+03  0.00000000000E+00 0.  1.
        -15    1    4    4    0    0  0.34084938049E+03 -0.55281188023E+03 -0.28948348746E+03  0.71104146477E+03  0.00000000000E+00 0.  1.
         15    1    1    2    0    0  0.15378532012E+04  0.96907200893E+03  0.45266960986E+03  0.18732332483E+04  0.00000000000E+00 0. -1.
         15    1    3    3    0    0  0.25610690099E+02  0.12825769993E+03  0.27099471387E+03  0.30090543362E+03  0.00000000000E+00 0. -1.
        -16    1    1    2    0    0 -0.89326762663E+03 -0.39403227025E+02 -0.57814328627E+03  0.10647672640E+04  0.00000000000E+00 0.  1.
         16    1    4    4    0    0  0.11217889974E+03 -0.18628868177E+03 -0.48399893612E+02  0.22277820406E+03  0.00000000000E+00 0. -1.
    9900018    1    3    3    0    0 -0.36502620991E+03  0.12815626329E+03 -0.69466953096E+03  0.80034311228E+03  0.91187600000E+02 0.  0.
<mgrwt>
<rscale>  0 0.57849892E+04</rscale>
<asrwt>0</asrwt>
<pdfrwt beam="1">  1        1 0.36173895E+00 0.57849892E+04</pdfrwt>
<pdfrwt beam="2">  1       -1 0.54742311E+00 0.57849892E+04</pdfrwt>
<totfact> 0.91752449E-04</totfact>
</mgrwt>
</event>
<event>
11    1  0.5365362E-010  0.5085507E+04  0.7818608E-02  0.8073901E-01
         -1   -1    0    0    0  501 -0.00000000000E+00  0.00000000000E+00  0.38955202259E+04  0.38955202259E+04  0.00000000000E+00 0.  1.
          1   -1    0    0  501    0  0.00000000000E+00 -0.00000000000E+00 -0.33416421347E+04  0.33416421347E+04  0.00000000000E+00 0. -1.
    9900016    2    1    2    0    0  0.53000391876E+03 -0.16615466716E+03 -0.12691985544E+04  0.23084937283E+04  0.18465553867E+04 0.  0.
         24    2    3    3    0    0  0.21334179774E+03 -0.89246767707E+02  0.24146343882E+03  0.34333102884E+03  0.78050591725E+02 0.  0.
        -15    1    1    2    0    0  0.17589261566E+03 -0.26315407945E+03  0.22029991888E+02  0.31729103725E+03  0.00000000000E+00 0.  1.
        -15    1    4    4    0    0  0.19541375717E+03 -0.70692131849E+02  0.17376991327E+03  0.27088723993E+03  0.00000000000E+00 0.  1.
         15    1    3    3    0    0  0.66515460783E+03  0.65909195757E+02 -0.14166471863E+04  0.15664175449E+04  0.00000000000E+00 0. -1.
         15    1    1    2    0    0 -0.88745927896E+03  0.37773111408E+02 -0.12480575140E+04  0.15318806540E+04  0.00000000000E+00 0. -1.
        -16    1    1    2    0    0  0.18156274454E+03  0.39153563520E+03  0.30491041677E+04  0.30794969410E+04  0.00000000000E+00 0.  1.
         16    1    4    4    0    0  0.17928040567E+02 -0.18554635859E+02  0.67693525554E+02  0.72443788915E+02  0.00000000000E+00 0. -1.
    9900018    1    3    3    0    0 -0.34849248681E+03 -0.14281709521E+03 -0.94014806917E+02  0.39874515465E+03  0.91187600000E+02 0.  0.
<mgrwt>
<rscale>  0 0.36733170E+04</rscale>
<asrwt>0</asrwt>
<pdfrwt beam="1">  1        1 0.51409879E+00 0.50855068E+04</pdfrwt>
<pdfrwt beam="2">  1       -1 0.59931081E+00 0.50855068E+04</pdfrwt>
<totfact> 0.10027143E-04</totfact>
</mgrwt>
</event>
