<event>
12    1  0.5654846E-011  0.2131653E+04  0.7818608E-02  0.8547427E-01
          1   -1    0    0  501    0  0.00000000000E+00  0.00000000000E+00  0.11627445374E+04  0.11627445374E+04  0.00000000000E+00 0. -1.
         -1   -1    0    0    0  501 -0.00000000000E+00 -0.00000000000E+00 -0.97698658801E+03  0.97698658801E+03  0.00000000000E+00 0.  1.
    9900016    2    1    2    0    0 -0.31622694495E+03 -0.20413166498E+03 -0.76770130036E+03  0.11146683184E+04  0.71515799383E+03 0.  0.
         23    2    3    3    0    0 -0.47052522279E+02  0.86332483215E+01 -0.59295779878E+03  0.60171341835E+03  0.90396979250E+02 0.  0.
         23    2    3    3    0    0 -0.14029224802E+03 -0.82693761045E+02  0.19371472629E+02  0.18017094328E+03  0.74606580690E+02 0.  0.
        -15    1    4    4    0    0  0.14475717379E+02  0.33047840648E+02 -0.20982526853E+03  0.21290455485E+03  0.00000000000E+00 0.  1.
        -15    1    5    5    0    0 -0.12916906293E+03 -0.81231936149E+02 -0.57093154861E+01  0.15269535210E+03  0.00000000000E+00 0.  1.
         15    1    5    5    0    0 -0.11123185085E+02 -0.14618248964E+01  0.25080788115E+02  0.27475591185E+02  0.00000000000E+00 0. -1.
         15    1    4    4    0    0 -0.61528239659E+02 -0.24414592327E+02 -0.38313253025E+03  0.38880886349E+03  0.00000000000E+00 0. -1.
        -16    1    3    3    0    0  0.18058121635E+02 -0.86023384198E+02 -0.91717781639E+02  0.12703649025E+03  0.00000000000E+00 0.  1.
         16    1    1    2    0    0  0.31622694495E+03  0.20413166498E+03  0.95345924978E+03  0.10250628070E+04  0.00000000000E+00 0. -1.
    9900018    1    3    3    0    0 -0.14694029629E+03 -0.44047768060E+02 -0.10239719257E+03  0.20574746653E+03  0.91187600000E+02 0.  0.
<mgrwt>
<rscale>  0 0.21316527E+04</rscale>
<asrwt>0</asrwt>
<pdfrwt beam="1">  1        1 0.17888378E+00 0.21316527E+04</pdfrwt>
<pdfrwt beam="2">  1       -1 0.15030563E+00 0.21316527E+04</pdfrwt>
<totfact> 0.36225570E+00</totfact>
</mgrwt>
</event>
<event>
12    1  0.5654846E-011  0.7730494E+03  0.7818608E-02  0.9599868E-01
         -2   -1    0    0    0  501 -0.00000000000E+00  0.00000000000E+00  0.44161157794E+03  0.44161157794E+03  0.00000000000E+00 0.  1.
          2   -1    0    0  501    0  0.00000000000E+00 -0.00000000000E+00 -0.33830934805E+03  0.33830934805E+03  0.00000000000E+00 0. -1.
    9900016    2    1    2    0    0 -0.46117312619E+02  0.19103818392E+01  0.13193062547E+03  0.72560664503E+03  0.71201745575E+03 0.  0.
         23    2    3    3    0    0  0.28992571625E+02 -0.60119743945E+02  0.96957945160E+02  0.15011949733E+03  0.93166879988E+02 0.  0.
         23    2    3    3    0    0 -0.21056170548E+03  0.12241115438E+03 -0.15220874087E+03  0.29757141034E+03  0.77849347607E+02 0.  0.
        -15    1    5    5    0    0 -0.73119738664E+02  0.11540891866E+02 -0.19135134716E+02  0.76458104528E+02  0.00000000000E+00 0.  1.
        -15    1    4    4    0    0  0.20571038437E+02 -0.42314979818E+02 -0.40358836818E+01  0.47223018714E+02  0.00000000000E+00 0. -1.
         15    1    5    5    0    0 -0.13744196682E+03  0.11087026251E+03 -0.13307360616E+03  0.22111330581E+03  0.00000000000E+00 0. -1.
         15    1    4    4    0    0  0.84215331882E+01 -0.17804764127E+02  0.10099382884E+03  0.10289647861E+03  0.00000000000E+00 0.  1.
        -16    1    3    3    0    0  0.96067596526E+02 -0.19786433792E+02  0.86697987166E+02  0.13090846819E+03  0.00000000000E+00 0.  1.
         16    1    1    2    0    0  0.46117312619E+02 -0.19103818392E+01 -0.28628395592E+02  0.54314280960E+02  0.00000000000E+00 0. -1.
    9900018    1    3    3    0    0  0.39384224709E+02 -0.40594594802E+02  0.10048343402E+03  0.14700726917E+03  0.91187600000E+02 0.  0.
<mgrwt>
<rscale>  0 0.77304935E+03</rscale>
<asrwt>0</asrwt>
<pdfrwt beam="1">  1        2 0.52047592E-01 0.77304935E+03</pdfrwt>
<pdfrwt beam="2">  1       -2 0.67940243E-01 0.77304935E+03</pdfrwt>
<totfact> 0.19206551E+02</totfact>
</mgrwt>
</event>
<event>
12    1  0.5654846E-011  0.1170773E+04  0.7818608E-02  0.9138831E-01
          3   -1    0    0  501    0  0.00000000000E+00  0.00000000000E+00  0.12955245083E+04  0.12955245083E+04  0.00000000000E+00 0. -1.
         -3   -1    0    0    0  501 -0.00000000000E+00 -0.00000000000E+00 -0.26450839974E+03  0.26450839974E+03  0.00000000000E+00 0.  1.
    9900016    2    1    2    0    0  0.18246671357E+03 -0.21302148735E+03  0.37292931232E+03  0.84466552898E+03  0.70406770145E+03 0.  0.
         23    2    3    3    0    0  0.92006332206E+02 -0.19726526883E+03  0.26251922807E+02  0.23736722233E+03  0.90968584317E+02 0.  0.
         23    2    3    3    0    0  0.11284987764E+03 -0.21898352279E+01  0.17557490108E+02  0.15517133109E+03  0.10502374146E+03 0.  0.
        -15    1    5    5    0    0  0.74118700530E+02 -0.47475200213E+02 -0.11687984733E+02  0.88792372367E+02  0.00000000000E+00 0.  1.
        -15    1    4    4    0    0  0.10176166829E+03 -0.12328194566E+03  0.30012645167E+02  0.16264880611E+03  0.00000000000E+00 0. -1.
         15    1    5    5    0    0  0.38731177115E+02  0.45285364985E+02  0.29245474840E+02  0.66378958723E+02  0.00000000000E+00 0. -1.
         15    1    4    4    0    0 -0.97553360855E+01 -0.73983323173E+02 -0.37607223606E+01  0.74718416221E+02  0.00000000000E+00 0.  1.
        -16    1    3    3    0    0 -0.49456506329E+02  0.11284126074E+03  0.53468230351E+02  0.13430542729E+03  0.00000000000E+00 0.  1.
         16    1    1    2    0    0 -0.18246671357E+03  0.21302148735E+03  0.65808679627E+03  0.71536737909E+03  0.00000000000E+00 0. -1.
    9900018    1    3    3    0    0  0.27067010049E+02 -0.12640764404E+03  0.27565166905E+03  0.31782154827E+03  0.91187600000E+02 0.  0.
<mgrwt>
<rscale>  0 0.11707726E+04</rscale>
<asrwt>0</asrwt>
<pdfrwt beam="1">  1        3 0.19931146E+00 0.11707726E+04</pdfrwt>
<pdfrwt beam="2">  1       -3 0.40693600E-01 0.11707726E+04</pdfrwt>
<totfact> 0.23202221E+00</totfact>
</mgrwt>
</event>
<event>
12    1  0.5654846E-011  0.7866837E+03  0.7818608E-02  0.9579494E-01
         -4   -1    0    0    0  501 -0.00000000000E+00  0.00000000000E+00  0.94679494537E+03  0.94679494537E+03  0.00000000000E+00 0.  1.
          4   -1    0    0  501    0  0.00000000000E+00 -0.00000000000E+00 -0.16341215782E+03  0.16341215782E+03  0.00000000000E+00 0. -1.
    9900016    2    1    2    0    0  0.48948022639E+02 -0.50482929519E+02  0.72150467003E+03  0.10165410126E+04  0.71263048375E+03 0.  0.
         23    2    3    3    0    0 -0.82050193719E+02 -0.10459570645E+03  0.28682736755E+03  0.32962074144E+03  0.93313441239E+02 0.  0.
         23    2    3    3    0    0  0.22432482539E+03  0.69097928715E+01  0.77764482641E+02  0.26945259191E+03  0.12723211858E+03 0.  0.
        -15    1    5    5    0    0  0.20204217934E+03 -0.37167600658E+02  0.78865968536E+02  0.22005070726E+03  0.00000000000E+00 0.  1.
        -15    1    4    4    0    0 -0.95696219636E+02 -0.93482862818E+02  0.28076421904E+03  0.31100700762E+03  0.00000000000E+00 0. -1.
         15    1    4    4    0    0  0.13646025917E+02 -0.11112843636E+02  0.60631485050E+01  0.18613733822E+02  0.00000000000E+00 0.  1.
         15    1    5    5    0    0  0.22282646048E+02  0.44077393530E+02 -0.11014858952E+01  0.49401884644E+02  0.00000000000E+00 0. -1.
        -16    1    1    2    0    0 -0.48948022639E+02  0.50482929519E+02  0.61878117531E+02  0.93666090568E+02  0.00000000000E+00 0.  1.
         16    1    3    3    0    0 -0.10897741985E+03  0.28111978279E+01  0.13941207578E+03  0.17697374874E+03  0.00000000000E+00 0. -1.
    9900018    1    3    3    0    0  0.15650810813E+02  0.44391786235E+02  0.21750074406E+03  0.24049393054E+03  0.91187600000E+02 0.  0.
<mgrwt>
<rscale>  0 0.78668368E+03</rscale>
<asrwt>0</asrwt>
<pdfrwt beam="1">  1        4 0.25140333E-01 0.78668368E+03</pdfrwt>
<pdfrwt beam="2">  1       -4 0.14566076E+00 0.78668368E+03</pdfrwt>
<totfact> 0.96855930E+00</totfact>
</mgrwt>
</event>
<event>
12    1  0.5654846E-011  0.2859742E+04  0.7818608E-02  0.8284957E-01
          2   -1    0    0  501    0  0.00000000000E+00  0.00000000000E+00  0.38749964792E+04  0.38749964792E+04  0.00000000000E+00 0. -1.
         -2   -1    0    0    0  501 -0.00000000000E+00 -0.00000000000E+00 -0.52762126164E+03  0.52762126164E+03  0.00000000000E+00 0.  1.
    9900016    2    1    2    0    0 -0.48833009943E+01  0.21995837121E+03 -0.26633560144E+03  0.78221563403E+03  0.70179848520E+03 0.  0.
         23    2    3    3    0    0  0.52609623397E+02 -0.19378774493E+02 -0.82207487058E+02  0.13548653263E+03  0.91952271434E+02 0.  0.
         23    2    3    3    0    0 -0.13595832628E+03  0.15125365907E+03 -0.28174544771E+03  0.35437351480E+03  0.69553970556E+02 0.  0.
        -15    1    5    5    0    0 -0.12085310304E+03  0.88070700531E+02 -0.20660225321E+03  0.25504198054E+03  0.00000000000E+00 0. -1.
        -15    1    4    4    0    0  0.37756239924E+01  0.17865126858E+02  0.12840805775E+02  0.22322732520E+02  0.00000000000E+00 0. -1.
         15    1    4    4    0    0  0.48833999405E+02 -0.37243901352E+02 -0.95048292833E+02  0.11316380011E+03  0.00000000000E+00 0.  1.
         15    1    5    5    0    0 -0.15105223240E+02  0.63182958540E+02 -0.75143194503E+02  0.99331534264E+02  0.00000000000E+00 0.  1.
        -16    1    3    3    0    0  0.55444939916E+02 -0.66515138720E+02  0.65485491797E+02  0.10856682125E+03  0.00000000000E+00 0.  1.
         16    1    1    2    0    0  0.48833009943E+01 -0.21995837121E+03  0.36137108190E+04  0.36204021068E+04  0.00000000000E+00 0. -1.
    9900018    1    3    3    0    0  0.23020461974E+02  0.15459862535E+03  0.32131841532E+02  0.18378876534E+03  0.91187600000E+02 0.  0.
<mgrwt>
<rscale>  0 0.28597416E+04</rscale>
<asrwt>0</asrwt>
<pdfrwt beam="1">  1        2 0.59615329E+00 0.28597416E+04</pdfrwt>
<pdfrwt beam="2">  1       -2 0.81172504E-01 0.28597416E+04</pdfrwt>
<totfact> 0.49811151E-01</totfact>
</mgrwt>
</event>
<event>
12    1  0.5654846E-011  0.1647787E+04  0.7818608E-02  0.8791716E-01
          2   -1    0    0  501    0  0.00000000000E+00  0.00000000000E+00  0.16204337782E+04  0.16204337782E+04  0.00000000000E+00 0. -1.
         -2   -1    0    0    0  501 -0.00000000000E+00 -0.00000000000E+00 -0.41890069059E+03  0.41890069059E+03  0.00000000000E+00 0.  1.
    9900016    2    1    2    0    0  0.28530808138E+03  0.59827721044E+03  0.61956342786E+03  0.11572772106E+04  0.71839778621E+03 0.  0.
         23    2    3    3    0    0  0.16822579805E+03 -0.30609824480E+02  0.14217219455E+03  0.24070703184E+03  0.92141531304E+02 0.  0.
         23    2    3    3    0    0  0.59676984393E+02  0.37008455326E+03  0.23757771544E+03  0.45056336693E+03  0.77719094944E+02 0.  0.
        -15    1    5    5    0    0 -0.16981961896E+02  0.10938624817E+03  0.59476542671E+02  0.12566303134E+03  0.00000000000E+00 0.  1.
        -15    1    4    4    0    0  0.74498608788E+02 -0.41470515881E+02  0.22255410008E+02  0.88120086663E+02  0.00000000000E+00 0.  1.
         15    1    5    5    0    0  0.76658946289E+02  0.26069830509E+03  0.17810117277E+03  0.32490033559E+03  0.00000000000E+00 0. -1.
         15    1    4    4    0    0  0.93727189263E+02  0.10860691401E+02  0.11991678454E+03  0.15258694518E+03  0.00000000000E+00 0. -1.
        -16    1    3    3    0    0 -0.81834334547E+02  0.14540510311E+02 -0.34627271415E+01  0.83188191651E+02  0.00000000000E+00 0.  1.
         16    1    1    2    0    0 -0.28530808138E+03 -0.59827721044E+03  0.58196965970E+03  0.88205725814E+03  0.00000000000E+00 0. -1.
    9900018    1    3    3    0    0  0.13923963349E+03  0.24426197135E+03  0.24327624502E+03  0.38281862019E+03  0.91187600000E+02 0.  0.
<mgrwt>
<rscale>  0 0.16477874E+04</rscale>
<asrwt>0</asrwt>
<pdfrwt beam="1">  1        2 0.24929750E+00 0.16477874E+04</pdfrwt>
<pdfrwt beam="2">  1       -2 0.64446261E-01 0.16477874E+04</pdfrwt>
<totfact> 0.23074615E+01</totfact>
</mgrwt>
</event>
<event>
12    1  0.5654846E-011  0.1143354E+04  0.7818608E-02  0.9163937E-01
         -1   -1    0    0    0  501 -0.00000000000E+00  0.00000000000E+00  0.32157934708E+03  0.32157934708E+03  0.00000000000E+00 0.  1.
          1   -1    0    0  501    0  0.00000000000E+00 -0.00000000000E+00 -0.10162796508E+04  0.10162796508E+04  0.00000000000E+00 0. -1.
    9900016    2    1    2    0    0  0.20338448037E+03 -0.26529393972E+03 -0.33524072527E+03  0.84698497144E+03  0.70231835848E+03 0.  0.
         23    2    3    3    0    0  0.12215359056E+03 -0.62989151923E+02 -0.64394463754E+02  0.18060491615E+03  0.97889508278E+02 0.  0.
         23    2    3    3    0    0 -0.32241707521E+02  0.80686782329E+02 -0.64182499705E+02  0.15014946463E+03  0.10428606768E+03 0.  0.
        -15    1    5    5    0    0 -0.28789737236E+02  0.60126920913E+02  0.14947495212E+02  0.68319274014E+02  0.00000000000E+00 0.  1.
        -15    1    4    4    0    0 -0.11830285686E+02 -0.11594782115E+02  0.96027891532E+01  0.19147015204E+02  0.00000000000E+00 0. -1.
         15    1    5    5    0    0 -0.34519702848E+01  0.20559861416E+02 -0.79129994918E+02  0.81830190614E+02  0.00000000000E+00 0. -1.
         15    1    4    4    0    0  0.13398387624E+03 -0.51394369809E+02 -0.73997252908E+02  0.16145790095E+03  0.00000000000E+00 0.  1.
        -16    1    3    3    0    0 -0.12253284974E+03 -0.12235425392E+03 -0.68468978546E+02  0.18620650832E+03  0.00000000000E+00 0.  1.
         16    1    1    2    0    0 -0.20338448037E+03  0.26529393972E+03 -0.35945957849E+03  0.49087402648E+03  0.00000000000E+00 0. -1.
    9900018    1    3    3    0    0  0.23600544707E+03 -0.16063731620E+03 -0.13819478326E+03  0.33002408233E+03  0.91187600000E+02 0.  0.
<mgrwt>
<rscale>  0 0.11433539E+04</rscale>
<asrwt>0</asrwt>
<pdfrwt beam="1">  1        1 0.15635071E+00 0.11433539E+04</pdfrwt>
<pdfrwt beam="2">  1       -1 0.49473746E-01 0.11433539E+04</pdfrwt>
<totfact> 0.59779444E+01</totfact>
</mgrwt>
</event>
<event>
12    1  0.5654846E-011  0.8607991E+03  0.7818608E-02  0.9475956E-01
          2   -1    0    0  501    0  0.00000000000E+00  0.00000000000E+00  0.33042667095E+03  0.33042667095E+03  0.00000000000E+00 0. -1.
         -2   -1    0    0    0  501 -0.00000000000E+00 -0.00000000000E+00 -0.56061996453E+03  0.56061996453E+03  0.00000000000E+00 0.  1.
    9900016    2    1    2    0    0  0.35306133103E+02  0.61077943741E+02 -0.31089585475E+03  0.78385549021E+03  0.71609786955E+03 0.  0.
         23    2    3    3    0    0  0.72743870231E+02 -0.71908082694E+01 -0.74946962078E+02  0.13898577552E+03  0.91414551870E+02 0.  0.
         23    2    3    3    0    0 -0.18008880340E+02 -0.10978841040E+03  0.91838953761E+02  0.17891116904E+03  0.10581586908E+03 0.  0.
        -15    1    4    4    0    0 -0.19534944338E+02 -0.11258662150E+02 -0.26122306561E+02  0.34507193797E+02  0.00000000000E+00 0. -1.
        -15    1    5    5    0    0 -0.36591000539E+02 -0.69601794559E+02  0.18907061708E+01  0.78656760016E+02  0.00000000000E+00 0.  1.
         15    1    4    4    0    0  0.92278814569E+02  0.40678538803E+01 -0.48824655517E+02  0.10447858173E+03  0.00000000000E+00 0.  1.
         15    1    5    5    0    0  0.18582120199E+02 -0.40186615840E+02  0.89948247590E+02  0.10025440902E+03  0.00000000000E+00 0. -1.
        -16    1    3    3    0    0  0.98756745711E+02  0.63549505144E+02 -0.21935116716E+03  0.24880990527E+03  0.00000000000E+00 0.  1.
         16    1    1    2    0    0 -0.35306133103E+02 -0.61077943741E+02  0.80702561167E+02  0.10719114527E+03  0.00000000000E+00 0. -1.
    9900018    1    3    3    0    0 -0.11818560250E+03  0.11450765727E+03 -0.10843667928E+03  0.21714864038E+03  0.91187600000E+02 0.  0.
<mgrwt>
<rscale>  0 0.86079914E+03</rscale>
<asrwt>0</asrwt>
<pdfrwt beam="1">  1        2 0.50834873E-01 0.86079914E+03</pdfrwt>
<pdfrwt beam="2">  1       -2 0.86249224E-01 0.86079914E+03</pdfrwt>
<totfact> 0.11548410E+02</totfact>
</mgrwt>
</event>
<event>
12    1  0.5654846E-011  0.1361809E+04  0.7818608E-02  0.8981937E-01
          2   -1    0    0  501    0  0.00000000000E+00  0.00000000000E+00  0.80853295622E+03  0.80853295622E+03  0.00000000000E+00 0. -1.
         -2   -1    0    0    0  501 -0.00000000000E+00 -0.00000000000E+00 -0.57342263489E+03  0.57342263489E+03  0.00000000000E+00 0.  1.
    9900016    2    1    2    0    0  0.21689928459E+03 -0.83220368725E+02  0.56707488927E+03  0.97677488600E+03  0.76062100842E+03 0.  0.
         23    2    3    3    0    0  0.86901139075E+02  0.78400637178E+02  0.42077839570E+03  0.44639331435E+03  0.92271690820E+02 0.  0.
         23    2    3    3    0    0  0.16310030633E+03 -0.24939195532E+03  0.91455196012E+02  0.33655995714E+03  0.12692712306E+03 0.  0.
        -15    1    5    5    0    0  0.13875625855E+02  0.48625952709E+01  0.32836509555E+02  0.35977968055E+02  0.00000000000E+00 0.  1.
        -15    1    4    4    0    0  0.46018443790E+02  0.88385364163E+02  0.22399310442E+03  0.24515827662E+03  0.00000000000E+00 0.  1.
         15    1    5    5    0    0  0.14922468048E+03 -0.25425455060E+03  0.58618686457E+02  0.30058198909E+03  0.00000000000E+00 0. -1.
         15    1    4    4    0    0  0.40882695285E+02 -0.99847269851E+01  0.19678529128E+03  0.20123503773E+03  0.00000000000E+00 0. -1.
        -16    1    1    2    0    0 -0.21689928459E+03  0.83220368725E+02 -0.33196456794E+03  0.40518070511E+03  0.00000000000E+00 0.  1.
         16    1    3    3    0    0 -0.65969809248E+02  0.44708867378E+02  0.19764233934E+02  0.82106781069E+02  0.00000000000E+00 0. -1.
    9900018    1    3    3    0    0  0.32867648429E+02  0.43062082044E+02  0.35077063629E+02  0.11171483344E+03  0.91187600000E+02 0.  0.
<mgrwt>
<rscale>  0 0.13618092E+04</rscale>
<asrwt>0</asrwt>
<pdfrwt beam="1">  1        2 0.12438969E+00 0.13618092E+04</pdfrwt>
<pdfrwt beam="2">  1       -2 0.88218867E-01 0.13618092E+04</pdfrwt>
<totfact> 0.36691899E+01</totfact>
</mgrwt>
</event>
<event>
12    1  0.5654846E-011  0.9594672E+03  0.7818608E-02  0.9354153E-01
          2   -1    0    0  501    0  0.00000000000E+00  0.00000000000E+00  0.13355628837E+04  0.13355628837E+04  0.00000000000E+00 0.  1.
         -2   -1    0    0    0  501 -0.00000000000E+00 -0.00000000000E+00 -0.17232008629E+03  0.17232008629E+03  0.00000000000E+00 0. -1.
    9900016    2    1    2    0    0 -0.37127812353E+02  0.66629554213E+02  0.12173200094E+04  0.14143826128E+04  0.71609510425E+03 0.  0.
         23    2    3    3    0    0 -0.49482337008E+02  0.32250333195E+02  0.38431379359E+03  0.39946846510E+03  0.91593542326E+02 0.  0.
         23    2    3    3    0    0  0.10721819622E+02  0.20242238934E+03  0.15594529437E+03  0.26386508231E+03  0.64931238254E+02 0.  0.
        -15    1    4    4    0    0 -0.44608823019E+02  0.60225487803E+02  0.21262546533E+03  0.22544765463E+03  0.00000000000E+00 0. -1.
        -15    1    5    5    0    0  0.16402261078E+02  0.54617967170E+02  0.13694658609E+02  0.58648957200E+02  0.00000000000E+00 0. -1.
         15    1    4    4    0    0 -0.48735139891E+01 -0.27975154608E+02  0.17168832827E+03  0.17402081047E+03  0.00000000000E+00 0.  1.
         15    1    5    5    0    0 -0.56804414565E+01  0.14780442217E+03  0.14225063577E+03  0.20521612511E+03  0.00000000000E+00 0.  1.
        -16    1    3    3    0    0  0.12130210330E+03 -0.40811200107E+02  0.26104836470E+03  0.29073356020E+03  0.00000000000E+00 0.  1.
         16    1    1    2    0    0  0.37127812353E+02 -0.66629554213E+02 -0.54077211930E+02  0.93500357191E+02  0.00000000000E+00 0. -1.
    9900018    1    3    3    0    0 -0.11966939827E+03 -0.12723196822E+03  0.41601255670E+03  0.46031550522E+03  0.91187600000E+02 0.  0.
<mgrwt>
<rscale>  0 0.95946717E+03</rscale>
<asrwt>0</asrwt>
<pdfrwt beam="1">  1        2 0.20547121E+00 0.95946717E+03</pdfrwt>
<pdfrwt beam="2">  1       -2 0.26510783E-01 0.95946717E+03</pdfrwt>
<totfact> 0.20296261E+02</totfact>
</mgrwt>
</event>
<event>
12    1  0.5654846E-011  0.1187107E+04  0.7818608E-02  0.9124217E-01
          1   -1    0    0  501    0  0.00000000000E+00  0.00000000000E+00  0.23715979149E+04  0.23715979149E+04  0.00000000000E+00 0. -1.
         -1   -1    0    0    0  501 -0.00000000000E+00 -0.00000000000E+00 -0.14855207812E+03  0.14855207812E+03  0.00000000000E+00 0.  1.
    9900016    2    1    2    0    0 -0.28284312034E+03 -0.23472112057E+02  0.97320321137E+03  0.12384878850E+04  0.71146087734E+03 0.  0.
         23    2    3    3    0    0 -0.69188262918E+02 -0.43231554521E+02  0.16922928345E+03  0.20951436136E+03  0.92745534700E+02 0.  0.
         23    2    3    3    0    0 -0.10430685149E+03  0.72190066019E+02  0.52468229096E+03  0.55416923077E+03  0.12538223552E+03 0.  0.
        -15    1    5    5    0    0 -0.48926653488E+02 -0.28001286094E+02  0.10526561642E+03  0.11940996376E+03  0.00000000000E+00 0.  1.
        -15    1    4    4    0    0 -0.45262979777E+02  0.11964163292E+02  0.24631347599E+02  0.52901624040E+02  0.00000000000E+00 0.  1.
         15    1    5    5    0    0 -0.55380197998E+02  0.10019135211E+03  0.41941667454E+03  0.43475926701E+03  0.00000000000E+00 0. -1.
         15    1    4    4    0    0 -0.23925283141E+02 -0.55195717813E+02  0.14459793585E+03  0.15661273731E+03  0.00000000000E+00 0. -1.
        -16    1    3    3    0    0 -0.12406203970E+03 -0.73818845158E+02  0.33503966529E+03  0.36481802164E+03  0.00000000000E+00 0.  1.
         16    1    1    2    0    0  0.28284312034E+03  0.23472112057E+02  0.12498426254E+04  0.12816621080E+04  0.00000000000E+00 0. -1.
    9900018    1    3    3    0    0  0.14714033770E+02  0.21388221603E+02 -0.55748028319E+02  0.10998627127E+03  0.91187600000E+02 0.  0.
<mgrwt>
<rscale>  0 0.11871071E+04</rscale>
<asrwt>0</asrwt>
<pdfrwt beam="1">  1        1 0.36486119E+00 0.11871071E+04</pdfrwt>
<pdfrwt beam="2">  1       -1 0.22854168E-01 0.11871071E+04</pdfrwt>
<totfact> 0.27024163E+01</totfact>
</mgrwt>
</event>
<event>
12    1  0.5654846E-011  0.1639559E+04  0.7818608E-02  0.8796608E-01
          1   -1    0    0  501    0  0.00000000000E+00  0.00000000000E+00  0.95280322813E+03  0.95280322813E+03  0.00000000000E+00 0. -1.
         -1   -1    0    0    0  501 -0.00000000000E+00 -0.00000000000E+00 -0.70532729914E+03  0.70532729914E+03  0.00000000000E+00 0.  1.
    9900016    2    1    2    0    0 -0.39965264791E+02  0.34940074833E+03  0.72037946703E+03  0.10687954260E+04  0.70689389637E+03 0.  0.
         23    2    3    3    0    0  0.33857487284E+02  0.23078721445E+03  0.40309980405E+03  0.47474863341E+03  0.92128959075E+02 0.  0.
         23    2    3    3    0    0 -0.14137120957E+03  0.58062915518E+02  0.24750180019E+03  0.29854791693E+03  0.67205628879E+02 0.  0.
        -15    1    4    4    0    0 -0.12136540737E+02  0.15845770848E+03  0.30893268422E+03  0.34741264280E+03  0.00000000000E+00 0. -1.
        -15    1    5    5    0    0 -0.93902934654E+02  0.58062790774E+02  0.12288290617E+03  0.16519460475E+03  0.00000000000E+00 0.  1.
         15    1    4    4    0    0  0.45994028021E+02  0.72329505974E+02  0.94167119835E+02  0.12733599062E+03  0.00000000000E+00 0.  1.
         15    1    5    5    0    0 -0.47468274914E+02  0.12474359259E-03  0.12461889402E+03  0.13335331218E+03  0.00000000000E+00 0. -1.
        -16    1    1    2    0    0  0.39965264791E+02 -0.34940074833E+03 -0.47290353804E+03  0.58933510129E+03  0.00000000000E+00 0.  1.
         16    1    3    3    0    0  0.55494998878E+02  0.53284223413E+02  0.15299387660E+03  0.17124844420E+03  0.00000000000E+00 0. -1.
    9900018    1    3    3    0    0  0.12053458615E+02  0.72663949491E+01 -0.83216013812E+02  0.12425043142E+03  0.91187600000E+02 0.  0.
<mgrwt>
<rscale>  0 0.16395586E+04</rscale>
<asrwt>0</asrwt>
<pdfrwt beam="1">  1        1 0.14658511E+00 0.16395586E+04</pdfrwt>
<pdfrwt beam="2">  1       -1 0.10851189E+00 0.16395586E+04</pdfrwt>
<totfact> 0.12432513E+01</totfact>
</mgrwt>
</event>
<event>
12    1  0.5654846E-011  0.9661352E+03  0.7818608E-02  0.9346487E-01
          2   -1    0    0  501    0  0.00000000000E+00  0.00000000000E+00  0.11089556600E+04  0.11089556600E+04  0.00000000000E+00 0. -1.
         -2   -1    0    0    0  501 -0.00000000000E+00 -0.00000000000E+00 -0.21042708789E+03  0.21042708789E+03  0.00000000000E+00 0.  1.
    9900016    2    1    2    0    0 -0.37063679454E+02 -0.87271603201E+02  0.96200707342E+03  0.12052794211E+04  0.71989639842E+03 0.  0.
         23    2    3    3    0    0 -0.71056209589E+02  0.79368841729E+02  0.40592161016E+03  0.43013772954E+03  0.94327699079E+02 0.  0.
         23    2    3    3    0    0 -0.10504630070E+03  0.12570037584E+02  0.33350180848E+03  0.36752635253E+03  0.11251414312E+03 0.  0.
        -15    1    4    4    0    0  0.21211331707E+01  0.66442804722E+02  0.16078559058E+03  0.17398606738E+03  0.00000000000E+00 0.  1.
        -15    1    5    5    0    0 -0.47867607717E+02  0.35292896039E+02  0.50825330401E+02  0.78231135680E+02  0.00000000000E+00 0.  1.
         15    1    5    5    0    0 -0.57178692986E+02 -0.22722858455E+02  0.28267647808E+03  0.28929521685E+03  0.00000000000E+00 0. -1.
         15    1    4    4    0    0 -0.73177342760E+02  0.12926037006E+02  0.24513601958E+03  0.25615166215E+03  0.00000000000E+00 0. -1.
        -16    1    1    2    0    0  0.37063679454E+02  0.87271603201E+02 -0.63478501333E+02  0.11410332682E+03  0.00000000000E+00 0.  1.
         16    1    3    3    0    0  0.97529400190E+02 -0.12257427021E+03  0.24458074703E+03  0.29044134939E+03  0.00000000000E+00 0. -1.
    9900018    1    3    3    0    0  0.41509430648E+02 -0.56636212307E+02 -0.21997092263E+02  0.11717398960E+03  0.91187600000E+02 0.  0.
<mgrwt>
<rscale>  0 0.96613521E+03</rscale>
<asrwt>0</asrwt>
<pdfrwt beam="1">  1        2 0.17060856E+00 0.96613521E+03</pdfrwt>
<pdfrwt beam="2">  1       -2 0.32373399E-01 0.96613521E+03</pdfrwt>
<totfact> 0.19088868E+02</totfact>
</mgrwt>
</event>
<event>
12    1  0.5654846E-011  0.1450831E+04  0.7818608E-02  0.8917825E-01
         -1   -1    0    0    0  501 -0.00000000000E+00  0.00000000000E+00  0.35374598537E+03  0.35374598537E+03  0.00000000000E+00 0.  1.
          1   -1    0    0  501    0  0.00000000000E+00 -0.00000000000E+00 -0.14875855376E+04  0.14875855376E+04  0.00000000000E+00 0. -1.
    9900016    2    1    2    0    0 -0.16112556806E+03  0.22088890728E+03 -0.94456111897E+02  0.76658909147E+03  0.70991796712E+03 0.  0.
         23    2    3    3    0    0  0.23360159299E+01 -0.36148298543E+02 -0.36066503215E+01  0.10413474864E+03  0.97564755371E+02 0.  0.
         23    2    3    3    0    0  0.43488587041E+02  0.12204786341E+03 -0.61635345218E+02  0.17730161914E+03  0.10416338226E+03 0.  0.
        -15    1    5    5    0    0  0.56772633786E+02  0.48787206575E+02  0.80955948624E+01  0.75291846362E+02  0.00000000000E+00 0.  1.
        -15    1    4    4    0    0  0.12258616797E+02  0.26166894415E+02  0.21712470967E+02  0.36144314139E+02  0.00000000000E+00 0.  1.
         15    1    5    5    0    0 -0.13284046745E+02  0.73260656839E+02 -0.69730940080E+02  0.10200977278E+03  0.00000000000E+00 0. -1.
         15    1    4    4    0    0 -0.99226008676E+01 -0.62315192957E+02 -0.25319121289E+02  0.67990434505E+02  0.00000000000E+00 0. -1.
        -16    1    3    3    0    0 -0.13860954033E+02  0.17628746735E+03 -0.15392448799E+03  0.23444006738E+03  0.00000000000E+00 0.  1.
         16    1    1    2    0    0  0.16112556806E+03 -0.22088890728E+03 -0.10393834403E+04  0.10747424315E+04  0.00000000000E+00 0. -1.
    9900018    1    3    3    0    0 -0.19308921699E+03 -0.41298124935E+02  0.12471037164E+03  0.25071265630E+03  0.91187600000E+02 0.  0.
<mgrwt>
<rscale>  0 0.14508307E+04</rscale>
<asrwt>0</asrwt>
<pdfrwt beam="1">  1        1 0.22885931E+00 0.14508307E+04</pdfrwt>
<pdfrwt beam="2">  1       -1 0.54422459E-01 0.14508307E+04</pdfrwt>
<totfact> 0.22098452E+01</totfact>
</mgrwt>
</event>
<event>
11    1  0.5654846E-011  0.1292059E+04  0.7818608E-02  0.9035886E-01
          2   -1    0    0  501    0  0.00000000000E+00  0.00000000000E+00  0.18784968254E+04  0.18784968254E+04  0.00000000000E+00 0. -1.
         -2   -1    0    0    0  501 -0.00000000000E+00 -0.00000000000E+00 -0.22217446788E+03  0.22217446788E+03  0.00000000000E+00 0.  1.
    9900016    2    1    2    0    0 -0.83359242424E+01  0.30703894249E+03  0.54793456810E+03  0.95051222099E+03  0.71337142604E+03 0.  0.
         23    2    3    3    0    0  0.73726620074E+02  0.14997007784E+01  0.13864328330E+03  0.18250057122E+03  0.92987283427E+02 0.  0.
        -15    1    3    3    0    0 -0.31506668065E+02  0.76324143266E+02  0.93462435138E+02  0.12471275700E+03  0.00000000000E+00 0. -1.
        -15    1    4    4    0    0  0.33488551782E+02  0.34503995823E+02  0.11633190138E+03  0.12587740109E+03  0.00000000000E+00 0.  1.
         15    1    3    3    0    0  0.57832612791E+02 -0.56941547336E+02  0.28848610199E+03  0.29968513803E+03  0.00000000000E+00 0. -1.
         15    1    4    4    0    0  0.40238068292E+02 -0.33004295045E+02  0.22311381927E+02  0.56623170123E+02  0.00000000000E+00 0.  1.
        -16    1    3    3    0    0 -0.13480153442E+02  0.10341548171E+03 -0.34884727449E+02  0.10997008958E+03  0.00000000000E+00 0.  1.
         16    1    1    2    0    0  0.83359242424E+01 -0.30703894249E+03  0.11083877894E+04  0.11501590723E+04  0.00000000000E+00 0. -1.
    9900018    1    3    3    0    0 -0.94908335601E+02  0.18274116407E+03  0.62227475113E+02  0.23364366515E+03  0.91187600000E+02 0.  0.
<mgrwt>
<rscale>  0 0.12920589E+04</rscale>
<asrwt>0</asrwt>
<pdfrwt beam="1">  1        2 0.28899950E+00 0.12920589E+04</pdfrwt>
<pdfrwt beam="2">  1       -2 0.34180689E-01 0.12920589E+04</pdfrwt>
<totfact> 0.61379080E+01</totfact>
</mgrwt>
</event>
<event>
12    1  0.5654846E-011  0.9946388E+03  0.7818608E-02  0.9314444E-01
          1   -1    0    0  501    0  0.00000000000E+00  0.00000000000E+00  0.26240230903E+03  0.26240230903E+03  0.00000000000E+00 0. -1.
         -1   -1    0    0    0  501 -0.00000000000E+00 -0.00000000000E+00 -0.94254729239E+03  0.94254729239E+03  0.00000000000E+00 0.  1.
    9900016    2    1    2    0    0 -0.22517466506E+03 -0.36307520658E+02 -0.62775721774E+03  0.97092750027E+03  0.70469796404E+03 0.  0.
         23    2    3    3    0    0 -0.23651425464E+02  0.11321446501E+03 -0.16791349926E+03  0.22326429448E+03  0.90967559829E+02 0.  0.
         23    2    3    3    0    0 -0.23906517798E+03 -0.85837313569E+02 -0.28748395169E+03  0.39084131706E+03  0.74764355953E+02 0.  0.
        -15    1    4    4    0    0  0.14075542395E+02  0.75217740115E+02 -0.14710454955E+03  0.16581790560E+03  0.00000000000E+00 0.  1.
        -15    1    5    5    0    0 -0.22820622315E+02 -0.22209253492E+02 -0.73216639995E+02  0.79841769242E+02  0.00000000000E+00 0. -1.
         15    1    5    5    0    0 -0.21624455566E+03 -0.63628060077E+02 -0.21426731169E+03  0.31099954782E+03  0.00000000000E+00 0.  1.
         15    1    4    4    0    0 -0.37726967859E+02  0.37996724891E+02 -0.20808949713E+02  0.57446388872E+02  0.00000000000E+00 0. -1.
        -16    1    3    3    0    0 -0.99542770079E+01 -0.80976901749E+02  0.60577191793E+02  0.10161664437E+03  0.00000000000E+00 0.  1.
         16    1    1    2    0    0  0.22517466506E+03  0.36307520658E+02 -0.52387765623E+02  0.23402210115E+03  0.00000000000E+00 0. -1.
    9900018    1    3    3    0    0  0.47496215395E+02  0.17292229654E+02 -0.23293695858E+03  0.25520524437E+03  0.91187600000E+02 0.  0.
<mgrwt>
<rscale>  0 0.99463880E+03</rscale>
<asrwt>0</asrwt>
<pdfrwt beam="1">  1        1 0.40369586E-01 0.99463880E+03</pdfrwt>
<pdfrwt beam="2">  1       -1 0.14500727E+00 0.99463880E+03</pdfrwt>
<totfact> 0.40017262E+01</totfact>
</mgrwt>
</event>
<event>
12    1  0.5654846E-011  0.1069140E+04  0.7818608E-02  0.9235804E-01
          1   -1    0    0  501    0  0.00000000000E+00  0.00000000000E+00  0.41674300553E+03  0.41674300553E+03  0.00000000000E+00 0. -1.
         -1   -1    0    0    0  501 -0.00000000000E+00 -0.00000000000E+00 -0.68571017007E+03  0.68571017007E+03  0.00000000000E+00 0.  1.
    9900016    2    1    2    0    0 -0.80527358139E+02 -0.17157702662E+02  0.10083402686E+03  0.72359705076E+03  0.71179080405E+03 0.  0.
         23    2    3    3    0    0 -0.15021253765E+02 -0.39265870644E+02  0.15367840133E+03  0.18680256617E+03  0.97522823124E+02 0.  0.
         23    2    3    3    0    0 -0.54947195513E+02  0.47955943912E+02 -0.18143211013E+03  0.21065744697E+03  0.78358040607E+02 0.  0.
        -15    1    5    5    0    0 -0.26304084682E+02  0.67036588055E+02 -0.11181653459E+03  0.13299904667E+03  0.00000000000E+00 0. -1.
        -15    1    4    4    0    0  0.38574150853E+02 -0.11792853790E+01  0.74342761906E+02  0.83762772613E+02  0.00000000000E+00 0.  1.
         15    1    5    5    0    0 -0.28643110832E+02 -0.19080644142E+02 -0.69615575539E+02  0.77658400296E+02  0.00000000000E+00 0.  1.
         15    1    4    4    0    0 -0.53595404618E+02 -0.38086585265E+02  0.79335639423E+02  0.10303979356E+03  0.00000000000E+00 0. -1.
        -16    1    1    2    0    0  0.80527358139E+02  0.17157702662E+02 -0.36980119140E+03  0.37885612484E+03  0.00000000000E+00 0.  1.
         16    1    3    3    0    0  0.53747984564E+02  0.20989487729E+02  0.18414944736E+03  0.19297777955E+03  0.00000000000E+00 0. -1.
    9900018    1    3    3    0    0 -0.64306893425E+02 -0.46837263659E+02 -0.55561711695E+02  0.13315925807E+03  0.91187600000E+02 0.  0.
<mgrwt>
<rscale>  0 0.10691397E+04</rscale>
<asrwt>0</asrwt>
<pdfrwt beam="1">  1        1 0.64114309E-01 0.10691397E+04</pdfrwt>
<pdfrwt beam="2">  1       -1 0.10549387E+00 0.10691397E+04</pdfrwt>
<totfact> 0.47776068E+01</totfact>
</mgrwt>
</event>
<event>
12    1  0.5654846E-011  0.1299007E+04  0.7818608E-02  0.9030353E-01
         -2   -1    0    0    0  501 -0.00000000000E+00  0.00000000000E+00  0.11805244720E+04  0.11805244720E+04  0.00000000000E+00 0.  1.
          2   -1    0    0  501    0  0.00000000000E+00 -0.00000000000E+00 -0.35734516344E+03  0.35734516344E+03  0.00000000000E+00 0. -1.
    9900016    2    1    2    0    0  0.25577008873E+03  0.20501872936E+03  0.90820632446E+03  0.11992243769E+04  0.71123087719E+03 0.  0.
         23    2    3    3    0    0 -0.21314735215E+02  0.87657486241E+02  0.13675111094E+03  0.18617802417E+03  0.88449067309E+02 0.  0.
         23    2    3    3    0    0 -0.55427054959E+02  0.11637370017E+03  0.36752232520E+03  0.39488260110E+03  0.65150691591E+02 0.  0.
        -15    1    5    5    0    0 -0.55779779878E+02  0.44070870142E+02  0.20583210633E+03  0.21776244266E+03  0.00000000000E+00 0. -1.
        -15    1    4    4    0    0  0.33159924985E+02  0.45309439176E+02  0.48793921442E+02  0.74386643110E+02  0.00000000000E+00 0. -1.
         15    1    5    5    0    0  0.35272491879E+00  0.72302830028E+02  0.16169021888E+03  0.17712015844E+03  0.00000000000E+00 0.  1.
         15    1    4    4    0    0 -0.54474660200E+02  0.42348047065E+02  0.87957189501E+02  0.11179138106E+03  0.00000000000E+00 0.  1.
        -16    1    3    3    0    0  0.10829136671E+03  0.98170453816E+02  0.11054259585E+02  0.14658326903E+03  0.00000000000E+00 0.  1.
         16    1    1    2    0    0 -0.25577008873E+03 -0.20501872936E+03 -0.85027015926E+02  0.33864525852E+03  0.00000000000E+00 0. -1.
    9900018    1    3    3    0    0  0.22422051220E+03 -0.97182910865E+02  0.39287862873E+03  0.47158048259E+03  0.91187600000E+02 0.  0.
<mgrwt>
<rscale>  0 0.12990069E+04</rscale>
<asrwt>0</asrwt>
<pdfrwt beam="1">  1        2 0.54976180E-01 0.12990069E+04</pdfrwt>
<pdfrwt beam="2">  1       -2 0.18161915E+00 0.12990069E+04</pdfrwt>
<totfact> 0.15621452E+01</totfact>
</mgrwt>
</event>
<event>
11    1  0.5654846E-011  0.8728901E+03  0.7818608E-02  0.9460119E-01
         -2   -1    0    0    0  501 -0.00000000000E+00  0.00000000000E+00  0.27416651554E+03  0.27416651554E+03  0.00000000000E+00 0.  1.
          2   -1    0    0  501    0  0.00000000000E+00 -0.00000000000E+00 -0.69477588524E+03  0.69477588524E+03  0.00000000000E+00 0. -1.
    9900016    2    1    2    0    0  0.33135328598E+02 -0.54603380244E+02 -0.21269517395E+03  0.75143885614E+03  0.71787299598E+03 0.  0.
         23    2    3    3    0    0  0.10516060669E+02 -0.86764494684E+02 -0.69164494040E+02  0.14382671682E+03  0.90905072275E+02 0.  0.
        -15    1    4    4    0    0 -0.32518605135E+02 -0.16275935178E+02 -0.41100520733E+00  0.36366669784E+02  0.00000000000E+00 0. -1.
        -15    1    3    3    0    0  0.11599257343E+03  0.10493785194E+02  0.74128037195E+02  0.13805565007E+03  0.00000000000E+00 0.  1.
         15    1    4    4    0    0  0.43034665805E+02 -0.70488559506E+02 -0.68753488832E+02  0.10746004704E+03  0.00000000000E+00 0.  1.
         15    1    3    3    0    0  0.73909583551E+02 -0.24066305216E+02 -0.71687586444E+02  0.10573988669E+03  0.00000000000E+00 0. -1.
        -16    1    3    3    0    0 -0.81884114257E+02  0.14807018131E+03 -0.52206679594E+02  0.17707434640E+03  0.00000000000E+00 0.  1.
         16    1    1    2    0    0 -0.33135328598E+02  0.54603380244E+02 -0.20791419576E+03  0.21750354464E+03  0.00000000000E+00 0. -1.
    9900018    1    3    3    0    0 -0.85398774794E+02 -0.10233654684E+03 -0.93764451067E+02  0.18674225616E+03  0.91187600000E+02 0.  0.
<mgrwt>
<rscale>  0 0.87289010E+03</rscale>
<asrwt>0</asrwt>
<pdfrwt beam="1">  1        2 0.10688860E+00 0.87289010E+03</pdfrwt>
<pdfrwt beam="2">  1       -2 0.42179464E-01 0.87289010E+03</pdfrwt>
<totfact> 0.22116944E+02</totfact>
</mgrwt>
</event>
<event>
12    1  0.5654846E-011  0.9965152E+03  0.7818608E-02  0.9312375E-01
         -1   -1    0    0    0  501 -0.00000000000E+00  0.00000000000E+00  0.41007044030E+03  0.41007044030E+03  0.00000000000E+00 0.  1.
          1   -1    0    0  501    0  0.00000000000E+00 -0.00000000000E+00 -0.60540977308E+03  0.60540977308E+03  0.00000000000E+00 0. -1.
    9900016    2    1    2    0    0  0.18060957742E+02  0.24054319487E+03 -0.10955825884E+03  0.75946142611E+03  0.71175235783E+03 0.  0.
         23    2    3    3    0    0  0.11704598511E+03  0.20404777244E+03  0.39066866914E+02  0.25538024382E+03  0.91419870775E+02 0.  0.
         23    2    3    3    0    0 -0.12480383705E+03 -0.30002144933E+02 -0.18266159107E+03  0.24695648847E+03  0.10557520495E+03 0.  0.
        -15    1    4    4    0    0  0.63956837059E+02  0.81149461253E+02  0.60602026616E+02  0.11978446351E+03  0.00000000000E+00 0.  1.
        -15    1    5    5    0    0 -0.10443132021E+03  0.16223915735E+02 -0.15961452196E+03  0.19143121925E+03  0.00000000000E+00 0.  1.
         15    1    4    4    0    0  0.53089148053E+02  0.12289831119E+03 -0.21535159702E+02  0.13559578031E+03  0.00000000000E+00 0. -1.
         15    1    5    5    0    0 -0.20372516841E+02 -0.46226060668E+02 -0.23047069117E+02  0.55525269222E+02  0.00000000000E+00 0. -1.
        -16    1    1    2    0    0 -0.18060957742E+02 -0.24054319487E+03 -0.85781073933E+02  0.25601878728E+03  0.00000000000E+00 0.  1.
         16    1    3    3    0    0  0.37150730365E+02 -0.11686055843E+02 -0.81343007205E+02  0.90185505981E+02  0.00000000000E+00 0. -1.
    9900018    1    3    3    0    0 -0.11331920681E+02  0.78183623207E+02  0.11537947252E+03  0.16693918784E+03  0.91187600000E+02 0.  0.
<mgrwt>
<rscale>  0 0.99651523E+03</rscale>
<asrwt>0</asrwt>
<pdfrwt beam="1">  1        1 0.93139964E-01 0.99651523E+03</pdfrwt>
<pdfrwt beam="2">  1       -1 0.63087761E-01 0.99651523E+03</pdfrwt>
<totfact> 0.86413599E+01</totfact>
</mgrwt>
</event>
<event>
12    1  0.5654846E-011  0.9887266E+03  0.7818608E-02  0.9320996E-01
         -1   -1    0    0    0  501 -0.00000000000E+00  0.00000000000E+00  0.42356734037E+03  0.42356734037E+03  0.00000000000E+00 0.  1.
          1   -1    0    0  501    0  0.00000000000E+00 -0.00000000000E+00 -0.57699226849E+03  0.57699226849E+03  0.00000000000E+00 0. -1.
    9900016    2    1    2    0    0 -0.23812340399E+03  0.26881807697E+01 -0.15641379669E+03  0.76240227602E+03  0.70716474237E+03 0.  0.
         23    2    3    3    0    0 -0.25430597217E+02  0.54491298471E+00  0.15161490647E+02  0.96150567480E+02  0.91477038775E+02 0.  0.
         23    2    3    3    0    0 -0.23363386666E+03  0.82133314168E+02  0.63483235391E+02  0.26681283501E+03  0.76343321922E+02 0.  0.
        -15    1    5    5    0    0 -0.92608613113E+02  0.34859110763E+02  0.64416446192E+02  0.11807197536E+03  0.00000000000E+00 0.  1.
        -15    1    4    4    0    0 -0.36334014222E+02 -0.34850716724E+02 -0.10060075860E+02  0.51341388489E+02  0.00000000000E+00 0.  1.
         15    1    5    5    0    0 -0.14102525355E+03  0.47274203404E+02 -0.93321080121E+00  0.14874085964E+03  0.00000000000E+00 0. -1.
         15    1    4    4    0    0  0.10903417004E+02  0.35395629709E+02  0.25221566506E+02  0.44809178991E+02  0.00000000000E+00 0. -1.
        -16    1    1    2    0    0  0.23812340399E+03 -0.26881807697E+01  0.29888685702E+01  0.23815733283E+03  0.00000000000E+00 0.  1.
         16    1    3    3    0    0 -0.45535821326E+02 -0.16282768438E+03 -0.18536870518E+03  0.25089424602E+03  0.00000000000E+00 0. -1.
    9900018    1    3    3    0    0  0.66476881209E+02  0.82837637995E+02 -0.49689817545E+02  0.14854462752E+03  0.91187600000E+02 0.  0.
<mgrwt>
<rscale>  0 0.98872662E+03</rscale>
<asrwt>0</asrwt>
<pdfrwt beam="1">  1        1 0.88768041E-01 0.98872662E+03</pdfrwt>
<pdfrwt beam="2">  1       -1 0.65164206E-01 0.98872662E+03</pdfrwt>
<totfact> 0.86816751E+01</totfact>
</mgrwt>
</event>
<event>
12    1  0.5654846E-011  0.1270181E+04  0.7818608E-02  0.9053552E-01
         -2   -1    0    0    0  501 -0.00000000000E+00  0.00000000000E+00  0.12746651479E+03  0.12746651479E+03  0.00000000000E+00 0.  1.
          2   -1    0    0  501    0  0.00000000000E+00 -0.00000000000E+00 -0.31642831492E+04  0.31642831492E+04  0.00000000000E+00 0. -1.
    9900016    2    1    2    0    0  0.11947574168E+03 -0.20345598644E+02 -0.92195830739E+03  0.11734215167E+04  0.71569723981E+03 0.  0.
         23    2    3    3    0    0  0.40464981241E+02 -0.15859245881E+03 -0.38017028358E+03  0.42221105526E+03  0.83329154388E+02 0.  0.
         23    2    3    3    0    0  0.20641134149E+03  0.16221832777E+03 -0.20619772827E+03  0.34104113495E+03  0.69793443989E+02 0.  0.
        -15    1    5    5    0    0  0.16607264080E+03  0.13241866446E+03 -0.12753167902E+03  0.24774816623E+03  0.00000000000E+00 0.  1.
        -15    1    4    4    0    0  0.30760273207E+02 -0.66252616300E+02 -0.81508729048E+02  0.10944988116E+03  0.00000000000E+00 0. -1.
         15    1    5    5    0    0  0.40338700696E+02  0.29799663307E+02 -0.78666049254E+02  0.93292968718E+02  0.00000000000E+00 0. -1.
         15    1    4    4    0    0  0.97047080343E+01 -0.92339842511E+02 -0.29866155453E+03  0.31276117410E+03  0.00000000000E+00 0.  1.
        -16    1    3    3    0    0 -0.12651564534E+03  0.95974193330E+01 -0.12437379253E+03  0.17767149248E+03  0.00000000000E+00 0.  1.
         16    1    1    2    0    0 -0.11947574168E+03  0.20345598644E+02 -0.21148583270E+04  0.21183281473E+04  0.00000000000E+00 0. -1.
    9900018    1    3    3    0    0 -0.88493572136E+00 -0.33568886933E+02 -0.21121650301E+03  0.23249783401E+03  0.91187600000E+02 0.  0.
<mgrwt>
<rscale>  0 0.12701813E+04</rscale>
<asrwt>0</asrwt>
<pdfrwt beam="1">  1        2 0.48681274E+00 0.12701813E+04</pdfrwt>
<pdfrwt beam="2">  1       -2 0.19610235E-01 0.12701813E+04</pdfrwt>
<totfact> 0.30184941E+01</totfact>
</mgrwt>
</event>
<event>
12    1  0.5654846E-011  0.1038974E+04  0.7818608E-02  0.9266802E-01
          2   -1    0    0  501    0  0.00000000000E+00  0.00000000000E+00  0.88577183775E+03  0.88577183775E+03  0.00000000000E+00 0. -1.
         -2   -1    0    0    0  501 -0.00000000000E+00 -0.00000000000E+00 -0.30466843233E+03  0.30466843233E+03  0.00000000000E+00 0.  1.
    9900016    2    1    2    0    0  0.14500811826E+03  0.11997141860E+03  0.19876216708E+03  0.76428851521E+03  0.71358954573E+03 0.  0.
         23    2    3    3    0    0  0.11846464174E+03  0.66972750135E+02  0.26444395992E+02  0.16584852757E+03  0.91034100281E+02 0.  0.
         23    2    3    3    0    0  0.50725249911E+01  0.44393315452E+02 -0.16692746337E+03  0.20160725429E+03  0.10384705094E+03 0.  0.
        -15    1    4    4    0    0  0.10105448017E+03  0.87268746094E+02  0.87980166336E+01  0.13381048952E+03  0.00000000000E+00 0. -1.
        -15    1    5    5    0    0 -0.34173933405E+02  0.88225361354E+01 -0.13549268874E+03  0.14001415489E+03  0.00000000000E+00 0.  1.
         15    1    5    5    0    0  0.39246458396E+02  0.35570779316E+02 -0.31434774633E+02  0.61593099403E+02  0.00000000000E+00 0. -1.
         15    1    4    4    0    0  0.17410161566E+02 -0.20295995959E+02  0.17646379358E+02  0.32038038051E+02  0.00000000000E+00 0.  1.
        -16    1    3    3    0    0 -0.20056855255E+02 -0.73478732604E+02  0.13394407766E+03  0.15408574732E+03  0.00000000000E+00 0.  1.
         16    1    1    2    0    0 -0.14500811826E+03 -0.11997141860E+03  0.38234123834E+03  0.42615175487E+03  0.00000000000E+00 0. -1.
    9900018    1    3    3    0    0  0.41527806788E+02  0.82084085614E+02  0.20530115680E+03  0.24274698603E+03  0.91187600000E+02 0.  0.
<mgrwt>
<rscale>  0 0.10389740E+04</rscale>
<asrwt>0</asrwt>
<pdfrwt beam="1">  1        2 0.13627259E+00 0.10389740E+04</pdfrwt>
<pdfrwt beam="2">  1       -2 0.46872067E-01 0.10389740E+04</pdfrwt>
<totfact> 0.12885361E+02</totfact>
</mgrwt>
</event>
<event>
12    1  0.5654846E-011  0.8929721E+03  0.7818608E-02  0.9434410E-01
         -1   -1    0    0    0  501 -0.00000000000E+00  0.00000000000E+00  0.28727059398E+03  0.28727059398E+03  0.00000000000E+00 0.  1.
          1   -1    0    0  501    0  0.00000000000E+00 -0.00000000000E+00 -0.69394429320E+03  0.69394429320E+03  0.00000000000E+00 0. -1.
    9900016    2    1    2    0    0 -0.37403307456E+02 -0.14122364400E+03 -0.33907114356E+03  0.82023901767E+03  0.73244773239E+03 0.  0.
         23    2    3    3    0    0  0.44764119826E+02 -0.40270273263E+02 -0.13070355491E+03  0.17076258233E+03  0.91928879716E+02 0.  0.
         23    2    3    3    0    0  0.12728562217E+03 -0.20178987015E+03 -0.79016582441E+02  0.25921293065E+03  0.63458189476E+02 0.  0.
        -15    1    4    4    0    0  0.23042059305E+02  0.26919722258E+02 -0.23955372579E+02  0.42772278626E+02  0.00000000000E+00 0.  1.
        -15    1    5    5    0    0  0.36152621280E+02 -0.54437672931E+02  0.71016918532E+01  0.65733600896E+02  0.00000000000E+00 0.  1.
         15    1    4    4    0    0  0.21722060521E+02 -0.67189995521E+02 -0.10674818233E+03  0.12799030371E+03  0.00000000000E+00 0. -1.
         15    1    5    5    0    0  0.91133000892E+02 -0.14735219722E+03 -0.86118274294E+02  0.19347932976E+03  0.00000000000E+00 0. -1.
        -16    1    1    2    0    0  0.37403307456E+02  0.14122364400E+03 -0.67602555656E+02  0.16097586951E+03  0.00000000000E+00 0.  1.
         16    1    3    3    0    0 -0.20397998061E+03  0.14662422263E+03 -0.39703008112E+02  0.25432818170E+03  0.00000000000E+00 0. -1.
    9900018    1    3    3    0    0 -0.54730688395E+01 -0.45787723218E+02 -0.89647998090E+02  0.13593532299E+03  0.91187600000E+02 0.  0.
<mgrwt>
<rscale>  0 0.89297209E+03</rscale>
<asrwt>0</asrwt>
<pdfrwt beam="1">  1        1 0.10676066E+00 0.89297209E+03</pdfrwt>
<pdfrwt beam="2">  1       -1 0.44195476E-01 0.89297209E+03</pdfrwt>
<totfact> 0.14087137E+02</totfact>
</mgrwt>
</event>
<event>
12    1  0.5654846E-011  0.1062585E+04  0.7818608E-02  0.9242447E-01
          1   -1    0    0  501    0  0.00000000000E+00  0.00000000000E+00  0.17135721311E+04  0.17135721311E+04  0.00000000000E+00 0. -1.
         -1   -1    0    0    0  501 -0.00000000000E+00 -0.00000000000E+00 -0.16472699491E+03  0.16472699491E+03  0.00000000000E+00 0.  1.
    9900016    2    1    2    0    0 -0.27558808541E+03  0.73630686261E+02  0.10024134915E+04  0.12618919448E+04  0.71145498911E+03 0.  0.
         23    2    3    3    0    0 -0.30477271899E+03 -0.66427044592E+02  0.34889307219E+03  0.47539518590E+03  0.83517929004E+02 0.  0.
         23    2    3    3    0    0 -0.48828368549E+02  0.31266145237E+02  0.36854731615E+03  0.38941583130E+03  0.11160548378E+03 0.  0.
        -15    1    5    5    0    0 -0.64359440949E+02 -0.15548276681E+01  0.33092688397E+03  0.33713077234E+03  0.00000000000E+00 0. -1.
        -15    1    4    4    0    0 -0.14132059518E+03  0.70900796814E+01  0.18166702264E+03  0.23027089909E+03  0.00000000000E+00 0.  1.
         15    1    5    5    0    0  0.15531072400E+02  0.32820972905E+02  0.37620432185E+02  0.52285058957E+02  0.00000000000E+00 0.  1.
         15    1    4    4    0    0 -0.16345212381E+03 -0.73517124274E+02  0.16722604955E+03  0.24512428682E+03  0.00000000000E+00 0. -1.
        -16    1    1    2    0    0  0.27558808541E+03 -0.73630686261E+02  0.54643164464E+03  0.61640718120E+03  0.00000000000E+00 0.  1.
         16    1    3    3    0    0 -0.43849060220E+02  0.11255378937E+03  0.15766910087E+03  0.19862185417E+03  0.00000000000E+00 0. -1.
    9900018    1    3    3    0    0  0.12186206235E+03 -0.37622037557E+01  0.12730400229E+03  0.19845907339E+03  0.91187600000E+02 0.  0.
<mgrwt>
<rscale>  0 0.10625847E+04</rscale>
<asrwt>0</asrwt>
<pdfrwt beam="1">  1        1 0.26362647E+00 0.10625847E+04</pdfrwt>
<pdfrwt beam="2">  1       -1 0.25342616E-01 0.10625847E+04</pdfrwt>
<totfact> 0.63826738E+01</totfact>
</mgrwt>
</event>
<event>
12    1  0.5654846E-011  0.8709156E+03  0.7818608E-02  0.9462687E-01
         -2   -1    0    0    0  501 -0.00000000000E+00  0.00000000000E+00  0.66817415064E+03  0.66817415064E+03  0.00000000000E+00 0.  1.
          2   -1    0    0  501    0  0.00000000000E+00 -0.00000000000E+00 -0.28379349167E+03  0.28379349167E+03  0.00000000000E+00 0. -1.
    9900016    2    1    2    0    0 -0.11501948704E+03  0.59478179429E+02  0.23285813929E+03  0.75265329211E+03  0.70391542735E+03 0.  0.
         23    2    3    3    0    0 -0.79671432542E+02 -0.80184973567E+02 -0.69966662614E+02  0.16155810488E+03  0.91806972644E+02 0.  0.
         23    2    3    3    0    0 -0.37694478975E+02  0.12151594489E+03  0.16367367381E+03  0.21878153489E+03  0.69923457476E+02 0.  0.
        -15    1    5    5    0    0 -0.25873674737E+02  0.75595343950E+02  0.46664151904E+02  0.92529163750E+02  0.00000000000E+00 0.  1.
        -15    1    4    4    0    0 -0.92686266975E+02 -0.57829975217E+02 -0.28869559790E+02  0.11299779468E+03  0.00000000000E+00 0.  1.
         15    1    4    4    0    0  0.13014834433E+02 -0.22354998350E+02 -0.41097102824E+02  0.48560310204E+02  0.00000000000E+00 0. -1.
         15    1    5    5    0    0 -0.11820804239E+02  0.45920600938E+02  0.11700952190E+03  0.12625237114E+03  0.00000000000E+00 0. -1.
        -16    1    1    2    0    0  0.11501948704E+03 -0.59478179429E+02  0.15152251968E+03  0.19931435020E+03  0.00000000000E+00 0.  1.
         16    1    3    3    0    0  0.25962121655E+02  0.15980680593E+03  0.11915741676E+03  0.20102421981E+03  0.00000000000E+00 0. -1.
    9900018    1    3    3    0    0 -0.23615697180E+02 -0.14165959782E+03  0.19993711340E+02  0.17128943252E+03  0.91187600000E+02 0.  0.
<mgrwt>
<rscale>  0 0.87091555E+03</rscale>
<asrwt>0</asrwt>
<pdfrwt beam="1">  1        2 0.43660537E-01 0.87091555E+03</pdfrwt>
<pdfrwt beam="2">  1       -2 0.10279602E+00 0.87091555E+03</pdfrwt>
<totfact> 0.90752827E+01</totfact>
</mgrwt>
</event>
<event>
12    1  0.5654846E-011  0.1085530E+04  0.7818608E-02  0.9219411E-01
          2   -1    0    0  501    0  0.00000000000E+00  0.00000000000E+00  0.11883584050E+03  0.11883584050E+03  0.00000000000E+00 0.  1.
         -2   -1    0    0    0  501 -0.00000000000E+00 -0.00000000000E+00 -0.24789994042E+04  0.24789994042E+04  0.00000000000E+00 0. -1.
    9900016    2    1    2    0    0 -0.78488598282E+02  0.30957503748E+03 -0.17122292464E+04  0.18754668875E+04  0.69544941594E+03 0.  0.
         23    2    3    3    0    0 -0.97359922001E+02 -0.56928535560E+02 -0.26889955717E+03  0.30508750153E+03  0.89730703616E+02 0.  0.
         23    2    3    3    0    0  0.47464984554E+02  0.62004983754E+02 -0.74377285206E+03  0.75587946163E+03  0.10980966390E+03 0.  0.
        -15    1    5    5    0    0 -0.15514232659E+02  0.69599461332E+02 -0.39337492618E+03  0.39978570382E+03  0.00000000000E+00 0.  1.
        -15    1    4    4    0    0 -0.31193382352E+02 -0.48766238280E+02 -0.50773958715E+02  0.77001090785E+02  0.00000000000E+00 0.  1.
         15    1    5    5    0    0  0.62979217213E+02 -0.75944775784E+01 -0.35039792588E+03  0.35609375781E+03  0.00000000000E+00 0. -1.
         15    1    4    4    0    0 -0.66166539649E+02 -0.81622972799E+01 -0.21812559845E+03  0.22808641074E+03  0.00000000000E+00 0. -1.
        -16    1    3    3    0    0  0.14504954927E+02  0.29954795020E+03 -0.60910544153E+03  0.67893210786E+03  0.00000000000E+00 0.  1.
         16    1    1    2    0    0  0.78488598282E+02 -0.30957503748E+03 -0.64793431726E+03  0.72236835712E+03  0.00000000000E+00 0. -1.
    9900018    1    3    3    0    0 -0.43098615763E+02  0.49506390844E+01 -0.90451395658E+02  0.13556781653E+03  0.91187600000E+02 0.  0.
<mgrwt>
<rscale>  0 0.10855302E+04</rscale>
<asrwt>0</asrwt>
<pdfrwt beam="1">  1        2 0.18282438E-01 0.10855302E+04</pdfrwt>
<pdfrwt beam="2">  1       -2 0.38138451E+00 0.10855302E+04</pdfrwt>
<totfact> 0.31573292E+00</totfact>
</mgrwt>
</event>
<event>
12    1  0.5654846E-011  0.1122774E+04  0.7818608E-02  0.9183275E-01
         -2   -1    0    0    0  501 -0.00000000000E+00  0.00000000000E+00  0.25468150765E+03  0.25468150765E+03  0.00000000000E+00 0.  1.
          2   -1    0    0  501    0  0.00000000000E+00 -0.00000000000E+00 -0.12374494341E+04  0.12374494341E+04  0.00000000000E+00 0. -1.
    9900016    2    1    2    0    0 -0.93813715497E+02  0.13835933859E+03 -0.10798514698E+04  0.12988189293E+04  0.70207342515E+03 0.  0.
         23    2    3    3    0    0  0.64135003861E+01  0.20981375204E+02 -0.87227320148E+02  0.12742849677E+03  0.90266634574E+02 0.  0.
         23    2    3    3    0    0 -0.21487375871E+03  0.94691201532E+01 -0.36204592231E+03  0.43848968722E+03  0.12221112683E+03 0.  0.
        -15    1    5    5    0    0 -0.88693698585E+02 -0.32157654498E+02 -0.69484345047E+02  0.11716979610E+03  0.00000000000E+00 0. -1.
        -15    1    4    4    0    0 -0.35483548723E+02  0.19267777703E+02 -0.13433905487E+02  0.42553487568E+02  0.00000000000E+00 0.  1.
         15    1    5    5    0    0 -0.12618006013E+03  0.41626774651E+02 -0.29256157726E+03  0.32131989112E+03  0.00000000000E+00 0.  1.
         15    1    4    4    0    0  0.41897049109E+02  0.17135975014E+01 -0.73793414661E+02  0.84875009206E+02  0.00000000000E+00 0. -1.
        -16    1    1    2    0    0  0.93813715497E+02 -0.13835933859E+03  0.97083543366E+02  0.19331201251E+03  0.00000000000E+00 0.  1.
         16    1    3    3    0    0  0.15057453168E+03  0.16093777512E+03 -0.55790948826E+03  0.59986386301E+03  0.00000000000E+00 0. -1.
    9900018    1    3    3    0    0 -0.35927988856E+02 -0.53028931888E+02 -0.72668739122E+02  0.13303688225E+03  0.91187600000E+02 0.  0.
<mgrwt>
<rscale>  0 0.11227742E+04</rscale>
<asrwt>0</asrwt>
<pdfrwt beam="1">  1        2 0.19037684E+00 0.11227742E+04</pdfrwt>
<pdfrwt beam="2">  1       -2 0.39181770E-01 0.11227742E+04</pdfrwt>
<totfact> 0.10977886E+02</totfact>
</mgrwt>
</event>
<event>
11    1  0.5654846E-011  0.9703870E+03  0.7818608E-02  0.9341634E-01
          1   -1    0    0  501    0  0.00000000000E+00  0.00000000000E+00  0.12352366975E+04  0.12352366975E+04  0.00000000000E+00 0. -1.
         -1   -1    0    0    0  501 -0.00000000000E+00 -0.00000000000E+00 -0.19058108011E+03  0.19058108011E+03  0.00000000000E+00 0.  1.
    9900016    2    1    2    0    0 -0.59484582485E+02 -0.19705661761E+03  0.67578402433E+03  0.10034009476E+04  0.71257258440E+03 0.  0.
         23    2    3    3    0    0  0.31324071196E+02  0.18365479567E+01  0.28852654604E+03  0.30416024706E+03  0.91001746039E+02 0.  0.
        -15    1    4    4    0    0 -0.16872563390E+01 -0.41504436356E+02  0.13554291025E+03  0.14176510709E+03  0.00000000000E+00 0.  1.
        -15    1    3    3    0    0 -0.96408763360E+02 -0.35388723889E+02  0.18041746837E+03  0.20759931196E+03  0.00000000000E+00 0.  1.
         15    1    3    3    0    0 -0.58528169824E+02 -0.59206271507E+02  0.14495268201E+03  0.16715923328E+03  0.00000000000E+00 0. -1.
         15    1    4    4    0    0  0.33011327535E+02  0.43340984312E+02  0.15298363579E+03  0.16239513997E+03  0.00000000000E+00 0. -1.
        -16    1    3    3    0    0 -0.19781580391E+02 -0.78105749091E+01 -0.98047782816E+02  0.10032788106E+03  0.00000000000E+00 0.  1.
         16    1    1    2    0    0  0.59484582485E+02  0.19705661761E+03  0.36887159304E+03  0.42241682998E+03  0.00000000000E+00 0. -1.
    9900018    1    3    3    0    0  0.83909859894E+02 -0.96487595261E+02  0.15993511073E+03  0.22415427425E+03  0.91187600000E+02 0.  0.
<mgrwt>
<rscale>  0 0.97038702E+03</rscale>
<asrwt>0</asrwt>
<pdfrwt beam="1">  1        1 0.19003641E+00 0.97038702E+03</pdfrwt>
<pdfrwt beam="2">  1       -1 0.29320167E-01 0.97038702E+03</pdfrwt>
<totfact> 0.10733357E+02</totfact>
</mgrwt>
</event>
