<event>
12    1  0.2625342E-012  0.3079252E+04  0.7818608E-02  0.8221455E-01
          1   -1    0    0  501    0  0.00000000000E+00  0.00000000000E+00  0.39588796039E+04  0.39588796039E+04  0.00000000000E+00 0. -1.
         -1   -1    0    0    0  501 -0.00000000000E+00 -0.00000000000E+00 -0.59876747807E+03  0.59876747807E+03  0.00000000000E+00 0.  1.
         23    2    1    2    0    0 -0.16123463645E+03 -0.63788551565E+02  0.21505751898E+03  0.29748821748E+03  0.11038077627E+03 0.  0.
    9900016    2    1    2    0    0  0.30143057149E+03  0.20948752097E+03  0.16473444557E+04  0.27488618101E+04  0.21697354872E+04 0.  0.
        -24    2    4    4    0    0  0.28843481309E+03 -0.36224938993E+03  0.18135231606E+04  0.18733591499E+04  0.78670124346E+02 0.  0.
        -15    1    4    4    0    0 -0.28909842201E+03  0.41837163785E+03 -0.10749990819E+03  0.51977779409E+03  0.00000000000E+00 0.  1.
        -15    1    3    3    0    0 -0.91521159972E+02  0.20921765472E+02  0.11974414444E+03  0.15215946609E+03  0.00000000000E+00 0.  1.
         15    1    5    5    0    0  0.12373315977E+03 -0.19198600593E+03  0.76269541639E+03  0.79616130242E+03  0.00000000000E+00 0. -1.
         15    1    3    3    0    0 -0.69713476483E+02 -0.84710317037E+02  0.95313374539E+02  0.14532875139E+03  0.00000000000E+00 0. -1.
        -16    1    5    5    0    0  0.16470165331E+03 -0.17026338401E+03  0.10508277442E+04  0.10771978474E+04  0.00000000000E+00 0.  1.
         16    1    1    2    0    0 -0.14019593504E+03 -0.14569896940E+03  0.14977101511E+04  0.15112970544E+04  0.00000000000E+00 0. -1.
    9900018    1    4    4    0    0  0.30209418041E+03  0.15336527305E+03 -0.58678796664E+02  0.35572486614E+03  0.91187600000E+02 0.  0.
<mgrwt>
<rscale>  0 0.30792521E+04</rscale>
<asrwt>0</asrwt>
<pdfrwt beam="1">  1        1 0.60905838E+00 0.30792521E+04</pdfrwt>
<pdfrwt beam="2">  1       -1 0.92118076E-01 0.30792521E+04</pdfrwt>
<totfact> 0.10098316E-01</totfact>
</mgrwt>
</event>
<event>
11    1  0.2625342E-012  0.3475168E+04  0.7818608E-02  0.8119700E-01
         -1   -1    0    0    0  501 -0.00000000000E+00  0.00000000000E+00  0.16547275570E+04  0.16547275570E+04  0.00000000000E+00 0.  1.
          1   -1    0    0  501    0  0.00000000000E+00 -0.00000000000E+00 -0.18245898020E+04  0.18245898020E+04  0.00000000000E+00 0. -1.
    9900016    2    1    2    0    0  0.55002188361E+03 -0.53898221701E+03  0.47878480704E+03  0.23781690645E+04  0.21985056982E+04 0.  0.
        -24    2    3    3    0    0 -0.22564013190E+03 -0.10155127410E+04  0.40623782129E+02  0.10441476891E+04  0.80090628420E+02 0.  0.
        -15    1    1    2    0    0 -0.77328672044E+02  0.26497320471E+03 -0.16562722789E+03  0.32190511234E+03  0.00000000000E+00 0.  1.
        -15    1    3    3    0    0  0.24237085250E+03 -0.15327430968E+03 -0.14310550819E+03  0.32049310542E+03  0.00000000000E+00 0.  1.
         15    1    1    2    0    0  0.20045977689E+02  0.44464371773E+02 -0.10899970331E+03  0.11941464274E+03  0.00000000000E+00 0. -1.
         15    1    4    4    0    0 -0.10092826506E+03 -0.37046650877E+03 -0.19127417731E+02  0.38444480347E+03  0.00000000000E+00 0. -1.
        -16    1    4    4    0    0 -0.12471186684E+03 -0.64504623224E+03  0.59751199860E+02  0.65970288566E+03  0.00000000000E+00 0.  1.
         16    1    1    2    0    0 -0.49273918926E+03  0.22954464053E+03 -0.37402012079E+03  0.65982853938E+03  0.00000000000E+00 0. -1.
    9900018    1    3    3    0    0  0.53329116301E+03  0.62980483368E+03  0.58126653311E+03  0.10135282699E+04  0.91187600000E+02 0.  0.
<mgrwt>
<rscale>  0 0.34751685E+04</rscale>
<asrwt>0</asrwt>
<pdfrwt beam="1">  1        1 0.28070612E+00 0.34751685E+04</pdfrwt>
<pdfrwt beam="2">  1       -1 0.25457347E+00 0.34751685E+04</pdfrwt>
<totfact> 0.20860583E-01</totfact>
</mgrwt>
</event>
<event>
12    1  0.2625342E-012  0.3112265E+04  0.7818608E-02  0.8789730E-01
         -2   -1    0    0    0  501 -0.00000000000E+00  0.00000000000E+00  0.14326916612E+04  0.14326916612E+04  0.00000000000E+00 0.  1.
          2   -1    0    0  501    0  0.00000000000E+00 -0.00000000000E+00 -0.24165418625E+04  0.24165418625E+04  0.00000000000E+00 0. -1.
         23    2    1    2    0    0 -0.21507424192E+03 -0.49898711756E+02 -0.67863946539E+03  0.72203853532E+03  0.10973290993E+03 0.  0.
    9900016    2    1    2    0    0  0.62342431115E+03 -0.28067266665E+03  0.30393115526E+03  0.23227815009E+04  0.21989781118E+04 0.  0.
        -24    2    4    4    0    0  0.41896867628E+03 -0.11676538605E+03 -0.91868402369E+03  0.10195063251E+04  0.79018381049E+02 0.  0.
        -15    1    4    4    0    0 -0.63508604634E+02 -0.11413897276E+03  0.64522095653E+03  0.65830929715E+03  0.00000000000E+00 0.  1.
        -15    1    3    3    0    0 -0.13969456935E+03 -0.48812741461E+02 -0.57589998427E+03  0.59460747416E+03  0.00000000000E+00 0. -1.
         15    1    3    3    0    0 -0.75379672571E+02 -0.10859702954E+01 -0.10273948112E+03  0.12743106116E+03  0.00000000000E+00 0.  1.
         15    1    5    5    0    0  0.39168021235E+02  0.61828555470E+01 -0.12403207579E+03  0.13021642529E+03  0.00000000000E+00 0. -1.
        -16    1    5    5    0    0  0.37980065505E+03 -0.12294824160E+03 -0.79465194790E+03  0.88928989986E+03  0.00000000000E+00 0.  1.
         16    1    1    2    0    0 -0.40835006922E+03  0.33057137840E+03 -0.60914189119E+03  0.80441348749E+03  0.00000000000E+00 0. -1.
    9900018    1    4    4    0    0  0.26796423950E+03 -0.49768307838E+02  0.57739422242E+03  0.64496587863E+03  0.91187600000E+02 0.  0.
<mgrwt>
<rscale>  0 0.16511434E+04</rscale>
<asrwt>0</asrwt>
<pdfrwt beam="1">  1        2 0.37177566E+00 0.31122652E+04</pdfrwt>
<pdfrwt beam="2">  1       -2 0.22041411E+00 0.31122652E+04</pdfrwt>
<totfact> 0.31741320E-01</totfact>
</mgrwt>
</event>
<event>
12    1  0.2625342E-012  0.4840336E+04  0.7818608E-02  0.8591954E-01
         -1   -1    0    0    0  501 -0.00000000000E+00  0.00000000000E+00  0.24961429882E+04  0.24961429882E+04  0.00000000000E+00 0.  1.
          1   -1    0    0  501    0  0.00000000000E+00 -0.00000000000E+00 -0.25450665240E+04  0.25450665240E+04  0.00000000000E+00 0. -1.
         23    2    1    2    0    0  0.52340729543E+02 -0.89227771930E+02 -0.13224968123E+03  0.20015591658E+03  0.10895533719E+03 0.  0.
    9900016    2    1    2    0    0 -0.12421845903E+04  0.14346439361E+04  0.59374244458E+03  0.29738637642E+04  0.22113592693E+04 0.  0.
        -24    2    4    4    0    0 -0.44270821623E+03 -0.10020321830E+03 -0.23930422241E+03  0.51988995448E+03  0.83593087201E+02 0.  0.
        -15    1    4    4    0    0  0.41450301753E+03  0.10439836097E+03  0.19885212619E+03  0.47143815862E+03  0.00000000000E+00 0.  1.
        -15    1    3    3    0    0 -0.28763288863E+02 -0.27166551440E+02 -0.98975259829E+01  0.40783689435E+02  0.00000000000E+00 0.  1.
         15    1    5    5    0    0 -0.41609541899E+03 -0.76606695979E+02 -0.23524664253E+03  0.48409189871E+03  0.00000000000E+00 0. -1.
         15    1    3    3    0    0  0.81104018406E+02 -0.62061220490E+02 -0.12235215525E+03  0.15937222714E+03  0.00000000000E+00 0. -1.
        -16    1    5    5    0    0 -0.26612797235E+02 -0.23596522319E+02 -0.40575798870E+01  0.35798055768E+02  0.00000000000E+00 0.  1.
         16    1    1    2    0    0  0.11898438608E+04 -0.13454161642E+04 -0.51041629921E+03  0.18671898314E+04  0.00000000000E+00 0. -1.
    9900018    1    4    4    0    0 -0.12139793916E+04  0.14304487935E+04  0.63419454079E+03  0.19825356511E+04  0.91187600000E+02 0.  0.
<mgrwt>
<rscale>  0 0.20316735E+04</rscale>
<asrwt>0</asrwt>
<pdfrwt beam="1">  1        1 0.39154869E+00 0.48403364E+04</pdfrwt>
<pdfrwt beam="2">  1       -1 0.38402200E+00 0.48403364E+04</pdfrwt>
<totfact> 0.84097848E-03</totfact>
</mgrwt>
</event>
<event>
11    1  0.2625342E-012  0.3776701E+04  0.7818608E-02  0.8632641E-01
         -1   -1    0    0    0  501 -0.00000000000E+00  0.00000000000E+00  0.24735614471E+04  0.24735614471E+04  0.00000000000E+00 0.  1.
          1   -1    0    0  501    0  0.00000000000E+00 -0.00000000000E+00 -0.19476828355E+04  0.19476828355E+04  0.00000000000E+00 0. -1.
    9900016    2    1    2    0    0 -0.89107110744E+03 -0.39065434885E+03 -0.55889962739E+03  0.25084106970E+04  0.22434653759E+04 0.  0.
         24    2    3    3    0    0 -0.61859175746E+03 -0.47890065856E+03 -0.81080619771E+03  0.11295120810E+04  0.79932769820E+02 0.  0.
        -15    1    1    2    0    0 -0.12631601091E+03 -0.40284160807E+02  0.31083825240E+03  0.33793337713E+03  0.00000000000E+00 0.  1.
        -15    1    4    4    0    0 -0.28884219045E+02 -0.21766157502E+02 -0.65956303852E+02  0.75221657387E+02  0.00000000000E+00 0.  1.
         15    1    3    3    0    0 -0.68986681710E+03  0.37333030343E+03  0.34498676339E+03  0.85691750344E+03  0.00000000000E+00 0. -1.
         15    1    1    2    0    0 -0.43283660980E+01 -0.13275999308E+03  0.27580052244E+03  0.30612069302E+03  0.00000000000E+00 0. -1.
        -16    1    1    2    0    0  0.10217154844E+04  0.56369850274E+03  0.49813946411E+03  0.12687795155E+04  0.00000000000E+00 0.  1.
         16    1    4    4    0    0 -0.58970753841E+03 -0.45713450106E+03 -0.74484989386E+03  0.10542904236E+04  0.00000000000E+00 0. -1.
    9900018    1    3    3    0    0  0.41738746712E+03 -0.28508399372E+03 -0.93080193066E+02  0.52198111261E+03  0.91187600000E+02 0.  0.
<mgrwt>
<rscale>  0 0.19452779E+04</rscale>
<asrwt>0</asrwt>
<pdfrwt beam="1">  1        1 0.29964351E+00 0.37767015E+04</pdfrwt>
<pdfrwt beam="2">  1       -1 0.38054792E+00 0.37767015E+04</pdfrwt>
<totfact> 0.24494993E-02</totfact>
</mgrwt>
</event>
