<event>
12    1  0.4411827E-009  0.3220324E+04  0.7818608E-02  0.8183470E-01
          2   -1    0    0  501    0  0.00000000000E+00  0.00000000000E+00  0.15849348334E+04  0.15849348334E+04  0.00000000000E+00 0. -1.
         -2   -1    0    0    0  501 -0.00000000000E+00 -0.00000000000E+00 -0.16357906595E+04  0.16357906595E+04  0.00000000000E+00 0.  1.
    9900016    2    1    2    0    0  0.10418636260E+02  0.18664660237E+03 -0.31639339665E+03  0.22350667985E+04  0.22046481148E+04 0.  0.
         23    2    3    3    0    0 -0.24862461791E+01 -0.37062186765E+03 -0.59635120116E+03  0.70792974678E+03  0.90349438588E+02 0.  0.
         24    2    3    3    0    0 -0.47059839350E+03  0.43202391834E+03 -0.34074868137E+03  0.73043249090E+03  0.96511377187E+02 0.  0.
        -15    1    4    4    0    0  0.29370659713E+02 -0.28713736596E+03 -0.49325580558E+03  0.57149959958E+03  0.00000000000E+00 0.  1.
        -15    1    5    5    0    0 -0.19846437844E+03  0.15224910025E+03 -0.18078473199E+03  0.30862763544E+03  0.00000000000E+00 0.  1.
         15    1    4    4    0    0 -0.31856905892E+02 -0.83484501690E+02 -0.10309539558E+03  0.13643014720E+03  0.00000000000E+00 0. -1.
         15    1    3    3    0    0  0.48350327594E+03  0.12524455167E+03  0.62070648588E+03  0.79670456079E+03  0.00000000000E+00 0. -1.
        -16    1    1    2    0    0  0.37272175402E+03 -0.15473561812E+03 -0.13253807818E+03  0.42477165584E+03  0.00000000000E+00 0.  1.
         16    1    5    5    0    0 -0.27213401506E+03  0.27977481809E+03 -0.15996394938E+03  0.42180485547E+03  0.00000000000E+00 0. -1.
    9900018    1    1    2    0    0 -0.38314039028E+03 -0.31910984246E+02  0.39807564871E+03  0.56088703860E+03  0.91187600000E+02 0.  0.
<mgrwt>
<rscale>  0 0.32203240E+04</rscale>
<asrwt>0</asrwt>
<pdfrwt beam="1">  1        2 0.24383613E+00 0.32203240E+04</pdfrwt>
<pdfrwt beam="2">  1       -2 0.25166010E+00 0.32203240E+04</pdfrwt>
<totfact> 0.60000994E-01</totfact>
</mgrwt>
</event>
<event>
12    1  0.4411827E-009  0.3239824E+04  0.7818608E-02  0.8178378E-01
         -2   -1    0    0    0  501 -0.00000000000E+00  0.00000000000E+00  0.11674612035E+04  0.11674612035E+04  0.00000000000E+00 0. -1.
          2   -1    0    0  501    0  0.00000000000E+00 -0.00000000000E+00 -0.22477101829E+04  0.22477101829E+04  0.00000000000E+00 0.  1.
    9900016    2    1    2    0    0 -0.11450716529E+03 -0.52742534094E+03 -0.13118647558E+04  0.26171465573E+04  0.21993584481E+04 0.  0.
         23    2    3    3    0    0  0.14971519286E+03 -0.19286386780E+03  0.16440174629E+03  0.30829315568E+03  0.91682196637E+02 0.  0.
        -24    2    3    3    0    0 -0.53629195191E+03  0.59514192783E+03 -0.66904604818E+03  0.10479112384E+04  0.93232917991E+02 0.  0.
        -15    1    4    4    0    0  0.10099883406E+03 -0.12786841395E+03  0.15774944128E+03  0.22679502198E+03  0.00000000000E+00 0.  1.
        -15    1    3    3    0    0  0.27206959376E+03 -0.92970340097E+03 -0.80722045395E+03  0.12609421632E+04  0.00000000000E+00 0.  1.
         15    1    5    5    0    0 -0.43301578319E+03  0.51029883758E+03 -0.51862047356E+03  0.84668457392E+03  0.00000000000E+00 0. -1.
         15    1    4    4    0    0  0.48716358800E+02 -0.64995453847E+02  0.66523050102E+01  0.81498133706E+02  0.00000000000E+00 0. -1.
        -16    1    5    5    0    0 -0.10327616872E+03  0.84843090253E+02 -0.15042557463E+03  0.20122666446E+03  0.00000000000E+00 0.  1.
         16    1    1    2    0    0  0.26813381795E+02  0.58800686150E+03  0.27707882691E+03  0.65057182765E+03  0.00000000000E+00 0. -1.
    9900018    1    1    2    0    0  0.87693783495E+02 -0.60581520558E+02 -0.45463050495E+02  0.14745300150E+03  0.91187600000E+02 0.  0.
<mgrwt>
<rscale>  0 0.32398237E+04</rscale>
<asrwt>0</asrwt>
<pdfrwt beam="1">  1        2 0.34580156E+00 0.32398237E+04</pdfrwt>
<pdfrwt beam="2">  1       -2 0.17960942E+00 0.32398237E+04</pdfrwt>
<totfact> 0.74325994E-01</totfact>
</mgrwt>
</event>
<event>
11    1  0.4411827E-009  0.3982827E+04  0.7818608E-02  0.8008020E-01
          1   -1    0    0  501    0  0.00000000000E+00  0.00000000000E+00  0.25293709625E+04  0.25293709625E+04  0.00000000000E+00 0. -1.
         -1   -1    0    0    0  501 -0.00000000000E+00 -0.00000000000E+00 -0.15678712226E+04  0.15678712226E+04  0.00000000000E+00 0.  1.
    9900016    2    1    2    0    0 -0.10295433044E+03  0.50334811183E+03  0.73550782491E+03  0.23793441541E+04  0.22037123059E+04 0.  0.
         23    2    3    3    0    0 -0.14933949938E+03 -0.18452460426E+03  0.18209903704E+03  0.31278523503E+03  0.91230084467E+02 0.  0.
        -15    1    3    3    0    0 -0.26514517497E+03 -0.15550884654E+02 -0.31442645147E+02  0.26745547996E+03  0.00000000000E+00 0.  1.
        -15    1    4    4    0    0 -0.67465278937E+02 -0.11936510691E+03  0.53953366995E+02  0.14734503188E+03  0.00000000000E+00 0. -1.
         15    1    4    4    0    0 -0.81874220447E+02 -0.65159497347E+02  0.12814567004E+03  0.16544020315E+03  0.00000000000E+00 0.  1.
         15    1    3    3    0    0  0.80931697945E+03  0.76057391628E+03  0.66078642795E+03  0.12923255622E+04  0.00000000000E+00 0. -1.
        -16    1    1    2    0    0 -0.73591383045E+03 -0.49566825058E+02  0.19653800685E+02  0.73784301032E+03  0.00000000000E+00 0.  1.
         16    1    3    3    0    0 -0.49778663553E+03 -0.57150315542E+02 -0.75934994929E+02  0.50677787692E+03  0.00000000000E+00 0. -1.
    9900018    1    1    2    0    0  0.83886816089E+03 -0.45378128677E+03  0.20633811429E+03  0.98005502059E+03  0.91187600000E+02 0.  0.
<mgrwt>
<rscale>  0 0.39828271E+04</rscale>
<asrwt>0</asrwt>
<pdfrwt beam="1">  1        1 0.38913399E+00 0.39828271E+04</pdfrwt>
<pdfrwt beam="2">  1       -1 0.24121096E+00 0.39828271E+04</pdfrwt>
<totfact> 0.80636817E-02</totfact>
</mgrwt>
</event>
<event>
12    1  0.4411827E-009  0.4088221E+04  0.7818608E-02  0.7986982E-01
          2   -1    0    0  501    0  0.00000000000E+00  0.00000000000E+00  0.20726826717E+04  0.20726826717E+04  0.00000000000E+00 0. -1.
         -2   -1    0    0    0  501 -0.00000000000E+00 -0.00000000000E+00 -0.20159323939E+04  0.20159323939E+04  0.00000000000E+00 0.  1.
    9900016    2    1    2    0    0 -0.48173849921E+03 -0.18237930768E+03  0.40810634379E+03  0.22891104216E+04  0.21927474868E+04 0.  0.
         23    2    3    3    0    0  0.16896499048E+02 -0.47069171764E+02 -0.33390214642E+02  0.10822380987E+03  0.89980486650E+02 0.  0.
        -24    2    3    3    0    0 -0.66466656486E+03  0.60915459104E+02 -0.72437880806E+03  0.98701210597E+03  0.63054771123E+02 0.  0.
        -15    1    4    4    0    0 -0.18684262442E+02 -0.53044276665E+02  0.38530943448E+01  0.56370588838E+02  0.00000000000E+00 0. -1.
        -15    1    3    3    0    0  0.16603156659E+03 -0.19622559502E+03  0.11658753665E+04  0.11938745057E+04  0.00000000000E+00 0.  1.
         15    1    5    5    0    0 -0.16088114543E+03  0.38425007848E+02 -0.15943943764E+03  0.22973932719E+03  0.00000000000E+00 0. -1.
         15    1    4    4    0    0  0.35580761490E+02  0.59751049019E+01 -0.37243308987E+02  0.51853221029E+02  0.00000000000E+00 0.  1.
        -16    1    5    5    0    0 -0.50378541943E+03  0.22490451257E+02 -0.56493937042E+03  0.75727277878E+03  0.00000000000E+00 0.  1.
         16    1    1    2    0    0  0.71139602448E+03  0.44375110028E+03  0.42783789428E+03  0.94129942443E+03  0.00000000000E+00 0. -1.
    9900018    1    1    2    0    0 -0.22965752527E+03 -0.26137179260E+03 -0.77919396029E+03  0.85820521965E+03  0.91187600000E+02 0.  0.
<mgrwt>
<rscale>  0 0.40882212E+04</rscale>
<asrwt>0</asrwt>
<pdfrwt beam="1">  1        2 0.31887426E+00 0.40882212E+04</pdfrwt>
<pdfrwt beam="2">  1       -2 0.31014345E+00 0.40882212E+04</pdfrwt>
<totfact> 0.13128414E-01</totfact>
</mgrwt>
</event>
<event>
12    1  0.4411827E-009  0.3240194E+04  0.7818608E-02  0.8178282E-01
         -2   -1    0    0    0  501 -0.00000000000E+00  0.00000000000E+00  0.10182609494E+04  0.10182609494E+04  0.00000000000E+00 0.  1.
          2   -1    0    0  501    0  0.00000000000E+00 -0.00000000000E+00 -0.25776441371E+04  0.25776441371E+04  0.00000000000E+00 0. -1.
    9900016    2    1    2    0    0 -0.14489579635E+03  0.51970921547E+02 -0.13219265714E+04  0.25755998488E+04  0.22051142720E+04 0.  0.
         23    2    3    3    0    0 -0.26268515727E+03  0.20152024693E+03  0.60171187845E+02  0.34862402158E+03  0.91127574352E+02 0.  0.
        -24    2    3    3    0    0  0.14416903222E+03 -0.66070749170E+03 -0.15467856733E+04  0.16892950045E+04  0.62069264556E+02 0.  0.
        -15    1    3    3    0    0 -0.26379671308E+02  0.51115816632E+03  0.16468791406E+03  0.53768082269E+03  0.00000000000E+00 0.  1.
        -15    1    4    4    0    0 -0.93366147318E+02  0.73888969854E+02  0.66724828726E+02  0.13648816835E+03  0.00000000000E+00 0.  1.
         15    1    5    5    0    0  0.17887237538E+02 -0.58701951481E+02 -0.18811792272E+03  0.19787426619E+03  0.00000000000E+00 0. -1.
         15    1    4    4    0    0 -0.16931900995E+03  0.12763127708E+03 -0.65536408815E+01  0.21213585323E+03  0.00000000000E+00 0. -1.
        -16    1    5    5    0    0  0.12628179468E+03 -0.60200554022E+03 -0.13586677506E+04  0.14914207383E+04  0.00000000000E+00 0.  1.
         16    1    1    2    0    0 -0.82860521778E+02 -0.36998626718E+02 -0.58645932235E+03  0.59343854039E+03  0.00000000000E+00 0. -1.
    9900018    1    1    2    0    0  0.22775631813E+03 -0.14972294829E+02  0.34900270611E+03  0.42686669738E+03  0.91187600000E+02 0.  0.
<mgrwt>
<rscale>  0 0.32401940E+04</rscale>
<asrwt>0</asrwt>
<pdfrwt beam="1">  1        2 0.39656063E+00 0.32401940E+04</pdfrwt>
<pdfrwt beam="2">  1       -2 0.15665553E+00 0.32401940E+04</pdfrwt>
<totfact> 0.70206515E-01</totfact>
</mgrwt>
</event>
<event>
12    1  0.4411827E-009  0.3200877E+04  0.7818608E-02  0.8188586E-01
         -1   -1    0    0    0  501 -0.00000000000E+00  0.00000000000E+00  0.67747060984E+03  0.67747060984E+03  0.00000000000E+00 0.  1.
          1   -1    0    0  501    0  0.00000000000E+00 -0.00000000000E+00 -0.37808337523E+04  0.37808337523E+04  0.00000000000E+00 0. -1.
    9900016    2    1    2    0    0  0.54714681939E+03 -0.94409302321E+02 -0.26509881997E+04  0.34866959963E+04  0.21956838975E+04 0.  0.
         23    2    3    3    0    0 -0.11661698608E+03  0.38019716144E+02  0.84942998490E+02  0.17534132748E+03  0.92109977054E+02 0.  0.
         24    2    3    3    0    0  0.95377897862E+03  0.56203023597E+03 -0.16722102144E+04  0.20083255870E+04  0.10729555532E+03 0.  0.
        -15    1    5    5    0    0  0.32327122536E+03  0.23131107193E+03 -0.53248142204E+03  0.66448894796E+03  0.00000000000E+00 0.  1.
        -15    1    4    4    0    0 -0.62240431601E+02  0.21631126407E+02  0.97018661123E+02  0.11727914376E+03  0.00000000000E+00 0.  1.
         15    1    4    4    0    0 -0.54376554474E+02  0.16388589737E+02 -0.12075662633E+02  0.58062183717E+02  0.00000000000E+00 0. -1.
         15    1    3    3    0    0 -0.29001517316E+03 -0.69445925443E+03 -0.10637209838E+04  0.13030290818E+04  0.00000000000E+00 0. -1.
        -16    1    1    2    0    0 -0.57196485247E+03  0.10012938840E+02 -0.79198619267E+02  0.57750885076E+03  0.00000000000E+00 0.  1.
         16    1    5    5    0    0  0.63050775326E+03  0.33071916404E+03 -0.11397287924E+04  0.13438366391E+04  0.00000000000E+00 0. -1.
    9900018    1    1    2    0    0  0.24818033083E+02  0.84396363480E+02 -0.37317632356E+03  0.39409951509E+03  0.91187600000E+02 0.  0.
<mgrwt>
<rscale>  0 0.32008772E+04</rscale>
<asrwt>0</asrwt>
<pdfrwt beam="1">  1        1 0.58166675E+00 0.32008772E+04</pdfrwt>
<pdfrwt beam="2">  1       -1 0.10422624E+00 0.32008772E+04</pdfrwt>
<totfact> 0.10700391E-01</totfact>
</mgrwt>
</event>
<event>
12    1  0.4411827E-009  0.4704848E+04  0.7818608E-02  0.7875724E-01
         -1   -1    0    0    0  501 -0.00000000000E+00  0.00000000000E+00  0.17186117660E+04  0.17186117660E+04  0.00000000000E+00 0.  1.
          1   -1    0    0  501    0  0.00000000000E+00 -0.00000000000E+00 -0.32199818910E+04  0.32199818910E+04  0.00000000000E+00 0. -1.
    9900016    2    1    2    0    0  0.13907404615E+04 -0.53544564497E+03 -0.48611717127E+03  0.27079700916E+04  0.22081510462E+04 0.  0.
         23    2    3    3    0    0  0.50792058764E+02 -0.88715110771E+02  0.24183207262E+02  0.13920070708E+03  0.91333483601E+02 0.  0.
        -24    2    3    3    0    0  0.81199523292E+03  0.75731290999E+03  0.10501943199E+03  0.11171931260E+04  0.65056112440E+02 0.  0.
        -15    1    4    4    0    0  0.18844587140E+01 -0.67744166611E+02 -0.19316663765E+02  0.70469545149E+02  0.00000000000E+00 0.  1.
        -15    1    3    3    0    0  0.52795316979E+03 -0.12040434442E+04 -0.61531981052E+03  0.14515762585E+04  0.00000000000E+00 0.  1.
         15    1    4    4    0    0  0.48907600050E+02 -0.20970944160E+02  0.43499871027E+02  0.68731161935E+02  0.00000000000E+00 0. -1.
         15    1    5    5    0    0  0.73653706178E+03  0.68488312793E+03  0.11407222010E+03  0.10122075942E+04  0.00000000000E+00 0. -1.
        -16    1    5    5    0    0  0.75458171133E+02  0.72429782058E+02 -0.90527881102E+01  0.10498553182E+03  0.00000000000E+00 0.  1.
         16    1    1    2    0    0 -0.75781307518E+03  0.54631758430E+03 -0.12401772907E+04  0.15526697241E+04  0.00000000000E+00 0. -1.
    9900018    1    1    2    0    0 -0.63292738629E+03 -0.10871939327E+02  0.22492433694E+03  0.67795384144E+03  0.91187600000E+02 0.  0.
<mgrwt>
<rscale>  0 0.47048480E+04</rscale>
<asrwt>0</asrwt>
<pdfrwt beam="1">  1        1 0.49538183E+00 0.47048480E+04</pdfrwt>
<pdfrwt beam="2">  1       -1 0.26440181E+00 0.47048480E+04</pdfrwt>
<totfact> 0.17039410E-02</totfact>
</mgrwt>
</event>
<event>
12    1  0.4411827E-009  0.4061897E+04  0.7818608E-02  0.7992175E-01
         -2   -1    0    0    0  501 -0.00000000000E+00  0.00000000000E+00  0.22645628845E+04  0.22645628845E+04  0.00000000000E+00 0.  1.
          2   -1    0    0  501    0  0.00000000000E+00 -0.00000000000E+00 -0.18214336725E+04  0.18214336725E+04  0.00000000000E+00 0. -1.
    9900016    2    1    2    0    0  0.62696184452E+03 -0.64228691555E+03  0.49098300524E+03  0.24359343455E+04  0.22106782190E+04 0.  0.
         23    2    3    3    0    0  0.48030788138E+02 -0.16094361142E+03  0.43873295401E+02  0.19532578402E+03  0.89540455581E+02 0.  0.
        -24    2    3    3    0    0 -0.13575969601E+03 -0.25608000819E+03  0.11655931510E+04  0.12024636394E+04  0.57478211740E+02 0.  0.
        -15    1    3    3    0    0  0.71469075239E+03 -0.22526329594E+03 -0.71848344113E+03  0.10381449221E+04  0.00000000000E+00 0.  1.
        -15    1    4    4    0    0  0.50404893143E+02 -0.48284888747E+02  0.44243912224E+02  0.82641439381E+02  0.00000000000E+00 0.  1.
         15    1    5    5    0    0 -0.95849404522E+02 -0.16512828227E+03  0.65319296015E+03  0.68052590042E+03  0.00000000000E+00 0. -1.
         15    1    4    4    0    0 -0.23741050041E+01 -0.11265872267E+03 -0.37061682303E+00  0.11268434463E+03  0.00000000000E+00 0. -1.
        -16    1    5    5    0    0 -0.39910291490E+02 -0.90951725917E+02  0.51240019083E+03  0.52193773898E+03  0.00000000000E+00 0.  1.
         16    1    1    2    0    0 -0.73136393401E+03  0.77633931454E+03 -0.48545091939E+03  0.11718611396E+04  0.00000000000E+00 0. -1.
    9900018    1    1    2    0    0  0.10440208949E+03 -0.13405239899E+03  0.43759712621E+03  0.47820107196E+03  0.91187600000E+02 0.  0.
<mgrwt>
<rscale>  0 0.40618966E+04</rscale>
<asrwt>0</asrwt>
<pdfrwt beam="1">  1        2 0.28022057E+00 0.40618966E+04</pdfrwt>
<pdfrwt beam="2">  1       -2 0.34839429E+00 0.40618966E+04</pdfrwt>
<totfact> 0.10492646E-01</totfact>
</mgrwt>
</event>
<event>
12    1  0.4411827E-009  0.3791850E+04  0.7818608E-02  0.8047906E-01
          1   -1    0    0  501    0  0.00000000000E+00  0.00000000000E+00  0.94685501173E+03  0.94685501173E+03  0.00000000000E+00 0. -1.
         -1   -1    0    0    0  501 -0.00000000000E+00 -0.00000000000E+00 -0.37962855543E+04  0.37962855543E+04  0.00000000000E+00 0.  1.
    9900016    2    1    2    0    0  0.97727891294E+02  0.34441873693E+03 -0.25888768163E+04  0.34227780502E+04  0.22101926169E+04 0.  0.
         23    2    3    3    0    0  0.17924881964E+03  0.19589259124E+03 -0.39481452543E+03  0.48574069165E+03  0.97782735640E+02 0.  0.
        -24    2    3    3    0    0 -0.47880249524E+03 -0.19743416836E+03 -0.23334476776E+04  0.23921066580E+04  0.94679032039E+02 0.  0.
        -15    1    3    3    0    0  0.39728156689E+03  0.34596031405E+03  0.13938538675E+03  0.54493070048E+03  0.00000000000E+00 0.  1.
        -15    1    4    4    0    0  0.43939799477E+02  0.62221195336E+02 -0.47537012094E+02  0.89788365872E+02  0.00000000000E+00 0.  1.
         15    1    4    4    0    0  0.13530902016E+03  0.13367139590E+03 -0.34727751334E+03  0.39595232578E+03  0.00000000000E+00 0. -1.
         15    1    5    5    0    0 -0.34245197247E+03 -0.93428401531E+02 -0.15600343124E+04  0.15999091460E+04  0.00000000000E+00 0. -1.
        -16    1    5    5    0    0 -0.13635052277E+03 -0.10400576683E+03 -0.77341336522E+03  0.79219751205E+03  0.00000000000E+00 0.  1.
         16    1    1    2    0    0 -0.19303859712E+03 -0.33377856817E+03  0.45286369064E+03  0.59477521372E+03  0.00000000000E+00 0. -1.
    9900018    1    1    2    0    0  0.95310705822E+02 -0.10640168760E+02 -0.71341741694E+03  0.72558730213E+03  0.91187600000E+02 0.  0.
<mgrwt>
<rscale>  0 0.37918502E+04</rscale>
<asrwt>0</asrwt>
<pdfrwt beam="1">  1        1 0.14567000E+00 0.37918502E+04</pdfrwt>
<pdfrwt beam="2">  1       -1 0.58404392E+00 0.37918502E+04</pdfrwt>
<totfact> 0.68070520E-03</totfact>
</mgrwt>
</event>
<event>
12    1  0.4411827E-009  0.3732308E+04  0.7818608E-02  0.8060839E-01
         -1   -1    0    0    0  501 -0.00000000000E+00  0.00000000000E+00  0.19185403153E+04  0.19185403153E+04  0.00000000000E+00 0.  1.
          1   -1    0    0  501    0  0.00000000000E+00 -0.00000000000E+00 -0.18151983716E+04  0.18151983716E+04  0.00000000000E+00 0. -1.
    9900016    2    1    2    0    0  0.77135017594E+03 -0.11695509099E+03  0.79297586713E+03  0.24626271817E+04  0.21970576512E+04 0.  0.
         23    2    3    3    0    0 -0.20706908648E+03 -0.15493768595E+03  0.20721208468E+03  0.34372050050E+03  0.91233992131E+02 0.  0.
         24    2    3    3    0    0 -0.80629695690E+02  0.28947041744E+03 -0.49415557068E+03  0.58559111357E+03  0.91831115959E+02 0.  0.
        -15    1    5    5    0    0 -0.26377304199E+02  0.17419610846E+02 -0.23971270816E+02  0.39671486529E+02  0.00000000000E+00 0.  1.
        -15    1    4    4    0    0 -0.14843753586E+03 -0.15345164154E+03  0.14417733362E+03  0.25762028623E+03  0.00000000000E+00 0.  1.
         15    1    3    3    0    0  0.10590489581E+04 -0.25148782248E+03  0.10799193531E+04  0.15333155676E+04  0.00000000000E+00 0. -1.
         15    1    4    4    0    0 -0.58631550619E+02 -0.14860444030E+01  0.63034751060E+02  0.86100214268E+02  0.00000000000E+00 0. -1.
        -16    1    1    2    0    0 -0.46019526914E+03  0.39575828833E+03 -0.55590258838E+03  0.82306257131E+03  0.00000000000E+00 0.  1.
         16    1    5    5    0    0 -0.54252391491E+02  0.27205080659E+03 -0.47018429987E+03  0.54591962705E+03  0.00000000000E+00 0. -1.
    9900018    1    1    2    0    0 -0.31115490680E+03 -0.27880319735E+03 -0.13373133501E+03  0.44804893397E+03  0.91187600000E+02 0.  0.
<mgrwt>
<rscale>  0 0.37323083E+04</rscale>
<asrwt>0</asrwt>
<pdfrwt beam="1">  1        1 0.27926129E+00 0.37323083E+04</pdfrwt>
<pdfrwt beam="2">  1       -1 0.29516005E+00 0.37323083E+04</pdfrwt>
<totfact> 0.11299721E-01</totfact>
</mgrwt>
</event>
<event>
12    1  0.4872850E-009  0.2975024E+04  0.7818608E-02  0.8250899E-01
          2   -1    0    0  501    0  0.00000000000E+00  0.00000000000E+00  0.33015316569E+04  0.33015316569E+04  0.00000000000E+00 0. -1.
         -2   -1    0    0    0  501 -0.00000000000E+00 -0.00000000000E+00 -0.67020145515E+03  0.67020145515E+03  0.00000000000E+00 0.  1.
    9900016    2    1    2    0    0  0.43965005123E+02 -0.44395950224E+03  0.15711176659E+04  0.27440291257E+04  0.22050515100E+04 0.  0.
         23    2    3    3    0    0  0.13236471025E+02 -0.91261870168E+01 -0.11683457274E+03  0.14886405267E+03  0.90838853655E+02 0.  0.
        -24    2    3    3    0    0  0.19912613955E+03  0.55036480250E+03 -0.49090615974E+02  0.59109647063E+03  0.66577126251E+02 0.  0.
        -15    1    4    4    0    0 -0.93817447702E+01  0.21708284636E+02  0.22829576745E+01  0.23758759490E+02  0.00000000000E+00 0.  1.
        -15    1    3    3    0    0 -0.16839760545E+03 -0.98519811772E+03  0.17370428546E+04  0.20040686024E+04  0.00000000000E+00 0.  1.
         15    1    4    4    0    0  0.22618215795E+02 -0.30834471653E+02 -0.11911753042E+03  0.12510529318E+03  0.00000000000E+00 0. -1.
         15    1    5    5    0    0  0.17161336913E+03  0.38703269831E+03 -0.31911514392E+02  0.42457484944E+03  0.00000000000E+00 0. -1.
        -16    1    5    5    0    0  0.27512770420E+02  0.16333210419E+03 -0.17179101582E+02  0.16652162120E+03  0.00000000000E+00 0.  1.
         16    1    1    2    0    0 -0.99906204730E+02  0.35836061659E+03  0.10187570228E+04  0.10845595662E+04  0.00000000000E+00 0. -1.
    9900018    1    1    2    0    0  0.55941199607E+02  0.85598885649E+02  0.41455513143E+02  0.14314442009E+03  0.91187600000E+02 0.  0.
<mgrwt>
<rscale>  0 0.29750236E+04</rscale>
<asrwt>0</asrwt>
<pdfrwt beam="1">  1        2 0.50792794E+00 0.29750236E+04</pdfrwt>
<pdfrwt beam="2">  1       -2 0.10310792E+00 0.29750236E+04</pdfrwt>
<totfact> 0.73138162E-01</totfact>
</mgrwt>
</event>
<event>
12    1  0.4411827E-009  0.2667355E+04  0.7818608E-02  0.8345675E-01
          1   -1    0    0  501    0  0.00000000000E+00  0.00000000000E+00  0.13220489893E+04  0.13220489893E+04  0.00000000000E+00 0. -1.
         -1   -1    0    0    0  501 -0.00000000000E+00 -0.00000000000E+00 -0.13454082376E+04  0.13454082376E+04  0.00000000000E+00 0.  1.
    9900016    2    1    2    0    0 -0.29545582857E+03 -0.27201245690E+02 -0.79149070879E+02  0.22245659085E+04  0.22032691282E+04 0.  0.
         23    2    3    3    0    0 -0.30429768228E+03  0.31142085546E+03 -0.50323690593E+03  0.67174766875E+03  0.91747034441E+02 0.  0.
        -24    2    3    3    0    0 -0.30769544620E+03 -0.21014878169E+03 -0.46299487296E+03  0.60223053366E+03  0.97356896196E+02 0.  0.
        -15    1    3    3    0    0  0.31653729991E+03 -0.12847331946E+03  0.88708270801E+03  0.95058770605E+03  0.00000000000E+00 0.  1.
        -15    1    4    4    0    0 -0.14684593051E+03  0.12367512123E+03 -0.28492368217E+03  0.34357061513E+03  0.00000000000E+00 0.  1.
         15    1    5    5    0    0 -0.18927675730E+03 -0.14977791699E+03 -0.36289444957E+03  0.43583425381E+03  0.00000000000E+00 0. -1.
         15    1    4    4    0    0 -0.15745175178E+03  0.18774573423E+03 -0.21831322376E+03  0.32817705363E+03  0.00000000000E+00 0. -1.
        -16    1    5    5    0    0 -0.11841868890E+03 -0.60370864695E+02 -0.10010042339E+03  0.16639627985E+03  0.00000000000E+00 0.  1.
         16    1    1    2    0    0  0.10432581965E+03  0.15831499400E+03  0.36447667785E+02  0.19306979686E+03  0.00000000000E+00 0. -1.
    9900018    1    1    2    0    0  0.19113000892E+03 -0.13111374831E+03  0.19342154817E+02  0.24982152160E+03  0.91187600000E+02 0.  0.
<mgrwt>
<rscale>  0 0.26673549E+04</rscale>
<asrwt>0</asrwt>
<pdfrwt beam="1">  1        1 0.20339215E+00 0.26673549E+04</pdfrwt>
<pdfrwt beam="2">  1       -1 0.20698588E+00 0.26673549E+04</pdfrwt>
<totfact> 0.10295120E+00</totfact>
</mgrwt>
</event>
<event>
12    1  0.4411827E-009  0.2713907E+04  0.7818608E-02  0.8330507E-01
         -2   -1    0    0    0  501 -0.00000000000E+00  0.00000000000E+00  0.93983566536E+03  0.93983566536E+03  0.00000000000E+00 0.  1.
          2   -1    0    0  501    0  0.00000000000E+00 -0.00000000000E+00 -0.19591959075E+04  0.19591959075E+04  0.00000000000E+00 0. -1.
    9900016    2    1    2    0    0  0.24225681317E+02 -0.35826368672E+03 -0.98731292799E+03  0.24437922398E+04  0.22064437316E+04 0.  0.
         23    2    3    3    0    0  0.18167584559E+03  0.96449153260E+02  0.98862004493E+02  0.24826721169E+03  0.97746408795E+02 0.  0.
         24    2    3    3    0    0 -0.81299192819E+03 -0.28025988925E+03 -0.12275383851E+04  0.15025946838E+04  0.10695240154E+03 0.  0.
        -15    1    5    5    0    0 -0.46030029366E+03 -0.21343153977E+03 -0.73575820716E+03  0.89373906814E+03  0.00000000000E+00 0.  1.
        -15    1    4    4    0    0  0.13708616218E+03  0.96642447143E+02  0.36581540349E+02  0.17166999606E+03  0.00000000000E+00 0. -1.
         15    1    4    4    0    0  0.44589683412E+02 -0.19329388281E+00  0.62280464144E+02  0.76597215637E+02  0.00000000000E+00 0.  1.
         15    1    3    3    0    0  0.65554176391E+03 -0.17445295073E+03  0.14136345261E+03  0.69293034425E+03  0.00000000000E+00 0. -1.
        -16    1    1    2    0    0  0.35708102529E+02  0.20788188600E+03  0.93786972565E+02  0.23083748252E+03  0.00000000000E+00 0.  1.
         16    1    5    5    0    0 -0.35269163453E+03 -0.66828349480E+02 -0.49178017794E+03  0.60885561570E+03  0.00000000000E+00 0. -1.
    9900018    1    1    2    0    0 -0.59933783845E+02  0.15038180071E+03 -0.12583428674E+03  0.22440185058E+03  0.91187600000E+02 0.  0.
<mgrwt>
<rscale>  0 0.27139065E+04</rscale>
<asrwt>0</asrwt>
<pdfrwt beam="1">  1        2 0.30141475E+00 0.27139065E+04</pdfrwt>
<pdfrwt beam="2">  1       -2 0.14459010E+00 0.27139065E+04</pdfrwt>
<totfact> 0.20366486E+00</totfact>
</mgrwt>
</event>
<event>
12    1  0.4411827E-009  0.6087448E+04  0.7818608E-02  0.7679653E-01
          2   -1    0    0  501    0  0.00000000000E+00  0.00000000000E+00  0.22572508630E+04  0.22572508630E+04  0.00000000000E+00 0. -1.
         -2   -1    0    0    0  501 -0.00000000000E+00 -0.00000000000E+00 -0.41042210716E+04  0.41042210716E+04  0.00000000000E+00 0.  1.
    9900016    2    1    2    0    0 -0.14810186795E+03 -0.93800584807E+03 -0.11298851743E+04  0.26554547556E+04  0.22074895963E+04 0.  0.
         23    2    3    3    0    0  0.34686306446E+02  0.22390243911E+03  0.18168702724E+03  0.30407246001E+03  0.90080202991E+02 0.  0.
        -24    2    3    3    0    0  0.16664603866E+03 -0.13892472765E+04 -0.13314855916E+04  0.19340289341E+04  0.99172272527E+02 0.  0.
        -15    1    3    3    0    0 -0.34943421306E+03  0.22733898932E+03  0.19913390060E+02  0.41735336159E+03  0.00000000000E+00 0.  1.
        -15    1    4    4    0    0  0.18659271186E+02  0.14987045758E+03  0.63806189356E+02  0.16395289645E+03  0.00000000000E+00 0. -1.
         15    1    4    4    0    0  0.16027035260E+02  0.74031981536E+02  0.11788083789E+03  0.14011956355E+03  0.00000000000E+00 0.  1.
         15    1    5    5    0    0  0.31808040460E+02 -0.84220909009E+02 -0.70924776093E+02  0.11460906079E+03  0.00000000000E+00 0. -1.
        -16    1    5    5    0    0  0.13483799820E+03 -0.13050263675E+04 -0.12605608155E+04  0.18194198733E+04  0.00000000000E+00 0.  1.
         16    1    1    2    0    0 -0.96488672726E+03  0.15544524282E+04  0.54761007376E+03  0.19097658340E+04  0.00000000000E+00 0. -1.
    9900018    1    1    2    0    0  0.11129885952E+04 -0.61644658012E+03 -0.12646951081E+04  0.17962513449E+04  0.91187600000E+02 0.  0.
<mgrwt>
<rscale>  0 0.60874483E+04</rscale>
<asrwt>0</asrwt>
<pdfrwt beam="1">  1        2 0.34726937E+00 0.60874483E+04</pdfrwt>
<pdfrwt beam="2">  1       -2 0.63141861E+00 0.60874483E+04</pdfrwt>
<totfact> 0.12738172E-03</totfact>
</mgrwt>
</event>
<event>
12    1  0.4411827E-009  0.3311408E+04  0.7818608E-02  0.8159999E-01
         -2   -1    0    0    0  501 -0.00000000000E+00  0.00000000000E+00  0.96843749852E+03  0.96843749852E+03  0.00000000000E+00 0.  1.
          2   -1    0    0  501    0  0.00000000000E+00 -0.00000000000E+00 -0.28307004792E+04  0.28307004792E+04  0.00000000000E+00 0. -1.
    9900016    2    1    2    0    0  0.29054161581E+03  0.82412051002E+03 -0.12973009055E+04  0.26995339286E+04  0.22002056146E+04 0.  0.
         23    2    3    3    0    0  0.66520698325E+02 -0.48742734852E+02 -0.33534170125E+02  0.12598878237E+03  0.89150295623E+02 0.  0.
         24    2    3    3    0    0 -0.44386752938E+03 -0.24090915428E+03 -0.11619916260E+04  0.12708855178E+04  0.99347150345E+02 0.  0.
        -15    1    5    5    0    0 -0.35126942263E+03 -0.14917731437E+03 -0.80606747909E+03  0.89184575979E+03  0.00000000000E+00 0.  1.
        -15    1    4    4    0    0 -0.24864889299E+01 -0.39511605970E+02  0.13658460229E+02  0.41879627140E+02  0.00000000000E+00 0.  1.
         15    1    3    3    0    0  0.66788844687E+03  0.11137723992E+04 -0.10177510941E+03  0.13026596284E+04  0.00000000000E+00 0. -1.
         15    1    4    4    0    0  0.69007187255E+02 -0.92311288819E+01 -0.47192630354E+02  0.84109155227E+02  0.00000000000E+00 0. -1.
        -16    1    1    2    0    0 -0.28828787997E+03 -0.78670500970E+03 -0.46094462525E+03  0.95628689292E+03  0.00000000000E+00 0.  1.
         16    1    5    5    0    0 -0.92598106755E+02 -0.91731839918E+02 -0.35592414687E+03  0.37903975802E+03  0.00000000000E+00 0. -1.
    9900018    1    1    2    0    0 -0.22537358454E+01 -0.37415500321E+02 -0.10401744998E+03  0.14331715628E+03  0.91187600000E+02 0.  0.
<mgrwt>
<rscale>  0 0.33114085E+04</rscale>
<asrwt>0</asrwt>
<pdfrwt beam="1">  1        2 0.43549237E+00 0.33114085E+04</pdfrwt>
<pdfrwt beam="2">  1       -2 0.14899039E+00 0.33114085E+04</pdfrwt>
<totfact> 0.56355896E-01</totfact>
</mgrwt>
</event>
