<event>
12    1  0.3031299E-011  0.2072824E+04  0.7818608E-02  0.8573310E-01
          2   -1    0    0  501    0  0.00000000000E+00  0.00000000000E+00  0.15516079310E+04  0.15516079310E+04  0.00000000000E+00 0. -1.
         -2   -1    0    0    0  501 -0.00000000000E+00 -0.00000000000E+00 -0.69228205104E+03  0.69228205104E+03  0.00000000000E+00 0.  1.
    9900016    2    1    2    0    0 -0.82959245684E+01 -0.42853082202E+03  0.92742372297E+03  0.12463749026E+04  0.71388244704E+03 0.  0.
         23    2    3    3    0    0 -0.22007487196E+03 -0.73123906790E+02  0.72002440811E+03  0.76216698455E+03  0.93184274640E+02 0.  0.
         23    2    3    3    0    0  0.75260159050E+02 -0.23005376731E+03  0.95523003814E+02  0.26771981163E+03  0.62931914683E+02 0.  0.
        -15    1    5    5    0    0  0.48265583688E+02 -0.81943815386E+02  0.61865538733E+02  0.11345351617E+03  0.00000000000E+00 0.  1.
        -15    1    4    4    0    0 -0.10348484028E+03 -0.80001285863E+02  0.43185391579E+03  0.45122845931E+03  0.00000000000E+00 0.  1.
         15    1    5    5    0    0  0.26994575362E+02 -0.14810995192E+03  0.33657465081E+02  0.15426629545E+03  0.00000000000E+00 0. -1.
         15    1    4    4    0    0 -0.11659003168E+03  0.68773790727E+01  0.28817049232E+03  0.31093852524E+03  0.00000000000E+00 0. -1.
        -16    1    1    2    0    0 -0.22110984219E+03  0.46728015504E+02 -0.38282339686E+03  0.44455238491E+03  0.00000000000E+00 0.  1.
         16    1    3    3    0    0  0.13651878834E+03 -0.12535314792E+03  0.11187631104E+03  0.21648810645E+03  0.00000000000E+00 0. -1.
    9900018    1    1    2    0    0  0.22940576676E+03  0.38180280652E+03  0.31472555391E+03  0.55296269455E+03  0.91187600000E+02 0.  0.
<mgrwt>
<rscale>  0 0.20728245E+04</rscale>
<asrwt>0</asrwt>
<pdfrwt beam="1">  1        2 0.23870891E+00 0.20728245E+04</pdfrwt>
<pdfrwt beam="2">  1       -2 0.10650493E+00 0.20728245E+04</pdfrwt>
<totfact> 0.77892869E+00</totfact>
</mgrwt>
</event>
<event>
12    1  0.3031299E-011  0.2355486E+04  0.7818608E-02  0.8456360E-01
         -2   -1    0    0    0  501 -0.00000000000E+00  0.00000000000E+00  0.38621094062E+03  0.38621094062E+03  0.00000000000E+00 0.  1.
          2   -1    0    0  501    0  0.00000000000E+00 -0.00000000000E+00 -0.35915045586E+04  0.35915045586E+04  0.00000000000E+00 0. -1.
    9900016    2    1    2    0    0 -0.35116955621E+03 -0.67611639933E+02 -0.14363968017E+04  0.16408377713E+04  0.70796993489E+03 0.  0.
         23    2    3    3    0    0  0.70439540465E+02  0.11798021754E+03 -0.54738494797E+03  0.57182279546E+03  0.92032426600E+02 0.  0.
         23    2    3    3    0    0  0.35541300076E+02 -0.64745311493E+02 -0.77736015999E+02  0.12999481748E+03  0.73488944855E+02 0.  0.
        -15    1    4    4    0    0  0.18147746592E+02  0.87875214456E+02 -0.43607142748E+03  0.44520746162E+03  0.00000000000E+00 0. -1.
        -15    1    5    5    0    0 -0.10596409735E+01 -0.35225804426E+02 -0.75031213660E+02  0.82895495413E+02  0.00000000000E+00 0. -1.
         15    1    4    4    0    0  0.52291793872E+02  0.30105003086E+02 -0.11131352050E+03  0.12661533384E+03  0.00000000000E+00 0.  1.
         15    1    5    5    0    0  0.36600941049E+02 -0.29519507067E+02 -0.27048023390E+01  0.47099322063E+02  0.00000000000E+00 0.  1.
        -16    1    1    2    0    0  0.77597361452E+03 -0.12095558567E+03 -0.38591606911E+03  0.87504086563E+03  0.00000000000E+00 0.  1.
         16    1    3    3    0    0 -0.45715039676E+03 -0.12084654598E+03 -0.81127583776E+03  0.93902015839E+03  0.00000000000E+00 0. -1.
    9900018    1    1    2    0    0 -0.42480405830E+03  0.18856722560E+03 -0.13829807472E+04  0.14618368623E+04  0.91187600000E+02 0.  0.
<mgrwt>
<rscale>  0 0.23554858E+04</rscale>
<asrwt>0</asrwt>
<pdfrwt beam="1">  1        2 0.55253916E+00 0.23554858E+04</pdfrwt>
<pdfrwt beam="2">  1       -2 0.59417068E-01 0.23554858E+04</pdfrwt>
<totfact> 0.16752856E+00</totfact>
</mgrwt>
</event>
<event>
12    1  0.3031299E-011  0.1275785E+04  0.7818608E-02  0.9048991E-01
          1   -1    0    0  501    0  0.00000000000E+00  0.00000000000E+00  0.40945109841E+03  0.40945109841E+03  0.00000000000E+00 0. -1.
         -1   -1    0    0    0  501 -0.00000000000E+00 -0.00000000000E+00 -0.99378660845E+03  0.99378660845E+03  0.00000000000E+00 0.  1.
    9900016    2    1    2    0    0 -0.42424960131E+01  0.81585382962E+02 -0.29700519805E+03  0.77662794492E+03  0.71292685717E+03 0.  0.
         23    2    3    3    0    0  0.25441562386E+03  0.76933737315E+02 -0.37131728118E+03  0.46579761558E+03  0.91895515534E+02 0.  0.
         23    2    3    3    0    0 -0.22163445487E+03 -0.29754454507E+02  0.10004243441E+03  0.25411540648E+03  0.67520307899E+02 0.  0.
        -15    1    4    4    0    0  0.97074349676E+02  0.25390358749E+02 -0.71185109742E+02  0.12302609289E+03  0.00000000000E+00 0. -1.
        -15    1    5    5    0    0 -0.29137181253E+02 -0.25523782496E+02  0.39826286656E+01  0.38939698706E+02  0.00000000000E+00 0.  1.
         15    1    5    5    0    0 -0.19249727362E+03 -0.42306720111E+01  0.96059805745E+02  0.21517570777E+03  0.00000000000E+00 0. -1.
         15    1    4    4    0    0  0.15734127418E+03  0.51543378566E+02 -0.30013217143E+03  0.34277152269E+03  0.00000000000E+00 0.  1.
        -16    1    1    2    0    0  0.15341273388E+03 -0.20792370154E+03 -0.31689492961E+03  0.40888889566E+03  0.00000000000E+00 0.  1.
         16    1    3    3    0    0 -0.37023665002E+02  0.34406100154E+02 -0.25730351287E+02  0.56714922863E+02  0.00000000000E+00 0. -1.
    9900018    1    1    2    0    0 -0.14917023786E+03  0.12633831858E+03  0.29564617619E+02  0.21772086628E+03  0.91187600000E+02 0.  0.
<mgrwt>
<rscale>  0 0.12757853E+04</rscale>
<asrwt>0</asrwt>
<pdfrwt beam="1">  1        1 0.62992477E-01 0.12757853E+04</pdfrwt>
<pdfrwt beam="2">  1       -1 0.15289025E+00 0.12757853E+04</pdfrwt>
<totfact> 0.18964227E+01</totfact>
</mgrwt>
</event>
<event>
11    1  0.3031299E-011  0.1743863E+04  0.7818608E-02  0.8736736E-01
         -2   -1    0    0    0  501 -0.00000000000E+00  0.00000000000E+00  0.78415342571E+03  0.78415342571E+03  0.00000000000E+00 0.  1.
          2   -1    0    0  501    0  0.00000000000E+00 -0.00000000000E+00 -0.96953490965E+03  0.96953490965E+03  0.00000000000E+00 0. -1.
    9900016    2    1    2    0    0  0.39969517689E+03  0.21231351759E+03 -0.69595702839E+02  0.85116305100E+03  0.71749683857E+03 0.  0.
         23    2    3    3    0    0 -0.16404261072E+02  0.18017210482E+03 -0.12402719255E+03  0.23967391810E+03  0.96590658916E+02 0.  0.
        -15    1    4    4    0    0 -0.32739102471E+02  0.89802216733E+02 -0.14396667319E+02  0.96662045244E+02  0.00000000000E+00 0.  1.
        -15    1    3    3    0    0  0.17346067584E+02  0.70492029568E+02 -0.21007575757E+02  0.75573345383E+02  0.00000000000E+00 0.  1.
         15    1    4    4    0    0  0.16334841399E+02  0.90369888089E+02 -0.10963052523E+03  0.14301187286E+03  0.00000000000E+00 0. -1.
         15    1    3    3    0    0  0.26270956859E+03  0.10444186011E+03 -0.69541367603E+02  0.29113643087E+03  0.00000000000E+00 0. -1.
        -16    1    1    2    0    0 -0.10636555619E+03  0.35785393823E+02  0.30529834887E+03  0.32527112964E+03  0.00000000000E+00 0.  1.
         16    1    3    3    0    0  0.13604380179E+03 -0.14279247691E+03  0.14498043307E+03  0.24477935664E+03  0.00000000000E+00 0. -1.
    9900018    1    1    2    0    0 -0.29332962070E+03 -0.24809891142E+03 -0.42108412997E+03  0.57725415471E+03  0.91187600000E+02 0.  0.
<mgrwt>
<rscale>  0 0.17438625E+04</rscale>
<asrwt>0</asrwt>
<pdfrwt beam="1">  1        2 0.14915922E+00 0.17438625E+04</pdfrwt>
<pdfrwt beam="2">  1       -2 0.12063899E+00 0.17438625E+04</pdfrwt>
<totfact> 0.13099607E+01</totfact>
</mgrwt>
</event>
<event>
12    1  0.3031299E-011  0.2029491E+04  0.7818608E-02  0.8592956E-01
         -1   -1    0    0    0  501 -0.00000000000E+00  0.00000000000E+00  0.56738779750E+03  0.56738779750E+03  0.00000000000E+00 0.  1.
          1   -1    0    0  501    0  0.00000000000E+00 -0.00000000000E+00 -0.18148224715E+04  0.18148224715E+04  0.00000000000E+00 0. -1.
    9900016    2    1    2    0    0  0.18014217016E+03  0.38212172871E+03 -0.69522260615E+03  0.10771381613E+04  0.70599145130E+03 0.  0.
         23    2    3    3    0    0  0.30739831751E+02  0.41131325696E+03 -0.64912520351E+03  0.77323124547E+03  0.79996853230E+02 0.  0.
         23    2    3    3    0    0 -0.46710815374E+02 -0.29938439121E+02  0.23735056975E+02  0.95730309566E+02  0.74315064625E+02 0.  0.
        -15    1    4    4    0    0  0.14185331253E+02  0.36096922999E+03 -0.51546065027E+03  0.62944395350E+03  0.00000000000E+00 0.  1.
        -15    1    5    5    0    0 -0.48256558301E+02  0.11998952454E+02  0.20004417606E+02  0.53598945911E+02  0.00000000000E+00 0. -1.
         15    1    4    4    0    0  0.16554500497E+02  0.50344026978E+02 -0.13366455324E+03  0.14378729197E+03  0.00000000000E+00 0. -1.
         15    1    5    5    0    0  0.15457429269E+01 -0.41937391575E+02  0.37306393687E+01  0.42131363655E+02  0.00000000000E+00 0.  1.
        -16    1    3    3    0    0  0.19611315378E+03  0.74691086584E+00 -0.69832459619E+02  0.20817660622E+03  0.00000000000E+00 0.  1.
         16    1    1    2    0    0  0.38780029439E+03 -0.27263601859E+03 -0.54115813834E+03  0.71942449058E+03  0.00000000000E+00 0. -1.
    9900018    1    1    2    0    0 -0.56794246455E+03 -0.10948571012E+03 -0.11053929538E+02  0.58564761718E+03  0.91187600000E+02 0.  0.
<mgrwt>
<rscale>  0 0.20294907E+04</rscale>
<asrwt>0</asrwt>
<pdfrwt beam="1">  1        1 0.27920345E+00 0.20294907E+04</pdfrwt>
<pdfrwt beam="2">  1       -1 0.87290431E-01 0.20294907E+04</pdfrwt>
<totfact> 0.47580349E+00</totfact>
</mgrwt>
</event>
<event>
12    1  0.3031299E-011  0.2393399E+04  0.7818608E-02  0.8441979E-01
         -2   -1    0    0    0  501 -0.00000000000E+00  0.00000000000E+00  0.38033738489E+03  0.38033738489E+03  0.00000000000E+00 0.  1.
          2   -1    0    0  501    0  0.00000000000E+00 -0.00000000000E+00 -0.37653141944E+04  0.37653141944E+04  0.00000000000E+00 0. -1.
    9900016    2    1    2    0    0  0.69224631634E+03 -0.34587484597E+03 -0.12610750776E+04  0.16429814335E+04  0.71431314409E+03 0.  0.
         23    2    3    3    0    0 -0.61158604872E+02 -0.14473594840E+03 -0.12568766904E+03  0.22068677696E+03  0.90644325079E+02 0.  0.
         23    2    3    3    0    0  0.10079274207E+03 -0.46268584968E+02 -0.84970659604E+02  0.17599500691E+03  0.10702462639E+03 0.  0.
        -15    1    5    5    0    0  0.10086267539E+03 -0.31760548827E+02 -0.17747404811E+02  0.10722398112E+03  0.00000000000E+00 0.  1.
        -15    1    4    4    0    0 -0.80427277467E+02 -0.87695270422E+02 -0.99167621486E+02  0.15489746469E+03  0.00000000000E+00 0. -1.
         15    1    4    4    0    0  0.19268672594E+02 -0.57040677976E+02 -0.26520047552E+02  0.65789312276E+02  0.00000000000E+00 0.  1.
         15    1    5    5    0    0 -0.69933321121E-01 -0.14508036141E+02 -0.67223254793E+02  0.68771025791E+02  0.00000000000E+00 0. -1.
        -16    1    3    3    0    0  0.65261217914E+03 -0.15487031260E+03 -0.10504167490E+04  0.12462996496E+04  0.00000000000E+00 0.  1.
         16    1    1    2    0    0 -0.54409804727E+03 -0.23013012985E+03 -0.15973953778E+04  0.17031366812E+04  0.00000000000E+00 0. -1.
    9900018    1    1    2    0    0 -0.14814826907E+03  0.57600497582E+03 -0.52650635408E+03  0.79953346464E+03  0.91187600000E+02 0.  0.
<mgrwt>
<rscale>  0 0.23933991E+04</rscale>
<asrwt>0</asrwt>
<pdfrwt beam="1">  1        2 0.57927911E+00 0.23933991E+04</pdfrwt>
<pdfrwt beam="2">  1       -2 0.58513444E-01 0.23933991E+04</pdfrwt>
<totfact> 0.12861166E+00</totfact>
</mgrwt>
</event>
<event>
12    1  0.3031299E-011  0.1148426E+04  0.7818608E-02  0.9159237E-01
          1   -1    0    0  501    0  0.00000000000E+00  0.00000000000E+00  0.77893425597E+03  0.77893425597E+03  0.00000000000E+00 0. -1.
         -1   -1    0    0    0  501 -0.00000000000E+00 -0.00000000000E+00 -0.42329699607E+03  0.42329699607E+03  0.00000000000E+00 0.  1.
    9900016    2    1    2    0    0 -0.22569356549E+03 -0.14607990515E+02  0.46073384346E+03  0.87684829477E+03  0.71094041849E+03 0.  0.
         23    2    3    3    0    0 -0.79140526124E+02  0.24613844644E+03  0.22531243452E+03  0.35419325887E+03  0.88542722926E+02 0.  0.
         23    2    3    3    0    0 -0.18331874915E+03 -0.12755302074E+02  0.13206348738E+03  0.25148317095E+03  0.10970213786E+03 0.  0.
        -15    1    5    5    0    0 -0.56897521053E+02  0.34370921791E+02  0.58471246733E+01  0.66729881115E+02  0.00000000000E+00 0.  1.
        -15    1    4    4    0    0  0.21782581254E+01  0.13062486768E+03  0.12606274532E+03  0.18154728481E+03  0.00000000000E+00 0.  1.
         15    1    4    4    0    0 -0.81318784250E+02  0.11551357877E+03  0.99249689201E+02  0.17264597406E+03  0.00000000000E+00 0. -1.
         15    1    5    5    0    0 -0.12642122810E+03 -0.47126223865E+02  0.12621636270E+03  0.18475328983E+03  0.00000000000E+00 0. -1.
        -16    1    3    3    0    0  0.36765709782E+02 -0.24799113488E+03  0.10335792156E+03  0.27117186496E+03  0.00000000000E+00 0.  1.
         16    1    1    2    0    0  0.10794653121E+03 -0.24162148915E+02  0.36273981030E+02  0.11641333575E+03  0.00000000000E+00 0. -1.
    9900018    1    1    2    0    0  0.11774703428E+03  0.38770139430E+02 -0.14137056459E+03  0.20896962152E+03  0.91187600000E+02 0.  0.
<mgrwt>
<rscale>  0 0.11484259E+04</rscale>
<asrwt>0</asrwt>
<pdfrwt beam="1">  1        1 0.11983604E+00 0.11484259E+04</pdfrwt>
<pdfrwt beam="2">  1       -1 0.65122615E-01 0.11484259E+04</pdfrwt>
<totfact> 0.54800416E+01</totfact>
</mgrwt>
</event>
<event>
11    1  0.3031299E-011  0.1473631E+04  0.7818608E-02  0.8902180E-01
         -2   -1    0    0    0  501 -0.00000000000E+00  0.00000000000E+00  0.58544871278E+03  0.58544871278E+03  0.00000000000E+00 0.  1.
          2   -1    0    0  501    0  0.00000000000E+00 -0.00000000000E+00 -0.92731826847E+03  0.92731826847E+03  0.00000000000E+00 0. -1.
    9900016    2    1    2    0    0 -0.26083852803E+03  0.29258670706E+03 -0.87471328742E+02  0.81508679334E+03  0.70927535448E+03 0.  0.
         23    2    3    3    0    0 -0.37440635586E+03  0.87009278052E+02 -0.68706122481E+01  0.39443867774E+03  0.88226591251E+02 0.  0.
        -15    1    3    3    0    0  0.61811637212E+02  0.12489448444E+02  0.32884613068E+02  0.71120057606E+02  0.00000000000E+00 0.  1.
        -15    1    4    4    0    0 -0.22707244766E+03  0.69040812220E+02  0.35753049472E+02  0.24001418872E+03  0.00000000000E+00 0. -1.
         15    1    3    3    0    0 -0.73138920096E+02  0.72306160809E+02  0.46934995747E+02  0.11305032662E+03  0.00000000000E+00 0. -1.
         15    1    4    4    0    0 -0.14733390820E+03  0.17968465832E+02 -0.42623661720E+02  0.15442448902E+03  0.00000000000E+00 0.  1.
        -16    1    1    2    0    0  0.25164108118E+03 -0.41615795897E+03 -0.24233913815E+03  0.54335894069E+03  0.00000000000E+00 0.  1.
         16    1    3    3    0    0  0.12489511072E+03  0.12078181975E+03 -0.16042032531E+03  0.23647773138E+03  0.00000000000E+00 0. -1.
    9900018    1    1    2    0    0  0.91974468483E+01  0.12357125191E+03 -0.12059088789E+02  0.15432124722E+03  0.91187600000E+02 0.  0.
<mgrwt>
<rscale>  0 0.14736313E+04</rscale>
<asrwt>0</asrwt>
<pdfrwt beam="1">  1        2 0.14266435E+00 0.14736313E+04</pdfrwt>
<pdfrwt beam="2">  1       -2 0.90069033E-01 0.14736313E+04</pdfrwt>
<totfact> 0.28712823E+01</totfact>
</mgrwt>
</event>
<event>
12    1  0.3031299E-011  0.1710043E+04  0.7818608E-02  0.8755657E-01
         -2   -1    0    0    0  501 -0.00000000000E+00  0.00000000000E+00  0.39793858225E+03  0.39793858225E+03  0.00000000000E+00 0.  1.
          2   -1    0    0  501    0  0.00000000000E+00 -0.00000000000E+00 -0.18371230831E+04  0.18371230831E+04  0.00000000000E+00 0. -1.
    9900016    2    1    2    0    0 -0.55393884717E+02 -0.16844531726E+03 -0.48637613752E+03  0.88242833957E+03  0.71461578484E+03 0.  0.
         23    2    3    3    0    0 -0.15756047395E+03  0.17224141252E+03 -0.11568100756E+03  0.27560992151E+03  0.89924002293E+02 0.  0.
         23    2    3    3    0    0 -0.14398528675E+02 -0.27914114041E+02 -0.19139770251E+03  0.22792304547E+03  0.11970513247E+03 0.  0.
        -15    1    4    4    0    0 -0.12800068672E+03  0.93146041440E+02 -0.42596615658E+02  0.16393545225E+03  0.00000000000E+00 0. -1.
        -15    1    5    5    0    0 -0.67435654632E+02 -0.16402053989E+02 -0.11154043039E+03  0.13136918399E+03  0.00000000000E+00 0.  1.
         15    1    4    4    0    0 -0.29559787232E+02  0.79095371079E+02 -0.73084391898E+02  0.11167446927E+03  0.00000000000E+00 0.  1.
         15    1    5    5    0    0  0.53037125957E+02 -0.11512060052E+02 -0.79857272118E+02  0.96553861479E+02  0.00000000000E+00 0. -1.
        -16    1    1    2    0    0 -0.35167935277E+03 -0.68221289012E+02 -0.75142714782E+03  0.83245136190E+03  0.00000000000E+00 0.  1.
         16    1    3    3    0    0  0.11656511791E+03 -0.31277261574E+03 -0.17929742746E+03  0.37889537258E+03  0.00000000000E+00 0. -1.
    9900018    1    1    2    0    0  0.40707323748E+03  0.23666660628E+03 -0.20138121551E+03  0.52018196389E+03  0.91187600000E+02 0.  0.
<mgrwt>
<rscale>  0 0.17100435E+04</rscale>
<asrwt>0</asrwt>
<pdfrwt beam="1">  1        2 0.28263432E+00 0.17100435E+04</pdfrwt>
<pdfrwt beam="2">  1       -2 0.61221319E-01 0.17100435E+04</pdfrwt>
<totfact> 0.19414459E+01</totfact>
</mgrwt>
</event>
<event>
11    1  0.3031299E-011  0.2646733E+04  0.7818608E-02  0.8352498E-01
          2   -1    0    0  501    0  0.00000000000E+00  0.00000000000E+00  0.22721608856E+04  0.22721608856E+04  0.00000000000E+00 0. -1.
         -2   -1    0    0    0  501 -0.00000000000E+00 -0.00000000000E+00 -0.77076376384E+03  0.77076376384E+03  0.00000000000E+00 0.  1.
    9900016    2    1    2    0    0  0.36301079851E+03  0.29728313836E+03  0.10366030780E+04  0.13419276674E+04  0.71138584395E+03 0.  0.
         23    2    3    3    0    0 -0.92991079649E+02 -0.68671103748E+02  0.14281552074E+03  0.20571490773E+03  0.92516425116E+02 0.  0.
        -15    1    3    3    0    0  0.29839135569E+02 -0.24971398957E+02  0.77707025402E+02  0.86904122884E+02  0.00000000000E+00 0. -1.
        -15    1    4    4    0    0 -0.78475079193E+02 -0.94581912223E+01  0.11286048157E+03  0.13778709568E+03  0.00000000000E+00 0.  1.
         15    1    3    3    0    0  0.19948037407E+02 -0.53594041152E+02  0.78927107931E+02  0.97466577911E+02  0.00000000000E+00 0.  1.
         15    1    4    4    0    0 -0.14516000455E+02 -0.59212912526E+02  0.29955039169E+02  0.67927812055E+02  0.00000000000E+00 0. -1.
        -16    1    1    2    0    0 -0.88660164527E+03 -0.32415370400E+03 -0.69946051281E+02  0.94658890301E+03  0.00000000000E+00 0.  1.
         16    1    3    3    0    0  0.40621470518E+03  0.44451968222E+03  0.73715342392E+03  0.95184205884E+03  0.00000000000E+00 0. -1.
    9900018    1    1    2    0    0  0.52359084676E+03  0.26870565633E+02  0.53474009503E+03  0.75440807905E+03  0.91187600000E+02 0.  0.
<mgrwt>
<rscale>  0 0.26467333E+04</rscale>
<asrwt>0</asrwt>
<pdfrwt beam="1">  1        2 0.34956321E+00 0.26467333E+04</pdfrwt>
<pdfrwt beam="2">  1       -2 0.11857904E+00 0.26467333E+04</pdfrwt>
<totfact> 0.22655563E+00</totfact>
</mgrwt>
</event>
