<event>
11    1  0.6358973E-011  0.2577410E+04  0.7818608E-02  0.8375915E-01
          2   -1    0    0  501    0  0.00000000000E+00  0.00000000000E+00  0.17402107702E+04  0.17402107702E+04  0.00000000000E+00 0. -1.
         -2   -1    0    0    0  501 -0.00000000000E+00 -0.00000000000E+00 -0.95434462767E+03  0.95434462767E+03  0.00000000000E+00 0.  1.
    9900016    2    1    2    0    0  0.41357950673E+03  0.38815545532E+02  0.44040795424E+03  0.21542813796E+04  0.20674657050E+04 0.  0.
         24    2    3    3    0    0  0.35722437169E+03 -0.24659451658E+03  0.28948176661E+03  0.52811066970E+03  0.81750100439E+02 0.  0.
        -15    1    4    4    0    0  0.18468359038E+03 -0.82989818170E+02  0.11186582642E+03  0.23132077641E+03  0.00000000000E+00 0.  1.
        -15    1    3    3    0    0  0.53729053247E+02  0.69800630022E+02 -0.10967567503E+03  0.14066873429E+03  0.00000000000E+00 0.  1.
         15    1    3    3    0    0  0.52191287648E+03  0.44802591937E+03 -0.59140605683E+02  0.69037517793E+03  0.00000000000E+00 0. -1.
         15    1    3    3    0    0 -0.56211621521E+03 -0.26115280503E+03  0.29966111457E+03  0.68845639700E+03  0.00000000000E+00 0. -1.
        -16    1    1    2    0    0 -0.41357950673E+03 -0.38815545532E+02  0.34545818832E+03  0.54027401829E+03  0.00000000000E+00 0.  1.
         16    1    4    4    0    0  0.17254078130E+03 -0.16360469841E+03  0.17761594018E+03  0.29678989329E+03  0.00000000000E+00 0. -1.
    9900018    1    3    3    0    0  0.42829420537E+02  0.28736317741E+02  0.20081353770E+02  0.10667040069E+03  0.91187600000E+02 0.  0.
<mgrwt>
<rscale>  0 0.25774102E+04</rscale>
<asrwt>0</asrwt>
<pdfrwt beam="1">  1        2 0.26772473E+00 0.25774102E+04</pdfrwt>
<pdfrwt beam="2">  1       -2 0.14682225E+00 0.25774102E+04</pdfrwt>
<totfact> 0.26177853E+00</totfact>
</mgrwt>
</event>
<event>
11    1  0.6358973E-011  0.3020912E+04  0.7818608E-02  0.8237784E-01
         -1   -1    0    0    0  501 -0.00000000000E+00  0.00000000000E+00  0.17093005711E+04  0.17093005711E+04  0.00000000000E+00 0.  1.
          1   -1    0    0  501    0  0.00000000000E+00 -0.00000000000E+00 -0.13347436257E+04  0.13347436257E+04  0.00000000000E+00 0. -1.
    9900016    2    1    2    0    0 -0.22448688018E+03 -0.70483739260E+02 -0.45807710427E+03  0.20365870523E+04  0.19704034793E+04 0.  0.
         24    2    3    3    0    0 -0.75355424464E+03  0.13477941018E+03  0.25432344031E+03  0.81049689948E+03  0.78837318283E+02 0.  0.
        -15    1    4    4    0    0 -0.18421318534E+03  0.93079945776E+01  0.35829411965E+02  0.18789593709E+03  0.00000000000E+00 0.  1.
        -15    1    3    3    0    0  0.68531271004E+01  0.12586031069E+03  0.11202253524E+03  0.16863223761E+03  0.00000000000E+00 0.  1.
         15    1    3    3    0    0  0.52331277868E+03 -0.35770597833E+03 -0.77396856498E+03  0.10004184979E+04  0.00000000000E+00 0. -1.
         15    1    3    3    0    0 -0.10985413269E+01  0.26582518198E+02 -0.50454514839E+02  0.57039417375E+02  0.00000000000E+00 0. -1.
        -16    1    1    2    0    0  0.20923690086E+03  0.12965711035E+03  0.85982900910E+03  0.89436959465E+03  0.00000000000E+00 0.  1.
         16    1    4    4    0    0 -0.56934105930E+03  0.12547141561E+03  0.21849402834E+03  0.62260096238E+03  0.00000000000E+00 0. -1.
    9900018    1    1    2    0    0  0.15249979323E+02 -0.59173371092E+02 -0.27194959425E+02  0.11308754983E+03  0.91187600000E+02 0.  0.
<mgrwt>
<rscale>  0 0.30209125E+04</rscale>
<asrwt>0</asrwt>
<pdfrwt beam="1">  1        1 0.20534517E+00 0.30209125E+04</pdfrwt>
<pdfrwt beam="2">  1       -1 0.26296932E+00 0.30209125E+04</pdfrwt>
<totfact> 0.41657173E-01</totfact>
</mgrwt>
</event>
<event>
11    1  0.6358973E-011  0.2903048E+04  0.7818608E-02  0.8271971E-01
          2   -1    0    0  501    0  0.00000000000E+00  0.00000000000E+00  0.27291833893E+04  0.27291833893E+04  0.00000000000E+00 0. -1.
         -2   -1    0    0    0  501 -0.00000000000E+00 -0.00000000000E+00 -0.77199699220E+03  0.77199699220E+03  0.00000000000E+00 0.  1.
    9900016    2    1    2    0    0 -0.13561909474E+03  0.55440105031E+03  0.87735282168E+03  0.22323527993E+04  0.19717753379E+04 0.  0.
        -24    2    3    3    0    0  0.11791215673E+03  0.78438500090E+03 -0.19419556564E+03  0.82070803586E+03  0.81771976061E+02 0.  0.
        -15    1    3    3    0    0  0.64192525144E+02 -0.19925044492E+03  0.72878766175E+02  0.22165905044E+03  0.00000000000E+00 0.  1.
        -15    1    3    3    0    0 -0.35396327428E+03 -0.21009849981E+03  0.44187061702E+03  0.60388825237E+03  0.00000000000E+00 0.  1.
         15    1    4    4    0    0 -0.30538973993E+01  0.21322544562E+03 -0.62377031850E+02  0.22218305753E+03  0.00000000000E+00 0. -1.
         15    1    3    3    0    0  0.36239497665E+02  0.17936499414E+03  0.55679900413E+03  0.58609746059E+03  0.00000000000E+00 0. -1.
        -16    1    4    4    0    0  0.12096605413E+03  0.57115955528E+03 -0.13181853380E+03  0.59852497834E+03  0.00000000000E+00 0.  1.
         16    1    1    2    0    0  0.15242005107E+03 -0.52500315780E+03  0.10120666554E+04  0.11502778372E+04  0.00000000000E+00 0. -1.
    9900018    1    1    2    0    0 -0.16800956332E+02 -0.29397892509E+02  0.67766920039E+02  0.11854974510E+03  0.91187600000E+02 0.  0.
<mgrwt>
<rscale>  0 0.29030476E+04</rscale>
<asrwt>0</asrwt>
<pdfrwt beam="1">  1        2 0.41987436E+00 0.29030476E+04</pdfrwt>
<pdfrwt beam="2">  1       -2 0.11876877E+00 0.29030476E+04</pdfrwt>
<totfact> 0.11986992E+00</totfact>
</mgrwt>
</event>
<event>
11    1  0.6358973E-011  0.2913123E+04  0.7818608E-02  0.8268984E-01
         -2   -1    0    0    0  501 -0.00000000000E+00  0.00000000000E+00  0.12322232984E+04  0.12322232984E+04  0.00000000000E+00 0.  1.
          2   -1    0    0  501    0  0.00000000000E+00 -0.00000000000E+00 -0.17217432365E+04  0.17217432365E+04  0.00000000000E+00 0. -1.
    9900016    2    1    2    0    0 -0.22437548615E+03 -0.13609728648E+03  0.31390829313E+03  0.21087661132E+04  0.20686926484E+04 0.  0.
        -24    2    3    3    0    0 -0.57011380624E+03  0.15042589848E+03 -0.32156234864E+03  0.67591943232E+03  0.76203883893E+02 0.  0.
        -15    1    3    3    0    0 -0.65180965937E+01  0.11811492488E+03  0.61651297198E+03  0.62775940111E+03  0.00000000000E+00 0.  1.
        -15    1    3    3    0    0  0.26208011017E+03  0.16853040721E+02  0.45720730776E+02  0.26657155578E+03  0.00000000000E+00 0.  1.
         15    1    4    4    0    0 -0.42128986610E+03  0.75846549943E+02 -0.23206957425E+03  0.48692313326E+03  0.00000000000E+00 0. -1.
         15    1    3    3    0    0  0.76060211069E+02 -0.42371012902E+03 -0.70770111618E+02  0.43626120369E+03  0.00000000000E+00 0. -1.
        -16    1    4    4    0    0 -0.14882394015E+03  0.74579348534E+02 -0.89492774388E+02  0.18899629906E+03  0.00000000000E+00 0.  1.
         16    1    1    2    0    0  0.22437548615E+03  0.13609728648E+03 -0.80342823123E+03  0.84520042174E+03  0.00000000000E+00 0. -1.
    9900018    1    3    3    0    0  0.14116095452E+02  0.22189784607E+01  0.44007050636E+02  0.10225452027E+03  0.91187600000E+02 0.  0.
<mgrwt>
<rscale>  0 0.29131235E+04</rscale>
<asrwt>0</asrwt>
<pdfrwt beam="1">  1        2 0.26488357E+00 0.29131235E+04</pdfrwt>
<pdfrwt beam="2">  1       -2 0.18957282E+00 0.29131235E+04</pdfrwt>
<totfact> 0.12831272E+00</totfact>
</mgrwt>
</event>
