<event>
11    1  0.6185872E-012  0.3226187E+04  0.7818608E-02  0.8515710E-01
         -1   -1    0    0    0  501 -0.00000000000E+00  0.00000000000E+00  0.11435224117E+04  0.11435224117E+04  0.00000000000E+00 0.  1.
          1   -1    0    0  501    0  0.00000000000E+00 -0.00000000000E+00 -0.38030561115E+04  0.38030561115E+04  0.00000000000E+00 0. -1.
         24    2    1    2    0    0 -0.56329284707E+03  0.42052041785E+03 -0.12292752031E+04  0.14175672872E+04  0.65140121656E+02 0.  0.
    9900016    2    1    2    0    0  0.39708698135E+03 -0.48364025704E+03 -0.20636571442E+04  0.28711340815E+04  0.18955590564E+04 0.  0.
        -15    1    4    4    0    0  0.70791694512E+03  0.23563376835E+03 -0.21732360794E+03  0.77710953188E+03  0.00000000000E+00 0.  1.
        -15    1    3    3    0    0 -0.16021544194E+03  0.15544700926E+03 -0.36981967775E+03  0.43197147426E+03  0.00000000000E+00 0.  1.
         15    1    1    2    0    0  0.16620586572E+03  0.63119839185E+02  0.63339864740E+03  0.65787715451E+03  0.00000000000E+00 0. -1.
         15    1    4    4    0    0 -0.30803999409E+03 -0.58312276189E+03 -0.16037818773E+04  0.17340810545E+04  0.00000000000E+00 0. -1.
        -16    1    4    4    0    0 -0.53457149847E+02 -0.14844876125E+03 -0.17200983302E+03  0.23341397611E+03  0.00000000000E+00 0.  1.
         16    1    3    3    0    0 -0.40307740514E+03  0.26507340860E+03 -0.85945552532E+03  0.98559581294E+03  0.00000000000E+00 0. -1.
    9900018    1    4    4    0    0  0.50667180178E+02  0.12297497757E+02 -0.70541825889E+02  0.12652951905E+03  0.91187600000E+02 0.  0.
<mgrwt>
<rscale>  0 0.22065420E+04</rscale>
<asrwt>0</asrwt>
<pdfrwt beam="1">  1        1 0.58508555E+00 0.32261867E+04</pdfrwt>
<pdfrwt beam="2">  1       -1 0.17592653E+00 0.32261867E+04</pdfrwt>
<totfact> 0.25611953E-02</totfact>
</mgrwt>
</event>
<event>
12    1  0.6185871E-012  0.3107314E+04  0.7818608E-02  0.8398586E-01
          2   -1    0    0  501    0  0.00000000000E+00  0.00000000000E+00  0.15873541675E+04  0.15873541675E+04  0.00000000000E+00 0. -1.
         -2   -1    0    0    0  501 -0.00000000000E+00 -0.00000000000E+00 -0.30987712892E+04  0.30987712892E+04  0.00000000000E+00 0.  1.
        -24    2    1    2    0    0 -0.54276005486E+03 -0.12101615347E+04 -0.48147860247E+03  0.14125688828E+04  0.66706721792E+02 0.  0.
    9900016    2    1    2    0    0  0.57403057768E+02  0.10584710611E+04 -0.14262794183E+04  0.25200904120E+04  0.17868762150E+04 0.  0.
         24    2    4    4    0    0  0.91969587519E+03  0.60754597784E+03 -0.77719551665E+03  0.13503929105E+04  0.67642617196E+02 0.  0.
        -15    1    5    5    0    0  0.24923270474E+03  0.17172181589E+03 -0.17780657143E+03  0.35102777669E+03  0.00000000000E+00 0.  1.
        -15    1    1    2    0    0  0.43735853104E+03  0.14770459183E+03  0.44342744111E+03  0.64009923188E+03  0.00000000000E+00 0.  1.
         15    1    3    3    0    0 -0.45996574246E+02 -0.78894072978E+02 -0.18745692224E+02  0.93227466823E+02  0.00000000000E+00 0. -1.
         15    1    4    4    0    0 -0.86229281742E+03  0.45092508329E+03 -0.64908390162E+03  0.11696975015E+04  0.00000000000E+00 0. -1.
        -16    1    3    3    0    0 -0.49676348062E+03 -0.11312674617E+04 -0.46273291024E+03  0.13193414159E+04  0.00000000000E+00 0.  1.
         16    1    5    5    0    0  0.67046317045E+03  0.43582416195E+03 -0.59938894522E+03  0.99936513383E+03  0.00000000000E+00 0. -1.
    9900018    1    1    2    0    0  0.47998466050E+02  0.39858817153E+01 -0.47086542060E+02  0.11336693007E+03  0.91187600000E+02 0.  0.
<mgrwt>
<rscale>  0 0.25123878E+04</rscale>
<asrwt>0</asrwt>
<pdfrwt beam="1">  1        2 0.24420833E+00 0.31073138E+04</pdfrwt>
<pdfrwt beam="2">  1       -2 0.47673404E+00 0.31073138E+04</pdfrwt>
<totfact> 0.21411025E-02</totfact>
</mgrwt>
</event>
<event>
10    1  0.6185871E-012  0.4515241E+04  0.7818608E-02  0.8273006E-01
          2   -1    0    0  501    0  0.00000000000E+00  0.00000000000E+00  0.16720563987E+04  0.16720563987E+04  0.00000000000E+00 0. -1.
         -2   -1    0    0    0  501 -0.00000000000E+00 -0.00000000000E+00 -0.45873543051E+04  0.45873543051E+04  0.00000000000E+00 0.  1.
    9900016    2    1    2    0    0 -0.63019537440E+03 -0.20558052767E+03  0.14814532148E+03  0.20128645556E+04  0.18948000210E+04 0.  0.
        -15    1    1    2    0    0 -0.26199765443E+03 -0.21416486899E+03 -0.20908508077E+01  0.33839877910E+03  0.00000000000E+00 0.  1.
        -15    1    3    3    0    0  0.29297547491E+02  0.27761949683E+03 -0.68815110342E+03  0.74261892815E+03  0.00000000000E+00 0.  1.
         15    1    1    2    0    0  0.12045840828E+04  0.15005738877E+03 -0.32388808821E+04  0.34588855721E+04  0.00000000000E+00 0. -1.
         15    1    3    3    0    0 -0.57594514700E+03 -0.38878582015E+03  0.71453977073E+03  0.99671174883E+03  0.00000000000E+00 0. -1.
        -16    1    3    3    0    0 -0.99474590117E+02 -0.63055161324E+02  0.13004152403E+03  0.17544784245E+03  0.00000000000E+00 0.  1.
         16    1    1    2    0    0 -0.31239105396E+03  0.26968800789E+03  0.17752850499E+03  0.44926179704E+03  0.00000000000E+00 0. -1.
    9900018    1    3    3    0    0  0.15926815219E+02 -0.31359043021E+02 -0.82848698693E+01  0.98086036135E+02  0.91187600000E+02 0.  0.
<mgrwt>
<rscale>  0 0.28995676E+04</rscale>
<asrwt>0</asrwt>
<pdfrwt beam="1">  1        2 0.25723945E+00 0.45152412E+04</pdfrwt>
<pdfrwt beam="2">  1       -2 0.70574681E+00 0.45152412E+04</pdfrwt>
<totfact> 0.16241499E-03</totfact>
</mgrwt>
</event>
<event>
11    1  0.6185871E-012  0.3764518E+04  0.7818608E-02  0.8687304E-01
         -1   -1    0    0    0  501 -0.00000000000E+00  0.00000000000E+00  0.10781288744E+04  0.10781288744E+04  0.00000000000E+00 0.  1.
          1   -1    0    0  501    0  0.00000000000E+00 -0.00000000000E+00 -0.39731019418E+04  0.39731019418E+04  0.00000000000E+00 0. -1.
         24    2    1    2    0    0  0.10169886146E+02 -0.20475947410E+03  0.10502483119E+03  0.23754342060E+03  0.58024069906E+02 0.  0.
    9900016    2    1    2    0    0 -0.74779095470E+03 -0.58531746895E+03 -0.65594312169E+03  0.21350578067E+04  0.17962245427E+04 0.  0.
        -15    1    3    3    0    0  0.18350582803E+02 -0.67394679090E+02  0.61918001179E+02  0.93341445933E+02  0.00000000000E+00 0.  1.
        -15    1    4    4    0    0 -0.92757285829E+03  0.37002756234E+03 -0.89509672117E+02  0.10026583594E+04  0.00000000000E+00 0.  1.
         15    1    1    2    0    0  0.77746929354E+03  0.84335628824E+03 -0.22708104604E+04  0.25440692755E+04  0.00000000000E+00 0. -1.
         15    1    4    4    0    0  0.53555685286E+02 -0.20485786885E+03 -0.66854491713E+02  0.22204612340E+03  0.00000000000E+00 0. -1.
        -16    1    4    4    0    0  0.12622621830E+03 -0.75048716244E+03 -0.49957895786E+03  0.91035332389E+03  0.00000000000E+00 0.  1.
         16    1    3    3    0    0 -0.81806966572E+01 -0.13736479501E+03  0.43106830012E+02  0.14420197467E+03  0.00000000000E+00 0. -1.
    9900018    1    1    2    0    0 -0.39848224993E+02 -0.53279345196E+02 -0.73244316445E+02  0.13456031341E+03  0.91187600000E+02 0.  0.
<mgrwt>
<rscale>  0 0.18361580E+04</rscale>
<asrwt>0</asrwt>
<pdfrwt beam="1">  1        1 0.61124644E+00 0.37645184E+04</pdfrwt>
<pdfrwt beam="2">  1       -1 0.16586598E+00 0.37645184E+04</pdfrwt>
<totfact> 0.21042795E-02</totfact>
</mgrwt>
</event>
<event>
12    1  0.6185871E-012  0.2479854E+04  0.7818608E-02  0.8706401E-01
          2   -1    0    0  501    0  0.00000000000E+00  0.00000000000E+00  0.25044142748E+04  0.25044142748E+04  0.00000000000E+00 0. -1.
         -2   -1    0    0    0  501 -0.00000000000E+00 -0.00000000000E+00 -0.16033656606E+04  0.16033656606E+04  0.00000000000E+00 0.  1.
         24    2    1    2    0    0 -0.15707323281E+03  0.66233754754E+03  0.14166378386E+04  0.15748948363E+04  0.10033918566E+03 0.  0.
    9900016    2    1    2    0    0 -0.15865002545E+03 -0.51634883608E+03 -0.49457870070E+02  0.18823394890E+04  0.18024899222E+04 0.  0.
        -24    2    4    4    0    0  0.47037719073E+03  0.38930905265E+03 -0.39234760765E+03  0.72758201561E+03  0.51212343904E+02 0.  0.
        -15    1    3    3    0    0 -0.95336239704E+02  0.30756803982E+03  0.56620358121E+03  0.65136287359E+03  0.00000000000E+00 0.  1.
        -15    1    4    4    0    0 -0.62902721618E+03 -0.90565788873E+03  0.34288973758E+03  0.11547574733E+04  0.00000000000E+00 0.  1.
         15    1    1    2    0    0  0.30032023509E+03 -0.15014607252E+03 -0.44165271398E+03  0.55479113769E+03  0.00000000000E+00 0. -1.
         15    1    5    5    0    0  0.21017860988E+03  0.19539542755E+03 -0.16102178203E+03  0.32906296577E+03  0.00000000000E+00 0. -1.
        -16    1    5    5    0    0  0.26019858086E+03  0.19391362510E+03 -0.23132582563E+03  0.39851904984E+03  0.00000000000E+00 0.  1.
         16    1    3    3    0    0 -0.61736993102E+02  0.35476950772E+03  0.85043425739E+03  0.92353196267E+03  0.00000000000E+00 0. -1.
    9900018    1    1    2    0    0  0.15403023165E+02  0.41573610662E+01 -0.24478640413E+02  0.95754472501E+02  0.91187600000E+02 0.  0.
<mgrwt>
<rscale>  0 0.17998099E+04</rscale>
<asrwt>0</asrwt>
<pdfrwt beam="1">  1        2 0.38529450E+00 0.24798538E+04</pdfrwt>
<pdfrwt beam="2">  1       -2 0.24667164E+00 0.24798538E+04</pdfrwt>
<totfact> 0.19979917E-01</totfact>
</mgrwt>
</event>
<event>
11    1  0.6185871E-012  0.3212705E+04  0.7818608E-02  0.8606295E-01
          2   -1    0    0  501    0  0.00000000000E+00  0.00000000000E+00  0.28419352675E+04  0.28419352675E+04  0.00000000000E+00 0. -1.
         -2   -1    0    0    0  501 -0.00000000000E+00 -0.00000000000E+00 -0.13598732393E+04  0.13598732393E+04  0.00000000000E+00 0.  1.
         24    2    1    2    0    0 -0.38330346330E+03 -0.28935446978E+03  0.77331178001E+03  0.91185399979E+03  0.53094761251E+02 0.  0.
    9900016    2    1    2    0    0  0.43066844615E+03 -0.72513800722E+03  0.79321599544E+03  0.21428481590E+04  0.18031378697E+04 0.  0.
        -15    1    4    4    0    0 -0.64752326511E+03 -0.61430427963E+03  0.23580624960E+03  0.92317967600E+03  0.00000000000E+00 0.  1.
        -15    1    3    3    0    0 -0.28919092775E+02 -0.41539047412E+02  0.74625197197E+02  0.90170540885E+02  0.00000000000E+00 0.  1.
         15    1    4    4    0    0  0.10439676675E+04 -0.10469193722E+03  0.53046394753E+03  0.11756789069E+04  0.00000000000E+00 0. -1.
         15    1    1    2    0    0 -0.86336764820E+02  0.10382047273E+04 -0.83646523256E+02  0.10451410592E+04  0.00000000000E+00 0. -1.
        -16    1    4    4    0    0  0.34224043745E+02 -0.61417903626E+01  0.26945798307E+02  0.43989576101E+02  0.00000000000E+00 0.  1.
         16    1    3    3    0    0 -0.35438437052E+03 -0.24781542237E+03  0.69868658282E+03  0.82168345891E+03  0.00000000000E+00 0. -1.
    9900018    1    1    2    0    0  0.38971781970E+02 -0.23712250339E+02 -0.81922398009E+00  0.10196528884E+03  0.91187600000E+02 0.  0.
<mgrwt>
<rscale>  0 0.20006966E+04</rscale>
<asrwt>0</asrwt>
<pdfrwt beam="1">  1        2 0.43722081E+00 0.32127051E+04</pdfrwt>
<pdfrwt beam="2">  1       -2 0.20921127E+00 0.32127051E+04</pdfrwt>
<totfact> 0.20745203E-01</totfact>
</mgrwt>
</event>
<event>
11    1  0.6185871E-012  0.2742809E+04  0.7818608E-02  0.8581766E-01
          2   -1    0    0  501    0  0.00000000000E+00  0.00000000000E+00  0.83915746398E+03  0.83915746398E+03  0.00000000000E+00 0. -1.
         -2   -1    0    0    0  501 -0.00000000000E+00 -0.00000000000E+00 -0.50055864551E+04  0.50055864551E+04  0.00000000000E+00 0.  1.
    9900016    2    1    2    0    0  0.47222850794E+03  0.59858224600E+03 -0.31841379786E+04  0.37857084500E+04  0.19004087277E+04 0.  0.
         24    2    3    3    0    0  0.94751038120E+03  0.78860298645E+03 -0.24194870061E+04  0.27160289490E+04  0.56791607028E+02 0.  0.
        -15    1    1    2    0    0  0.38167686084E+03 -0.57885513492E+03 -0.97491708129E+03  0.11963334856E+04  0.00000000000E+00 0.  1.
        -15    1    4    4    0    0  0.40304795557E+03  0.32126004367E+03 -0.95500672149E+03  0.10852158809E+04  0.00000000000E+00 0.  1.
         15    1    3    3    0    0 -0.53719871426E+03 -0.27904987883E+03 -0.59759473123E+03  0.85062962344E+03  0.00000000000E+00 0. -1.
         15    1    1    2    0    0 -0.48042714525E+03 -0.16819863232E+02 -0.63933105841E+02  0.48495421610E+03  0.00000000000E+00 0. -1.
        -16    1    1    2    0    0 -0.37347822353E+03 -0.29072478464E+01  0.56559174663E+02  0.37774776741E+03  0.00000000000E+00 0.  1.
         16    1    4    4    0    0  0.54446242563E+03  0.46734294278E+03 -0.14644802846E+04  0.16308130681E+04  0.00000000000E+00 0. -1.
    9900018    1    3    3    0    0  0.61916841000E+02  0.89029138382E+02 -0.16705624131E+03  0.21904987750E+03  0.91187600000E+02 0.  0.
<mgrwt>
<rscale>  0 0.20540357E+04</rscale>
<asrwt>0</asrwt>
<pdfrwt beam="1">  1        2 0.12910115E+00 0.27428093E+04</pdfrwt>
<pdfrwt beam="2">  1       -2 0.77009022E+00 0.27428093E+04</pdfrwt>
<totfact> 0.31508227E-03</totfact>
</mgrwt>
</event>
<event>
12    1  0.6185871E-012  0.3991941E+04  0.7818608E-02  0.8006174E-01
         -2   -1    0    0    0  501 -0.00000000000E+00  0.00000000000E+00  0.13216617077E+04  0.13216617077E+04  0.00000000000E+00 0.  1.
          2   -1    0    0  501    0  0.00000000000E+00 -0.00000000000E+00 -0.30143105337E+04  0.30143105337E+04  0.00000000000E+00 0. -1.
        -24    2    1    2    0    0  0.65420634995E+03  0.30610825835E+03 -0.18457637999E+04  0.19829266479E+04  0.58871656568E+02 0.  0.
    9900016    2    1    2    0    0 -0.75815362955E+03 -0.25284754551E+03 -0.13099387400E+02  0.19712443427E+04  0.18019167177E+04 0.  0.
         24    2    4    4    0    0 -0.11416268972E+04 -0.71008501312E+03  0.14654217249E+03  0.13535038823E+04  0.54455971799E+02 0.  0.
        -15    1    1    2    0    0  0.19387256399E+03 -0.14800063794E+02  0.15302757024E+03  0.24743292062E+03  0.00000000000E+00 0.  1.
        -15    1    5    5    0    0 -0.63384507806E+03 -0.36237287263E+03  0.77667838710E+02  0.73423836387E+03  0.00000000000E+00 0.  1.
         15    1    3    3    0    0  0.16776356720E+03  0.74692568967E+02 -0.40261903714E+03  0.44252195811E+03  0.00000000000E+00 0. -1.
         15    1    4    4    0    0  0.38347326765E+03  0.45723746761E+03 -0.15964155989E+03  0.61774046042E+03  0.00000000000E+00 0. -1.
        -16    1    3    3    0    0  0.48644278275E+03  0.23141568938E+03 -0.14431447627E+04  0.15404046898E+04  0.00000000000E+00 0.  1.
         16    1    5    5    0    0 -0.50778181914E+03 -0.34771214049E+03  0.68874333777E+02  0.61926551845E+03  0.00000000000E+00 0. -1.
    9900018    1    1    2    0    0 -0.89925284390E+02 -0.38460649051E+02  0.13186791001E+02  0.13436833016E+03  0.91187600000E+02 0.  0.
<mgrwt>
<rscale>  0 0.39919413E+04</rscale>
<asrwt>0</asrwt>
<pdfrwt beam="1">  1        2 0.46374008E+00 0.39919413E+04</pdfrwt>
<pdfrwt beam="2">  1       -2 0.20333257E+00 0.39919413E+04</pdfrwt>
<totfact> 0.17017659E-01</totfact>
</mgrwt>
</event>
<event>
12    1  0.6185871E-012  0.2503358E+04  0.7818608E-02  0.9005891E-01
         -1   -1    0    0    0  501 -0.00000000000E+00  0.00000000000E+00  0.85565856360E+03  0.85565856360E+03  0.00000000000E+00 0.  1.
          1   -1    0    0  501    0  0.00000000000E+00 -0.00000000000E+00 -0.21963330755E+04  0.21963330755E+04  0.00000000000E+00 0. -1.
        -24    2    1    2    0    0  0.30186280984E+02 -0.18634829834E+03 -0.25373190910E+03  0.32284382997E+03  0.64894968976E+02 0.  0.
    9900016    2    1    2    0    0 -0.49442651092E+03 -0.94642092534E+01 -0.59850325829E+03  0.19576327049E+04  0.17971011410E+04 0.  0.
         24    2    4    4    0    0  0.10873835158E+03  0.61624008732E+03  0.30620092956E+03  0.70311949827E+03  0.95090195401E+02 0.  0.
        -15    1    1    2    0    0  0.46552861133E+03  0.19456609621E+03 -0.43226258354E+03  0.66439731704E+03  0.00000000000E+00 0.  1.
        -15    1    5    5    0    0  0.63363555685E+02  0.13554591241E+03  0.60829996291E+02  0.16151756254E+03  0.00000000000E+00 0.  1.
         15    1    4    4    0    0 -0.60316486250E+03 -0.62570429657E+03 -0.90470418785E+03  0.12545132066E+04  0.00000000000E+00 0. -1.
         15    1    3    3    0    0 -0.12825245571E+02 -0.33604810502E+02 -0.22590935803E+02  0.42474940769E+02  0.00000000000E+00 0. -1.
        -16    1    3    3    0    0  0.43011526555E+02 -0.15274348784E+03 -0.23114097330E+03  0.28036888920E+03  0.00000000000E+00 0.  1.
         16    1    5    5    0    0  0.45374795895E+02  0.48069417491E+03  0.24537093327E+03  0.54160193573E+03  0.00000000000E+00 0. -1.
    9900018    1    1    2    0    0 -0.12883813934E+01  0.12464113859E+01 -0.56176761011E+02  0.10711778722E+03  0.91187600000E+02 0.  0.
<mgrwt>
<rscale>  0 0.13302812E+04</rscale>
<asrwt>0</asrwt>
<pdfrwt beam="1">  1        1 0.33789739E+00 0.25033585E+04</pdfrwt>
<pdfrwt beam="2">  1       -1 0.13163978E+00 0.25033585E+04</pdfrwt>
<totfact> 0.94896484E-01</totfact>
</mgrwt>
</event>
<event>
12    1  0.6185871E-012  0.4022169E+04  0.7818608E-02  0.8000089E-01
         -1   -1    0    0    0  501 -0.00000000000E+00  0.00000000000E+00  0.11991390037E+04  0.11991390037E+04  0.00000000000E+00 0.  1.
          1   -1    0    0  501    0  0.00000000000E+00 -0.00000000000E+00 -0.33728033993E+04  0.33728033993E+04  0.00000000000E+00 0. -1.
        -24    2    1    2    0    0 -0.96157755044E+03 -0.56499946230E+03 -0.13551567432E+04  0.17574692683E+04  0.91611422111E+02 0.  0.
    9900016    2    1    2    0    0  0.65791452426E+03  0.93928055631E+03 -0.61313491396E+03  0.22905690093E+04  0.18856490869E+04 0.  0.
         24    2    4    4    0    0  0.11965211069E+04  0.89474572928E+03 -0.43597823857E+03  0.15592459233E+04  0.94541766358E+02 0.  0.
        -15    1    5    5    0    0  0.53081329393E+03  0.40493704072E+03 -0.24340352094E+03  0.71062087921E+03  0.00000000000E+00 0.  1.
        -15    1    1    2    0    0  0.30366302617E+03 -0.37428109401E+03 -0.20537273847E+03  0.52390412530E+03  0.00000000000E+00 0.  1.
         15    1    4    4    0    0 -0.59171053553E+03  0.69457359714E+01 -0.11368684106E+03  0.60257306523E+03  0.00000000000E+00 0. -1.
         15    1    3    3    0    0 -0.53082917565E+03 -0.29415125830E+03 -0.80428493124E+03  0.10075608305E+04  0.00000000000E+00 0. -1.
        -16    1    3    3    0    0 -0.43074837478E+03 -0.27084820400E+03 -0.55087181192E+03  0.74990843784E+03  0.00000000000E+00 0.  1.
         16    1    5    5    0    0  0.66570781300E+03  0.48980868856E+03 -0.19257471764E+03  0.84862504414E+03  0.00000000000E+00 0. -1.
    9900018    1    4    4    0    0  0.53103952863E+02  0.37589091067E+02 -0.63469834326E+02  0.12875002074E+03  0.91187600000E+02 0.  0.
<mgrwt>
<rscale>  0 0.40221686E+04</rscale>
<asrwt>0</asrwt>
<pdfrwt beam="1">  1        1 0.51889283E+00 0.40221686E+04</pdfrwt>
<pdfrwt beam="2">  1       -1 0.18448292E+00 0.40221686E+04</pdfrwt>
<totfact> 0.47365195E-02</totfact>
</mgrwt>
</event>
<event>
11    1  0.6185871E-012  0.3237598E+04  0.7818608E-02  0.8410270E-01
         -2   -1    0    0    0  501 -0.00000000000E+00  0.00000000000E+00  0.29379837582E+04  0.29379837582E+04  0.00000000000E+00 0.  1.
          2   -1    0    0  501    0  0.00000000000E+00 -0.00000000000E+00 -0.19252219144E+04  0.19252219144E+04  0.00000000000E+00 0. -1.
        -24    2    1    2    0    0  0.87872604700E+03 -0.67640364471E+03 -0.57896337631E+03  0.12554872089E+04  0.10662168793E+03 0.  0.
    9900016    2    1    2    0    0 -0.12764553183E+04 -0.25249871115E+02  0.14836313049E+04  0.26595117439E+04  0.18005180175E+04 0.  0.
        -15    1    4    4    0    0 -0.46958265585E+03 -0.47977764186E+03  0.73453079191E+03  0.99510297988E+03  0.00000000000E+00 0.  1.
        -15    1    1    2    0    0  0.43062117691E+03  0.67892533928E+03  0.37535093598E+01  0.80398277540E+03  0.00000000000E+00 0.  1.
         15    1    3    3    0    0  0.70929048782E+03 -0.51868018071E+03 -0.41472768653E+03  0.97165898336E+03  0.00000000000E+00 0. -1.
         15    1    4    4    0    0 -0.49361128303E+03  0.80478908503E+03  0.24525670152E+03  0.97544267887E+03  0.00000000000E+00 0. -1.
        -16    1    3    3    0    0  0.16943555917E+03 -0.15772346400E+03 -0.16423568978E+03  0.28382822553E+03  0.00000000000E+00 0.  1.
         16    1    4    4    0    0 -0.31326137947E+03 -0.35026131429E+03  0.50384381143E+03  0.68896608514E+03  0.00000000000E+00 0. -1.
    9900018    1    1    2    0    0 -0.32891905552E+02  0.22728176549E+02  0.10434040583E+03  0.14422394441E+03  0.91187600000E+02 0.  0.
<mgrwt>
<rscale>  0 0.24796531E+04</rscale>
<asrwt>0</asrwt>
<pdfrwt beam="1">  1        2 0.29618799E+00 0.32375984E+04</pdfrwt>
<pdfrwt beam="2">  1       -2 0.45199750E+00 0.32375984E+04</pdfrwt>
<totfact> 0.19842478E-02</totfact>
</mgrwt>
</event>
<event>
12    1  0.6185871E-012  0.3566830E+04  0.7818608E-02  0.8530948E-01
          2   -1    0    0  501    0  0.00000000000E+00  0.00000000000E+00  0.15310869019E+04  0.15310869019E+04  0.00000000000E+00 0.  1.
         -2   -1    0    0    0  501 -0.00000000000E+00 -0.00000000000E+00 -0.32958076138E+04  0.32958076138E+04  0.00000000000E+00 0. -1.
        -24    2    1    2    0    0  0.22613731318E+03  0.42348037979E+03 -0.10930650365E+04  0.11973767072E+04  0.91902603786E+02 0.  0.
    9900016    2    1    2    0    0 -0.15811235788E+03 -0.55874745413E+03 -0.16116483248E+04  0.24826494647E+04  0.17969250977E+04 0.  0.
         24    2    4    4    0    0 -0.45254623075E+03  0.50182991230E+03 -0.23766803426E+03  0.72215592754E+03  0.91606426243E+02 0.  0.
        -15    1    5    5    0    0 -0.24599491118E+03  0.26284912964E+03 -0.17434437866E+03  0.39999890456E+03  0.00000000000E+00 0.  1.
        -15    1    1    2    0    0 -0.33310908828E+02  0.18225627336E+03  0.10040792160E+04  0.10210298908E+04  0.00000000000E+00 0.  1.
         15    1    3    3    0    0  0.94581122355E+02  0.96108212522E+02 -0.26687049825E+03  0.29900207366E+03  0.00000000000E+00 0. -1.
         15    1    4    4    0    0  0.29443387286E+03 -0.10605773664E+04 -0.13739802905E+04  0.17604935372E+04  0.00000000000E+00 0. -1.
        -16    1    3    3    0    0  0.13155619082E+03  0.32737216727E+03 -0.82619453822E+03  0.89837463356E+03  0.00000000000E+00 0.  1.
         16    1    5    5    0    0 -0.20655131957E+03  0.23898078266E+03 -0.63323655596E+02  0.32215702298E+03  0.00000000000E+00 0. -1.
    9900018    1    1    2    0    0 -0.34714046466E+02 -0.46989199025E+02 -0.64086566562E+02  0.12583845300E+03  0.91187600000E+02 0.  0.
<mgrwt>
<rscale>  0 0.21701680E+04</rscale>
<asrwt>0</asrwt>
<pdfrwt beam="1">  1        2 0.23555184E+00 0.35668303E+04</pdfrwt>
<pdfrwt beam="2">  1       -2 0.50704732E+00 0.35668303E+04</pdfrwt>
<totfact> 0.14437680E-02</totfact>
</mgrwt>
</event>
<event>
12    1  0.6185871E-012  0.4492646E+04  0.7818608E-02  0.7911925E-01
          2   -1    0    0  501    0  0.00000000000E+00  0.00000000000E+00  0.19178102300E+04  0.19178102300E+04  0.00000000000E+00 0. -1.
         -2   -1    0    0    0  501 -0.00000000000E+00 -0.00000000000E+00 -0.26311090454E+04  0.26311090454E+04  0.00000000000E+00 0.  1.
        -24    2    1    2    0    0 -0.44195647642E+03  0.76149131185E+03  0.63100144481E+02  0.88935652912E+03  0.10853046850E+03 0.  0.
    9900016    2    1    2    0    0  0.11929241474E+04 -0.56038029430E+03  0.22745553019E+03  0.22419052236E+04  0.17992523218E+04 0.  0.
         24    2    4    4    0    0 -0.28854717797E+03  0.16239057707E+03  0.46297554292E+03  0.57678519882E+03  0.93298653780E+02 0.  0.
        -15    1    1    2    0    0 -0.82760610538E+03 -0.20047626759E+03 -0.97612606053E+03  0.12953550423E+04  0.00000000000E+00 0.  1.
        -15    1    5    5    0    0 -0.95272640315E+02  0.23441346702E+02  0.19542561225E+03  0.21867222652E+03  0.00000000000E+00 0.  1.
         15    1    3    3    0    0 -0.23244779935E+03  0.48722224589E+03  0.82692269438E+01  0.53989431968E+03  0.00000000000E+00 0. -1.
         15    1    4    4    0    0  0.14814713254E+04 -0.72277087137E+03 -0.23552001273E+03  0.16651200248E+04  0.00000000000E+00 0. -1.
        -16    1    3    3    0    0 -0.20950867707E+03  0.27426906596E+03  0.54830917537E+02  0.34946220944E+03  0.00000000000E+00 0.  1.
         16    1    5    5    0    0 -0.19327453766E+03  0.13894923037E+03  0.26754993067E+03  0.35811297230E+03  0.00000000000E+00 0. -1.
    9900018    1    1    2    0    0  0.76638434355E+02 -0.63474995992E+00 -0.27728429535E+02  0.12230248046E+03  0.91187600000E+02 0.  0.
<mgrwt>
<rscale>  0 0.44926464E+04</rscale>
<asrwt>0</asrwt>
<pdfrwt beam="1">  1        2 0.29504773E+00 0.44926464E+04</pdfrwt>
<pdfrwt beam="2">  1       -2 0.40478600E+00 0.44926464E+04</pdfrwt>
<totfact> 0.38866040E-02</totfact>
</mgrwt>
</event>
<event>
11    1  0.6185871E-012  0.2865068E+04  0.7818608E-02  0.8420645E-01
          2   -1    0    0  501    0  0.00000000000E+00  0.00000000000E+00  0.29717154953E+04  0.29717154953E+04  0.00000000000E+00 0. -1.
         -2   -1    0    0    0  501 -0.00000000000E+00 -0.00000000000E+00 -0.28527721749E+04  0.28527721749E+04  0.00000000000E+00 0.  1.
        -24    2    1    2    0    0 -0.97171305613E+03 -0.11842676319E+04  0.19066079869E+04  0.24474531088E+04  0.90313988937E+02 0.  0.
    9900016    2    1    2    0    0  0.53876302394E+03  0.12756988823E+04 -0.13971455712E+04  0.26575362843E+04  0.17868436197E+04 0.  0.
        -15    1    4    4    0    0  0.63713823157E+03  0.12902090324E+03 -0.12115159731E+03  0.66126335837E+03  0.00000000000E+00 0.  1.
        -15    1    1    2    0    0  0.34031254217E+03 -0.23130900209E+03 -0.24002205868E+03  0.47636862771E+03  0.00000000000E+00 0.  1.
         15    1    4    4    0    0 -0.44025908113E+03  0.10731506364E+04 -0.11232342661E+04  0.16146626779E+04  0.00000000000E+00 0. -1.
         15    1    3    3    0    0 -0.22589623235E+03 -0.33178360803E+03  0.47192064685E+03  0.61953092519E+03  0.00000000000E+00 0. -1.
        -16    1    3    3    0    0 -0.74581682378E+03 -0.85248402386E+03  0.14346873401E+04  0.18279221836E+04  0.00000000000E+00 0.  1.
         16    1    4    4    0    0  0.34188387350E+03  0.73527342620E+02 -0.15275970779E+03  0.38161024803E+03  0.00000000000E+00 0. -1.
    9900018    1    1    2    0    0  0.92637490026E+02  0.13987775172E+03 -0.15049703667E+03  0.24312964942E+03  0.91187600000E+02 0.  0.
<mgrwt>
<rscale>  0 0.24510222E+04</rscale>
<asrwt>0</asrwt>
<pdfrwt beam="1">  1        2 0.45718700E+00 0.28650685E+04</pdfrwt>
<pdfrwt beam="2">  1       -2 0.43888802E+00 0.28650685E+04</pdfrwt>
<totfact> 0.60027134E-03</totfact>
</mgrwt>
</event>
<event>
10    1  0.6185871E-012  0.2586729E+04  0.7818608E-02  0.8552814E-01
         -2   -1    0    0    0  501 -0.00000000000E+00  0.00000000000E+00  0.14820403840E+04  0.14820403840E+04  0.00000000000E+00 0. -1.
          2   -1    0    0  501    0  0.00000000000E+00 -0.00000000000E+00 -0.24203208549E+04  0.24203208549E+04  0.00000000000E+00 0.  1.
    9900016    2    1    2    0    0  0.56340074562E+03  0.39690575285E+02 -0.44058771612E+03  0.19443095863E+04  0.18075470920E+04 0.  0.
        -15    1    3    3    0    0 -0.18908388850E+03  0.64184699506E+02 -0.98625641272E+03  0.10062674119E+04  0.00000000000E+00 0.  1.
        -15    1    1    2    0    0 -0.79675573439E+03 -0.18902985188E+02 -0.31645952639E+03  0.85751014862E+03  0.00000000000E+00 0.  1.
         15    1    1    2    0    0  0.57173891013E+03 -0.67515236700E+02  0.53828417096E+02  0.57822243733E+03  0.00000000000E+00 0. -1.
         15    1    3    3    0    0  0.67580969498E+03  0.85136735513E+01  0.51255782362E+03  0.84823743670E+03  0.00000000000E+00 0. -1.
        -16    1    3    3    0    0  0.76674939138E+02 -0.33007797773E+02  0.33110872980E+02  0.89804737710E+02  0.00000000000E+00 0.  1.
         16    1    1    2    0    0 -0.36054676584E+03  0.45195591766E+02 -0.22625661923E+03  0.42805218095E+03  0.00000000000E+00 0. -1.
    9900018    1    1    2    0    0  0.22162844476E+02  0.15320548378E+01 -0.88050261921E+01  0.94266885741E+02  0.91187600000E+02 0.  0.
<mgrwt>
<rscale>  0 0.21192433E+04</rscale>
<asrwt>0</asrwt>
<pdfrwt beam="1">  1        2 0.37235705E+00 0.25867287E+04</pdfrwt>
<pdfrwt beam="2">  1       -2 0.22800621E+00 0.25867287E+04</pdfrwt>
<totfact> 0.29112483E-01</totfact>
</mgrwt>
</event>
<event>
11    1  0.6185871E-012  0.3771267E+04  0.7818608E-02  0.8412205E-01
          3   -1    0    0  501    0  0.00000000000E+00  0.00000000000E+00  0.16516063934E+04  0.16516063934E+04  0.00000000000E+00 0. -1.
         -3   -1    0    0    0  501 -0.00000000000E+00 -0.00000000000E+00 -0.31609233947E+04  0.31609233947E+04  0.00000000000E+00 0.  1.
         24    2    1    2    0    0  0.41488008665E+03  0.55884689014E+03  0.11168879023E+03  0.70764070896E+03  0.62013338915E+02 0.  0.
    9900016    2    1    2    0    0 -0.25476656293E+03  0.72425659963E+03 -0.18924866391E+04  0.27836424116E+04  0.18914824272E+04 0.  0.
        -15    1    3    3    0    0  0.33183112653E+03  0.41476670817E+03  0.10333232047E+03  0.54112927031E+03  0.00000000000E+00 0.  1.
        -15    1    4    4    0    0  0.35826303569E+03  0.95633263368E+03 -0.39897005888E+03  0.10964039479E+04  0.00000000000E+00 0.  1.
         15    1    4    4    0    0 -0.18858941675E+02 -0.75759202539E+01 -0.27363667256E+02  0.34085547296E+02  0.00000000000E+00 0. -1.
         15    1    1    2    0    0 -0.16011352371E+03 -0.12831034898E+04  0.27148084762E+03  0.13212466676E+04  0.00000000000E+00 0. -1.
        -16    1    4    4    0    0 -0.61595922240E+03 -0.22973062946E+03 -0.13654387499E+04  0.15154553459E+04  0.00000000000E+00 0.  1.
         16    1    3    3    0    0  0.83048960119E+02  0.14408018197E+03  0.83564697592E+01  0.16651143865E+03  0.00000000000E+00 0. -1.
    9900018    1    4    4    0    0  0.21788565443E+02  0.52305156605E+01 -0.10071416313E+03  0.13769757052E+03  0.91187600000E+02 0.  0.
<mgrwt>
<rscale>  0 0.24742822E+04</rscale>
<asrwt>0</asrwt>
<pdfrwt beam="1">  1        3 0.25409329E+00 0.37712670E+04</pdfrwt>
<pdfrwt beam="2">  1       -3 0.48629590E+00 0.37712670E+04</pdfrwt>
<totfact> 0.50330755E-04</totfact>
</mgrwt>
</event>
