<event>
11    1  0.2720171E-013  0.3320047E+04  0.7818608E-02  0.8270256E-01
         -2   -1    0    0    0  501 -0.00000000000E+00  0.00000000000E+00  0.14266449218E+04  0.14266449218E+04  0.00000000000E+00 0. -1.
          2   -1    0    0  501    0  0.00000000000E+00 -0.00000000000E+00 -0.49067924345E+04  0.49067924345E+04  0.00000000000E+00 0.  1.
    9900016    2    1    2    0    0 -0.66573328552E+03  0.42875172044E+03 -0.16510779423E+04  0.27131935935E+04  0.20020819810E+04 0.  0.
         24    2    3    3    0    0 -0.19616175022E+03  0.63787935275E+03 -0.70973156354E+03  0.97595744059E+03  0.58348373071E+02 0.  0.
        -15    1    1    2    0    0 -0.66163754413E+03 -0.65837917447E+03 -0.93471722554E+03  0.13209555893E+04  0.00000000000E+00 0.  1.
        -15    1    4    4    0    0 -0.38703125164E+02  0.10831348142E+03 -0.92670237792E+02  0.14770753240E+03  0.00000000000E+00 0.  1.
         15    1    3    3    0    0 -0.54550324863E+02  0.10873235030E+03  0.33423193704E+03  0.35568166903E+03  0.00000000000E+00 0. -1.
         15    1    1    2    0    0  0.59154012352E+03 -0.67252940365E+03 -0.12619239144E+03  0.90451093756E+03  0.00000000000E+00 0. -1.
        -16    1    1    2    0    0  0.73583070613E+03  0.90215685768E+03 -0.76815995346E+03  0.13947772360E+04  0.00000000000E+00 0.  1.
         16    1    4    4    0    0 -0.15745862505E+03  0.52956587133E+03 -0.61706132575E+03  0.82824990819E+03  0.00000000000E+00 0. -1.
    9900018    1    3    3    0    0 -0.41502121044E+03 -0.31785998261E+03 -0.12755783158E+04  0.13815544838E+04  0.91187600000E+02 0.  0.
<mgrwt>
<rscale>  0 0.29088272E+04</rscale>
<asrwt>0</asrwt>
<pdfrwt beam="1">  1        2 0.75489115E+00 0.33200470E+04</pdfrwt>
<pdfrwt beam="2">  1       -2 0.21948383E+00 0.33200470E+04</pdfrwt>
<totfact> 0.35098616E-03</totfact>
</mgrwt>
</event>
<event>
11    1  0.2720171E-013  0.7659140E+04  0.7818608E-02  0.7513031E-01
         -2   -1    0    0    0  501 -0.00000000000E+00  0.00000000000E+00  0.44374688982E+04  0.44374688982E+04  0.00000000000E+00 0.  1.
          2   -1    0    0  501    0  0.00000000000E+00 -0.00000000000E+00 -0.33049485361E+04  0.33049485361E+04  0.00000000000E+00 0. -1.
    9900016    2    1    2    0    0  0.96818462925E+02 -0.54194256211E+03  0.58054692042E+03  0.21591854204E+04  0.20054853272E+04 0.  0.
        -24    2    3    3    0    0  0.47095712216E+03 -0.10204500554E+04 -0.11208169123E+03  0.11312398763E+04  0.63422596789E+02 0.  0.
        -15    1    1    2    0    0  0.37138810374E+03  0.15599134347E+04  0.23116196329E+04  0.28133333209E+04  0.00000000000E+00 0.  1.
        -15    1    3    3    0    0 -0.35281648521E+03  0.45185955348E+03  0.72596602431E+03  0.92503145717E+03  0.00000000000E+00 0.  1.
         15    1    4    4    0    0  0.16398969166E+03 -0.30881608716E+03 -0.56945764226E+02  0.35426376433E+03  0.00000000000E+00 0. -1.
         15    1    1    2    0    0 -0.82979938255E+03 -0.10842419202E+04 -0.49402154221E+03  0.14519658539E+04  0.00000000000E+00 0. -1.
        -16    1    4    4    0    0  0.30696743051E+03 -0.71163396827E+03 -0.55135927007E+02  0.77697611201E+03  0.00000000000E+00 0.  1.
         16    1    1    2    0    0  0.36159281588E+03  0.66271047629E+02 -0.12656246490E+04  0.13179328391E+04  0.00000000000E+00 0. -1.
    9900018    1    3    3    0    0 -0.21322174031E+02  0.26647939842E+02 -0.33337412658E+02  0.10291408689E+03  0.91187600000E+02 0.  0.
<mgrwt>
<rscale>  0 0.76591400E+04</rscale>
<asrwt>0</asrwt>
<pdfrwt beam="1">  1        2 0.50845362E+00 0.76591400E+04</pdfrwt>
<pdfrwt beam="2">  1       -2 0.68268753E+00 0.76591400E+04</pdfrwt>
<totfact> 0.17681732E-04</totfact>
</mgrwt>
</event>
<event>
10    1  0.2720171E-013  0.3946185E+04  0.7818608E-02  0.8272499E-01
         -2   -1    0    0    0  501 -0.00000000000E+00  0.00000000000E+00  0.17940571647E+04  0.17940571647E+04  0.00000000000E+00 0.  1.
          2   -1    0    0  501    0  0.00000000000E+00 -0.00000000000E+00 -0.40216154999E+04  0.40216154999E+04  0.00000000000E+00 0. -1.
    9900016    2    1    2    0    0 -0.38383832315E+03 -0.90437022111E+03 -0.12505550945E+04  0.25855368866E+04  0.20386013815E+04 0.  0.
        -15    1    1    2    0    0 -0.11435650121E+03  0.40199346973E+03 -0.41705658114E+03  0.59043403606E+03  0.00000000000E+00 0.  1.
        -15    1    3    3    0    0 -0.81392889613E+03 -0.30081585876E+03 -0.72729179825E+02  0.87078123684E+03  0.00000000000E+00 0.  1.
         15    1    3    3    0    0  0.50952831035E+03 -0.35722542766E+03 -0.54715778098E+03  0.82861978163E+03  0.00000000000E+00 0. -1.
         15    1    1    2    0    0 -0.27657639019E+03 -0.67631710473E+03 -0.92877913986E+03  0.11817487112E+04  0.00000000000E+00 0. -1.
        -16    1    1    2    0    0  0.77477121455E+03  0.11786938561E+04  0.36883248026E+03  0.14579530307E+04  0.00000000000E+00 0.  1.
         16    1    3    3    0    0 -0.20450036770E+03  0.12082727051E+02 -0.20767371311E+02  0.20590696052E+03  0.00000000000E+00 0. -1.
    9900018    1    3    3    0    0  0.12506263032E+03 -0.25841166174E+03 -0.60990076237E+03  0.68022890761E+03  0.91187600000E+02 0.  0.
<mgrwt>
<rscale>  0 0.29012712E+04</rscale>
<asrwt>0</asrwt>
<pdfrwt beam="1">  1        2 0.61871006E+00 0.39461850E+04</pdfrwt>
<pdfrwt beam="2">  1       -2 0.27600880E+00 0.39461850E+04</pdfrwt>
<totfact> 0.11049546E-02</totfact>
</mgrwt>
</event>
<event>
11    1  0.2720171E-013  0.3397622E+04  0.7818608E-02  0.8138490E-01
         -1   -1    0    0    0  501 -0.00000000000E+00  0.00000000000E+00  0.68021966365E+03  0.68021966365E+03  0.00000000000E+00 0.  1.
          1   -1    0    0  501    0  0.00000000000E+00 -0.00000000000E+00 -0.42426865401E+04  0.42426865401E+04  0.00000000000E+00 0. -1.
    9900016    2    1    2    0    0 -0.72635607331E+03 -0.74999956093E+02 -0.20300189785E+04  0.29526885237E+04  0.20159797435E+04 0.  0.
        -24    2    3    3    0    0  0.20628857750E+03  0.16671229858E+03 -0.12616454031E+04  0.12909406699E+04  0.66563671750E+02 0.  0.
        -15    1    1    2    0    0 -0.94341048122E+02 -0.21591962781E+03 -0.59450783884E+03  0.63950065636E+03  0.00000000000E+00 0.  1.
        -15    1    3    3    0    0 -0.10481426879E+03 -0.55858268931E+03 -0.18925677954E+03  0.59901484150E+03  0.00000000000E+00 0.  1.
         15    1    4    4    0    0  0.18447057778E+03  0.11624881047E+03 -0.97718221490E+03  0.10012133944E+04  0.00000000000E+00 0. -1.
         15    1    1    2    0    0  0.44216931571E+03  0.33012446799E+03 -0.45072585910E+03  0.71249538117E+03  0.00000000000E+00 0. -1.
        -16    1    4    4    0    0  0.21817999719E+02  0.50463488111E+02 -0.28446318815E+03  0.28972727548E+03  0.00000000000E+00 0.  1.
         16    1    1    2    0    0  0.37852780572E+03 -0.39204884085E+02 -0.48721419994E+03  0.61822164250E+03  0.00000000000E+00 0. -1.
    9900018    1    3    3    0    0 -0.82783038202E+03  0.31687043463E+03 -0.57911679593E+03  0.10627330123E+04  0.91187600000E+02 0.  0.
<mgrwt>
<rscale>  0 0.33976220E+04</rscale>
<asrwt>0</asrwt>
<pdfrwt beam="1">  1        1 0.65272101E+00 0.33976220E+04</pdfrwt>
<pdfrwt beam="2">  1       -1 0.10464918E+00 0.33976220E+04</pdfrwt>
<totfact> 0.40616274E-02</totfact>
</mgrwt>
</event>
<event>
11    1  0.2908042E-013  0.3049899E+04  0.7818608E-02  0.8388886E-01
         -2   -1    0    0    0  501 -0.00000000000E+00  0.00000000000E+00  0.29290282330E+04  0.29290282330E+04  0.00000000000E+00 0.  1.
          2   -1    0    0  501    0  0.00000000000E+00 -0.00000000000E+00 -0.18909687522E+04  0.18909687522E+04  0.00000000000E+00 0. -1.
    9900016    2    1    2    0    0 -0.60006975282E+03 -0.17015038421E+03  0.99260480031E+03  0.23361788868E+04  0.20207505141E+04 0.  0.
        -24    2    3    3    0    0  0.45066614953E+03 -0.46058371092E+03  0.56852658769E+03  0.86184508511E+03  0.65704921578E+02 0.  0.
        -15    1    1    2    0    0  0.18658274707E+03 -0.43335659680E+03  0.39597538190E+03  0.61596068426E+03  0.00000000000E+00 0.  1.
        -15    1    3    3    0    0 -0.65219624468E+03  0.29148174740E+03 -0.18761155043E+03  0.73859301682E+03  0.00000000000E+00 0.  1.
         15    1    4    4    0    0  0.32675977267E+03 -0.29035855474E+03  0.38908269469E+03  0.58520541920E+03  0.00000000000E+00 0. -1.
         15    1    1    2    0    0  0.44624358406E+03 -0.32747899406E+03 -0.68265326848E+03  0.87885795942E+03  0.00000000000E+00 0. -1.
        -16    1    4    4    0    0  0.12390637686E+03 -0.17022515618E+03  0.17944389300E+03  0.27663966591E+03  0.00000000000E+00 0.  1.
         16    1    1    2    0    0 -0.32756578307E+02  0.93098597506E+03  0.33213256710E+03  0.98899945466E+03  0.00000000000E+00 0. -1.
    9900018    1    3    3    0    0 -0.39853965766E+03 -0.10484206883E+01  0.61168976305E+03  0.73574078488E+03  0.91187600000E+02 0.  0.
<mgrwt>
<rscale>  0 0.25399600E+04</rscale>
<asrwt>0</asrwt>
<pdfrwt beam="1">  1        2 0.29091827E+00 0.30498987E+04</pdfrwt>
<pdfrwt beam="2">  1       -2 0.45061973E+00 0.30498987E+04</pdfrwt>
<totfact> 0.21450825E-02</totfact>
</mgrwt>
</event>
<event>
10    1  0.2720171E-013  0.5599873E+04  0.7818608E-02  0.7742094E-01
          2   -1    0    0  501    0  0.00000000000E+00  0.00000000000E+00  0.25689802366E+04  0.25689802366E+04  0.00000000000E+00 0. -1.
         -2   -1    0    0    0  501 -0.00000000000E+00 -0.00000000000E+00 -0.30516562866E+04  0.30516562866E+04  0.00000000000E+00 0.  1.
    9900016    2    1    2    0    0  0.20233451198E+03  0.46202843557E+03  0.11262078372E+03  0.20879642204E+04  0.20229932315E+04 0.  0.
        -15    1    3    3    0    0  0.27308906055E+03  0.56100578780E+03  0.91548221596E+02  0.63062366417E+03  0.00000000000E+00 0.  1.
        -15    1    1    2    0    0  0.11594202253E+04  0.39911677142E+03 -0.50548500341E+03  0.13262973063E+04  0.00000000000E+00 0.  1.
         15    1    1    2    0    0 -0.55235061264E+03  0.15080803123E+02  0.61027013354E+03  0.82325467857E+03  0.00000000000E+00 0. -1.
         15    1    3    3    0    0 -0.56048560268E+03 -0.88035297880E+02 -0.72777652523E+01  0.56740399219E+03  0.00000000000E+00 0. -1.
        -16    1    1    2    0    0 -0.80940412466E+03 -0.87622601011E+03 -0.70008196379E+03  0.13831203179E+04  0.00000000000E+00 0.  1.
         16    1    3    3    0    0  0.16801188985E+03  0.34788314463E+03  0.86865392695E+02  0.39597509252E+03  0.00000000000E+00 0. -1.
    9900018    1    3    3    0    0  0.32171916426E+03 -0.35882519898E+03 -0.58515065321E+02  0.49396147151E+03  0.91187600000E+02 0.  0.
<mgrwt>
<rscale>  0 0.55998731E+04</rscale>
<asrwt>0</asrwt>
<pdfrwt beam="1">  1        2 0.39522773E+00 0.55998731E+04</pdfrwt>
<pdfrwt beam="2">  1       -2 0.46948558E+00 0.55998731E+04</pdfrwt>
<totfact> 0.57278870E-03</totfact>
</mgrwt>
</event>
<event>
10    1  0.2720171E-013  0.3343026E+04  0.7818608E-02  0.8265771E-01
         -1   -1    0    0    0  501 -0.00000000000E+00  0.00000000000E+00  0.20154498925E+04  0.20154498925E+04  0.00000000000E+00 0. -1.
          1   -1    0    0  501    0  0.00000000000E+00 -0.00000000000E+00 -0.34846597127E+04  0.34846597127E+04  0.00000000000E+00 0.  1.
    9900016    2    1    2    0    0  0.19254462517E+03 -0.17268914735E+03 -0.94515316585E+03  0.22541876021E+04  0.20300621331E+04 0.  0.
        -15    1    3    3    0    0 -0.83057162006E+02  0.72793372921E+03 -0.44474757905E+03  0.85708016857E+03  0.00000000000E+00 0.  1.
        -15    1    1    2    0    0 -0.10674309996E+04  0.11708133414E+03 -0.10180603125E+04  0.14797174655E+04  0.00000000000E+00 0.  1.
         15    1    3    3    0    0  0.40649101263E+02 -0.86256673411E+03 -0.27502322124E+03  0.90626237506E+03  0.00000000000E+00 0. -1.
         15    1    1    2    0    0  0.11765291978E+04  0.24822959050E+03  0.60362399440E+02  0.12039445594E+04  0.00000000000E+00 0. -1.
        -16    1    3    3    0    0  0.20039949829E+03 -0.17468316945E+03 -0.16260902751E+03  0.31163418367E+03  0.00000000000E+00 0.  1.
         16    1    1    2    0    0 -0.30164282335E+03 -0.19262177729E+03  0.43364125864E+03  0.56225997827E+03  0.00000000000E+00 0. -1.
    9900018    1    3    3    0    0  0.34553187628E+02  0.13662702700E+03 -0.62773338047E+02  0.17921087480E+03  0.91187600000E+02 0.  0.
<mgrwt>
<rscale>  0 0.29240053E+04</rscale>
<asrwt>0</asrwt>
<pdfrwt beam="1">  1        1 0.53610148E+00 0.33430261E+04</pdfrwt>
<pdfrwt beam="2">  1       -1 0.31006922E+00 0.33430261E+04</pdfrwt>
<totfact> 0.57132557E-03</totfact>
</mgrwt>
</event>
<event>
10    1  0.2720171E-013  0.4083251E+04  0.7818608E-02  0.7987960E-01
          2   -1    0    0  501    0  0.00000000000E+00  0.00000000000E+00  0.20176085850E+04  0.20176085850E+04  0.00000000000E+00 0.  1.
         -2   -1    0    0    0  501 -0.00000000000E+00 -0.00000000000E+00 -0.20659286432E+04  0.20659286432E+04  0.00000000000E+00 0. -1.
    9900016    2    1    2    0    0  0.17753575573E+02 -0.21843570387E+03 -0.19188095477E+03  0.20464927255E+04  0.20256566413E+04 0.  0.
        -15    1    3    3    0    0 -0.51480579550E+03 -0.34928547070E+03 -0.43969338697E+03  0.76181075187E+03  0.00000000000E+00 0.  1.
        -15    1    1    2    0    0  0.35645767335E+03 -0.23993056861E+03  0.84291300095E+03  0.94611367066E+03  0.00000000000E+00 0.  1.
         15    1    3    3    0    0  0.38071335047E+03  0.38182630850E+03  0.46846336783E+03  0.71427719555E+03  0.00000000000E+00 0. -1.
         15    1    1    2    0    0 -0.38436644052E+02  0.47930235471E+03 -0.52531368570E+03  0.71215348852E+03  0.00000000000E+00 0. -1.
        -16    1    3    3    0    0  0.10040002779E+03  0.16548505336E+02  0.98068357400E+02  0.14132027926E+03  0.00000000000E+00 0.  1.
         16    1    1    2    0    0 -0.33577460487E+03 -0.20936082222E+02 -0.17403841867E+03  0.37877734355E+03  0.00000000000E+00 0. -1.
    9900018    1    3    3    0    0  0.51445992821E+02 -0.26752504701E+03 -0.31871929303E+03  0.42908449879E+03  0.91187600000E+02 0.  0.
<mgrwt>
<rscale>  0 0.40832513E+04</rscale>
<asrwt>0</asrwt>
<pdfrwt beam="1">  1        2 0.31040132E+00 0.40832513E+04</pdfrwt>
<pdfrwt beam="2">  1       -2 0.31783518E+00 0.40832513E+04</pdfrwt>
<totfact> 0.12638707E-01</totfact>
</mgrwt>
</event>
<event>
10    1  0.2720171E-013  0.6105333E+04  0.7818608E-02  0.7677477E-01
         -2   -1    0    0    0  501 -0.00000000000E+00  0.00000000000E+00  0.27627005735E+04  0.27627005735E+04  0.00000000000E+00 0.  1.
          2   -1    0    0  501    0  0.00000000000E+00 -0.00000000000E+00 -0.33730666730E+04  0.33730666730E+04  0.00000000000E+00 0. -1.
    9900016    2    1    2    0    0  0.12111947411E+04  0.46164570567E+02 -0.80093607606E+03  0.24833738876E+04  0.20140812791E+04 0.  0.
        -15    1    3    3    0    0  0.11553686407E+04  0.53932642671E+03  0.42326330062E+02  0.12757512330E+04  0.00000000000E+00 0.  1.
        -15    1    1    2    0    0 -0.21776588684E+03  0.11875162332E+03 -0.65033245334E+03  0.69602889982E+03  0.00000000000E+00 0.  1.
         15    1    3    3    0    0 -0.75780882198E+02 -0.46304003049E+03 -0.74087181125E+03  0.87694917335E+03  0.00000000000E+00 0. -1.
         15    1    1    2    0    0 -0.18581679287E+04 -0.15049007742E+03  0.93646565895E+03  0.20862414158E+04  0.00000000000E+00 0. -1.
        -16    1    1    2    0    0  0.86473907445E+03 -0.14426116470E+02 -0.95563229062E+02  0.87012304329E+03  0.00000000000E+00 0.  1.
         16    1    3    3    0    0  0.14071471909E+03  0.87135036956E+02 -0.49887163919E+02  0.17286374969E+03  0.00000000000E+00 0. -1.
    9900018    1    3    3    0    0 -0.91077364402E+01 -0.11725686261E+03 -0.52503430958E+02  0.15780973147E+03  0.91187600000E+02 0.  0.
<mgrwt>
<rscale>  0 0.61053332E+04</rscale>
<asrwt>0</asrwt>
<pdfrwt beam="1">  1        2 0.51893333E+00 0.61053332E+04</pdfrwt>
<pdfrwt beam="2">  1       -2 0.42503086E+00 0.61053332E+04</pdfrwt>
<totfact> 0.33764969E-03</totfact>
</mgrwt>
</event>
<event>
11    1  0.2915378E-013  0.4478214E+04  0.7818608E-02  0.7914462E-01
         -2   -1    0    0    0  501 -0.00000000000E+00  0.00000000000E+00  0.15403977264E+04  0.15403977264E+04  0.00000000000E+00 0.  1.
          2   -1    0    0  501    0  0.00000000000E+00 -0.00000000000E+00 -0.32547435003E+04  0.32547435003E+04  0.00000000000E+00 0. -1.
    9900016    2    1    2    0    0  0.45993263407E+03 -0.18713664460E+03 -0.80026721033E+03  0.22341334485E+04  0.20259236181E+04 0.  0.
        -24    2    3    3    0    0  0.69608014799E+03 -0.25548824066E+03  0.27281531501E+03  0.79280684779E+03  0.65671060976E+02 0.  0.
        -15    1    1    2    0    0 -0.72256572132E+03  0.23206003446E+03  0.50959821164E+03  0.91413533928E+03  0.00000000000E+00 0.  1.
        -15    1    3    3    0    0 -0.52479700267E+02 -0.34078919879E+03 -0.87902180996E+03  0.94423023640E+03  0.00000000000E+00 0.  1.
         15    1    4    4    0    0  0.30496506019E+03 -0.12295499890E+03  0.88089469356E+02  0.34041353425E+03  0.00000000000E+00 0. -1.
         15    1    1    2    0    0  0.28882238455E+03 -0.38785225734E+03 -0.85523337559E+03  0.98248250369E+03  0.00000000000E+00 0. -1.
        -16    1    4    4    0    0  0.39111508780E+03 -0.13253324176E+03  0.18472584565E+03  0.45239331353E+03  0.00000000000E+00 0.  1.
         16    1    1    2    0    0 -0.26189297311E+02  0.34292886749E+03 -0.56844339961E+03  0.66438993521E+03  0.00000000000E+00 0. -1.
    9900018    1    3    3    0    0 -0.18366781365E+03  0.40914079485E+03 -0.19406071537E+03  0.49709636433E+03  0.91187600000E+02 0.  0.
<mgrwt>
<rscale>  0 0.44782137E+04</rscale>
<asrwt>0</asrwt>
<pdfrwt beam="1">  1        2 0.50072976E+00 0.44782137E+04</pdfrwt>
<pdfrwt beam="2">  1       -2 0.23698427E+00 0.44782137E+04</pdfrwt>
<totfact> 0.69993371E-02</totfact>
</mgrwt>
</event>
<event>
11    1  0.2720171E-013  0.3343468E+04  0.7818608E-02  0.8303431E-01
         -2   -1    0    0    0  501 -0.00000000000E+00  0.00000000000E+00  0.28798742494E+04  0.28798742494E+04  0.00000000000E+00 0.  1.
          2   -1    0    0  501    0  0.00000000000E+00 -0.00000000000E+00 -0.26776476021E+04  0.26776476021E+04  0.00000000000E+00 0. -1.
    9900016    2    1    2    0    0  0.30047344349E+03  0.76778364853E+02 -0.23822750047E+02  0.20442078243E+04  0.20204056271E+04 0.  0.
        -24    2    3    3    0    0  0.56723600683E+03  0.56754118815E+03  0.54561272488E+02  0.80937506697E+03  0.90837100825E+02 0.  0.
        -15    1    3    3    0    0 -0.47763595174E+03  0.48257514755E+02  0.27235031554E+03  0.55194164955E+03  0.00000000000E+00 0.  1.
        -15    1    1    2    0    0  0.47297993957E+03  0.70129706784E+03  0.73437607882E+03  0.11201945482E+04  0.00000000000E+00 0.  1.
         15    1    1    2    0    0  0.27288812375E+03 -0.74182510247E+03  0.50345975413E+03  0.93714680535E+03  0.00000000000E+00 0. -1.
         15    1    4    4    0    0  0.32725378991E+03  0.38912114123E+03  0.38891899150E+02  0.50992439183E+03  0.00000000000E+00 0. -1.
        -16    1    4    4    0    0  0.23998221692E+03  0.17842004691E+03  0.15669373338E+02  0.29945067514E+03  0.00000000000E+00 0.  1.
         16    1    1    2    0    0 -0.10463415068E+04 -0.36250330219E+02 -0.10117864356E+04  0.14559726737E+04  0.00000000000E+00 0. -1.
    9900018    1    3    3    0    0  0.21087338840E+03 -0.53902033805E+03 -0.35073433807E+03  0.68289110777E+03  0.91187600000E+02 0.  0.
<mgrwt>
<rscale>  0 0.27994756E+04</rscale>
<asrwt>0</asrwt>
<pdfrwt beam="1">  1        2 0.41194578E+00 0.33434678E+04</pdfrwt>
<pdfrwt beam="2">  1       -2 0.44305758E+00 0.33434678E+04</pdfrwt>
<totfact> 0.82504991E-03</totfact>
</mgrwt>
</event>
<event>
10    1  0.2720171E-013  0.5062618E+04  0.7818608E-02  0.7818920E-01
          2   -1    0    0  501    0  0.00000000000E+00  0.00000000000E+00  0.39307272692E+04  0.39307272692E+04  0.00000000000E+00 0. -1.
         -2   -1    0    0    0  501 -0.00000000000E+00 -0.00000000000E+00 -0.16301116395E+04  0.16301116395E+04  0.00000000000E+00 0.  1.
    9900016    2    1    2    0    0 -0.23957773926E+02  0.30117522586E+03  0.75354499068E+03  0.21865294293E+04  0.20302217614E+04 0.  0.
        -15    1    1    2    0    0  0.89527151864E+03  0.46930696922E+03 -0.11332340116E+03  0.10171540280E+04  0.00000000000E+00 0.  1.
        -15    1    3    3    0    0  0.11609480602E+03  0.18125288764E+03  0.91227263281E+02  0.23377986832E+03  0.00000000000E+00 0.  1.
         15    1    3    3    0    0 -0.61348999957E+03 -0.47577848052E+03  0.55612018550E+03  0.95498942550E+03  0.00000000000E+00 0. -1.
         15    1    1    2    0    0 -0.69783095921E+03  0.16251947898E+03  0.82650746191E+03  0.10938442363E+04  0.00000000000E+00 0. -1.
        -16    1    1    2    0    0 -0.17348278551E+03 -0.93300167405E+03  0.83388657834E+03  0.12633112151E+04  0.00000000000E+00 0.  1.
         16    1    3    3    0    0  0.60000398706E+03  0.51246134476E+03  0.17464564752E+03  0.80815995728E+03  0.00000000000E+00 0. -1.
    9900018    1    3    3    0    0 -0.12656656743E+03  0.83239473972E+02 -0.68448105625E+02  0.18960017821E+03  0.91187600000E+02 0.  0.
<mgrwt>
<rscale>  0 0.50626176E+04</rscale>
<asrwt>0</asrwt>
<pdfrwt beam="1">  1        2 0.60472727E+00 0.50626176E+04</pdfrwt>
<pdfrwt beam="2">  1       -2 0.25078641E+00 0.50626176E+04</pdfrwt>
<totfact> 0.17821819E-02</totfact>
</mgrwt>
</event>
<event>
11    1  0.2720171E-013  0.3579182E+04  0.7818608E-02  0.8095277E-01
         -2   -1    0    0    0  501 -0.00000000000E+00  0.00000000000E+00  0.10563422481E+04  0.10563422481E+04  0.00000000000E+00 0.  1.
          2   -1    0    0  501    0  0.00000000000E+00 -0.00000000000E+00 -0.30318157781E+04  0.30318157781E+04  0.00000000000E+00 0. -1.
    9900016    2    1    2    0    0 -0.14923636079E+03 -0.29623315026E+03 -0.11611754464E+04  0.23554565215E+04  0.20223306942E+04 0.  0.
        -24    2    3    3    0    0 -0.85507615277E+03 -0.49098192151E+03 -0.30641013533E+03  0.10346895506E+04  0.66909049022E+02 0.  0.
        -15    1    3    3    0    0  0.31884932040E+03  0.33872279120E+03 -0.75419229698E+03  0.88611739585E+03  0.00000000000E+00 0.  1.
        -15    1    1    2    0    0 -0.25899105488E+03  0.36927587281E+03 -0.97263485903E+01  0.45114924206E+03  0.00000000000E+00 0.  1.
         15    1    1    2    0    0  0.55655661645E+02 -0.46564798957E+03 -0.35183498535E+03  0.58627080754E+03  0.00000000000E+00 0. -1.
         15    1    4    4    0    0 -0.74427702953E+03 -0.42380112349E+03 -0.28914479890E+03  0.90396924931E+03  0.00000000000E+00 0. -1.
        -16    1    4    4    0    0 -0.11079912324E+03 -0.67180798015E+02 -0.17265336423E+02  0.13072030131E+03  0.00000000000E+00 0.  1.
         16    1    1    2    0    0  0.35257175403E+03  0.39260526701E+03 -0.45273674967E+03  0.69528145519E+03  0.00000000000E+00 0. -1.
    9900018    1    3    3    0    0  0.38699047158E+03 -0.14397401995E+03 -0.10057301409E+03  0.43464957503E+03  0.91187600000E+02 0.  0.
<mgrwt>
<rscale>  0 0.35791815E+04</rscale>
<asrwt>0</asrwt>
<pdfrwt beam="1">  1        2 0.46643320E+00 0.35791815E+04</pdfrwt>
<pdfrwt beam="2">  1       -2 0.16251419E+00 0.35791815E+04</pdfrwt>
<totfact> 0.32742304E-01</totfact>
</mgrwt>
</event>
<event>
10    1  0.2720171E-013  0.4563987E+04  0.7818608E-02  0.7899529E-01
          2   -1    0    0  501    0  0.00000000000E+00  0.00000000000E+00  0.34500665157E+04  0.34500665157E+04  0.00000000000E+00 0. -1.
         -2   -1    0    0    0  501 -0.00000000000E+00 -0.00000000000E+00 -0.15093892942E+04  0.15093892942E+04  0.00000000000E+00 0.  1.
    9900016    2    1    2    0    0 -0.31340993545E+03 -0.26127741697E+03  0.43247212823E+03  0.21003080108E+04  0.20143907074E+04 0.  0.
        -15    1    3    3    0    0 -0.20558523946E+03 -0.14557483385E+03 -0.21788275992E+03  0.33306188615E+03  0.00000000000E+00 0.  1.
        -15    1    1    2    0    0  0.18731151746E+03 -0.31422885735E+02 -0.25949980108E+03  0.32157914902E+03  0.00000000000E+00 0.  1.
         15    1    3    3    0    0  0.51601165065E+03 -0.12764003973E+03  0.70113669988E+03  0.87985946336E+03  0.00000000000E+00 0. -1.
         15    1    1    2    0    0  0.64154354323E+03  0.51283841381E+03  0.17975367605E+04  0.19762893922E+04  0.00000000000E+00 0. -1.
        -16    1    1    2    0    0 -0.51544512524E+03 -0.22013811110E+03 -0.29831866048E+02  0.56127925788E+03  0.00000000000E+00 0.  1.
         16    1    3    3    0    0 -0.31085813460E+03 -0.66217551511E+02 -0.32478378682E+03  0.45442496867E+03  0.00000000000E+00 0. -1.
    9900018    1    3    3    0    0 -0.31297821204E+03  0.78155008120E+02  0.27400197508E+03  0.43296169259E+03  0.91187600000E+02 0.  0.
<mgrwt>
<rscale>  0 0.45639866E+04</rscale>
<asrwt>0</asrwt>
<pdfrwt beam="1">  1        2 0.53077946E+00 0.45639866E+04</pdfrwt>
<pdfrwt beam="2">  1       -2 0.23221374E+00 0.45639866E+04</pdfrwt>
<totfact> 0.54885922E-02</totfact>
</mgrwt>
</event>
<event>
11    1  0.2720171E-013  0.4610939E+04  0.7818608E-02  0.7891497E-01
         -4   -1    0    0    0  501 -0.00000000000E+00  0.00000000000E+00  0.39226594290E+04  0.39226594290E+04  0.00000000000E+00 0. -1.
          4   -1    0    0  501    0  0.00000000000E+00 -0.00000000000E+00 -0.13549962360E+04  0.13549962360E+04  0.00000000000E+00 0.  1.
    9900016    2    1    2    0    0 -0.23258438062E+03 -0.41895714306E+02  0.24939243008E+04  0.32203240225E+04  0.20236051114E+04 0.  0.
         24    2    3    3    0    0  0.70747963649E+03 -0.19952060839E+03  0.29654795570E+03  0.79553546887E+03  0.67823911641E+02 0.  0.
        -15    1    4    4    0    0  0.59133583297E+03 -0.19167943876E+03  0.24362650402E+03  0.66766230091E+03  0.00000000000E+00 0.  1.
        -15    1    1    2    0    0  0.34664101383E+03 -0.49444208782E+02 -0.63451914287E+03  0.72472012869E+03  0.00000000000E+00 0.  1.
         15    1    3    3    0    0 -0.81347180449E+03  0.20940507904E+02  0.16586354479E+04  0.18474973425E+04  0.00000000000E+00 0. -1.
         15    1    1    2    0    0 -0.82577940262E+02 -0.50582157169E+03  0.44691964642E+03  0.68000863889E+03  0.00000000000E+00 0. -1.
        -16    1    1    2    0    0 -0.31478692949E+02  0.59716149478E+03  0.26133838871E+03  0.65260287494E+03  0.00000000000E+00 0.  1.
         16    1    4    4    0    0  0.11614380352E+03 -0.78411696254E+01  0.52921451675E+02  0.12787316796E+03  0.00000000000E+00 0. -1.
    9900018    1    3    3    0    0 -0.12659221262E+03  0.13668438618E+03  0.53874089722E+03  0.57729121114E+03  0.91187600000E+02 0.  0.
<mgrwt>
<rscale>  0 0.46109386E+04</rscale>
<asrwt>0</asrwt>
<pdfrwt beam="1">  1        4 0.20846096E+00 0.46109386E+04</pdfrwt>
<pdfrwt beam="2">  1       -4 0.60348606E+00 0.46109386E+04</pdfrwt>
<totfact> 0.26341947E-05</totfact>
</mgrwt>
</event>
<event>
11    1  0.2720171E-013  0.3837913E+04  0.7818608E-02  0.8233209E-01
          2   -1    0    0  501    0  0.00000000000E+00  0.00000000000E+00  0.18245127804E+04  0.18245127804E+04  0.00000000000E+00 0. -1.
         -2   -1    0    0    0  501 -0.00000000000E+00 -0.00000000000E+00 -0.40743182233E+04  0.40743182233E+04  0.00000000000E+00 0.  1.
    9900016    2    1    2    0    0  0.67238882970E+03 -0.55900347564E+03 -0.22826274085E+03  0.22432181359E+04  0.20531273956E+04 0.  0.
        -24    2    3    3    0    0  0.80267664110E+02 -0.70451760773E+03 -0.93815183520E+03  0.11795083123E+04  0.91230671725E+02 0.  0.
        -15    1    3    3    0    0  0.34242393488E+03 -0.59572313094E+02  0.62856015024E+03  0.71825543795E+03  0.00000000000E+00 0.  1.
        -15    1    1    2    0    0  0.63808769773E+03 -0.55740883974E+03 -0.10177526688E+04  0.13242662193E+04  0.00000000000E+00 0.  1.
         15    1    4    4    0    0  0.55445376308E+02 -0.30931312882E+03 -0.34876967541E+03  0.46945616185E+03  0.00000000000E+00 0. -1.
         15    1    1    2    0    0 -0.14193045169E+04  0.55941279096E+03 -0.83556860217E+03  0.17394087706E+04  0.00000000000E+00 0. -1.
        -16    1    4    4    0    0  0.24822287803E+02 -0.39520447891E+03 -0.58938215978E+03  0.71005215047E+03  0.00000000000E+00 0.  1.
         16    1    1    2    0    0  0.10882798945E+03  0.55699952441E+03 -0.16822143112E+03  0.59193787797E+03  0.00000000000E+00 0. -1.
    9900018    1    3    3    0    0  0.24969723071E+03  0.20508644518E+03  0.81328944108E+02  0.34545438565E+03  0.91187600000E+02 0.  0.
<mgrwt>
<rscale>  0 0.30371220E+04</rscale>
<asrwt>0</asrwt>
<pdfrwt beam="1">  1        2 0.28069428E+00 0.38379135E+04</pdfrwt>
<pdfrwt beam="2">  1       -2 0.62681818E+00 0.38379135E+04</pdfrwt>
<totfact> 0.25647072E-03</totfact>
</mgrwt>
</event>
<event>
11    1  0.2720171E-013  0.5340679E+04  0.7818608E-02  0.7778000E-01
          3   -1    0    0  501    0  0.00000000000E+00  0.00000000000E+00  0.42150686867E+04  0.42150686867E+04  0.00000000000E+00 0. -1.
         -3   -1    0    0    0  501 -0.00000000000E+00 -0.00000000000E+00 -0.16917195831E+04  0.16917195831E+04  0.00000000000E+00 0.  1.
    9900016    2    1    2    0    0 -0.77428552203E+02 -0.33245064573E+03  0.12544151737E+04  0.24024676535E+04  0.20203402648E+04 0.  0.
         24    2    3    3    0    0 -0.16886649512E+03  0.23315595311E+03  0.13071090360E+04  0.13416072322E+04  0.92186451378E+02 0.  0.
        -15    1    1    2    0    0  0.86654740431E+03  0.32443347937E+03  0.50908809722E+03  0.10560928828E+04  0.00000000000E+00 0.  1.
        -15    1    4    4    0    0 -0.16714118512E+03  0.19190794445E+03  0.10064204736E+04  0.10380977818E+04  0.00000000000E+00 0.  1.
         15    1    1    2    0    0 -0.53390640162E+03  0.24423405827E+03  0.15106867055E+04  0.16207654497E+04  0.00000000000E+00 0. -1.
         15    1    3    3    0    0  0.46302737237E+03 -0.47689822534E+03 -0.93093498704E+00  0.66470078346E+03  0.00000000000E+00 0. -1.
        -16    1    1    2    0    0 -0.25521245048E+03 -0.23621689191E+03 -0.75084087272E+03  0.82746228377E+03  0.00000000000E+00 0.  1.
         16    1    4    4    0    0 -0.17253100000E+01  0.41248008655E+02  0.30068856239E+03  0.30350945037E+03  0.00000000000E+00 0. -1.
    9900018    1    3    3    0    0 -0.37158942946E+03 -0.88708373499E+02 -0.51762927336E+02  0.39615963784E+03  0.91187600000E+02 0.  0.
<mgrwt>
<rscale>  0 0.53406794E+04</rscale>
<asrwt>0</asrwt>
<pdfrwt beam="1">  1        3 0.64847210E+00 0.53406794E+04</pdfrwt>
<pdfrwt beam="2">  1       -3 0.26026455E+00 0.53406794E+04</pdfrwt>
<totfact> 0.74215982E-05</totfact>
</mgrwt>
</event>
<event>
11    1  0.2720171E-013  0.6015852E+04  0.7818608E-02  0.7688439E-01
         -2   -1    0    0    0  501 -0.00000000000E+00  0.00000000000E+00  0.32765171190E+04  0.32765171190E+04  0.00000000000E+00 0.  1.
          2   -1    0    0  501    0  0.00000000000E+00 -0.00000000000E+00 -0.27613523466E+04  0.27613523466E+04  0.00000000000E+00 0. -1.
    9900016    2    1    2    0    0 -0.34125122984E+03 -0.79570416696E+03 -0.13705800861E+03  0.22301304448E+04  0.20506338971E+04 0.  0.
        -24    2    3    3    0    0 -0.18853174305E+03 -0.14594070374E+04 -0.14213893200E+02  0.14732207920E+04  0.69024259339E+02 0.  0.
        -15    1    3    3    0    0 -0.19309556673E+03  0.57807498360E+03 -0.63764886694E+02  0.61279894364E+03  0.00000000000E+00 0.  1.
        -15    1    1    2    0    0 -0.93791422617E+03 -0.49576125335E+03 -0.24185415632E+03  0.10880973067E+04  0.00000000000E+00 0.  1.
         15    1    1    2    0    0  0.53053222249E+03  0.51880131425E+03  0.13584052014E+04  0.15478643138E+04  0.00000000000E+00 0. -1.
         15    1    4    4    0    0 -0.52026461706E+02 -0.65349761297E+03 -0.18347202378E+02  0.65582200536E+03  0.00000000000E+00 0. -1.
        -16    1    4    4    0    0 -0.13650528134E+03 -0.80590942440E+03  0.41333091781E+01  0.81739878665E+03  0.00000000000E+00 0.  1.
         16    1    1    2    0    0  0.74863323352E+03  0.77266410605E+03 -0.46432826408E+03  0.11717774003E+04  0.00000000000E+00 0. -1.
    9900018    1    3    3    0    0  0.40376079934E+02  0.85627886815E+02 -0.59079228721E+02  0.14411070915E+03  0.91187600000E+02 0.  0.
<mgrwt>
<rscale>  0 0.60158518E+04</rscale>
<asrwt>0</asrwt>
<pdfrwt beam="1">  1        2 0.42482344E+00 0.60158518E+04</pdfrwt>
<pdfrwt beam="2">  1       -2 0.50407955E+00 0.60158518E+04</pdfrwt>
<totfact> 0.25845573E-03</totfact>
</mgrwt>
</event>
<event>
11    1  0.2720171E-013  0.6141970E+04  0.7818608E-02  0.7673044E-01
         -2   -1    0    0    0  501 -0.00000000000E+00  0.00000000000E+00  0.53802523198E+04  0.53802523198E+04  0.00000000000E+00 0.  1.
          2   -1    0    0  501    0  0.00000000000E+00 -0.00000000000E+00 -0.17528821661E+04  0.17528821661E+04  0.00000000000E+00 0. -1.
    9900016    2    1    2    0    0 -0.34927913547E+03  0.19772558319E+04  0.15380986900E+04  0.32352378886E+04  0.20172952378E+04 0.  0.
        -24    2    3    3    0    0 -0.85843020582E+03  0.15668906851E+04  0.30053496062E+03  0.18140245147E+04  0.91185744666E+02 0.  0.
        -15    1    1    2    0    0 -0.22290042920E+03 -0.66399902641E+02 -0.31726176882E+03  0.39338095831E+03  0.00000000000E+00 0.  1.
        -15    1    3    3    0    0  0.11684091085E+03  0.10218272731E+03  0.12780767047E+03  0.20106692627E+03  0.00000000000E+00 0.  1.
         15    1    4    4    0    0 -0.16370487344E+03  0.23302579505E+03  0.58605209405E+02  0.29074882169E+03  0.00000000000E+00 0. -1.
         15    1    1    2    0    0 -0.21627547963E+03 -0.91343302274E+03  0.19310144934E+04  0.21470798643E+04  0.00000000000E+00 0. -1.
        -16    1    4    4    0    0 -0.69472533238E+03  0.13338648900E+04  0.24192975121E+03  0.15232756930E+04  0.00000000000E+00 0.  1.
         16    1    1    2    0    0  0.78845504431E+03 -0.99742290647E+03  0.47551873900E+03  0.13574357747E+04  0.00000000000E+00 0. -1.
    9900018    1    3    3    0    0  0.39231015950E+03  0.30818241947E+03  0.11097560590E+04  0.12201464476E+04  0.91187600000E+02 0.  0.
<mgrwt>
<rscale>  0 0.61419698E+04</rscale>
<asrwt>0</asrwt>
<pdfrwt beam="1">  1        2 0.26967418E+00 0.61419698E+04</pdfrwt>
<pdfrwt beam="2">  1       -2 0.82773112E+00 0.61419698E+04</pdfrwt>
<totfact> 0.30603351E-04</totfact>
</mgrwt>
</event>
<event>
11    1  0.3206247E-013  0.5508861E+04  0.7818608E-02  0.7754471E-01
         -2   -1    0    0    0  501 -0.00000000000E+00  0.00000000000E+00  0.27948903759E+04  0.27948903759E+04  0.00000000000E+00 0.  1.
          2   -1    0    0  501    0  0.00000000000E+00 -0.00000000000E+00 -0.27145562960E+04  0.27145562960E+04  0.00000000000E+00 0. -1.
    9900016    2    1    2    0    0 -0.48737761119E+03 -0.21495975396E+03  0.29788575275E+03  0.21228083547E+04  0.20331834048E+04 0.  0.
        -24    2    3    3    0    0 -0.57646701283E+03  0.71011626128E+03  0.86685549158E+02  0.92113910042E+03  0.66359147689E+02 0.  0.
        -15    1    1    2    0    0  0.10097733497E+04 -0.93432069635E+03  0.59646855845E+03  0.14994572760E+04  0.00000000000E+00 0.  1.
        -15    1    3    3    0    0  0.16355648453E+03 -0.74993878702E+03 -0.15118712993E+03  0.78231480630E+03  0.00000000000E+00 0.  1.
         15    1    1    2    0    0 -0.71007273386E+03  0.32189612091E+03 -0.66724497394E+03  0.10261755480E+04  0.00000000000E+00 0. -1.
         15    1    4    4    0    0 -0.29179617080E+03  0.41182065982E+03  0.47505311822E+02  0.50694971723E+03  0.00000000000E+00 0. -1.
        -16    1    4    4    0    0 -0.28467084203E+03  0.29829560146E+03  0.39180237335E+02  0.41418938319E+03  0.00000000000E+00 0.  1.
         16    1    1    2    0    0  0.18767699531E+03  0.82738432940E+03 -0.14677525734E+03  0.86100549318E+03  0.00000000000E+00 0. -1.
    9900018    1    3    3    0    0 -0.74467082887E+02 -0.17513722822E+03  0.36238733353E+03  0.41935444798E+03  0.91187600000E+02 0.  0.
<mgrwt>
<rscale>  0 0.55088610E+04</rscale>
<asrwt>0</asrwt>
<pdfrwt beam="1">  1        2 0.41762405E+00 0.55088610E+04</pdfrwt>
<pdfrwt beam="2">  1       -2 0.42998313E+00 0.55088610E+04</pdfrwt>
<totfact> 0.85934330E-03</totfact>
</mgrwt>
</event>
<event>
11    1  0.2720171E-013  0.4208727E+04  0.7818608E-02  0.8250239E-01
         -2   -1    0    0    0  501 -0.00000000000E+00  0.00000000000E+00  0.27043411457E+04  0.27043411457E+04  0.00000000000E+00 0.  1.
          2   -1    0    0  501    0  0.00000000000E+00 -0.00000000000E+00 -0.29195089712E+04  0.29195089712E+04  0.00000000000E+00 0. -1.
    9900016    2    1    2    0    0 -0.59897928291E+03 -0.10533287309E+04  0.24002464277E+03  0.23629353469E+04  0.20143420831E+04 0.  0.
        -24    2    3    3    0    0 -0.58980085396E+03 -0.83861458578E+02  0.12750893334E+03  0.61813072131E+03  0.10454314414E+03 0.  0.
        -15    1    3    3    0    0 -0.46538559882E+03 -0.27425765643E+03 -0.47763748144E+03  0.72106766768E+03  0.00000000000E+00 0.  1.
        -15    1    1    2    0    0 -0.35541645226E+03  0.23643116931E+03  0.52803952930E+03  0.67900390047E+03  0.00000000000E+00 0.  1.
         15    1    4    4    0    0 -0.39773280299E+03 -0.98558077549E+02  0.60640087345E+02  0.41422493577E+03  0.00000000000E+00 0. -1.
         15    1    1    2    0    0  0.22587015834E+03 -0.53052691607E+03  0.23711227559E+03  0.62345678948E+03  0.00000000000E+00 0. -1.
        -16    1    4    4    0    0 -0.19206805097E+03  0.14696618971E+02  0.66868845995E+02  0.20390578554E+03  0.00000000000E+00 0.  1.
         16    1    1    2    0    0  0.72852557683E+03  0.13474244776E+04 -0.12203442731E+04  0.19584540801E+04  0.00000000000E+00 0. -1.
    9900018    1    3    3    0    0  0.45620716987E+03 -0.69520961584E+03  0.59015319087E+03  0.10237369579E+04  0.91187600000E+02 0.  0.
<mgrwt>
<rscale>  0 0.29773143E+04</rscale>
<asrwt>0</asrwt>
<pdfrwt beam="1">  1        2 0.44915523E+00 0.42087266E+04</pdfrwt>
<pdfrwt beam="2">  1       -2 0.41605248E+00 0.42087266E+04</pdfrwt>
<totfact> 0.84220427E-03</totfact>
</mgrwt>
</event>
<event>
10    1  0.2720171E-013  0.3885467E+04  0.7818608E-02  0.8028059E-01
          2   -1    0    0  501    0  0.00000000000E+00  0.00000000000E+00  0.16963041510E+04  0.16963041510E+04  0.00000000000E+00 0. -1.
         -2   -1    0    0    0  501 -0.00000000000E+00 -0.00000000000E+00 -0.22249627511E+04  0.22249627511E+04  0.00000000000E+00 0.  1.
    9900016    2    1    2    0    0 -0.27688730133E+02 -0.30828564088E+03 -0.10060967718E+04  0.22826936669E+04  0.20255006691E+04 0.  0.
        -15    1    1    2    0    0 -0.11483045059E+03  0.18838921536E+03 -0.13338317484E+03  0.25781311095E+03  0.00000000000E+00 0.  1.
        -15    1    3    3    0    0 -0.83875112266E+02  0.22110927997E+02  0.30706348952E+02  0.92015256673E+02  0.00000000000E+00 0.  1.
         15    1    1    2    0    0  0.41944541285E+03 -0.43802050162E+03  0.21842105038E+03  0.64459612895E+03  0.00000000000E+00 0. -1.
         15    1    3    3    0    0 -0.29583451203E+03 -0.51319200998E+03 -0.11008973722E+04  0.12501436404E+04  0.00000000000E+00 0. -1.
        -16    1    1    2    0    0 -0.27692623213E+03  0.55791692714E+03  0.39240029615E+03  0.73616399534E+03  0.00000000000E+00 0.  1.
         16    1    3    3    0    0 -0.17763473169E+03  0.32973824634E+03 -0.28895842474E+02  0.37565460028E+03  0.00000000000E+00 0. -1.
    9900018    1    3    3    0    0  0.52965562584E+03 -0.14694280523E+03  0.92990093912E+02  0.56488016956E+03  0.91187600000E+02 0.  0.
<mgrwt>
<rscale>  0 0.38854671E+04</rscale>
<asrwt>0</asrwt>
<pdfrwt beam="1">  1        2 0.26096987E+00 0.38854671E+04</pdfrwt>
<pdfrwt beam="2">  1       -2 0.34230196E+00 0.38854671E+04</pdfrwt>
<totfact> 0.13642566E-01</totfact>
</mgrwt>
</event>
<event>
11    1  0.2720171E-013  0.5017741E+04  0.7818608E-02  0.7825776E-01
          2   -1    0    0  501    0  0.00000000000E+00  0.00000000000E+00  0.20999660521E+04  0.20999660521E+04  0.00000000000E+00 0. -1.
         -2   -1    0    0    0  501 -0.00000000000E+00 -0.00000000000E+00 -0.29973963715E+04  0.29973963715E+04  0.00000000000E+00 0.  1.
    9900016    2    1    2    0    0  0.83456880086E+03 -0.24843738159E+03 -0.25819950302E+03  0.22130961143E+04  0.20181430108E+04 0.  0.
         24    2    3    3    0    0  0.86968299184E+03 -0.88239479141E+03 -0.98376905216E+02  0.12466521779E+04  0.97440048519E+02 0.  0.
        -15    1    1    2    0    0  0.14928230014E+03 -0.13613128719E+03 -0.32768246740E+03  0.38495809113E+03  0.00000000000E+00 0.  1.
        -15    1    4    4    0    0  0.67148230101E+03 -0.62160502525E+03 -0.63222659104E+02  0.91721229419E+03  0.00000000000E+00 0.  1.
         15    1    3    3    0    0 -0.30487694100E+03  0.10162098060E+03 -0.16809510016E+03  0.36267442087E+03  0.00000000000E+00 0. -1.
         15    1    1    2    0    0 -0.12435592759E+04 -0.19041145388E+03  0.59753307252E+03  0.13927461962E+04  0.00000000000E+00 0. -1.
        -16    1    1    2    0    0  0.25970817487E+03  0.57498012265E+03 -0.90908142146E+03  0.11065620219E+04  0.00000000000E+00 0.  1.
         16    1    4    4    0    0  0.19820069082E+03 -0.26078976617E+03 -0.35154246112E+02  0.32943988374E+03  0.00000000000E+00 0. -1.
    9900018    1    3    3    0    0  0.26976275003E+03  0.53233642922E+03  0.82725023555E+01  0.60376951552E+03  0.91187600000E+02 0.  0.
<mgrwt>
<rscale>  0 0.50177408E+04</rscale>
<asrwt>0</asrwt>
<pdfrwt beam="1">  1        2 0.32307170E+00 0.50177408E+04</pdfrwt>
<pdfrwt beam="2">  1       -2 0.46113791E+00 0.50177408E+04</pdfrwt>
<totfact> 0.12564338E-02</totfact>
</mgrwt>
</event>
<event>
11    1  0.2720171E-013  0.6674176E+04  0.7818608E-02  0.7612004E-01
          1   -1    0    0  501    0  0.00000000000E+00  0.00000000000E+00  0.25914487452E+04  0.25914487452E+04  0.00000000000E+00 0. -1.
         -1   -1    0    0    0  501 -0.00000000000E+00 -0.00000000000E+00 -0.42972707851E+04  0.42972707851E+04  0.00000000000E+00 0.  1.
    9900016    2    1    2    0    0 -0.84310240851E+03  0.23860696267E+03 -0.22953561235E+04  0.32081421647E+04  0.20629496993E+04 0.  0.
        -24    2    3    3    0    0  0.16286532163E+02 -0.49062172237E+03 -0.63739821336E+03  0.80958306154E+03  0.90406446440E+02 0.  0.
        -15    1    1    2    0    0 -0.48425013876E+03 -0.20847648472E+03 -0.59480201493E+03  0.79482707461E+03  0.00000000000E+00 0.  1.
        -15    1    3    3    0    0 -0.77705739754E+03  0.91601772148E+03 -0.17772785661E+04  0.21451400343E+04  0.00000000000E+00 0.  1.
         15    1    1    2    0    0  0.12394674442E+04  0.10031095701E+04  0.71142035610E+03  0.17460318663E+04  0.00000000000E+00 0. -1.
         15    1    4    4    0    0  0.16207526120E+02 -0.34778440283E+03 -0.51405056206E+03  0.62085799915E+03  0.00000000000E+00 0. -1.
        -16    1    4    4    0    0  0.79006042415E-01 -0.14283731954E+03 -0.12334765130E+03  0.18872506240E+03  0.00000000000E+00 0.  1.
         16    1    1    2    0    0  0.87885103052E+02 -0.10332400480E+04  0.47291574244E+03  0.11397184247E+04  0.00000000000E+00 0. -1.
    9900018    1    3    3    0    0 -0.82331543132E+02 -0.18678903644E+03  0.11932065602E+03  0.25341906889E+03  0.91187600000E+02 0.  0.
<mgrwt>
<rscale>  0 0.66741762E+04</rscale>
<asrwt>0</asrwt>
<pdfrwt beam="1">  1        1 0.39868443E+00 0.66741762E+04</pdfrwt>
<pdfrwt beam="2">  1       -1 0.66111857E+00 0.66741762E+04</pdfrwt>
<totfact> 0.20547558E-04</totfact>
</mgrwt>
</event>
<event>
11    1  0.2720171E-013  0.2687812E+04  0.7818608E-02  0.8567203E-01
          2   -1    0    0  501    0  0.00000000000E+00  0.00000000000E+00  0.30512621745E+04  0.30512621745E+04  0.00000000000E+00 0. -1.
         -2   -1    0    0    0  501 -0.00000000000E+00 -0.00000000000E+00 -0.13953750063E+04  0.13953750063E+04  0.00000000000E+00 0.  1.
    9900016    2    1    2    0    0  0.20069722458E+03 -0.16430632917E+03  0.70174330806E+03  0.21072824448E+04  0.19700049964E+04 0.  0.
         24    2    3    3    0    0  0.38758605834E+03 -0.86828617771E+03  0.73557442534E+03  0.12032570859E+04  0.51127689677E+02 0.  0.
        -15    1    1    2    0    0 -0.36960289026E+03  0.31080180721E+03  0.64542261306E+03  0.80608585728E+03  0.00000000000E+00 0.  1.
        -15    1    4    4    0    0  0.76397474230E+02 -0.13299013390E+03  0.10543575844E+03  0.18611729888E+03  0.00000000000E+00 0.  1.
         15    1    3    3    0    0  0.71104917866E+02  0.36242626673E+03 -0.21837097121E+03  0.42906245376E+03  0.00000000000E+00 0. -1.
         15    1    1    2    0    0  0.47670883976E+03 -0.11089920738E+03  0.80857420204E+03  0.94516781172E+03  0.00000000000E+00 0. -1.
        -16    1    1    2    0    0 -0.30780317408E+03 -0.35596270651E+02 -0.49985295497E+03  0.58810106704E+03  0.00000000000E+00 0.  1.
         16    1    4    4    0    0  0.31118858411E+03 -0.73529604381E+03  0.63013866691E+03  0.10171397871E+04  0.00000000000E+00 0. -1.
    9900018    1    3    3    0    0 -0.25799375163E+03  0.34155358180E+03  0.18453985393E+03  0.47496290508E+03  0.91187600000E+02 0.  0.
<mgrwt>
<rscale>  0 0.20865240E+04</rscale>
<asrwt>0</asrwt>
<pdfrwt beam="1">  1        2 0.46942495E+00 0.26878119E+04</pdfrwt>
<pdfrwt beam="2">  1       -2 0.21467308E+00 0.26878119E+04</pdfrwt>
<totfact> 0.14573828E-01</totfact>
</mgrwt>
</event>
<event>
11    1  0.2720171E-013  0.5899765E+04  0.7818608E-02  0.7702955E-01
         -2   -1    0    0    0  501 -0.00000000000E+00  0.00000000000E+00  0.26464197590E+04  0.26464197590E+04  0.00000000000E+00 0.  1.
          2   -1    0    0  501    0  0.00000000000E+00 -0.00000000000E+00 -0.32881428490E+04  0.32881428490E+04  0.00000000000E+00 0. -1.
    9900016    2    1    2    0    0 -0.13623424166E+04  0.25999807150E+03 -0.41842582427E+03  0.24854262950E+04  0.20195761536E+04 0.  0.
         24    2    3    3    0    0 -0.19302033486E+03 -0.49237387334E+03 -0.58170583317E+03  0.79273784170E+03  0.10179748770E+03 0.  0.
        -15    1    4    4    0    0 -0.96848606212E+02 -0.37220194879E+03 -0.42040000465E+03  0.56978075355E+03  0.00000000000E+00 0.  1.
        -15    1    1    2    0    0 -0.13275657669E+03  0.10369551327E+03 -0.72589689003E+03  0.74518679744E+03  0.00000000000E+00 0.  1.
         15    1    1    2    0    0 -0.17739944459E+03 -0.82001785366E+03  0.48732327787E+03  0.97024935991E+03  0.00000000000E+00 0. -1.
         15    1    3    3    0    0 -0.79612926778E+03  0.52692674055E+03 -0.34656605068E+03  0.10156680700E+04  0.00000000000E+00 0. -1.
        -16    1    1    2    0    0  0.16724984379E+04  0.45632426889E+03  0.15276346341E+02  0.17337001557E+04  0.00000000000E+00 0.  1.
         16    1    4    4    0    0 -0.96171728646E+02 -0.12017192454E+03 -0.16130582852E+03  0.22295708815E+03  0.00000000000E+00 0. -1.
    9900018    1    3    3    0    0 -0.37319281394E+03  0.22544520428E+03  0.50984605958E+03  0.67702038328E+03  0.91187600000E+02 0.  0.
<mgrwt>
<rscale>  0 0.58997648E+04</rscale>
<asrwt>0</asrwt>
<pdfrwt beam="1">  1        2 0.50586813E+00 0.58997648E+04</pdfrwt>
<pdfrwt beam="2">  1       -2 0.40714150E+00 0.58997648E+04</pdfrwt>
<totfact> 0.51290788E-03</totfact>
</mgrwt>
</event>
<event>
11    1  0.2720171E-013  0.3833174E+04  0.7818608E-02  0.8039073E-01
         -1   -1    0    0    0  501 -0.00000000000E+00  0.00000000000E+00  0.16030122017E+04  0.16030122017E+04  0.00000000000E+00 0.  1.
          1   -1    0    0  501    0  0.00000000000E+00 -0.00000000000E+00 -0.22915022808E+04  0.22915022808E+04  0.00000000000E+00 0. -1.
    9900016    2    1    2    0    0 -0.46230794626E+03  0.54699926627E+03 -0.47524877254E+03  0.21921589404E+04  0.20166215782E+04 0.  0.
        -24    2    3    3    0    0  0.21381985674E+03  0.64536222129E+03 -0.92809998842E+03  0.11544655247E+04  0.95967345814E+02 0.  0.
        -15    1    3    3    0    0 -0.46573161520E+03  0.98100547981E+02  0.54347993610E+03  0.72242653319E+03  0.00000000000E+00 0.  1.
        -15    1    1    2    0    0  0.21642698827E+03  0.25065203549E+03  0.19660136415E+03  0.38512229296E+03  0.00000000000E+00 0.  1.
         15    1    1    2    0    0 -0.96817590863E+02 -0.30574061672E+03  0.26393703385E+03  0.41534771993E+03  0.00000000000E+00 0. -1.
         15    1    4    4    0    0  0.24178993327E+02  0.20614096036E+03 -0.30394360931E+03  0.36804950332E+03  0.00000000000E+00 0. -1.
        -16    1    4    4    0    0  0.18964086341E+03  0.43922126093E+03 -0.62415637911E+03  0.78641602140E+03  0.00000000000E+00 0.  1.
         16    1    1    2    0    0  0.34269854886E+03 -0.49191068503E+03 -0.67377970465E+03  0.90188552923E+03  0.00000000000E+00 0. -1.
    9900018    1    3    3    0    0 -0.21039618780E+03 -0.19646350300E+03 -0.90628720215E+02  0.31526688246E+03  0.91187600000E+02 0.  0.
<mgrwt>
<rscale>  0 0.38331742E+04</rscale>
<asrwt>0</asrwt>
<pdfrwt beam="1">  1        1 0.35253881E+00 0.38331742E+04</pdfrwt>
<pdfrwt beam="2">  1       -1 0.24661726E+00 0.38331742E+04</pdfrwt>
<totfact> 0.10981299E-01</totfact>
</mgrwt>
</event>
<event>
10    1  0.2728608E-013  0.3445219E+04  0.7818608E-02  0.8268830E-01
          2   -1    0    0  501    0  0.00000000000E+00  0.00000000000E+00  0.34211346390E+04  0.34211346390E+04  0.00000000000E+00 0.  1.
         -2   -1    0    0    0  501 -0.00000000000E+00 -0.00000000000E+00 -0.22459293758E+04  0.22459293758E+04  0.00000000000E+00 0. -1.
    9900016    2    1    2    0    0  0.27202551505E+03 -0.15841688853E+03  0.74739521443E+03  0.21744770927E+04  0.20175869817E+04 0.  0.
        -15    1    1    2    0    0  0.47628049932E+03 -0.10453894295E+04  0.11731734482E+04  0.16419555758E+04  0.00000000000E+00 0.  1.
        -15    1    3    3    0    0  0.50490862855E+03 -0.55462669262E+03  0.50161533522E+03  0.90230894702E+03  0.00000000000E+00 0.  1.
         15    1    1    2    0    0 -0.37316343275E+03  0.40278458778E+03  0.17289407741E+03  0.57565504749E+03  0.00000000000E+00 0. -1.
         15    1    3    3    0    0 -0.24954114722E+03  0.35152100805E+02  0.10926026317E+03  0.27467118425E+03  0.00000000000E+00 0. -1.
        -16    1    3    3    0    0 -0.42937454590E+03  0.11667132704E+03  0.17778183669E+03  0.47914619969E+03  0.00000000000E+00 0.  1.
         16    1    1    2    0    0 -0.37514258162E+03  0.80102173027E+03 -0.91825747674E+03  0.12749762988E+04  0.00000000000E+00 0. -1.
    9900018    1    3    3    0    0  0.44603257963E+03  0.24438637624E+03 -0.41262220656E+02  0.51835076177E+03  0.91187600000E+02 0.  0.
<mgrwt>
<rscale>  0 0.29136411E+04</rscale>
<asrwt>0</asrwt>
<pdfrwt beam="1">  1        2 0.52632841E+00 0.34452191E+04</pdfrwt>
<pdfrwt beam="2">  1       -2 0.34552759E+00 0.34452191E+04</pdfrwt>
<totfact> 0.11877057E-02</totfact>
</mgrwt>
</event>
<event>
11    1  0.2720171E-013  0.3430692E+04  0.7818608E-02  0.8130414E-01
          1   -1    0    0  501    0  0.00000000000E+00  0.00000000000E+00  0.23582772508E+04  0.23582772508E+04  0.00000000000E+00 0. -1.
         -1   -1    0    0    0  501 -0.00000000000E+00 -0.00000000000E+00 -0.12476955628E+04  0.12476955628E+04  0.00000000000E+00 0.  1.
    9900016    2    1    2    0    0 -0.42726102581E+02  0.75880763210E+03  0.82346244448E+03  0.23137415115E+04  0.20242763750E+04 0.  0.
         24    2    3    3    0    0  0.78917946145E+03  0.40118757392E+03  0.57301019711E+03  0.10565628050E+04  0.65027556415E+02 0.  0.
        -15    1    4    4    0    0  0.53024040595E+03  0.23661887469E+03  0.38641032547E+03  0.69746420668E+03  0.00000000000E+00 0.  1.
        -15    1    1    2    0    0  0.16878063047E+03 -0.19179480669E+03 -0.16929583845E+03  0.30648528514E+03  0.00000000000E+00 0.  1.
         15    1    3    3    0    0 -0.34575018155E+03 -0.26232657125E+03  0.35385800105E+02  0.43544296168E+03  0.00000000000E+00 0. -1.
         15    1    1    2    0    0 -0.21909701400E+03 -0.11986345489E+03  0.46623890322E+03  0.52891347519E+03  0.00000000000E+00 0. -1.
        -16    1    1    2    0    0  0.93042486109E+02 -0.44714937052E+03 -0.98238212317E+01  0.45683254180E+03  0.00000000000E+00 0.  1.
         16    1    4    4    0    0  0.25893905549E+03  0.16456869923E+03  0.18659987164E+03  0.35909859833E+03  0.00000000000E+00 0. -1.
    9900018    1    3    3    0    0 -0.48615538248E+03  0.61994662943E+03  0.21506644726E+03  0.82173574486E+03  0.91187600000E+02 0.  0.
<mgrwt>
<rscale>  0 0.34306921E+04</rscale>
<asrwt>0</asrwt>
<pdfrwt beam="1">  1        1 0.36281188E+00 0.34306921E+04</pdfrwt>
<pdfrwt beam="2">  1       -1 0.19195316E+00 0.34306921E+04</pdfrwt>
<totfact> 0.23845082E-01</totfact>
</mgrwt>
</event>
<event>
11    1  0.2720171E-013  0.4290568E+04  0.7818608E-02  0.7948364E-01
          2   -1    0    0  501    0  0.00000000000E+00  0.00000000000E+00  0.25215671613E+04  0.25215671613E+04  0.00000000000E+00 0.  1.
         -2   -1    0    0    0  501 -0.00000000000E+00 -0.00000000000E+00 -0.18251524130E+04  0.18251524130E+04  0.00000000000E+00 0. -1.
    9900016    2    1    2    0    0  0.33822318032E+03  0.75820315089E+02  0.57120835931E+03  0.21157002333E+04  0.20074274203E+04 0.  0.
        -24    2    3    3    0    0  0.84441526544E+03 -0.31507285363E+03 -0.77805588998E+02  0.90651633455E+03  0.58396160173E+02 0.  0.
        -15    1    1    2    0    0  0.60790608365E+03 -0.87815818580E+02  0.63459169007E+03  0.88315799133E+03  0.00000000000E+00 0.  1.
        -15    1    3    3    0    0 -0.47763385412E+03  0.42321721953E+03  0.93961149359E+02  0.64503923221E+03  0.00000000000E+00 0.  1.
         15    1    1    2    0    0 -0.60813985520E+03 -0.15525066752E+03  0.95686342511E+02  0.63489584138E+03  0.00000000000E+00 0. -1.
         15    1    4    4    0    0  0.55634327038E+03 -0.17789225408E+03 -0.48106246562E+02  0.58606970534E+03  0.00000000000E+00 0. -1.
        -16    1    4    4    0    0  0.28807199507E+03 -0.13718059955E+03 -0.29699342436E+02  0.32044662922E+03  0.00000000000E+00 0.  1.
         16    1    1    2    0    0 -0.33798940877E+03  0.16724617102E+03 -0.60507164352E+03  0.71296550825E+03  0.00000000000E+00 0. -1.
    9900018    1    3    3    0    0 -0.28558231001E+02 -0.32324050806E+02  0.55505279895E+03  0.56414466658E+03  0.91187600000E+02 0.  0.
<mgrwt>
<rscale>  0 0.42905684E+04</rscale>
<asrwt>0</asrwt>
<pdfrwt beam="1">  1        2 0.38793341E+00 0.42905684E+04</pdfrwt>
<pdfrwt beam="2">  1       -2 0.28079268E+00 0.42905684E+04</pdfrwt>
<totfact> 0.10854399E-01</totfact>
</mgrwt>
</event>
<event>
11    1  0.2720171E-013  0.3539798E+04  0.7818608E-02  0.8104423E-01
         -2   -1    0    0    0  501 -0.00000000000E+00  0.00000000000E+00  0.79219329577E+03  0.79219329577E+03  0.00000000000E+00 0.  1.
          2   -1    0    0  501    0  0.00000000000E+00 -0.00000000000E+00 -0.39542645516E+04  0.39542645516E+04  0.00000000000E+00 0. -1.
    9900016    2    1    2    0    0 -0.17382727086E+03 -0.39941605620E+03 -0.14611980256E+04  0.25264384756E+04  0.20144583875E+04 0.  0.
        -24    2    3    3    0    0 -0.14790943711E+03 -0.71012294071E+02  0.37642950348E+03  0.41510909035E+03  0.60798341291E+02 0.  0.
        -15    1    1    2    0    0  0.16732181927E+03  0.39975382847E+03 -0.84198370026E+03  0.94696159694E+03  0.00000000000E+00 0.  1.
        -15    1    3    3    0    0  0.26888721233E+03  0.21211341585E+03 -0.10677558181E+04  0.11213362213E+04  0.00000000000E+00 0.  1.
         15    1    1    2    0    0  0.40744198568E+02  0.34449325204E+03  0.39217357770E-02  0.34689435054E+03  0.00000000000E+00 0. -1.
         15    1    4    4    0    0 -0.10906776555E+03 -0.67133872851E+02  0.33265783890E+03  0.35646033741E+03  0.00000000000E+00 0. -1.
        -16    1    4    4    0    0 -0.38841671563E+02 -0.38784212198E+01  0.43771664580E+02  0.58648752937E+02  0.00000000000E+00 0.  1.
         16    1    1    2    0    0 -0.34238746974E+02 -0.34483102431E+03 -0.85889345177E+03  0.92616342436E+03  0.00000000000E+00 0. -1.
    9900018    1    3    3    0    0 -0.29480504607E+03 -0.54051717797E+03 -0.76987171092E+03  0.98999316388E+03  0.91187600000E+02 0.  0.
<mgrwt>
<rscale>  0 0.35397977E+04</rscale>
<asrwt>0</asrwt>
<pdfrwt beam="1">  1        2 0.60834839E+00 0.35397977E+04</pdfrwt>
<pdfrwt beam="2">  1       -2 0.12187589E+00 0.35397977E+04</pdfrwt>
<totfact> 0.15539082E-01</totfact>
</mgrwt>
</event>
<event>
11    1  0.2720171E-013  0.3887067E+04  0.7818608E-02  0.8027724E-01
          2   -1    0    0  501    0  0.00000000000E+00  0.00000000000E+00  0.16971008609E+04  0.16971008609E+04  0.00000000000E+00 0.  1.
         -2   -1    0    0    0  501 -0.00000000000E+00 -0.00000000000E+00 -0.22257497227E+04  0.22257497227E+04  0.00000000000E+00 0. -1.
    9900016    2    1    2    0    0 -0.20234099090E+03  0.11325867782E+03  0.64091159245E+02  0.20480763896E+04  0.20338976907E+04 0.  0.
        -24    2    3    3    0    0  0.71193176715E+03 -0.10757901137E+03  0.49392144749E+02  0.72798433106E+03  0.95401873926E+02 0.  0.
        -15    1    3    3    0    0 -0.54512667406E+03 -0.33971116995E+03 -0.80292308867E+01  0.64236378969E+03  0.00000000000E+00 0.  1.
        -15    1    1    2    0    0  0.45320369763E+03  0.63225188262E+02 -0.30835172481E+03  0.55178963580E+03  0.00000000000E+00 0.  1.
         15    1    4    4    0    0  0.26890694818E+03 -0.79257474064E+02 -0.73716167733E+01  0.28044078646E+03  0.00000000000E+00 0. -1.
         15    1    1    2    0    0 -0.19257519509E+03 -0.45228236782E+03  0.36683997432E+03  0.61336458388E+03  0.00000000000E+00 0. -1.
        -16    1    4    4    0    0  0.44302481896E+03 -0.28321537307E+02  0.56763761522E+02  0.44754354460E+03  0.00000000000E+00 0.  1.
         16    1    1    2    0    0 -0.58287511638E+02  0.27579850174E+03 -0.65122827062E+03  0.70961997437E+03  0.00000000000E+00 0. -1.
    9900018    1    3    3    0    0 -0.36914608399E+03  0.56054885915E+03  0.22728245383E+02  0.67772826881E+03  0.91187600000E+02 0.  0.
<mgrwt>
<rscale>  0 0.38870666E+04</rscale>
<asrwt>0</asrwt>
<pdfrwt beam="1">  1        2 0.26109244E+00 0.38870666E+04</pdfrwt>
<pdfrwt beam="2">  1       -2 0.34242303E+00 0.38870666E+04</pdfrwt>
<totfact> 0.13603038E-01</totfact>
</mgrwt>
</event>
<event>
11    1  0.2720171E-013  0.4925099E+04  0.7818608E-02  0.7840166E-01
         -2   -1    0    0    0  501 -0.00000000000E+00  0.00000000000E+00  0.29435049424E+04  0.29435049424E+04  0.00000000000E+00 0. -1.
          2   -1    0    0  501    0  0.00000000000E+00 -0.00000000000E+00 -0.20601801597E+04  0.20601801597E+04  0.00000000000E+00 0.  1.
    9900016    2    1    2    0    0 -0.16822086965E+02  0.28944291287E+03  0.13569465803E+04  0.24612011138E+04  0.20327682402E+04 0.  0.
         24    2    3    3    0    0  0.77265752631E+03  0.72857573132E+03  0.91731498575E+03  0.14063261069E+04  0.92000471226E+02 0.  0.
        -15    1    1    2    0    0  0.61941044760E+03  0.65641545085E+02 -0.49006064288E+03  0.79255129092E+03  0.00000000000E+00 0.  1.
        -15    1    4    4    0    0  0.39016096690E+03  0.36055944979E+03  0.51913225479E+03  0.74278327586E+03  0.00000000000E+00 0.  1.
         15    1    1    2    0    0 -0.84793960330E+03 -0.17476504373E+02  0.59538719789E+03  0.10362397958E+04  0.00000000000E+00 0. -1.
         15    1    3    3    0    0 -0.14769510853E+03 -0.16115425373E+03 -0.93169694348E+01  0.21879521133E+03  0.00000000000E+00 0. -1.
        -16    1    1    2    0    0  0.24535124267E+03 -0.33760795358E+03 -0.57894835266E+03  0.71369290149E+03  0.00000000000E+00 0.  1.
         16    1    4    4    0    0  0.38249655941E+03  0.36801628153E+03  0.39818273096E+03  0.66354283107E+03  0.00000000000E+00 0. -1.
    9900018    1    3    3    0    0 -0.64178450474E+03 -0.27797856472E+03  0.44894856401E+03  0.83607979553E+03  0.91187600000E+02 0.  0.
<mgrwt>
<rscale>  0 0.49250992E+04</rscale>
<asrwt>0</asrwt>
<pdfrwt beam="1">  1        2 0.31695079E+00 0.49250992E+04</pdfrwt>
<pdfrwt beam="2">  1       -2 0.45284691E+00 0.49250992E+04</pdfrwt>
<totfact> 0.15095238E-02</totfact>
</mgrwt>
</event>
<event>
11    1  0.2720171E-013  0.4151961E+04  0.7818608E-02  0.7974574E-01
          1   -1    0    0  501    0  0.00000000000E+00  0.00000000000E+00  0.14977437720E+04  0.14977437720E+04  0.00000000000E+00 0. -1.
         -1   -1    0    0    0  501 -0.00000000000E+00 -0.00000000000E+00 -0.28774581747E+04  0.28774581747E+04  0.00000000000E+00 0.  1.
    9900016    2    1    2    0    0  0.77493767015E+03  0.25488822844E+03 -0.12462591784E+04  0.25084233818E+04  0.20182986699E+04 0.  0.
        -24    2    3    3    0    0  0.61303576532E+03 -0.51759336746E+02 -0.10653126729E+04  0.12336272098E+04  0.91940868304E+02 0.  0.
        -15    1    3    3    0    0 -0.11670056559E+03  0.50066086953E+03 -0.55839481687E+03  0.75900270078E+03  0.00000000000E+00 0.  1.
        -15    1    1    2    0    0 -0.47563420619E+03  0.32486050766E+03  0.18012715949E+02  0.57626964650E+03  0.00000000000E+00 0.  1.
         15    1    1    2    0    0 -0.33542463174E+03 -0.67535980644E+02 -0.54504399906E+03  0.64354001676E+03  0.00000000000E+00 0. -1.
         15    1    4    4    0    0  0.42343821986E+03 -0.13389150702E+02 -0.65600791244E+03  0.78091329645E+03  0.00000000000E+00 0. -1.
        -16    1    4    4    0    0  0.18959754547E+03 -0.38370186044E+02 -0.40930476043E+03  0.45271391335E+03  0.00000000000E+00 0.  1.
         16    1    1    2    0    0  0.36121167790E+02 -0.51221275545E+03  0.39357605879E+03  0.64696890162E+03  0.00000000000E+00 0. -1.
    9900018    1    3    3    0    0  0.27860247041E+03 -0.19401330434E+03  0.37744831138E+03  0.51579347121E+03  0.91187600000E+02 0.  0.
<mgrwt>
<rscale>  0 0.41519610E+04</rscale>
<asrwt>0</asrwt>
<pdfrwt beam="1">  1        1 0.23042212E+00 0.41519610E+04</pdfrwt>
<pdfrwt beam="2">  1       -1 0.44268587E+00 0.41519610E+04</pdfrwt>
<totfact> 0.18445606E-02</totfact>
</mgrwt>
</event>
