<event>
12    1  0.4773446E-016  0.3027073E+04  0.7818608E-02  0.8236042E-01
          2   -1    0    0  501    0  0.00000000000E+00  0.00000000000E+00  0.13735210574E+04  0.13735210574E+04  0.00000000000E+00 0. -1.
         -2   -1    0    0    0  501 -0.00000000000E+00 -0.00000000000E+00 -0.16678247027E+04  0.16678247027E+04  0.00000000000E+00 0.  1.
    9900016    2    1    2    0    0  0.56783286718E+03 -0.15146517456E+01 -0.83030538923E+02  0.22774483093E+04  0.22039601339E+04 0.  0.
         24    2    3    3    0    0  0.90948128115E+02  0.51063699353E+03 -0.99680748629E+03  0.11264892867E+04  0.79569134830E+02 0.  0.
         24    2    4    4    0    0  0.70836108994E+02  0.45209233545E+03 -0.86290830455E+03  0.97847890192E+03  0.58352252158E+02 0.  0.
        -15    1    5    5    0    0  0.34124888567E+01  0.19424972088E+02 -0.17372757538E+02  0.26282833281E+02  0.00000000000E+00 0.  1.
        -15    1    4    4    0    0  0.43125689937E+01  0.20325978778E+02 -0.33412540037E+02  0.39346429270E+02  0.00000000000E+00 0. -1.
         15    1    4    4    0    0  0.15799450127E+02  0.38218679297E+02 -0.10048664170E+03  0.10866395553E+03  0.00000000000E+00 0.  1.
         15    1    3    3    0    0  0.47688473906E+03 -0.51215164527E+03  0.91377694736E+03  0.11509590226E+04  0.00000000000E+00 0. -1.
        -16    1    1    2    0    0 -0.57736262891E+03 -0.98110438773E+02 -0.22594197006E+03  0.62771254352E+03  0.00000000000E+00 0.  1.
         16    1    5    5    0    0  0.67423620138E+02  0.43266736337E+03 -0.84553554701E+03  0.95219606864E+03  0.00000000000E+00 0. -1.
    9900018    1    1    2    0    0  0.95297617294E+01  0.99625090518E+02  0.14668863730E+02  0.13618490730E+03  0.91187600000E+02 0.  0.
<mgrwt>
<rscale>  0 0.30270727E+04</rscale>
<asrwt>0</asrwt>
<pdfrwt beam="1">  1        2 0.21131093E+00 0.30270727E+04</pdfrwt>
<pdfrwt beam="2">  1       -2 0.25658841E+00 0.30270727E+04</pdfrwt>
<totfact> 0.74936385E-01</totfact>
</mgrwt>
</event>
<event>
11    1  0.4773446E-016  0.3314313E+04  0.7818608E-02  0.8159263E-01
         -1   -1    0    0    0  501 -0.00000000000E+00  0.00000000000E+00  0.21211264510E+04  0.21211264510E+04  0.00000000000E+00 0.  1.
          1   -1    0    0  501    0  0.00000000000E+00 -0.00000000000E+00 -0.12946743218E+04  0.12946743218E+04  0.00000000000E+00 0. -1.
    9900016    2    1    2    0    0  0.39452163084E+03 -0.49697110791E+03  0.12234122950E+04  0.25974859481E+04  0.22017193299E+04 0.  0.
        -24    2    3    3    0    0  0.87346362613E+02 -0.12378174833E+03 -0.64509324422E+03  0.66747561294E+03  0.80169145287E+02 0.  0.
        -15    1    3    3    0    0  0.30717526823E+03 -0.37318935958E+03  0.18685055393E+04  0.19300103351E+04  0.00000000000E+00 0.  1.
        -15    1    4    4    0    0  0.61579898265E+02 -0.30452207724E+02 -0.30772724193E+03  0.31530219829E+03  0.00000000000E+00 0. -1.
         15    1    4    4    0    0  0.60274952385E+01 -0.20263181190E+02 -0.10742140302E+03  0.10948189365E+03  0.00000000000E+00 0.  1.
         15    1    4    4    0    0  0.16525353716E+01 -0.19980181921E+02 -0.41678559177E+02  0.46249765813E+02  0.00000000000E+00 0. -1.
        -16    1    4    4    0    0  0.18086433738E+02 -0.53086177498E+02 -0.18826604010E+03  0.19644175519E+03  0.00000000000E+00 0.  1.
         16    1    1    2    0    0 -0.24636735611E+03  0.16459456738E+03 -0.31857512166E+03  0.43506132201E+03  0.00000000000E+00 0. -1.
    9900018    1    1    2    0    0 -0.14815427473E+03  0.33237654053E+03 -0.78385044192E+02  0.38325350273E+03  0.91187600000E+02 0.  0.
<mgrwt>
<rscale>  0 0.33143132E+04</rscale>
<asrwt>0</asrwt>
<pdfrwt beam="1">  1        1 0.19918066E+00 0.33143132E+04</pdfrwt>
<pdfrwt beam="2">  1       -1 0.32632715E+00 0.33143132E+04</pdfrwt>
<totfact> 0.16820533E-01</totfact>
</mgrwt>
</event>
<event>
11    1  0.4773446E-016  0.4287162E+04  0.7818608E-02  0.7948996E-01
         -1   -1    0    0    0  501 -0.00000000000E+00  0.00000000000E+00  0.16980927275E+04  0.16980927275E+04  0.00000000000E+00 0.  1.
          1   -1    0    0  501    0  0.00000000000E+00 -0.00000000000E+00 -0.27059408763E+04  0.27059408763E+04  0.00000000000E+00 0. -1.
    9900016    2    1    2    0    0  0.31598770573E+03 -0.73709817060E+03  0.16294551490E+03  0.23545752506E+04  0.22077842799E+04 0.  0.
        -24    2    3    3    0    0 -0.26741101108E+02 -0.27120060479E+03  0.11640939383E+04  0.11983651734E+04  0.81850700341E+02 0.  0.
        -15    1    3    3    0    0  0.34272880683E+03 -0.46589756581E+03 -0.10011484234E+04  0.11562100772E+04  0.00000000000E+00 0.  1.
        -15    1    4    4    0    0  0.54339308291E+01 -0.42966579633E+02  0.24518841763E+03  0.24898396476E+03  0.00000000000E+00 0. -1.
         15    1    4    4    0    0 -0.85519197027E+01 -0.29378299816E+02  0.71814004171E+02  0.78060688094E+02  0.00000000000E+00 0.  1.
         15    1    4    4    0    0 -0.21599574713E+02 -0.50555134815E+02  0.19717715131E+03  0.20469780723E+03  0.00000000000E+00 0. -1.
        -16    1    4    4    0    0 -0.20235375213E+01 -0.14830059053E+03  0.64991436521E+03  0.66662271335E+03  0.00000000000E+00 0.  1.
         16    1    1    2    0    0 -0.54846681426E+03 -0.16950124403E+03 -0.90593996426E+03  0.10725081524E+04  0.00000000000E+00 0. -1.
    9900018    1    1    2    0    0  0.23247910853E+03  0.90659941463E+03 -0.26485369944E+03  0.97695020089E+03  0.91187600000E+02 0.  0.
<mgrwt>
<rscale>  0 0.42871615E+04</rscale>
<asrwt>0</asrwt>
<pdfrwt beam="1">  1        1 0.41629860E+00 0.42871615E+04</pdfrwt>
<pdfrwt beam="2">  1       -1 0.26124504E+00 0.42871615E+04</pdfrwt>
<totfact> 0.43761807E-02</totfact>
</mgrwt>
</event>
<event>
11    1  0.4773446E-016  0.3917223E+04  0.7818608E-02  0.8021457E-01
          2   -1    0    0  501    0  0.00000000000E+00  0.00000000000E+00  0.41196593116E+04  0.41196593116E+04  0.00000000000E+00 0. -1.
         -2   -1    0    0    0  501 -0.00000000000E+00 -0.00000000000E+00 -0.93118335486E+03  0.93118335486E+03  0.00000000000E+00 0.  1.
    9900016    2    1    2    0    0  0.58224894822E+03 -0.19335281911E+03  0.11351929374E+04  0.25482847600E+04  0.21974287388E+04 0.  0.
        -24    2    3    3    0    0 -0.26261636695E+03 -0.11716923468E+03 -0.56970155781E+03  0.64400889254E+03  0.86554046436E+02 0.  0.
        -15    1    3    3    0    0  0.84486531517E+03 -0.76183584427E+02  0.17048944952E+04  0.19042758674E+04  0.00000000000E+00 0.  1.
        -15    1    4    4    0    0 -0.42818110379E+02 -0.22154852473E+02 -0.95924364829E+02  0.10735786805E+03  0.00000000000E+00 0. -1.
         15    1    4    4    0    0 -0.62312577687E+02 -0.31993126026E+02 -0.21721974816E+03  0.22823417019E+03  0.00000000000E+00 0. -1.
         15    1    4    4    0    0 -0.18595696198E+02 -0.60357395820E+01 -0.18133297662E+02  0.26665456184E+02  0.00000000000E+00 0.  1.
        -16    1    4    4    0    0 -0.13888998269E+03 -0.56985516601E+02 -0.23842414715E+03  0.28175139811E+03  0.00000000000E+00 0.  1.
         16    1    1    2    0    0 -0.17794558569E+02  0.67874114468E+03  0.91515062528E+03  0.11395204495E+04  0.00000000000E+00 0. -1.
    9900018    1    1    2    0    0 -0.56445438965E+03 -0.48538832558E+03  0.11381323940E+04  0.13630374571E+04  0.91187600000E+02 0.  0.
<mgrwt>
<rscale>  0 0.39172226E+04</rscale>
<asrwt>0</asrwt>
<pdfrwt beam="1">  1        2 0.63379373E+00 0.39172226E+04</pdfrwt>
<pdfrwt beam="2">  1       -2 0.14325898E+00 0.39172226E+04</pdfrwt>
<totfact> 0.72870104E-02</totfact>
</mgrwt>
</event>
<event>
11    1  0.4773446E-016  0.3535190E+04  0.7818608E-02  0.8105501E-01
          2   -1    0    0  501    0  0.00000000000E+00  0.00000000000E+00  0.33681905255E+04  0.33681905255E+04  0.00000000000E+00 0. -1.
         -2   -1    0    0    0  501 -0.00000000000E+00 -0.00000000000E+00 -0.92761720593E+03  0.92761720593E+03  0.00000000000E+00 0.  1.
    9900016    2    1    2    0    0  0.67661286868E+03  0.13389326096E+03  0.10685604671E+04  0.25386915363E+04  0.21971346944E+04 0.  0.
         24    2    3    3    0    0  0.15387853269E+03 -0.12526620612E+03 -0.67074375867E+03  0.70413600290E+03  0.80870857321E+02 0.  0.
        -15    1    4    4    0    0  0.67767311476E+01 -0.21844052583E+02 -0.41338004485E+02  0.47243172344E+02  0.00000000000E+00 0.  1.
        -15    1    4    4    0    0  0.33858753421E+02 -0.38986369808E+02 -0.18350282279E+03  0.19062958371E+03  0.00000000000E+00 0.  1.
         15    1    3    3    0    0  0.52273433599E+03  0.25915946708E+03  0.17393042257E+04  0.18345555334E+04  0.00000000000E+00 0. -1.
         15    1    4    4    0    0  0.41765463498E+02 -0.30387636789E+02 -0.11576834702E+03  0.12676779001E+03  0.00000000000E+00 0. -1.
        -16    1    1    2    0    0 -0.72275229833E+03  0.55717922963E+01  0.52675546061E+03  0.89435632994E+03  0.00000000000E+00 0.  1.
         16    1    4    4    0    0  0.71477584620E+02 -0.34048146940E+02 -0.33013458438E+03  0.33949545684E+03  0.00000000000E+00 0. -1.
    9900018    1    1    2    0    0  0.46139429655E+02 -0.13946505326E+03  0.84525739191E+03  0.86275986521E+03  0.91187600000E+02 0.  0.
<mgrwt>
<rscale>  0 0.35351897E+04</rscale>
<asrwt>0</asrwt>
<pdfrwt beam="1">  1        2 0.51818315E+00 0.35351897E+04</pdfrwt>
<pdfrwt beam="2">  1       -2 0.14271034E+00 0.35351897E+04</pdfrwt>
<totfact> 0.28014558E-01</totfact>
</mgrwt>
</event>
<event>
11    1  0.4773446E-016  0.4176345E+04  0.7818608E-02  0.7969887E-01
          1   -1    0    0  501    0  0.00000000000E+00  0.00000000000E+00  0.28810025451E+04  0.28810025451E+04  0.00000000000E+00 0. -1.
         -1   -1    0    0    0  501 -0.00000000000E+00 -0.00000000000E+00 -0.15135234043E+04  0.15135234043E+04  0.00000000000E+00 0.  1.
    9900016    2    1    2    0    0  0.36377085199E+03  0.87999736622E+03  0.56401297477E+01  0.24001504819E+04  0.22031717880E+04 0.  0.
         24    2    3    3    0    0  0.35799240218E+03 -0.11284425210E+03 -0.94835662903E+03  0.10232417394E+04  0.82164323798E+02 0.  0.
        -15    1    4    4    0    0  0.31662215336E+02 -0.15449035847E+02 -0.83770748835E+02  0.90877428159E+02  0.00000000000E+00 0.  1.
        -15    1    4    4    0    0  0.14737655457E+02 -0.16827129644E+02 -0.32503445737E+02  0.39456618776E+02  0.00000000000E+00 0.  1.
         15    1    4    4    0    0  0.10780790549E+02 -0.12589552689E+01 -0.14298182412E+02  0.17951279440E+02  0.00000000000E+00 0. -1.
         15    1    3    3    0    0  0.57784498111E+01  0.99284161832E+03  0.95399675878E+03  0.13769087426E+04  0.00000000000E+00 0. -1.
        -16    1    1    2    0    0  0.10385336906E+03 -0.87535967552E+03  0.12045244012E+04  0.14926215585E+04  0.00000000000E+00 0.  1.
         16    1    4    4    0    0  0.30081174084E+03 -0.79309131338E+02 -0.81778425205E+03  0.87495641300E+03  0.00000000000E+00 0. -1.
    9900018    1    1    2    0    0 -0.46762422105E+03 -0.46376907026E+01  0.15731460989E+03  0.50175390897E+03  0.91187600000E+02 0.  0.
<mgrwt>
<rscale>  0 0.41763452E+04</rscale>
<asrwt>0</asrwt>
<pdfrwt beam="1">  1        1 0.44323116E+00 0.41763452E+04</pdfrwt>
<pdfrwt beam="2">  1       -1 0.23284976E+00 0.41763452E+04</pdfrwt>
<totfact> 0.50822105E-02</totfact>
</mgrwt>
</event>
<event>
11    1  0.4773446E-016  0.4446750E+04  0.7818608E-02  0.7920026E-01
         -2   -1    0    0    0  501 -0.00000000000E+00  0.00000000000E+00  0.12276653444E+04  0.12276653444E+04  0.00000000000E+00 0.  1.
          2   -1    0    0  501    0  0.00000000000E+00 -0.00000000000E+00 -0.40266640381E+04  0.40266640381E+04  0.00000000000E+00 0. -1.
    9900016    2    1    2    0    0 -0.31550594488E+03 -0.10914792726E+04 -0.15003894774E+04  0.28921033371E+04  0.21959558568E+04 0.  0.
        -24    2    3    3    0    0 -0.20467859305E+03 -0.27427606664E+03  0.56661257802E+03  0.66665927388E+03  0.79145983412E+02 0.  0.
        -15    1    4    4    0    0 -0.14016662785E+03 -0.17737571494E+03  0.35961877743E+03  0.42477581486E+03  0.00000000000E+00 0.  1.
        -15    1    3    3    0    0 -0.11082735182E+03 -0.81720320593E+03 -0.20670020554E+04  0.22254440632E+04  0.00000000000E+00 0.  1.
         15    1    4    4    0    0 -0.20348824206E+02 -0.30357419188E+02  0.97688363637E+02  0.10430083382E+03  0.00000000000E+00 0. -1.
         15    1    4    4    0    0 -0.10442213581E+02 -0.33513452353E+01  0.22588103520E+02  0.25109634804E+02  0.00000000000E+00 0. -1.
        -16    1    4    4    0    0 -0.33720927419E+02 -0.63191587277E+02  0.86717333432E+02  0.11247299039E+03  0.00000000000E+00 0.  1.
         16    1    1    2    0    0  0.41187899453E+03  0.14847346082E+04 -0.88788691876E+03  0.17783206525E+04  0.00000000000E+00 0. -1.
    9900018    1    1    2    0    0 -0.96373049653E+02 -0.39325533558E+03 -0.41072229756E+03  0.58390539283E+03  0.91187600000E+02 0.  0.
<mgrwt>
<rscale>  0 0.44467498E+04</rscale>
<asrwt>0</asrwt>
<pdfrwt beam="1">  1        2 0.61948677E+00 0.44467498E+04</pdfrwt>
<pdfrwt beam="2">  1       -2 0.18887159E+00 0.44467498E+04</pdfrwt>
<totfact> 0.38894587E-02</totfact>
</mgrwt>
</event>
<event>
11    1  0.4773446E-016  0.5211973E+04  0.7818608E-02  0.7796615E-01
         -2   -1    0    0    0  501 -0.00000000000E+00  0.00000000000E+00  0.19092049758E+04  0.19092049758E+04  0.00000000000E+00 0.  1.
          2   -1    0    0  501    0  0.00000000000E+00 -0.00000000000E+00 -0.35570640536E+04  0.35570640536E+04  0.00000000000E+00 0. -1.
    9900016    2    1    2    0    0 -0.45467186513E+03  0.40640756746E+03  0.82573412430E+02  0.22788874366E+04  0.21942233169E+04 0.  0.
        -24    2    3    3    0    0  0.10315841199E+03 -0.18606979371E+03 -0.94282072188E+03  0.96982778470E+03  0.79946183593E+02 0.  0.
        -15    1    4    4    0    0  0.54119195860E+02 -0.10633527736E+03 -0.56262650506E+03  0.57513882044E+03  0.00000000000E+00 0. -1.
        -15    1    3    3    0    0 -0.55783027712E+03  0.59247736117E+03  0.10253941343E+04  0.13090596519E+04  0.00000000000E+00 0.  1.
         15    1    4    4    0    0  0.28204028933E+02 -0.23921856589E+02 -0.19984781722E+03  0.20324092235E+03  0.00000000000E+00 0. -1.
         15    1    4    4    0    0 -0.10888540578E+01 -0.28670534807E+02 -0.95224399566E+02  0.99452860401E+02  0.00000000000E+00 0.  1.
        -16    1    4    4    0    0  0.21924041254E+02 -0.27142124955E+02 -0.85122000033E+02  0.91995181513E+02  0.00000000000E+00 0.  1.
         16    1    1    2    0    0  0.10892851295E+04 -0.10876984610E+04 -0.16371844329E+04  0.22472211513E+04  0.00000000000E+00 0. -1.
    9900018    1    1    2    0    0 -0.63461326438E+03  0.68129089358E+03 -0.93248057271E+02  0.94016044141E+03  0.91187600000E+02 0.  0.
<mgrwt>
<rscale>  0 0.52119725E+04</rscale>
<asrwt>0</asrwt>
<pdfrwt beam="1">  1        2 0.54724062E+00 0.52119725E+04</pdfrwt>
<pdfrwt beam="2">  1       -2 0.29372384E+00 0.52119725E+04</pdfrwt>
<totfact> 0.18376887E-02</totfact>
</mgrwt>
</event>
<event>
11    1  0.4773446E-016  0.3803346E+04  0.7818608E-02  0.8045437E-01
         -2   -1    0    0    0  501 -0.00000000000E+00  0.00000000000E+00  0.21633138000E+04  0.21633138000E+04  0.00000000000E+00 0.  1.
          2   -1    0    0  501    0  0.00000000000E+00 -0.00000000000E+00 -0.16716758041E+04  0.16716758041E+04  0.00000000000E+00 0. -1.
    9900016    2    1    2    0    0 -0.50399956206E+02 -0.79273872716E+03  0.44586123897E+03  0.23739049365E+04  0.21921810049E+04 0.  0.
        -24    2    3    3    0    0  0.35040057908E+03 -0.15155355880E+03 -0.81499760211E+03  0.90369253475E+03  0.81792780295E+02 0.  0.
        -15    1    4    4    0    0  0.49690652710E+02 -0.42633780360E+02 -0.15568911062E+03  0.16889612003E+03  0.00000000000E+00 0.  1.
        -15    1    3    3    0    0 -0.40080053528E+03 -0.64118516836E+03  0.12608588411E+04  0.14702124018E+04  0.00000000000E+00 0.  1.
         15    1    4    4    0    0  0.13242947819E+02 -0.49283775571E+01 -0.64222891209E+02  0.65758986668E+02  0.00000000000E+00 0. -1.
         15    1    4    4    0    0  0.45983802645E+02 -0.15520668313E+02 -0.90564717735E+02  0.10274906009E+03  0.00000000000E+00 0. -1.
        -16    1    4    4    0    0  0.24148317590E+03 -0.88470732574E+02 -0.50452088255E+03  0.56628836796E+03  0.00000000000E+00 0.  1.
         16    1    1    2    0    0 -0.20331494047E+03  0.51328084013E+03 -0.53085303829E+03  0.76589760029E+03  0.00000000000E+00 0. -1.
    9900018    1    1    2    0    0  0.25371489668E+03  0.27945788703E+03  0.57662979522E+03  0.69518706731E+03  0.91187600000E+02 0.  0.
<mgrwt>
<rscale>  0 0.38033455E+04</rscale>
<asrwt>0</asrwt>
<pdfrwt beam="1">  1        2 0.25718089E+00 0.38033455E+04</pdfrwt>
<pdfrwt beam="2">  1       -2 0.33281751E+00 0.38033455E+04</pdfrwt>
<totfact> 0.16249241E-01</totfact>
</mgrwt>
</event>
<event>
11    1  0.4773446E-016  0.2623720E+04  0.7818608E-02  0.8360188E-01
          2   -1    0    0  501    0  0.00000000000E+00  0.00000000000E+00  0.91617955565E+03  0.91617955565E+03  0.00000000000E+00 0. -1.
         -2   -1    0    0    0  501 -0.00000000000E+00 -0.00000000000E+00 -0.18784274030E+04  0.18784274030E+04  0.00000000000E+00 0.  1.
    9900016    2    1    2    0    0 -0.19464908755E+03 -0.15957410147E+03 -0.79893284074E+03  0.23592724479E+04  0.22055658317E+04 0.  0.
         24    2    3    3    0    0  0.34646298798E+03 -0.10136024547E+03 -0.14582239158E+04  0.15043713700E+04  0.80035797958E+02 0.  0.
        -15    1    4    4    0    0  0.10252989849E+02 -0.93675203412E+01 -0.36088824414E+02  0.38668818003E+02  0.00000000000E+00 0.  1.
        -15    1    4    4    0    0  0.27997981963E+02 -0.24423363290E+02 -0.17667335821E+03  0.18053770567E+03  0.00000000000E+00 0.  1.
         15    1    3    3    0    0 -0.54111207553E+03 -0.58213856001E+02  0.65929107504E+03  0.85490107787E+03  0.00000000000E+00 0. -1.
         15    1    4    4    0    0  0.17264197782E+03 -0.47710865436E+02 -0.75171033297E+03  0.77275481485E+03  0.00000000000E+00 0. -1.
        -16    1    1    2    0    0  0.20536719479E+03  0.61136221544E+02 -0.20282556374E+03  0.29504496537E+03  0.00000000000E+00 0.  1.
         16    1    4    4    0    0  0.13557003834E+03 -0.19858496403E+02 -0.49375140019E+03  0.51241003149E+03  0.00000000000E+00 0. -1.
    9900018    1    1    2    0    0 -0.10718107238E+02  0.98437879927E+02  0.39510557140E+02  0.14028954539E+03  0.91187600000E+02 0.  0.
<mgrwt>
<rscale>  0 0.26237201E+04</rscale>
<asrwt>0</asrwt>
<pdfrwt beam="1">  1        2 0.14095070E+00 0.26237201E+04</pdfrwt>
<pdfrwt beam="2">  1       -2 0.28898883E+00 0.26237201E+04</pdfrwt>
<totfact> 0.93691283E-01</totfact>
</mgrwt>
</event>
<event>
11    1  0.4773446E-016  0.4967533E+04  0.7818608E-02  0.7833535E-01
          3   -1    0    0  501    0  0.00000000000E+00  0.00000000000E+00  0.30876148017E+04  0.30876148017E+04  0.00000000000E+00 0. -1.
         -3   -1    0    0    0  501 -0.00000000000E+00 -0.00000000000E+00 -0.19980135812E+04  0.19980135812E+04  0.00000000000E+00 0.  1.
    9900016    2    1    2    0    0  0.76564034623E+03 -0.11049163992E+04 -0.50112569030E+03  0.26277012375E+04  0.22015089024E+04 0.  0.
        -24    2    3    3    0    0 -0.29103859796E+03  0.13608501956E+03 -0.89204153196E+03  0.95155383714E+03  0.80585434074E+02 0.  0.
        -15    1    3    3    0    0  0.10566789442E+04 -0.12410014188E+04  0.39091584166E+03  0.16761474004E+04  0.00000000000E+00 0.  1.
        -15    1    4    4    0    0 -0.23148810018E+02  0.21386543692E+02 -0.13115091441E+03  0.13488444687E+03  0.00000000000E+00 0.  1.
         15    1    4    4    0    0 -0.11139391331E+02 -0.21473796230E+01 -0.18062074783E+02  0.21329224645E+02  0.00000000000E+00 0. -1.
         15    1    4    4    0    0 -0.96821540928E+02  0.41013534435E+02 -0.32440960003E+03  0.34102508616E+03  0.00000000000E+00 0. -1.
        -16    1    4    4    0    0 -0.15992885568E+03  0.75832321057E+02 -0.41841894273E+03  0.45431507947E+03  0.00000000000E+00 0.  1.
         16    1    1    2    0    0 -0.53481790080E+03  0.13718515035E+04  0.14520317012E+04  0.20679465167E+04  0.00000000000E+00 0. -1.
    9900018    1    1    2    0    0 -0.23082244543E+03 -0.26693510425E+03  0.13869520961E+03  0.38998062869E+03  0.91187600000E+02 0.  0.
<mgrwt>
<rscale>  0 0.49675331E+04</rscale>
<asrwt>0</asrwt>
<pdfrwt beam="1">  1        3 0.47501766E+00 0.49675331E+04</pdfrwt>
<pdfrwt beam="2">  1       -3 0.30738670E+00 0.49675331E+04</pdfrwt>
<totfact> 0.29499332E-04</totfact>
</mgrwt>
</event>
<event>
11    1  0.4773446E-016  0.3456365E+04  0.7818608E-02  0.8124209E-01
          2   -1    0    0  501    0  0.00000000000E+00  0.00000000000E+00  0.25232859997E+04  0.25232859997E+04  0.00000000000E+00 0. -1.
         -2   -1    0    0    0  501 -0.00000000000E+00 -0.00000000000E+00 -0.11836210971E+04  0.11836210971E+04  0.00000000000E+00 0.  1.
    9900016    2    1    2    0    0 -0.35549960921E+03  0.16023393963E+03  0.14114141885E+03  0.22558438861E+04  0.22173984420E+04 0.  0.
         24    2    3    3    0    0 -0.13417051660E+02 -0.37777772760E+03  0.10652568805E+04  0.11331389308E+04  0.79596396140E+02 0.  0.
        -15    1    4    4    0    0  0.37015513294E+00 -0.15827972877E+02  0.20234063374E+02  0.25692003831E+02  0.00000000000E+00 0.  1.
        -15    1    4    4    0    0 -0.56278454880E+01 -0.20669153088E+03  0.54778279495E+03  0.58550751662E+03  0.00000000000E+00 0.  1.
         15    1    4    4    0    0 -0.99327778150E+01 -0.20664257853E+02  0.52807185855E+02  0.57569701282E+02  0.00000000000E+00 0. -1.
         15    1    3    3    0    0 -0.34208255755E+03  0.53801166723E+03 -0.92411546162E+03  0.11227049553E+04  0.00000000000E+00 0. -1.
        -16    1    1    2    0    0  0.53277904503E+03 -0.24782189518E+03  0.97941066236E+03  0.11421534258E+04  0.00000000000E+00 0.  1.
         16    1    4    4    0    0  0.17734165105E+01 -0.13459396599E+03  0.44443283629E+03  0.46436970903E+03  0.00000000000E+00 0. -1.
    9900018    1    1    2    0    0 -0.17727943582E+03  0.87587955552E+02  0.21911282143E+03  0.30890978494E+03  0.91187600000E+02 0.  0.
<mgrwt>
<rscale>  0 0.34563649E+04</rscale>
<asrwt>0</asrwt>
<pdfrwt beam="1">  1        2 0.38819785E+00 0.34563649E+04</pdfrwt>
<pdfrwt beam="2">  1       -2 0.18209555E+00 0.34563649E+04</pdfrwt>
<totfact> 0.48798979E-01</totfact>
</mgrwt>
</event>
<event>
11    1  0.4773446E-016  0.3012365E+04  0.7818608E-02  0.8240209E-01
         -1   -1    0    0    0  501 -0.00000000000E+00  0.00000000000E+00  0.14882306395E+04  0.14882306395E+04  0.00000000000E+00 0.  1.
          1   -1    0    0  501    0  0.00000000000E+00 -0.00000000000E+00 -0.15243511163E+04  0.15243511163E+04  0.00000000000E+00 0. -1.
    9900016    2    1    2    0    0 -0.12176686241E+03  0.70815425341E+02  0.20010584895E+03  0.22157645982E+04  0.22022098925E+04 0.  0.
        -24    2    3    3    0    0 -0.63694935798E+02 -0.17468307904E+03 -0.98432455111E+03  0.10047661519E+04  0.78031885242E+02 0.  0.
        -15    1    3    3    0    0 -0.58071926613E+02  0.24549850438E+03  0.11844304001E+04  0.12109984463E+04  0.00000000000E+00 0.  1.
        -15    1    4    4    0    0 -0.29447468623E+02 -0.17740521522E+02 -0.20447197433E+03  0.20734191038E+03  0.00000000000E+00 0. -1.
         15    1    4    4    0    0 -0.18366128599E+02 -0.28320971839E+02 -0.12359464783E+03  0.12812115008E+03  0.00000000000E+00 0. -1.
         15    1    4    4    0    0  0.17344723733E+01 -0.15574311208E+02 -0.52034035579E+02  0.54342510272E+02  0.00000000000E+00 0.  1.
        -16    1    4    4    0    0 -0.17615810950E+02 -0.11304727447E+03 -0.60422389337E+03  0.61496058116E+03  0.00000000000E+00 0.  1.
         16    1    1    2    0    0  0.11674177437E+03  0.14469171708E+03 -0.44556751047E+03  0.48279886211E+03  0.00000000000E+00 0. -1.
    9900018    1    1    2    0    0  0.50250880375E+01 -0.21550714242E+03  0.20934118462E+03  0.31401829551E+03  0.91187600000E+02 0.  0.
<mgrwt>
<rscale>  0 0.30123652E+04</rscale>
<asrwt>0</asrwt>
<pdfrwt beam="1">  1        1 0.23451556E+00 0.30123652E+04</pdfrwt>
<pdfrwt beam="2">  1       -1 0.22895856E+00 0.30123652E+04</pdfrwt>
<totfact> 0.51307427E-01</totfact>
</mgrwt>
</event>
<event>
11    1  0.4773446E-016  0.3201486E+04  0.7818608E-02  0.8188425E-01
          2   -1    0    0  501    0  0.00000000000E+00  0.00000000000E+00  0.14791030665E+04  0.14791030665E+04  0.00000000000E+00 0. -1.
         -2   -1    0    0    0  501 -0.00000000000E+00 -0.00000000000E+00 -0.17323862628E+04  0.17323862628E+04  0.00000000000E+00 0.  1.
    9900016    2    1    2    0    0 -0.31414429823E+03  0.54334298848E+03 -0.51641358303E+03  0.23413908915E+04  0.21957960002E+04 0.  0.
        -24    2    3    3    0    0 -0.44806403305E+03  0.78773643246E+02  0.80838241133E+03  0.93112722869E+03  0.80926685751E+02 0.  0.
        -15    1    4    4    0    0 -0.83897164758E+02  0.71067872507E+01  0.18523140635E+03  0.20346968958E+03  0.00000000000E+00 0. -1.
        -15    1    3    3    0    0  0.13391973482E+03  0.46456934523E+03 -0.13247959944E+04  0.14102636628E+04  0.00000000000E+00 0.  1.
         15    1    4    4    0    0 -0.61910878424E+02  0.23367321919E+02  0.10436283944E+03  0.12357423217E+03  0.00000000000E+00 0. -1.
         15    1    4    4    0    0 -0.14398174901E+02  0.31641480565E+01  0.10147175645E+02  0.17896492588E+02  0.00000000000E+00 0.  1.
        -16    1    4    4    0    0 -0.28785781496E+03  0.45135386020E+02  0.50864098989E+03  0.58618681434E+03  0.00000000000E+00 0.  1.
         16    1    1    2    0    0  0.37779435271E+03 -0.35104353017E+03  0.35878415407E+03  0.62824056079E+03  0.00000000000E+00 0. -1.
    9900018    1    1    2    0    0 -0.63650054477E+02 -0.19229945831E+03 -0.95653767343E+02  0.24185787707E+03  0.91187600000E+02 0.  0.
<mgrwt>
<rscale>  0 0.32014858E+04</rscale>
<asrwt>0</asrwt>
<pdfrwt beam="1">  1        2 0.22755432E+00 0.32014858E+04</pdfrwt>
<pdfrwt beam="2">  1       -2 0.26652096E+00 0.32014858E+04</pdfrwt>
<totfact> 0.55900119E-01</totfact>
</mgrwt>
</event>
<event>
11    1  0.5796225E-016  0.4018462E+04  0.7818608E-02  0.8000832E-01
          1   -1    0    0  501    0  0.00000000000E+00  0.00000000000E+00  0.30912989080E+04  0.30912989080E+04  0.00000000000E+00 0. -1.
         -1   -1    0    0    0  501 -0.00000000000E+00 -0.00000000000E+00 -0.13059267225E+04  0.13059267225E+04  0.00000000000E+00 0.  1.
    9900016    2    1    2    0    0  0.34047200293E+03  0.54939589344E+03  0.13759216935E+04  0.26725268409E+04  0.21980632785E+04 0.  0.
         24    2    3    3    0    0  0.96784664642E+02 -0.11063944580E+03 -0.57463392965E+03  0.59895566852E+03  0.83278937700E+02 0.  0.
        -15    1    4    4    0    0  0.22195391401E+02 -0.20634977090E+02 -0.16790994323E+03  0.17062293725E+03  0.00000000000E+00 0.  1.
        -15    1    4    4    0    0 -0.50086622584E+01 -0.10487703510E+02 -0.46987848224E+02  0.48403889340E+02  0.00000000000E+00 0. -1.
         15    1    3    3    0    0  0.24368733828E+03  0.66003533923E+03  0.19505556232E+04  0.20735711724E+04  0.00000000000E+00 0. -1.
         15    1    4    4    0    0  0.22905079018E+02 -0.48977838711E+02 -0.21165594447E+03  0.21845299302E+03  0.00000000000E+00 0.  1.
        -16    1    1    2    0    0 -0.68332100602E+03 -0.38922942033E+03 -0.35809494713E+03  0.86409439882E+03  0.00000000000E+00 0.  1.
         16    1    4    4    0    0  0.56692856482E+02 -0.30538926485E+02 -0.14808019373E+03  0.16147584891E+03  0.00000000000E+00 0. -1.
    9900018    1    1    2    0    0  0.34284900310E+03 -0.16016647311E+03  0.76754543904E+03  0.86060439077E+03  0.91187600000E+02 0.  0.
<mgrwt>
<rscale>  0 0.40184623E+04</rscale>
<asrwt>0</asrwt>
<pdfrwt beam="1">  1        1 0.47558444E+00 0.40184623E+04</pdfrwt>
<pdfrwt beam="2">  1       -1 0.20091181E+00 0.40184623E+04</pdfrwt>
<totfact> 0.59335687E-02</totfact>
</mgrwt>
</event>
<event>
11    1  0.4773446E-016  0.4286957E+04  0.7818608E-02  0.7949034E-01
         -2   -1    0    0    0  501 -0.00000000000E+00  0.00000000000E+00  0.22542480230E+04  0.22542480230E+04  0.00000000000E+00 0. -1.
          2   -1    0    0  501    0  0.00000000000E+00 -0.00000000000E+00 -0.20381515244E+04  0.20381515244E+04  0.00000000000E+00 0.  1.
    9900016    2    1    2    0    0 -0.19790409815E+03  0.14496830571E+03  0.12867442872E+04  0.25619507226E+04  0.22017490326E+04 0.  0.
         24    2    3    3    0    0  0.14183083383E+03 -0.33176885957E+03 -0.53374523792E+03  0.64965360657E+03  0.83542012959E+02 0.  0.
        -15    1    4    4    0    0  0.12318752747E+02 -0.18615461317E+02 -0.24356229767E+02  0.33038053783E+02  0.00000000000E+00 0.  1.
        -15    1    4    4    0    0 -0.14350390037E+01 -0.49669581489E+02 -0.74159848948E+02  0.89268190629E+02  0.00000000000E+00 0.  1.
         15    1    3    3    0    0 -0.33973493198E+03  0.47673716528E+03  0.18204895251E+04  0.19122971160E+04  0.00000000000E+00 0. -1.
         15    1    4    4    0    0  0.56503823640E+02 -0.96148333323E+02 -0.20269155046E+03  0.23134616641E+03  0.00000000000E+00 0. -1.
        -16    1    1    2    0    0  0.49165073238E+03  0.88666400178E+02 -0.12184471072E+04  0.13168885778E+04  0.00000000000E+00 0.  1.
         16    1    4    4    0    0  0.74443296451E+02 -0.16733548344E+03 -0.23253760875E+03  0.29600119575E+03  0.00000000000E+00 0. -1.
    9900018    1    1    2    0    0 -0.29374663423E+03 -0.23363470589E+03  0.14779931869E+03  0.41356024703E+03  0.91187600000E+02 0.  0.
<mgrwt>
<rscale>  0 0.42869565E+04</rscale>
<asrwt>0</asrwt>
<pdfrwt beam="1">  1        2 0.31356177E+00 0.42869565E+04</pdfrwt>
<pdfrwt beam="2">  1       -2 0.34680739E+00 0.42869565E+04</pdfrwt>
<totfact> 0.79909644E-02</totfact>
</mgrwt>
</event>
<event>
11    1  0.4773446E-016  0.3041394E+04  0.7818608E-02  0.8232008E-01
         -1   -1    0    0    0  501 -0.00000000000E+00  0.00000000000E+00  0.18035315270E+04  0.18035315270E+04  0.00000000000E+00 0. -1.
          1   -1    0    0  501    0  0.00000000000E+00 -0.00000000000E+00 -0.12822171727E+04  0.12822171727E+04  0.00000000000E+00 0.  1.
    9900016    2    1    2    0    0 -0.41047819679E+03  0.73833521195E+02  0.57177202749E+03  0.23138482949E+04  0.22029586790E+04 0.  0.
         24    2    3    3    0    0 -0.29147811822E+03 -0.29971444869E+03 -0.78965635072E+03  0.89709625819E+03  0.80226554739E+02 0.  0.
        -15    1    4    4    0    0 -0.91694329041E+01 -0.15508680850E+02 -0.73809893004E+02  0.75976956946E+02  0.00000000000E+00 0.  1.
        -15    1    4    4    0    0 -0.33620850459E+02 -0.34460616178E+02 -0.67789325190E+02  0.83146186098E+02  0.00000000000E+00 0.  1.
         15    1    3    3    0    0 -0.11900007857E+03  0.37354796989E+03  0.13614283782E+04  0.14167520367E+04  0.00000000000E+00 0. -1.
         15    1    4    4    0    0 -0.12476568074E+02 -0.16061206028E+02 -0.46436024555E+02  0.50694491481E+02  0.00000000000E+00 0. -1.
        -16    1    1    2    0    0  0.22277498884E+03 -0.79646007386E+01 -0.34147062690E+03  0.40779200526E+03  0.00000000000E+00 0.  1.
         16    1    4    4    0    0 -0.23621126678E+03 -0.23368394564E+03 -0.60162110797E+03  0.68727862367E+03  0.00000000000E+00 0. -1.
    9900018    1    1    2    0    0  0.18770320794E+03 -0.65868920456E+02  0.29101295370E+03  0.36410839948E+03  0.91187600000E+02 0.  0.
<mgrwt>
<rscale>  0 0.30413938E+04</rscale>
<asrwt>0</asrwt>
<pdfrwt beam="1">  1        1 0.19726418E+00 0.30413938E+04</pdfrwt>
<pdfrwt beam="2">  1       -1 0.27746639E+00 0.30413938E+04</pdfrwt>
<totfact> 0.36510235E-01</totfact>
</mgrwt>
</event>
<event>
11    1  0.4773446E-016  0.3595874E+04  0.7818608E-02  0.8091437E-01
          2   -1    0    0  501    0  0.00000000000E+00  0.00000000000E+00  0.36520502790E+04  0.36520502790E+04  0.00000000000E+00 0. -1.
         -2   -1    0    0    0  501 -0.00000000000E+00 -0.00000000000E+00 -0.88514058438E+03  0.88514058438E+03  0.00000000000E+00 0.  1.
    9900016    2    1    2    0    0 -0.62183811865E+03 -0.22194162790E+03  0.14247673115E+04  0.27262842729E+04  0.22286146622E+04 0.  0.
         24    2    3    3    0    0  0.32646927863E+03  0.34910752488E+03 -0.37530646559E+03  0.61307589284E+03  0.80924986599E+02 0.  0.
        -15    1    4    4    0    0  0.11459874802E+02  0.13034298468E+02 -0.31823450968E+02  0.36248499260E+02  0.00000000000E+00 0.  1.
        -15    1    4    4    0    0  0.19219213240E+02  0.15705378004E+02 -0.91621767507E+01  0.26457183120E+02  0.00000000000E+00 0. -1.
         15    1    3    3    0    0 -0.94830739727E+03 -0.57104915278E+03  0.18000737771E+04  0.21132083800E+04  0.00000000000E+00 0. -1.
         15    1    4    4    0    0  0.40746203579E+02  0.61604059235E+02 -0.55446191658E+02  0.92355797813E+02  0.00000000000E+00 0.  1.
        -16    1    1    2    0    0  0.56746745744E+03  0.17401565976E+03  0.14883207129E+03  0.61192462816E+03  0.00000000000E+00 0.  1.
         16    1    4    4    0    0  0.25504398700E+03  0.25876378918E+03 -0.27887464621E+03  0.45801441265E+03  0.00000000000E+00 0. -1.
    9900018    1    1    2    0    0  0.54370661201E+02  0.47925968140E+02  0.11933103119E+04  0.11989819624E+04  0.91187600000E+02 0.  0.
<mgrwt>
<rscale>  0 0.35958743E+04</rscale>
<asrwt>0</asrwt>
<pdfrwt beam="1">  1        2 0.56185388E+00 0.35958743E+04</pdfrwt>
<pdfrwt beam="2">  1       -2 0.13617548E+00 0.35958743E+04</pdfrwt>
<totfact> 0.19873121E-01</totfact>
</mgrwt>
</event>
<event>
11    1  0.4773446E-016  0.4753690E+04  0.7818608E-02  0.7867668E-01
          1   -1    0    0  501    0  0.00000000000E+00  0.00000000000E+00  0.35447555162E+04  0.35447555162E+04  0.00000000000E+00 0. -1.
         -1   -1    0    0    0  501 -0.00000000000E+00 -0.00000000000E+00 -0.15937325413E+04  0.15937325413E+04  0.00000000000E+00 0.  1.
    9900016    2    1    2    0    0 -0.34734019321E+03  0.12216181448E+04  0.11773546171E+04  0.27816539989E+04  0.21767955747E+04 0.  0.
         24    2    3    3    0    0 -0.21536403727E+03  0.11181062668E+03 -0.61682979001E+03  0.66784508618E+03  0.81576862561E+02 0.  0.
        -15    1    4    4    0    0 -0.38107633051E+02  0.25405408251E+01 -0.81550567379E+02  0.90050769482E+02  0.00000000000E+00 0.  1.
        -15    1    4    4    0    0 -0.26850449679E+02  0.17320410709E+02 -0.43816740900E+02  0.54229604998E+02  0.00000000000E+00 0.  1.
         15    1    3    3    0    0 -0.13197615595E+03  0.11098075181E+04  0.17941844071E+04  0.21138089128E+04  0.00000000000E+00 0. -1.
         15    1    4    4    0    0 -0.13762850402E+02 -0.29708174143E+01 -0.41958258765E+02  0.44257624043E+02  0.00000000000E+00 0. -1.
        -16    1    1    2    0    0  0.50377634491E+03 -0.12708061534E+04 -0.18544484696E+03  0.13795392986E+04  0.00000000000E+00 0.  1.
         16    1    4    4    0    0 -0.13664310414E+03  0.94920492564E+02 -0.44950422297E+03  0.47930708766E+03  0.00000000000E+00 0. -1.
    9900018    1    1    2    0    0 -0.15643615170E+03  0.49188008622E+02  0.95911320481E+03  0.97729475993E+03  0.91187600000E+02 0.  0.
<mgrwt>
<rscale>  0 0.47536900E+04</rscale>
<asrwt>0</asrwt>
<pdfrwt beam="1">  1        1 0.54534700E+00 0.47536900E+04</pdfrwt>
<pdfrwt beam="2">  1       -1 0.24518962E+00 0.47536900E+04</pdfrwt>
<totfact> 0.12691297E-02</totfact>
</mgrwt>
</event>
<event>
11    1  0.4773446E-016  0.4533287E+04  0.7818608E-02  0.7904835E-01
         -1   -1    0    0    0  501 -0.00000000000E+00  0.00000000000E+00  0.21356808609E+04  0.21356808609E+04  0.00000000000E+00 0.  1.
          1   -1    0    0  501    0  0.00000000000E+00 -0.00000000000E+00 -0.24056371551E+04  0.24056371551E+04  0.00000000000E+00 0. -1.
    9900016    2    1    2    0    0  0.75888591809E+03  0.87344865341E+03  0.42032333941E+03  0.25580239926E+04  0.22423190340E+04 0.  0.
        -24    2    3    3    0    0  0.20400521586E+03 -0.82299699184E+02  0.11889736669E+04  0.12118550459E+04  0.80888214122E+02 0.  0.
        -15    1    4    4    0    0  0.37823192355E+02 -0.24024580760E+02  0.17888373874E+03  0.18441032060E+03  0.00000000000E+00 0.  1.
        -15    1    3    3    0    0  0.55488070223E+03  0.95574835260E+03 -0.76865032745E+03  0.13461689467E+04  0.00000000000E+00 0.  1.
         15    1    4    4    0    0  0.10952160230E+03 -0.34191339735E+02  0.67465305220E+03  0.68433965976E+03  0.00000000000E+00 0. -1.
         15    1    4    4    0    0  0.27192300276E+02  0.50429667589E+01  0.88636161452E+02  0.92850534867E+02  0.00000000000E+00 0. -1.
        -16    1    4    4    0    0  0.29468120931E+02 -0.29126745447E+02  0.24680071449E+03  0.25025453067E+03  0.00000000000E+00 0.  1.
         16    1    1    2    0    0 -0.10601472385E+04 -0.52876725774E+03 -0.88374977552E+03  0.14780123970E+04  0.00000000000E+00 0. -1.
    9900018    1    1    2    0    0  0.30126132038E+03 -0.34468139567E+03  0.19347014199E+03  0.50528162634E+03  0.91187600000E+02 0.  0.
<mgrwt>
<rscale>  0 0.45332872E+04</rscale>
<asrwt>0</asrwt>
<pdfrwt beam="1">  1        1 0.37009802E+00 0.45332872E+04</pdfrwt>
<pdfrwt beam="2">  1       -1 0.32856629E+00 0.45332872E+04</pdfrwt>
<totfact> 0.25384299E-02</totfact>
</mgrwt>
</event>
<event>
12    1  0.4773446E-016  0.3476913E+04  0.7818608E-02  0.8119283E-01
          2   -1    0    0  501    0  0.00000000000E+00  0.00000000000E+00  0.24983317269E+04  0.24983317269E+04  0.00000000000E+00 0. -1.
         -2   -1    0    0    0  501 -0.00000000000E+00 -0.00000000000E+00 -0.12096995322E+04  0.12096995322E+04  0.00000000000E+00 0.  1.
    9900016    2    1    2    0    0 -0.37764935914E+03  0.41048225179E+03  0.12259296573E+04  0.25861579839E+04  0.22077578842E+04 0.  0.
        -24    2    3    3    0    0 -0.28008733543E+03  0.29101786011E+03  0.18746537073E+04  0.19193499288E+04  0.80232888296E+02 0.  0.
        -24    2    4    4    0    0 -0.17443376616E+03  0.18672199054E+03  0.11702173348E+04  0.11989941887E+04  0.53723489656E+02 0.  0.
        -15    1    3    3    0    0 -0.97562023705E+02  0.11946439169E+03 -0.64872404996E+03  0.66680805510E+03  0.00000000000E+00 0.  1.
        -15    1    4    4    0    0 -0.77166256931E+01  0.17474076846E+02  0.69962532791E+02  0.72523414621E+02  0.00000000000E+00 0.  1.
         15    1    5    5    0    0 -0.15619063828E+02  0.24521110684E+00  0.53740312214E+02  0.55964599884E+02  0.00000000000E+00 0. -1.
         15    1    4    4    0    0 -0.97936943582E+02  0.86821792719E+02  0.63447383969E+03  0.64783232542E+03  0.00000000000E+00 0. -1.
        -16    1    5    5    0    0 -0.15881470233E+03  0.18647677943E+03  0.11164770226E+04  0.11430295888E+04  0.00000000000E+00 0.  1.
         16    1    1    2    0    0  0.26796851863E+03 -0.88185862738E+02  0.49156755306E+03  0.56676497121E+03  0.00000000000E+00 0. -1.
    9900018    1    1    2    0    0  0.10968084051E+03 -0.32229638906E+03 -0.42886501564E+03  0.55510830403E+03  0.91187600000E+02 0.  0.
<mgrwt>
<rscale>  0 0.34769128E+04</rscale>
<asrwt>0</asrwt>
<pdfrwt beam="1">  1        2 0.38435873E+00 0.34769128E+04</pdfrwt>
<pdfrwt beam="2">  1       -2 0.18610762E+00 0.34769128E+04</pdfrwt>
<totfact> 0.47292070E-01</totfact>
</mgrwt>
</event>
<event>
11    1  0.4773446E-016  0.4087708E+04  0.7818608E-02  0.7987083E-01
         -1   -1    0    0    0  501 -0.00000000000E+00  0.00000000000E+00  0.29904001783E+04  0.29904001783E+04  0.00000000000E+00 0.  1.
          1   -1    0    0  501    0  0.00000000000E+00 -0.00000000000E+00 -0.13969162617E+04  0.13969162617E+04  0.00000000000E+00 0. -1.
    9900016    2    1    2    0    0  0.83873772554E+03  0.39855129495E+03  0.10633101875E+04  0.25995754859E+04  0.21828513566E+04 0.  0.
        -24    2    3    3    0    0  0.14328117201E+03  0.14902533718E+03 -0.67496959379E+03  0.71078232104E+03  0.83003072163E+02 0.  0.
        -15    1    3    3    0    0  0.69545655353E+03  0.24952595776E+03  0.17382797813E+04  0.18887931649E+04  0.00000000000E+00 0.  1.
        -15    1    4    4    0    0  0.11269480284E+03  0.79939022735E+02 -0.47855919614E+03  0.49810568172E+03  0.00000000000E+00 0. -1.
         15    1    4    4    0    0  0.17588961619E+02  0.17517157100E+02 -0.56283244160E+02  0.61514436816E+02  0.00000000000E+00 0.  1.
         15    1    4    4    0    0  0.49919585446E+01  0.95266322827E+01 -0.12190314649E+02  0.16256695359E+02  0.00000000000E+00 0. -1.
        -16    1    4    4    0    0  0.80054490030E+01  0.42042525066E+02 -0.12793683884E+03  0.13490550715E+03  0.00000000000E+00 0.  1.
         16    1    1    2    0    0 -0.11095083421E+04 -0.17804134606E+03 -0.26840514256E+02  0.11240230848E+04  0.00000000000E+00 0. -1.
    9900018    1    1    2    0    0  0.27077061654E+03 -0.22050994889E+03  0.55701424325E+03  0.66371786922E+03  0.91187600000E+02 0.  0.
<mgrwt>
<rscale>  0 0.40877077E+04</rscale>
<asrwt>0</asrwt>
<pdfrwt beam="1">  1        1 0.21491020E+00 0.40877077E+04</pdfrwt>
<pdfrwt beam="2">  1       -1 0.46006156E+00 0.40877077E+04</pdfrwt>
<totfact> 0.16559636E-02</totfact>
</mgrwt>
</event>
<event>
11    1  0.4773446E-016  0.3768877E+04  0.7818608E-02  0.8052867E-01
         -2   -1    0    0    0  501 -0.00000000000E+00  0.00000000000E+00  0.12738533116E+04  0.12738533116E+04  0.00000000000E+00 0.  1.
          2   -1    0    0  501    0  0.00000000000E+00 -0.00000000000E+00 -0.27876897695E+04  0.27876897695E+04  0.00000000000E+00 0. -1.
    9900016    2    1    2    0    0  0.21693491968E+03  0.84272352968E+03 -0.15638116048E+04  0.28371154388E+04  0.22014707745E+04 0.  0.
         24    2    3    3    0    0  0.15122307558E+03  0.35520139289E+02  0.54811351222E+03  0.57523059211E+03  0.79572061322E+02 0.  0.
        -15    1    4    4    0    0  0.13902053082E+02 -0.20808715361E+01  0.75175382056E+02  0.76478331398E+02  0.00000000000E+00 0. -1.
        -15    1    4    4    0    0  0.45795665265E+02  0.91437177838E+01  0.87329705099E+02  0.99031954059E+02  0.00000000000E+00 0.  1.
         15    1    3    3    0    0  0.65711844091E+02  0.80720339039E+03 -0.21119251170E+04  0.22618848467E+04  0.00000000000E+00 0. -1.
         15    1    4    4    0    0  0.75808683294E+02  0.34141086837E+02  0.25910272314E+03  0.27211540091E+03  0.00000000000E+00 0.  1.
        -16    1    1    2    0    0  0.10956457426E+03 -0.71101343844E+03  0.30380666109E+03  0.78092444763E+03  0.00000000000E+00 0.  1.
         16    1    4    4    0    0  0.15716673942E+02 -0.56837937960E+01  0.12650570193E+03  0.12760490575E+03  0.00000000000E+00 0. -1.
    9900018    1    1    2    0    0 -0.32649949394E+03 -0.13171009124E+03 -0.25383151421E+03  0.44350319466E+03  0.91187600000E+02 0.  0.
<mgrwt>
<rscale>  0 0.37688767E+04</rscale>
<asrwt>0</asrwt>
<pdfrwt beam="1">  1        2 0.42887534E+00 0.37688767E+04</pdfrwt>
<pdfrwt beam="2">  1       -2 0.19597744E+00 0.37688767E+04</pdfrwt>
<totfact> 0.26727872E-01</totfact>
</mgrwt>
</event>
<event>
11    1  0.4773446E-016  0.5152281E+04  0.7818608E-02  0.7805436E-01
          1   -1    0    0  501    0  0.00000000000E+00  0.00000000000E+00  0.32951995412E+04  0.32951995412E+04  0.00000000000E+00 0. -1.
         -1   -1    0    0    0  501 -0.00000000000E+00 -0.00000000000E+00 -0.20139903256E+04  0.20139903256E+04  0.00000000000E+00 0.  1.
    9900016    2    1    2    0    0 -0.21770190573E+03  0.95880962236E+03  0.23958158216E+03  0.24234019963E+04  0.22019918005E+04 0.  0.
        -24    2    3    3    0    0 -0.67302862076E+03  0.78655794850E+03 -0.77652310898E+03  0.12966980423E+04  0.82442364416E+02 0.  0.
        -15    1    4    4    0    0 -0.94645924785E+01  0.10980080337E+02 -0.34502388353E+01  0.14901168512E+02  0.00000000000E+00 0.  1.
        -15    1    3    3    0    0  0.45532671503E+03  0.17225167386E+03  0.10161046911E+04  0.11267039540E+04  0.00000000000E+00 0.  1.
         15    1    4    4    0    0 -0.36041390585E+01  0.10470140747E+02 -0.10537826215E+02  0.15285923163E+02  0.00000000000E+00 0. -1.
         15    1    4    4    0    0 -0.79591972539E+02  0.73994507783E+02 -0.86970764955E+02  0.13919045668E+03  0.00000000000E+00 0. -1.
        -16    1    4    4    0    0 -0.58036791668E+03  0.69111321964E+03 -0.67556427898E+03  0.11273204940E+04  0.00000000000E+00 0.  1.
         16    1    1    2    0    0  0.27767173532E+02 -0.18058827138E+04  0.57153447692E+03  0.18943693015E+04  0.00000000000E+00 0. -1.
    9900018    1    1    2    0    0  0.18993473219E+03  0.84707309145E+03  0.47009315650E+03  0.99141856899E+03  0.91187600000E+02 0.  0.
<mgrwt>
<rscale>  0 0.51522810E+04</rscale>
<asrwt>0</asrwt>
<pdfrwt beam="1">  1        1 0.50695378E+00 0.51522810E+04</pdfrwt>
<pdfrwt beam="2">  1       -1 0.30984466E+00 0.51522810E+04</pdfrwt>
<totfact> 0.73185915E-03</totfact>
</mgrwt>
</event>
<event>
11    1  0.4773446E-016  0.4117245E+04  0.7818608E-02  0.7981303E-01
          1   -1    0    0  501    0  0.00000000000E+00  0.00000000000E+00  0.42171546711E+04  0.42171546711E+04  0.00000000000E+00 0. -1.
         -1   -1    0    0    0  501 -0.00000000000E+00 -0.00000000000E+00 -0.10049256437E+04  0.10049256437E+04  0.00000000000E+00 0.  1.
    9900016    2    1    2    0    0 -0.37120975805E+03  0.64152468484E+03  0.11822373633E+04  0.25796611992E+04  0.21697041535E+04 0.  0.
         24    2    3    3    0    0 -0.39392322035E+03  0.28706026111E+03 -0.59120365120E+03  0.77100037941E+03  0.85678064952E+02 0.  0.
        -15    1    4    4    0    0 -0.11523738396E+03  0.79819683520E+02 -0.22393452295E+03  0.26419217836E+03  0.00000000000E+00 0.  1.
        -15    1    4    4    0    0 -0.23902397618E+02  0.99263953830E+01 -0.23871203303E+02  0.35209264183E+02  0.00000000000E+00 0.  1.
         15    1    4    4    0    0 -0.19786874461E+02  0.24725384530E+02 -0.34480341020E+02  0.46816225370E+02  0.00000000000E+00 0. -1.
         15    1    3    3    0    0  0.22713462295E+02  0.35446442372E+03  0.17734410145E+04  0.18086608198E+04  0.00000000000E+00 0. -1.
        -16    1    1    2    0    0  0.32077516478E+03 -0.92363914196E+03  0.52918200052E+03  0.11117731606E+04  0.00000000000E+00 0.  1.
         16    1    4    4    0    0 -0.23499656431E+03  0.17258879768E+03 -0.30891758393E+03  0.42478271149E+03  0.00000000000E+00 0. -1.
    9900018    1    1    2    0    0  0.50434593274E+02  0.28211445712E+03  0.15008096635E+04  0.15306459550E+04  0.91187600000E+02 0.  0.
<mgrwt>
<rscale>  0 0.41172451E+04</rscale>
<asrwt>0</asrwt>
<pdfrwt beam="1">  1        1 0.64879302E+00 0.41172451E+04</pdfrwt>
<pdfrwt beam="2">  1       -1 0.15460395E+00 0.41172451E+04</pdfrwt>
<totfact> 0.15118962E-02</totfact>
</mgrwt>
</event>
<event>
11    1  0.4773446E-016  0.3414718E+04  0.7818608E-02  0.8134303E-01
         -1   -1    0    0    0  501 -0.00000000000E+00  0.00000000000E+00  0.88247448404E+03  0.88247448404E+03  0.00000000000E+00 0.  1.
          1   -1    0    0  501    0  0.00000000000E+00 -0.00000000000E+00 -0.33032969192E+04  0.33032969192E+04  0.00000000000E+00 0. -1.
    9900016    2    1    2    0    0 -0.42355994973E+03 -0.32345937207E+03 -0.13581661671E+04  0.26442423937E+04  0.22053057617E+04 0.  0.
         24    2    3    3    0    0  0.17660697984E+03 -0.14000033590E+03  0.56920617485E+03  0.61726886007E+03  0.78962375476E+02 0.  0.
        -15    1    4    4    0    0  0.79824959413E+02 -0.34468091362E+02  0.24508268782E+03  0.26004922099E+03  0.00000000000E+00 0.  1.
        -15    1    4    4    0    0  0.11384077422E+02 -0.30902890530E+01  0.17666357489E+02  0.21242582049E+02  0.00000000000E+00 0.  1.
         15    1    4    4    0    0  0.80079780406E+02 -0.10435980372E+03  0.29866306513E+03  0.32634853506E+03  0.00000000000E+00 0. -1.
         15    1    3    3    0    0 -0.60016692957E+03 -0.18345903616E+03 -0.19273723420E+04  0.20269735336E+04  0.00000000000E+00 0. -1.
        -16    1    1    2    0    0  0.51296106821E+03  0.23605559350E+03 -0.10861701301E+03  0.57502083114E+03  0.00000000000E+00 0.  1.
         16    1    4    4    0    0  0.53181626014E+01  0.19178482355E+01  0.77940644122E+01  0.96285219723E+01  0.00000000000E+00 0. -1.
    9900018    1    1    2    0    0 -0.89401118482E+02  0.87403778563E+02 -0.95403925502E+03  0.96650817845E+03  0.91187600000E+02 0.  0.
<mgrwt>
<rscale>  0 0.34147183E+04</rscale>
<asrwt>0</asrwt>
<pdfrwt beam="1">  1        1 0.50819952E+00 0.34147183E+04</pdfrwt>
<pdfrwt beam="2">  1       -1 0.13576531E+00 0.34147183E+04</pdfrwt>
<totfact> 0.13229548E-01</totfact>
</mgrwt>
</event>
<event>
11    1  0.4773446E-016  0.3847047E+04  0.7818608E-02  0.8036133E-01
          2   -1    0    0  501    0  0.00000000000E+00  0.00000000000E+00  0.19840569231E+04  0.19840569231E+04  0.00000000000E+00 0. -1.
         -2   -1    0    0    0  501 -0.00000000000E+00 -0.00000000000E+00 -0.18648369264E+04  0.18648369264E+04  0.00000000000E+00 0.  1.
    9900016    2    1    2    0    0 -0.41763747993E+03  0.65423722699E+03  0.36889887485E+03  0.23620275601E+04  0.22001455409E+04 0.  0.
        -24    2    3    3    0    0 -0.13598147528E+03 -0.28326312723E+03  0.10958551097E+04  0.11427235019E+04  0.78674133648E+02 0.  0.
        -15    1    3    3    0    0 -0.28165600465E+03  0.93750035422E+03 -0.72695623487E+03  0.12193040583E+04  0.00000000000E+00 0.  1.
        -15    1    4    4    0    0 -0.61751397186E+02 -0.14462855638E+03  0.53930300670E+03  0.56176364017E+03  0.00000000000E+00 0.  1.
         15    1    4    4    0    0  0.53018205153E+01 -0.17364725899E+02  0.57843767579E+02  0.60626268680E+02  0.00000000000E+00 0. -1.
         15    1    4    4    0    0 -0.11423550989E+02 -0.80226514636E+01  0.81790056344E+02  0.82972729077E+02  0.00000000000E+00 0. -1.
        -16    1    4    4    0    0 -0.68108347619E+02 -0.11324719348E+03  0.41691827910E+03  0.43736086392E+03  0.00000000000E+00 0.  1.
         16    1    1    2    0    0  0.51395771691E+03 -0.21717659725E+03  0.40439935381E+03  0.68909872045E+03  0.00000000000E+00 0. -1.
    9900018    1    1    2    0    0 -0.96320236984E+02 -0.43706062974E+03 -0.65407823191E+03  0.79776756889E+03  0.91187600000E+02 0.  0.
<mgrwt>
<rscale>  0 0.38470470E+04</rscale>
<asrwt>0</asrwt>
<pdfrwt beam="1">  1        2 0.30523953E+00 0.38470470E+04</pdfrwt>
<pdfrwt beam="2">  1       -2 0.28689799E+00 0.38470470E+04</pdfrwt>
<totfact> 0.20818826E-01</totfact>
</mgrwt>
</event>
<event>
11    1  0.4773446E-016  0.4109760E+04  0.7818608E-02  0.7982763E-01
         -2   -1    0    0    0  501 -0.00000000000E+00  0.00000000000E+00  0.17756475396E+04  0.17756475396E+04  0.00000000000E+00 0. -1.
          2   -1    0    0  501    0  0.00000000000E+00 -0.00000000000E+00 -0.23780230881E+04  0.23780230881E+04  0.00000000000E+00 0.  1.
    9900016    2    1    2    0    0 -0.49300368506E+03  0.56727390945E+03 -0.12500954983E+04  0.26656330824E+04  0.22311451440E+04 0.  0.
        -24    2    3    3    0    0  0.18185980221E+03 -0.22555256303E+02  0.58763592315E+03  0.62098251360E+03  0.81985222912E+02 0.  0.
        -15    1    4    4    0    0  0.68449901008E+01  0.74044687548E+01  0.33832102238E+02  0.35302849586E+02  0.00000000000E+00 0. -1.
        -15    1    3    3    0    0 -0.67486348727E+03  0.58982916575E+03 -0.18377314215E+04  0.20446505688E+04  0.00000000000E+00 0.  1.
         15    1    4    4    0    0  0.60785834882E+02 -0.56012604885E+01  0.17100490871E+03  0.18157359567E+03  0.00000000000E+00 0.  1.
         15    1    4    4    0    0  0.37966739319E+02 -0.34049882491E+02  0.12248353065E+03  0.13267661087E+03  0.00000000000E+00 0. -1.
        -16    1    4    4    0    0  0.76262237911E+02  0.96914179218E+01  0.26031538155E+03  0.27142945748E+03  0.00000000000E+00 0.  1.
         16    1    1    2    0    0  0.54108665727E+03 -0.49310355922E+03  0.92701727541E+03  0.11812226377E+04  0.00000000000E+00 0. -1.
    9900018    1    1    2    0    0 -0.48082972214E+02 -0.74170350227E+02 -0.27929732557E+03  0.30681490762E+03  0.91187600000E+02 0.  0.
<mgrwt>
<rscale>  0 0.41097595E+04</rscale>
<asrwt>0</asrwt>
<pdfrwt beam="1">  1        2 0.36584970E+00 0.41097595E+04</pdfrwt>
<pdfrwt beam="2">  1       -2 0.27317655E+00 0.41097595E+04</pdfrwt>
<totfact> 0.14832634E-01</totfact>
</mgrwt>
</event>
<event>
11    1  0.4773446E-016  0.4189600E+04  0.7818608E-02  0.7967353E-01
          1   -1    0    0  501    0  0.00000000000E+00  0.00000000000E+00  0.26293881390E+04  0.26293881390E+04  0.00000000000E+00 0. -1.
         -1   -1    0    0    0  501 -0.00000000000E+00 -0.00000000000E+00 -0.16689006024E+04  0.16689006024E+04  0.00000000000E+00 0.  1.
    9900016    2    1    2    0    0  0.52314513380E+03  0.40379473196E+03  0.14243065496E+04  0.27014730468E+04  0.21983121841E+04 0.  0.
        -24    2    3    3    0    0 -0.11809505004E+03  0.62033393179E+03 -0.40188150362E+03  0.75389994057E+03  0.89976383925E+02 0.  0.
        -15    1    4    4    0    0 -0.69102102483E+01  0.86623443034E+02 -0.52234561109E+02  0.10138945341E+03  0.00000000000E+00 0.  1.
        -15    1    3    3    0    0  0.64124018385E+03 -0.21653919983E+03  0.18261880532E+04  0.19475731063E+04  0.00000000000E+00 0.  1.
         15    1    4    4    0    0 -0.11130204969E+02  0.23610662873E+02 -0.23447647172E+02  0.35087562210E+02  0.00000000000E+00 0. -1.
         15    1    4    4    0    0 -0.28514831896E+02  0.64226636708E+02 -0.24876995786E+02  0.74545431920E+02  0.00000000000E+00 0. -1.
        -16    1    4    4    0    0 -0.71539802930E+02  0.44587318918E+03 -0.30132229955E+03  0.54287749303E+03  0.00000000000E+00 0.  1.
         16    1    1    2    0    0 -0.87149185329E+03 -0.64843437030E+03 -0.26434549828E+03  0.11179640984E+04  0.00000000000E+00 0. -1.
    9900018    1    1    2    0    0  0.34834671949E+03  0.24463963834E+03 -0.19947351479E+03  0.47885159614E+03  0.91187600000E+02 0.  0.
<mgrwt>
<rscale>  0 0.41896002E+04</rscale>
<asrwt>0</asrwt>
<pdfrwt beam="1">  1        1 0.40452125E+00 0.41896002E+04</pdfrwt>
<pdfrwt beam="2">  1       -1 0.25675394E+00 0.41896002E+04</pdfrwt>
<totfact> 0.53416997E-02</totfact>
</mgrwt>
</event>
<event>
11    1  0.4773446E-016  0.3506074E+04  0.7818608E-02  0.8112352E-01
          2   -1    0    0  501    0  0.00000000000E+00  0.00000000000E+00  0.20730621779E+04  0.20730621779E+04  0.00000000000E+00 0. -1.
         -2   -1    0    0    0  501 -0.00000000000E+00 -0.00000000000E+00 -0.14824151664E+04  0.14824151664E+04  0.00000000000E+00 0.  1.
    9900016    2    1    2    0    0  0.21442566513E+03  0.41731881922E+03 -0.48375227224E+03  0.22642802069E+04  0.21616695473E+04 0.  0.
         24    2    3    3    0    0 -0.26863490948E+03  0.14213393935E+03  0.80313065791E+03  0.86244501235E+03  0.80160927776E+02 0.  0.
        -15    1    4    4    0    0 -0.18722656611E+02  0.11149273246E+02  0.12318862272E+03  0.12510108285E+03  0.00000000000E+00 0.  1.
        -15    1    4    4    0    0 -0.98402360211E+02  0.38744467564E+02  0.29357919242E+03  0.31204631144E+03  0.00000000000E+00 0.  1.
         15    1    3    3    0    0  0.48306057460E+03  0.27518487987E+03 -0.12868829301E+04  0.14018351946E+04  0.00000000000E+00 0. -1.
         15    1    4    4    0    0 -0.33927790603E+02  0.24370346613E+02  0.81962800468E+02  0.91994072797E+02  0.00000000000E+00 0. -1.
        -16    1    1    2    0    0 -0.13954652665E+03 -0.51382336955E+03  0.96974804341E+03  0.11062996682E+04  0.00000000000E+00 0.  1.
         16    1    4    4    0    0 -0.11758210205E+03  0.67869851931E+02  0.30440004231E+03  0.33330354526E+03  0.00000000000E+00 0. -1.
    9900018    1    1    2    0    0 -0.74879138473E+02  0.96504550327E+02  0.10465124037E+03  0.18489746920E+03  0.91187600000E+02 0.  0.
<mgrwt>
<rscale>  0 0.35060741E+04</rscale>
<asrwt>0</asrwt>
<pdfrwt beam="1">  1        2 0.31893264E+00 0.35060741E+04</pdfrwt>
<pdfrwt beam="2">  1       -2 0.22806387E+00 0.35060741E+04</pdfrwt>
<totfact> 0.43929042E-01</totfact>
</mgrwt>
</event>
<event>
11    1  0.4773446E-016  0.3965563E+04  0.7818608E-02  0.8011530E-01
         -1   -1    0    0    0  501 -0.00000000000E+00  0.00000000000E+00  0.15597048917E+04  0.15597048917E+04  0.00000000000E+00 0.  1.
          1   -1    0    0  501    0  0.00000000000E+00 -0.00000000000E+00 -0.25206188738E+04  0.25206188738E+04  0.00000000000E+00 0. -1.
    9900016    2    1    2    0    0 -0.23281308274E+03  0.30787840420E+03 -0.97476146319E+03  0.24282628725E+04  0.21902761526E+04 0.  0.
        -24    2    3    3    0    0  0.32057306321E+03  0.39034846951E+02  0.62780642180E+03  0.71165665358E+03  0.89573886843E+02 0.  0.
        -15    1    3    3    0    0 -0.55338614595E+03  0.26884355725E+03 -0.16025678850E+04  0.17166062189E+04  0.00000000000E+00 0.  1.
        -15    1    4    4    0    0  0.61293869042E+02  0.23660455505E+02  0.12372799474E+03  0.14009058576E+03  0.00000000000E+00 0. -1.
         15    1    4    4    0    0  0.13798462642E+02 -0.56092708897E+01  0.64132867369E+02  0.65839852431E+02  0.00000000000E+00 0. -1.
         15    1    4    4    0    0  0.29800978492E+02 -0.99146186744E+01  0.60894252024E+02  0.68516479128E+02  0.00000000000E+00 0.  1.
        -16    1    4    4    0    0  0.21567975303E+03  0.30898281010E+02  0.37905130767E+03  0.43720973626E+03  0.00000000000E+00 0.  1.
         16    1    1    2    0    0  0.48976135244E+02 -0.78683937737E+03 -0.48918174121E+03  0.92780043304E+03  0.00000000000E+00 0. -1.
    9900018    1    1    2    0    0  0.18383694749E+03  0.47896097317E+03  0.50302922232E+03  0.72426046004E+03  0.91187600000E+02 0.  0.
<mgrwt>
<rscale>  0 0.39655626E+04</rscale>
<asrwt>0</asrwt>
<pdfrwt beam="1">  1        1 0.38778752E+00 0.39655626E+04</pdfrwt>
<pdfrwt beam="2">  1       -1 0.23995460E+00 0.39655626E+04</pdfrwt>
<totfact> 0.83462532E-02</totfact>
</mgrwt>
</event>
<event>
12    1  0.4773446E-016  0.2846114E+04  0.7818608E-02  0.8289093E-01
         -2   -1    0    0    0  501 -0.00000000000E+00  0.00000000000E+00  0.97064748587E+03  0.97064748587E+03  0.00000000000E+00 0.  1.
          2   -1    0    0  501    0  0.00000000000E+00 -0.00000000000E+00 -0.20863301391E+04  0.20863301391E+04  0.00000000000E+00 0. -1.
    9900016    2    1    2    0    0  0.13965423169E+03 -0.78021979253E+02 -0.84489880414E+03  0.23380857308E+04  0.21742125382E+04 0.  0.
        -24    2    3    3    0    0  0.41476160274E+01 -0.33769422814E+03 -0.15427203223E+04  0.15812854989E+04  0.80145129169E+02 0.  0.
        -24    2    4    4    0    0 -0.42691838503E+01 -0.25442749768E+03 -0.12347417954E+04  0.12618983573E+04  0.55213996109E+02 0.  0.
        -15    1    4    4    0    0  0.11327122972E+02 -0.71604173846E+02 -0.26899944822E+03  0.27859677775E+03  0.00000000000E+00 0. -1.
        -15    1    3    3    0    0  0.13550661566E+03  0.25967224889E+03  0.69782151817E+03  0.75680023186E+03  0.00000000000E+00 0.  1.
         15    1    4    4    0    0 -0.29103230940E+01 -0.11662556611E+02 -0.38979078685E+02  0.40790363842E+02  0.00000000000E+00 0.  1.
         15    1    5    5    0    0  0.18475057098E+01 -0.13690263707E+02 -0.26422725376E+02  0.29816052959E+02  0.00000000000E+00 0. -1.
        -16    1    5    5    0    0 -0.61166895602E+01 -0.24073723398E+03 -0.12083190700E+04  0.12320823044E+04  0.00000000000E+00 0.  1.
         16    1    1    2    0    0 -0.12874276003E+02  0.16653940423E+03 -0.44096125652E+03  0.47153785627E+03  0.00000000000E+00 0. -1.
    9900018    1    1    2    0    0 -0.12677995568E+03 -0.88517424979E+02  0.17017740744E+03  0.24735403794E+03  0.91187600000E+02 0.  0.
<mgrwt>
<rscale>  0 0.28461139E+04</rscale>
<asrwt>0</asrwt>
<pdfrwt beam="1">  1        2 0.32097386E+00 0.28461139E+04</pdfrwt>
<pdfrwt beam="2">  1       -2 0.14933039E+00 0.28461139E+04</pdfrwt>
<totfact> 0.15718315E+00</totfact>
</mgrwt>
</event>
<event>
11    1  0.4773446E-016  0.2994315E+04  0.7818608E-02  0.8245356E-01
          2   -1    0    0  501    0  0.00000000000E+00  0.00000000000E+00  0.14558749314E+04  0.14558749314E+04  0.00000000000E+00 0. -1.
         -2   -1    0    0    0  501 -0.00000000000E+00 -0.00000000000E+00 -0.15396106349E+04  0.15396106349E+04  0.00000000000E+00 0.  1.
    9900016    2    1    2    0    0  0.29767744452E+03  0.25107794625E+03  0.31013158002E+03  0.22524210273E+04  0.21967172989E+04 0.  0.
        -24    2    3    3    0    0 -0.34850946374E+03 -0.11086713527E+03  0.11045222945E+04  0.11663186520E+04  0.81113075607E+02 0.  0.
        -15    1    4    4    0    0 -0.30009881495E+02 -0.92944019363E+01  0.13605000073E+03  0.13963016004E+03  0.00000000000E+00 0.  1.
        -15    1    3    3    0    0  0.64618690826E+03  0.36194508152E+03 -0.79439071446E+03  0.10861023753E+04  0.00000000000E+00 0.  1.
         15    1    4    4    0    0 -0.27412788946E+02  0.67770339740E+01  0.11199039613E+03  0.11549561902E+03  0.00000000000E+00 0. -1.
         15    1    4    4    0    0 -0.71865886164E+02 -0.23810199022E+02  0.19142892617E+03  0.20585593250E+03  0.00000000000E+00 0. -1.
        -16    1    4    4    0    0 -0.21922090714E+03 -0.84539568282E+02  0.66505297144E+03  0.70533694044E+03  0.00000000000E+00 0.  1.
         16    1    1    2    0    0 -0.27700691887E+03  0.50143461843E+02 -0.68093359583E+02  0.28962718361E+03  0.00000000000E+00 0. -1.
    9900018    1    1    2    0    0 -0.20670525656E+02 -0.30122140810E+03 -0.32577392391E+03  0.45343735534E+03  0.91187600000E+02 0.  0.
<mgrwt>
<rscale>  0 0.29943150E+04</rscale>
<asrwt>0</asrwt>
<pdfrwt beam="1">  1        2 0.22398076E+00 0.29943150E+04</pdfrwt>
<pdfrwt beam="2">  1       -2 0.23686318E+00 0.29943150E+04</pdfrwt>
<totfact> 0.89216444E-01</totfact>
</mgrwt>
</event>
<event>
11    1  0.4773446E-016  0.3042004E+04  0.7818608E-02  0.8231837E-01
         -2   -1    0    0    0  501 -0.00000000000E+00  0.00000000000E+00  0.17347718209E+04  0.17347718209E+04  0.00000000000E+00 0. -1.
          2   -1    0    0  501    0  0.00000000000E+00 -0.00000000000E+00 -0.13335744474E+04  0.13335744474E+04  0.00000000000E+00 0.  1.
    9900016    2    1    2    0    0 -0.46056198122E+03 -0.32571985467E+03  0.61505852700E+03  0.23525011799E+04  0.21994894970E+04 0.  0.
         24    2    3    3    0    0  0.39257082470E+03 -0.26257902648E+03  0.12161006776E+04  0.13069993790E+04  0.79290107739E+02 0.  0.
        -15    1    4    4    0    0  0.25165301980E+02 -0.73969200321E+01  0.48929572158E+02  0.55516753159E+02  0.00000000000E+00 0.  1.
        -15    1    4    4    0    0  0.14882481742E+02 -0.15438206200E+02  0.33126794408E+02  0.39461512658E+02  0.00000000000E+00 0. -1.
         15    1    4    4    0    0  0.77374473519E+02 -0.70505089017E+02  0.27538353619E+03  0.29460799163E+03  0.00000000000E+00 0.  1.
         15    1    3    3    0    0 -0.85313280593E+03 -0.63140828184E+02 -0.60104215060E+03  0.10455018008E+04  0.00000000000E+00 0. -1.
        -16    1    1    2    0    0  0.22636939395E+03  0.92662448534E+02 -0.27461412713E+03  0.36775311108E+03  0.00000000000E+00 0.  1.
         16    1    4    4    0    0  0.27514856746E+03 -0.16923881124E+03  0.85866077484E+03  0.91741312158E+03  0.00000000000E+00 0. -1.
    9900018    1    1    2    0    0  0.23419258727E+03  0.23305740613E+03  0.60752973695E+02  0.34809197735E+03  0.91187600000E+02 0.  0.
<mgrwt>
<rscale>  0 0.30420042E+04</rscale>
<asrwt>0</asrwt>
<pdfrwt beam="1">  1        2 0.20516530E+00 0.30420042E+04</pdfrwt>
<pdfrwt beam="2">  1       -2 0.26688797E+00 0.30420042E+04</pdfrwt>
<totfact> 0.68267731E-01</totfact>
</mgrwt>
</event>
<event>
11    1  0.4773446E-016  0.4129661E+04  0.7818608E-02  0.7978889E-01
          2   -1    0    0  501    0  0.00000000000E+00  0.00000000000E+00  0.30973701241E+04  0.30973701241E+04  0.00000000000E+00 0. -1.
         -2   -1    0    0    0  501 -0.00000000000E+00 -0.00000000000E+00 -0.13764986362E+04  0.13764986362E+04  0.00000000000E+00 0.  1.
    9900016    2    1    2    0    0 -0.60241966662E+03  0.49603959581E+03  0.43960050102E+03  0.23482021258E+04  0.21706772878E+04 0.  0.
        -24    2    3    3    0    0 -0.37205861872E+01 -0.27934285035E+03  0.11189418045E+04  0.11560766570E+04  0.80225957211E+02 0.  0.
        -15    1    4    4    0    0 -0.18274314781E+02 -0.20699524416E+02  0.14686553195E+03  0.14943863412E+03  0.00000000000E+00 0.  1.
        -15    1    3    3    0    0 -0.59869908043E+03  0.77538244616E+03 -0.67934130350E+03  0.11921254688E+04  0.00000000000E+00 0.  1.
         15    1    4    4    0    0 -0.98013978274E+00 -0.21476714291E+02  0.53330178559E+02  0.57500590222E+02  0.00000000000E+00 0. -1.
         15    1    4    4    0    0  0.18784360089E+02 -0.20251029869E+03  0.79248783216E+03  0.81816883184E+03  0.00000000000E+00 0. -1.
        -16    1    4    4    0    0 -0.32504917118E+01 -0.34656312950E+02  0.12625826184E+03  0.13096860085E+03  0.00000000000E+00 0.  1.
         16    1    1    2    0    0  0.45783458483E+03 -0.99436871142E+03  0.11393977467E+04  0.15800660956E+04  0.00000000000E+00 0. -1.
    9900018    1    1    2    0    0  0.14458508178E+03  0.49832911561E+03  0.14187324021E+03  0.54560053887E+03  0.91187600000E+02 0.  0.
<mgrwt>
<rscale>  0 0.41296614E+04</rscale>
<asrwt>0</asrwt>
<pdfrwt beam="1">  1        2 0.47651848E+00 0.41296614E+04</pdfrwt>
<pdfrwt beam="2">  1       -2 0.21176902E+00 0.41296614E+04</pdfrwt>
<totfact> 0.13145243E-01</totfact>
</mgrwt>
</event>
<event>
11    1  0.4773446E-016  0.4104614E+04  0.7818608E-02  0.7983769E-01
         -2   -1    0    0    0  501 -0.00000000000E+00  0.00000000000E+00  0.27976311984E+04  0.27976311984E+04  0.00000000000E+00 0.  1.
          2   -1    0    0  501    0  0.00000000000E+00 -0.00000000000E+00 -0.15055467449E+04  0.15055467449E+04  0.00000000000E+00 0. -1.
    9900016    2    1    2    0    0 -0.67546628486E+03 -0.78034916462E+03 -0.12438907831E+03  0.24456682163E+04  0.22137345958E+04 0.  0.
         24    2    3    3    0    0  0.24678869912E+03 -0.96494008703E+02  0.87849125476E+03  0.92120729773E+03  0.81610323907E+02 0.  0.
        -15    1    4    4    0    0  0.78007590656E+02 -0.40954215448E+02  0.19655800655E+03  0.21540074722E+03  0.00000000000E+00 0.  1.
        -15    1    4    4    0    0  0.11521494032E+03 -0.21285174532E+02  0.42521912943E+03  0.44106558374E+03  0.00000000000E+00 0. -1.
         15    1    4    4    0    0  0.90828406275E+01 -0.10346646140E+02  0.43451654569E+02  0.45580668764E+02  0.00000000000E+00 0.  1.
         15    1    3    3    0    0 -0.92225498397E+03 -0.68385515592E+03 -0.10028803331E+04  0.15244609186E+04  0.00000000000E+00 0. -1.
        -16    1    1    2    0    0  0.73055619666E+03  0.80910334609E+03  0.13089054784E+04  0.17034066257E+04  0.00000000000E+00 0.  1.
         16    1    4    4    0    0  0.44483327509E+02 -0.23907972582E+02  0.21326246422E+03  0.21916029801E+03  0.00000000000E+00 0. -1.
    9900018    1    1    2    0    0 -0.55089911804E+02 -0.28754181465E+02  0.10756805341E+03  0.15410310134E+03  0.91187600000E+02 0.  0.
<mgrwt>
<rscale>  0 0.41046143E+04</rscale>
<asrwt>0</asrwt>
<pdfrwt beam="1">  1        2 0.23162258E+00 0.41046143E+04</pdfrwt>
<pdfrwt beam="2">  1       -2 0.43040480E+00 0.41046143E+04</pdfrwt>
<totfact> 0.46127322E-02</totfact>
</mgrwt>
</event>
<event>
12    1  0.4773446E-016  0.3399742E+04  0.7818608E-02  0.8137970E-01
          2   -1    0    0  501    0  0.00000000000E+00  0.00000000000E+00  0.25274013152E+04  0.25274013152E+04  0.00000000000E+00 0. -1.
         -2   -1    0    0    0  501 -0.00000000000E+00 -0.00000000000E+00 -0.11432935185E+04  0.11432935185E+04  0.00000000000E+00 0.  1.
    9900016    2    1    2    0    0 -0.11092396982E+03 -0.69888569880E+03  0.74356837697E+03  0.24270972311E+04  0.21993548352E+04 0.  0.
        -24    2    3    3    0    0 -0.48801575733E+03  0.10484469334E+03  0.12891248588E+04  0.13850738944E+04  0.86226458230E+02 0.  0.
        -24    2    4    4    0    0 -0.44268060955E+03  0.94181855075E+02  0.11635098092E+04  0.12494920065E+04  0.51369778632E+02 0.  0.
        -15    1    4    4    0    0 -0.19926195056E+02 -0.45810686975E+01  0.64489879390E+02  0.67653410731E+02  0.00000000000E+00 0.  1.
        -15    1    3    3    0    0  0.37709178751E+03 -0.80373039214E+03 -0.54555648185E+03  0.10420233368E+04  0.00000000000E+00 0.  1.
         15    1    4    4    0    0 -0.25408952717E+02  0.15243906966E+02  0.61125170213E+02  0.67928477175E+02  0.00000000000E+00 0. -1.
         15    1    5    5    0    0 -0.16680818403E+03  0.13482629072E+02  0.39501789854E+03  0.42900570126E+03  0.00000000000E+00 0. -1.
        -16    1    5    5    0    0 -0.27587242553E+03  0.80699226003E+02  0.76849191067E+03  0.82048630520E+03  0.00000000000E+00 0.  1.
         16    1    1    2    0    0 -0.27516824195E+03  0.30983583053E+03  0.53715094385E+03  0.67841502028E+03  0.00000000000E+00 0. -1.
    9900018    1    1    2    0    0  0.38609221177E+03  0.38904986827E+03  0.10338847580E+03  0.56518258228E+03  0.91187600000E+02 0.  0.
<mgrwt>
<rscale>  0 0.33997421E+04</rscale>
<asrwt>0</asrwt>
<pdfrwt beam="1">  1        2 0.38883097E+00 0.33997421E+04</pdfrwt>
<pdfrwt beam="2">  1       -2 0.17589131E+00 0.33997421E+04</pdfrwt>
<totfact> 0.53833797E-01</totfact>
</mgrwt>
</event>
<event>
11    1  0.4773446E-016  0.3477983E+04  0.7818608E-02  0.8119028E-01
         -1   -1    0    0    0  501 -0.00000000000E+00  0.00000000000E+00  0.19415011624E+04  0.19415011624E+04  0.00000000000E+00 0.  1.
          1   -1    0    0  501    0  0.00000000000E+00 -0.00000000000E+00 -0.15576045308E+04  0.15576045308E+04  0.00000000000E+00 0. -1.
    9900016    2    1    2    0    0  0.35721443876E+03  0.66019646030E+03 -0.31044897574E+03  0.23529715515E+04  0.22083104479E+04 0.  0.
         24    2    3    3    0    0 -0.17383210055E+03 -0.65840753342E+02  0.85626089115E+03  0.87975996590E+03  0.79008100187E+02 0.  0.
        -15    1    4    4    0    0 -0.19597115289E+02  0.10222192709E+02  0.87376092268E+02  0.90128362081E+02  0.00000000000E+00 0.  1.
        -15    1    4    4    0    0 -0.27372983860E+02 -0.86001404518E+01  0.11320142844E+03  0.11678101756E+03  0.00000000000E+00 0.  1.
         15    1    4    4    0    0 -0.26363061598E+02 -0.17338135724E+02  0.74346767037E+02  0.80765486045E+02  0.00000000000E+00 0. -1.
         15    1    3    3    0    0  0.53104653931E+03  0.72603721364E+03 -0.11667098669E+04  0.14732115856E+04  0.00000000000E+00 0. -1.
        -16    1    1    2    0    0 -0.50317138330E+02  0.69088472171E+02  0.17654910290E+03  0.19614947650E+03  0.00000000000E+00 0.  1.
         16    1    4    4    0    0 -0.10049893980E+03 -0.50124669875E+02  0.58133660341E+03  0.59208510021E+03  0.00000000000E+00 0. -1.
    9900018    1    1    2    0    0 -0.30689730043E+03 -0.72928493247E+03  0.51779650438E+03  0.94998466518E+03  0.91187600000E+02 0.  0.
<mgrwt>
<rscale>  0 0.34779828E+04</rscale>
<asrwt>0</asrwt>
<pdfrwt beam="1">  1        1 0.23963147E+00 0.34779828E+04</pdfrwt>
<pdfrwt beam="2">  1       -1 0.29869248E+00 0.34779828E+04</pdfrwt>
<totfact> 0.16425078E-01</totfact>
</mgrwt>
</event>
<event>
11    1  0.4773446E-016  0.4774586E+04  0.7818608E-02  0.7864252E-01
          2   -1    0    0  501    0  0.00000000000E+00  0.00000000000E+00  0.22797146252E+04  0.22797146252E+04  0.00000000000E+00 0. -1.
         -2   -1    0    0    0  501 -0.00000000000E+00 -0.00000000000E+00 -0.24999480348E+04  0.24999480348E+04  0.00000000000E+00 0.  1.
    9900016    2    1    2    0    0  0.28095461320E+03 -0.13658581523E+04 -0.99957901223E+03  0.27890744082E+04  0.21989256163E+04 0.  0.
        -24    2    3    3    0    0 -0.24583100710E+03  0.22072360777E+03 -0.10630703467E+04  0.11161201588E+04  0.80335868012E+02 0.  0.
        -15    1    3    3    0    0  0.52678562030E+03 -0.15865817601E+04  0.63491334466E+02  0.16729542495E+04  0.00000000000E+00 0.  1.
        -15    1    4    4    0    0 -0.14667137450E+03  0.13076631628E+03 -0.52267428163E+03  0.55839119463E+03  0.00000000000E+00 0. -1.
         15    1    4    4    0    0 -0.30252177161E+01  0.11763029255E+02 -0.58970711123E+02  0.60208517419E+02  0.00000000000E+00 0. -1.
         15    1    4    4    0    0 -0.22174145058E+02  0.14342561593E+02 -0.13606757365E+03  0.13860658852E+03  0.00000000000E+00 0.  1.
        -16    1    4    4    0    0 -0.73960269824E+02  0.63851700638E+02 -0.34535778029E+03  0.35891385818E+03  0.00000000000E+00 0.  1.
         16    1    1    2    0    0 -0.56652933472E+03  0.12428523845E+04  0.90993905092E+03  0.16412271668E+04  0.00000000000E+00 0. -1.
    9900018    1    1    2    0    0  0.28557472152E+03  0.12300576785E+03 -0.13059344832E+03  0.34936108489E+03  0.91187600000E+02 0.  0.
<mgrwt>
<rscale>  0 0.47745861E+04</rscale>
<asrwt>0</asrwt>
<pdfrwt beam="1">  1        2 0.35072533E+00 0.47745861E+04</pdfrwt>
<pdfrwt beam="2">  1       -2 0.38460739E+00 0.47745861E+04</pdfrwt>
<totfact> 0.32264025E-02</totfact>
</mgrwt>
</event>
<event>
11    1  0.4773446E-016  0.3955222E+04  0.7818608E-02  0.8013641E-01
          3   -1    0    0  501    0  0.00000000000E+00  0.00000000000E+00  0.29424592202E+04  0.29424592202E+04  0.00000000000E+00 0. -1.
         -3   -1    0    0    0  501 -0.00000000000E+00 -0.00000000000E+00 -0.13291415446E+04  0.13291415446E+04  0.00000000000E+00 0.  1.
    9900016    2    1    2    0    0  0.53398836509E+03  0.82343748738E+03  0.17355003590E+04  0.29687810897E+04  0.21996606086E+04 0.  0.
         24    2    3    3    0    0 -0.46947251598E+03  0.32966427010E+03  0.17573154857E+04  0.18502009050E+04  0.77477083760E+02 0.  0.
        -15    1    4    4    0    0 -0.18694546539E+02  0.10181181010E+02  0.10415585969E+03  0.10630891601E+03  0.00000000000E+00 0.  1.
        -15    1    4    4    0    0 -0.18152775487E+02  0.38937855718E+01  0.41646968086E+02  0.45597749667E+02  0.00000000000E+00 0. -1.
         15    1    4    4    0    0 -0.10095531175E+03  0.70058622079E+02  0.39777586191E+03  0.41632417876E+03  0.00000000000E+00 0.  1.
         15    1    3    3    0    0  0.10034608811E+04  0.49377321728E+03 -0.21815126661E+02  0.11185801847E+04  0.00000000000E+00 0. -1.
        -16    1    1    2    0    0 -0.24346674323E+03 -0.18753073062E+03 -0.43408630787E+03  0.53185971145E+03  0.00000000000E+00 0.  1.
         16    1    4    4    0    0 -0.33166988220E+03  0.24553068144E+03  0.12137367960E+04  0.12819700606E+04  0.00000000000E+00 0. -1.
    9900018    1    1    2    0    0 -0.29052162186E+03 -0.63590675677E+03  0.31190362445E+03  0.77095996356E+03  0.91187600000E+02 0.  0.
<mgrwt>
<rscale>  0 0.39552218E+04</rscale>
<asrwt>0</asrwt>
<pdfrwt beam="1">  1        3 0.45268603E+00 0.39552218E+04</pdfrwt>
<pdfrwt beam="2">  1       -3 0.20448332E+00 0.39552218E+04</pdfrwt>
<totfact> 0.16569851E-03</totfact>
</mgrwt>
</event>
<event>
11    1  0.4773446E-016  0.6809016E+04  0.7818608E-02  0.7597459E-01
         -2   -1    0    0    0  501 -0.00000000000E+00  0.00000000000E+00  0.32037173548E+04  0.32037173548E+04  0.00000000000E+00 0.  1.
          2   -1    0    0  501    0  0.00000000000E+00 -0.00000000000E+00 -0.36178826768E+04  0.36178826768E+04  0.00000000000E+00 0. -1.
    9900016    2    1    2    0    0 -0.18810142902E+04  0.11441259149E+02  0.75808999099E+02  0.28951819510E+04  0.21995421938E+04 0.  0.
        -24    2    3    3    0    0 -0.11119592978E+03 -0.27505235537E+03 -0.83079155953E+03  0.88613735391E+03  0.83704609252E+02 0.  0.
        -15    1    3    3    0    0 -0.17698183604E+04  0.28649361452E+03  0.90660055863E+03  0.20090445971E+04  0.00000000000E+00 0.  1.
        -15    1    4    4    0    0  0.34185543728E+01 -0.12225353261E+02 -0.64592305021E+02  0.65827894120E+02  0.00000000000E+00 0. -1.
         15    1    4    4    0    0 -0.93044187306E+02 -0.23918002885E+03 -0.67152058253E+03  0.71889095122E+03  0.00000000000E+00 0. -1.
         15    1    4    4    0    0 -0.13361968170E+02 -0.10092821459E+02 -0.70850974908E+02  0.72802938703E+02  0.00000000000E+00 0.  1.
        -16    1    4    4    0    0 -0.82083286759E+01 -0.13554151800E+02 -0.23827697070E+02  0.28615569858E+02  0.00000000000E+00 0.  1.
         16    1    1    2    0    0  0.94249792801E+03  0.10229206373E+04 -0.16144669588E+04  0.21310027066E+04  0.00000000000E+00 0. -1.
    9900018    1    1    2    0    0  0.93851636222E+03 -0.10343618964E+04  0.11244926377E+04  0.17954153741E+04  0.91187600000E+02 0.  0.
<mgrwt>
<rscale>  0 0.68090156E+04</rscale>
<asrwt>0</asrwt>
<pdfrwt beam="1">  1        2 0.55659733E+00 0.68090156E+04</pdfrwt>
<pdfrwt beam="2">  1       -2 0.49287959E+00 0.68090156E+04</pdfrwt>
<totfact> 0.78278250E-04</totfact>
</mgrwt>
</event>
