<event>
11    1  0.9631391E-010  0.4330481E+04  0.7818608E-02  0.8070239E-01
          1   -1    0    0  501    0  0.00000000000E+00  0.00000000000E+00  0.20527698582E+04  0.20527698582E+04  0.00000000000E+00 0. -1.
         -1   -1    0    0    0  501 -0.00000000000E+00 -0.00000000000E+00 -0.60239125522E+04  0.60239125522E+04  0.00000000000E+00 0.  1.
    9900016    2    1    2    0    0 -0.38771991095E+03 -0.29182944756E+03 -0.10051232497E+04  0.21526408320E+04  0.18406788554E+04 0.  0.
         24    2    3    3    0    0 -0.69773318036E+03  0.48831290335E+03 -0.60477886289E+03  0.10481673088E+04  0.87270565782E+02 0.  0.
        -15    1    1    2    0    0  0.39920607580E+03 -0.14801101766E+03 -0.14715767632E+03  0.45047545328E+03  0.00000000000E+00 0.  1.
        -15    1    4    4    0    0 -0.30153825738E+03  0.16235316824E+03 -0.22332463545E+03  0.40884931784E+03  0.00000000000E+00 0.  1.
         15    1    1    2    0    0 -0.56876091774E+02 -0.18343422759E+04  0.20631757424E+02  0.18353397899E+04  0.00000000000E+00 0. -1.
         15    1    3    3    0    0  0.11090242454E+03 -0.78440169334E+03 -0.39535668413E+03  0.88537690956E+03  0.00000000000E+00 0. -1.
        -16    1    1    2    0    0  0.45389926918E+02  0.22741827411E+04 -0.28394935254E+04  0.36382263352E+04  0.00000000000E+00 0.  1.
         16    1    4    4    0    0 -0.39619492297E+03  0.32595973512E+03 -0.38145422745E+03  0.63931799094E+03  0.00000000000E+00 0. -1.
    9900018    1    3    3    0    0  0.19911084487E+03  0.42593424344E+01 -0.49877026752E+01  0.21909661365E+03  0.91187600000E+02 0.  0.
<mgrwt>
<rscale>  0 0.36897402E+04</rscale>
<asrwt>0</asrwt>
<pdfrwt beam="1">  1        1 0.31581076E+00 0.43304809E+04</pdfrwt>
<pdfrwt beam="2">  1       -1 0.92675575E+00 0.43304809E+04</pdfrwt>
<totfact> 0.53174059E-06</totfact>
</mgrwt>
</event>
<event>
11    1  0.9631391E-010  0.2875958E+04  0.7818608E-02  0.8648453E-01
         -2   -1    0    0    0  501 -0.00000000000E+00  0.00000000000E+00  0.21105380232E+04  0.21105380232E+04  0.00000000000E+00 0.  1.
          2   -1    0    0  501    0  0.00000000000E+00 -0.00000000000E+00 -0.14036261523E+04  0.14036261523E+04  0.00000000000E+00 0. -1.
    9900016    2    1    2    0    0  0.54979859728E+02 -0.42067673373E+03 -0.15278833491E+03  0.19000085037E+04  0.18457237983E+04 0.  0.
         24    2    3    3    0    0 -0.95418741236E+02 -0.11175044813E+03  0.52279953314E+03  0.54901511354E+03  0.80655714044E+02 0.  0.
        -15    1    4    4    0    0 -0.10497147117E+03 -0.78633111724E+02  0.44492216560E+03  0.46385117167E+03  0.00000000000E+00 0.  1.
        -15    1    1    2    0    0  0.60644266781E+02 -0.20476133666E+03  0.70813903869E+02  0.22498786871E+03  0.00000000000E+00 0.  1.
         15    1    1    2    0    0  0.32197507717E+03  0.11120654559E+03 -0.12966848399E+02  0.34088558969E+03  0.00000000000E+00 0. -1.
         15    1    3    3    0    0  0.15678779688E+03  0.20067452823E+03 -0.78201313371E+03  0.82243371820E+03  0.00000000000E+00 0. -1.
        -16    1    1    2    0    0 -0.43759920368E+03  0.51423152480E+03  0.80185315033E+03  0.10482822134E+04  0.00000000000E+00 0.  1.
         16    1    4    4    0    0  0.95527299311E+01 -0.33117336407E+02  0.77877367546E+02  0.85163941875E+02  0.00000000000E+00 0. -1.
    9900018    1    3    3    0    0 -0.63891959188E+01 -0.50960081382E+03  0.10642526566E+03  0.52855967197E+03  0.91187600000E+02 0.  0.
<mgrwt>
<rscale>  0 0.19129183E+04</rscale>
<asrwt>0</asrwt>
<pdfrwt beam="1">  1        2 0.21594248E+00 0.28759578E+04</pdfrwt>
<pdfrwt beam="2">  1       -2 0.32469816E+00 0.28759578E+04</pdfrwt>
<totfact> 0.27377222E-01</totfact>
</mgrwt>
</event>
<event>
11    1  0.9631391E-010  0.5166981E+04  0.7818608E-02  0.7803253E-01
          2   -1    0    0  501    0  0.00000000000E+00  0.00000000000E+00  0.31860569316E+04  0.31860569316E+04  0.00000000000E+00 0. -1.
         -2   -1    0    0    0  501 -0.00000000000E+00 -0.00000000000E+00 -0.20948848873E+04  0.20948848873E+04  0.00000000000E+00 0.  1.
    9900016    2    1    2    0    0  0.57752347517E+03  0.24921258652E+03 -0.95278917997E+03  0.21680704400E+04  0.18431174498E+04 0.  0.
        -24    2    3    3    0    0  0.15550373146E+03  0.28021606460E+02 -0.94390326571E+03  0.96029742941E+03  0.79064258602E+02 0.  0.
        -15    1    3    3    0    0 -0.29131399219E+03  0.29951200993E+03  0.18785478416E+03  0.45810556214E+03  0.00000000000E+00 0.  1.
        -15    1    1    2    0    0 -0.35867661124E+03  0.32887174035E+03 -0.20291176407E+02  0.48704955075E+03  0.00000000000E+00 0.  1.
         15    1    4    4    0    0  0.10079141891E+03 -0.80195604784E+01 -0.40518996478E+03  0.41761481180E+03  0.00000000000E+00 0. -1.
         15    1    1    2    0    0  0.52552692078E+03  0.10014880585E+03  0.35524626408E+03  0.64219018672E+03  0.00000000000E+00 0. -1.
        -16    1    4    4    0    0  0.54712312555E+02  0.36041166938E+02 -0.53871330093E+03  0.54268261761E+03  0.00000000000E+00 0.  1.
         16    1    1    2    0    0 -0.74437378471E+03 -0.67823313272E+03  0.17090061366E+04  0.19836316414E+04  0.00000000000E+00 0. -1.
    9900018    1    3    3    0    0  0.71333373590E+03 -0.78321029863E+02 -0.19674069842E+03  0.74966744848E+03  0.91187600000E+02 0.  0.
<mgrwt>
<rscale>  0 0.51669807E+04</rscale>
<asrwt>0</asrwt>
<pdfrwt beam="1">  1        2 0.49016261E+00 0.51669807E+04</pdfrwt>
<pdfrwt beam="2">  1       -2 0.32228998E+00 0.51669807E+04</pdfrwt>
<totfact> 0.22029216E-02</totfact>
</mgrwt>
</event>
<event>
11    1  0.1003481E-009  0.3631795E+04  0.7818608E-02  0.8429146E-01
         -1   -1    0    0    0  501 -0.00000000000E+00  0.00000000000E+00  0.15187631038E+04  0.15187631038E+04  0.00000000000E+00 0.  1.
          1   -1    0    0  501    0  0.00000000000E+00 -0.00000000000E+00 -0.32677805201E+04  0.32677805201E+04  0.00000000000E+00 0. -1.
    9900016    2    1    2    0    0 -0.11657358997E+03  0.91899918496E+03 -0.17929674809E+04  0.27364339824E+04  0.18480231733E+04 0.  0.
         24    2    3    3    0    0 -0.25886228925E+03  0.20659554162E+03 -0.42508185030E+03  0.54479735665E+03  0.80113530360E+02 0.  0.
        -15    1    1    2    0    0  0.16992709125E+03 -0.30662578284E+03 -0.26155286246E+03  0.43738368386E+03  0.00000000000E+00 0.  1.
        -15    1    4    4    0    0 -0.16396381500E+03  0.88973895726E+02 -0.27071161088E+03  0.32876323246E+03  0.00000000000E+00 0.  1.
         15    1    3    3    0    0  0.14844258070E+03 -0.32829829770E+03  0.11454904762E+03  0.37806938033E+03  0.00000000000E+00 0. -1.
         15    1    1    2    0    0  0.36566098526E+03 -0.48014174501E+01 -0.43427915578E+03  0.56774060529E+03  0.00000000000E+00 0. -1.
        -16    1    1    2    0    0 -0.41901448654E+03 -0.60757198467E+03  0.73978208286E+03  0.10449853523E+04  0.00000000000E+00 0.  1.
         16    1    4    4    0    0 -0.94898474246E+02  0.11762164590E+03 -0.15437023942E+03  0.21603412420E+03  0.00000000000E+00 0. -1.
    9900018    1    3    3    0    0 -0.61538814215E+01  0.10407019410E+04 -0.14824346782E+04  0.18135672455E+04  0.91187600000E+02 0.  0.
<mgrwt>
<rscale>  0 0.24278606E+04</rscale>
<asrwt>0</asrwt>
<pdfrwt beam="1">  1        1 0.50273546E+00 0.36317947E+04</pdfrwt>
<pdfrwt beam="2">  1       -1 0.23365586E+00 0.36317947E+04</pdfrwt>
<totfact> 0.26500255E-02</totfact>
</mgrwt>
</event>
<event>
11    1  0.9631391E-010  0.3266631E+04  0.7818608E-02  0.8424940E-01
         -2   -1    0    0    0  501 -0.00000000000E+00  0.00000000000E+00  0.17704266520E+04  0.17704266520E+04  0.00000000000E+00 0.  1.
          2   -1    0    0  501    0  0.00000000000E+00 -0.00000000000E+00 -0.26336249661E+04  0.26336249661E+04  0.00000000000E+00 0. -1.
    9900016    2    1    2    0    0 -0.65875456438E+03  0.14073988314E+03  0.40815077055E+03  0.20002481368E+04  0.18386517524E+04 0.  0.
        -24    2    3    3    0    0 -0.61886017716E+03 -0.35208944669E+03  0.75520715818E+02  0.72039393759E+03  0.79430154605E+02 0.  0.
        -15    1    3    3    0    0 -0.40357758508E+03  0.62264757350E+03 -0.29610391898E+02  0.74259116832E+03  0.00000000000E+00 0.  1.
        -15    1    1    2    0    0 -0.52077450216E+02 -0.28185781826E+03 -0.29255877172E+01  0.28664341890E+03  0.00000000000E+00 0.  1.
         15    1    1    2    0    0  0.65277357285E+03 -0.32374335817E+03  0.37643329822E+02  0.72961641953E+03  0.00000000000E+00 0. -1.
         15    1    4    4    0    0 -0.36679248678E+03 -0.16620026998E+03  0.56302777804E+02  0.40660701037E+03  0.00000000000E+00 0. -1.
        -16    1    4    4    0    0 -0.25206769038E+03 -0.18588917671E+03  0.19217938015E+02  0.31378692722E+03  0.00000000000E+00 0.  1.
         16    1    1    2    0    0  0.58058441751E+02  0.46486129329E+03 -0.13060668268E+04  0.13875436428E+04  0.00000000000E+00 0. -1.
    9900018    1    3    3    0    0  0.36368319786E+03 -0.12981824368E+03  0.36224044663E+03  0.53726303089E+03  0.91187600000E+02 0.  0.
<mgrwt>
<rscale>  0 0.24392869E+04</rscale>
<asrwt>0</asrwt>
<pdfrwt beam="1">  1        2 0.40517307E+00 0.32666313E+04</pdfrwt>
<pdfrwt beam="2">  1       -2 0.27237333E+00 0.32666313E+04</pdfrwt>
<totfact> 0.11028001E-01</totfact>
</mgrwt>
</event>
<event>
11    1  0.9631391E-010  0.3023801E+04  0.7818608E-02  0.8443970E-01
          2   -1    0    0  501    0  0.00000000000E+00  0.00000000000E+00  0.19575625403E+04  0.19575625403E+04  0.00000000000E+00 0. -1.
         -2   -1    0    0    0  501 -0.00000000000E+00 -0.00000000000E+00 -0.24517422382E+04  0.24517422382E+04  0.00000000000E+00 0.  1.
    9900016    2    1    2    0    0 -0.79895184005E+02  0.40283108747E+03  0.30088608938E+03  0.18974237204E+04  0.18278479725E+04 0.  0.
         24    2    3    3    0    0  0.71821188270E+02 -0.14759453080E+03 -0.47177789578E+03  0.50587915136E+03  0.79980649057E+02 0.  0.
        -15    1    4    4    0    0  0.69526225591E+02 -0.57196660418E+02 -0.27393877822E+03  0.28835361662E+03  0.00000000000E+00 0.  1.
        -15    1    1    2    0    0  0.20381192090E+03  0.16623134758E+03 -0.11365726462E+03  0.28651375852E+03  0.00000000000E+00 0.  1.
         15    1    3    3    0    0  0.23667475166E+03  0.45668196387E+03  0.83128819714E+03  0.97755481734E+03  0.00000000000E+00 0. -1.
         15    1    1    2    0    0 -0.44387193823E+03 -0.66632949079E+03  0.53558787297E+03  0.96326094986E+03  0.00000000000E+00 0. -1.
        -16    1    1    2    0    0  0.31995520134E+03  0.97267055743E+02 -0.12169963956E+04  0.12621063497E+04  0.00000000000E+00 0.  1.
         16    1    4    4    0    0  0.22949626793E+01 -0.90397870383E+02 -0.19783911757E+03  0.21752553474E+03  0.00000000000E+00 0. -1.
    9900018    1    3    3    0    0 -0.38839112393E+03  0.93743654399E+02 -0.58624211977E+02  0.41398975170E+03  0.91187600000E+02 0.  0.
<mgrwt>
<rscale>  0 0.23881051E+04</rscale>
<asrwt>0</asrwt>
<pdfrwt beam="1">  1        2 0.30116347E+00 0.30238009E+04</pdfrwt>
<pdfrwt beam="2">  1       -2 0.37719111E+00 0.30238009E+04</pdfrwt>
<totfact> 0.60374915E-02</totfact>
</mgrwt>
</event>
<event>
11    1  0.9631391E-010  0.2828123E+04  0.7818608E-02  0.8596161E-01
          1   -1    0    0  501    0  0.00000000000E+00  0.00000000000E+00  0.13291502490E+04  0.13291502490E+04  0.00000000000E+00 0. -1.
         -1   -1    0    0    0  501 -0.00000000000E+00 -0.00000000000E+00 -0.24014078829E+04  0.24014078829E+04  0.00000000000E+00 0.  1.
    9900016    2    1    2    0    0 -0.69382908618E+03  0.35881011355E+03 -0.14146420306E+03  0.20212966708E+04  0.18588933838E+04 0.  0.
         24    2    3    3    0    0 -0.25239007865E+02 -0.44237130948E+03  0.23288449426E+02  0.45013852936E+03  0.75848274640E+02 0.  0.
        -15    1    4    4    0    0  0.15601975074E+02 -0.18071319390E+03 -0.17345965443E+02  0.18221295945E+03  0.00000000000E+00 0.  1.
        -15    1    1    2    0    0  0.29883607963E+03 -0.10477915160E+03  0.34789435922E+02  0.31857805629E+03  0.00000000000E+00 0.  1.
         15    1    3    3    0    0 -0.10977740870E+03  0.59298468786E+03 -0.58164973269E+03  0.83785340665E+03  0.00000000000E+00 0. -1.
         15    1    1    2    0    0  0.28752387156E+03  0.27421814753E+03 -0.17583116125E+03  0.43449069774E+03  0.00000000000E+00 0. -1.
        -16    1    1    2    0    0  0.10746913499E+03 -0.52824910949E+03 -0.78975170549E+03  0.95619270702E+03  0.00000000000E+00 0.  1.
         16    1    4    4    0    0 -0.40840982938E+02 -0.26165811559E+03  0.40634414869E+02  0.26792556991E+03  0.00000000000E+00 0. -1.
    9900018    1    3    3    0    0 -0.55881266962E+03  0.20819673517E+03  0.41689708020E+03  0.73330473484E+03  0.91187600000E+02 0.  0.
<mgrwt>
<rscale>  0 0.20225252E+04</rscale>
<asrwt>0</asrwt>
<pdfrwt beam="1">  1        1 0.20448465E+00 0.28281230E+04</pdfrwt>
<pdfrwt beam="2">  1       -1 0.36944737E+00 0.28281230E+04</pdfrwt>
<totfact> 0.83920698E-02</totfact>
</mgrwt>
</event>
<event>
11    1  0.9631391E-010  0.3830270E+04  0.7818608E-02  0.8039690E-01
          2   -1    0    0  501    0  0.00000000000E+00  0.00000000000E+00  0.16749062412E+04  0.16749062412E+04  0.00000000000E+00 0.  1.
         -2   -1    0    0    0  501 -0.00000000000E+00 -0.00000000000E+00 -0.21898190804E+04  0.21898190804E+04  0.00000000000E+00 0. -1.
    9900016    2    1    2    0    0 -0.32599695662E+02  0.54760949483E+03 -0.10662977998E+04  0.21964885299E+04  0.18402804039E+04 0.  0.
         24    2    3    3    0    0  0.46418223340E+03 -0.19085538900E+03 -0.11740592622E+04  0.12793406435E+04  0.80040025993E+02 0.  0.
        -15    1    4    4    0    0  0.13086752190E+03 -0.82722093745E+02 -0.29845357796E+03  0.33621985557E+03  0.00000000000E+00 0.  1.
        -15    1    1    2    0    0  0.50501449147E+02 -0.23226242712E+03 -0.56171063392E+02  0.24423640142E+03  0.00000000000E+00 0.  1.
         15    1    1    2    0    0  0.40608709105E+03 -0.44133457161E+03  0.74909292703E+03  0.95959530165E+03  0.00000000000E+00 0. -1.
         15    1    3    3    0    0 -0.38105695765E+03  0.49707083553E+03  0.48499402290E+02  0.62820061488E+03  0.00000000000E+00 0. -1.
        -16    1    1    2    0    0 -0.42398884454E+03  0.12598750390E+03 -0.14153690306E+03  0.46440508865E+03  0.00000000000E+00 0.  1.
         16    1    4    4    0    0  0.33331471151E+03 -0.10813329525E+03 -0.87560568419E+03  0.94312078794E+03  0.00000000000E+00 0. -1.
    9900018    1    3    3    0    0 -0.11572497141E+03  0.24139404830E+03  0.59262060040E+02  0.28894727152E+03  0.91187600000E+02 0.  0.
<mgrwt>
<rscale>  0 0.38302698E+04</rscale>
<asrwt>0</asrwt>
<pdfrwt beam="1">  1        2 0.25767788E+00 0.38302698E+04</pdfrwt>
<pdfrwt beam="2">  1       -2 0.33689524E+00 0.38302698E+04</pdfrwt>
<totfact> 0.15227635E-01</totfact>
</mgrwt>
</event>
<event>
11    1  0.9631391E-010  0.4356593E+04  0.7818608E-02  0.8074166E-01
          1   -1    0    0  501    0  0.00000000000E+00  0.00000000000E+00  0.44280669817E+04  0.44280669817E+04  0.00000000000E+00 0. -1.
         -1   -1    0    0    0  501 -0.00000000000E+00 -0.00000000000E+00 -0.24609991103E+04  0.24609991103E+04  0.00000000000E+00 0.  1.
    9900016    2    1    2    0    0 -0.13243313809E+03  0.54862056456E+03  0.13887125978E+04  0.23687371129E+04  0.18340855408E+04 0.  0.
         24    2    3    3    0    0  0.65257602418E+03  0.22146647248E+02  0.38716503055E+01  0.65803999297E+03  0.81582481880E+02 0.  0.
        -15    1    4    4    0    0  0.40998007876E+03 -0.19561287265E+02 -0.18552735015E+02  0.41086556550E+03  0.00000000000E+00 0.  1.
        -15    1    1    2    0    0 -0.70427365857E+03  0.33909433835E+03 -0.12517903392E+03  0.79161616140E+03  0.00000000000E+00 0.  1.
         15    1    3    3    0    0 -0.61248519205E+03  0.52620852155E+03  0.11534643701E+04  0.14080176035E+04  0.00000000000E+00 0. -1.
         15    1    1    2    0    0 -0.11084578200E+04 -0.31063978296E+03  0.11758116010E+04  0.16455116939E+04  0.00000000000E+00 0. -1.
        -16    1    1    2    0    0  0.19451646167E+04 -0.57707511995E+03 -0.47227729351E+03  0.20832011238E+04  0.00000000000E+00 0.  1.
         16    1    4    4    0    0  0.24259594542E+03  0.41707934512E+02  0.22424385320E+02  0.24717442747E+03  0.00000000000E+00 0. -1.
    9900018    1    3    3    0    0 -0.17252397022E+03  0.26539575986E+00  0.23137657739E+03  0.30267951648E+03  0.91187600000E+02 0.  0.
<mgrwt>
<rscale>  0 0.36721326E+04</rscale>
<asrwt>0</asrwt>
<pdfrwt beam="1">  1        1 0.68124107E+00 0.43565928E+04</pdfrwt>
<pdfrwt beam="2">  1       -1 0.37861525E+00 0.43565928E+04</pdfrwt>
<totfact> 0.27009990E-04</totfact>
</mgrwt>
</event>
<event>
11    1  0.9631391E-010  0.3139098E+04  0.7818608E-02  0.8205089E-01
          1   -1    0    0  501    0  0.00000000000E+00  0.00000000000E+00  0.27293502849E+04  0.27293502849E+04  0.00000000000E+00 0. -1.
         -1   -1    0    0    0  501 -0.00000000000E+00 -0.00000000000E+00 -0.90259015561E+03  0.90259015561E+03  0.00000000000E+00 0.  1.
    9900016    2    1    2    0    0  0.43787398456E+03  0.50890587248E+02  0.51826975272E+03  0.19611066802E+04  0.18392967124E+04 0.  0.
        -24    2    3    3    0    0 -0.19083374545E+03  0.66739792212E+03  0.66686692243E+03  0.96590027775E+03  0.80089634032E+02 0.  0.
        -15    1    1    2    0    0  0.29275730688E+03  0.11084252620E+02  0.32835703002E+03  0.44005458814E+03  0.00000000000E+00 0.  1.
        -15    1    3    3    0    0  0.31495569066E+03 -0.75200710643E+02  0.60185324980E+02  0.32935468313E+03  0.00000000000E+00 0.  1.
         15    1    1    2    0    0 -0.21149765343E+03 -0.34437237466E+02  0.19878094183E+03  0.29228589355E+03  0.00000000000E+00 0. -1.
         15    1    4    4    0    0 -0.11415661778E+03  0.46460727620E+03  0.50254850268E+03  0.69386356875E+03  0.00000000000E+00 0. -1.
        -16    1    4    4    0    0 -0.76677127663E+02  0.20279064592E+03  0.16431841974E+03  0.27203670900E+03  0.00000000000E+00 0.  1.
         16    1    1    2    0    0 -0.51913363801E+03 -0.27537602402E+02  0.78135240475E+03  0.93849327865E+03  0.00000000000E+00 0. -1.
    9900018    1    3    3    0    0  0.31375203935E+03 -0.54130662423E+03 -0.20878249468E+03  0.66585171931E+03  0.91187600000E+02 0.  0.
<mgrwt>
<rscale>  0 0.31390984E+04</rscale>
<asrwt>0</asrwt>
<pdfrwt beam="1">  1        1 0.41990004E+00 0.31390984E+04</pdfrwt>
<pdfrwt beam="2">  1       -1 0.13886003E+00 0.31390984E+04</pdfrwt>
<totfact> 0.33674232E-01</totfact>
</mgrwt>
</event>
<event>
11    1  0.9631391E-010  0.2767644E+04  0.7818608E-02  0.8456602E-01
         -1   -1    0    0    0  501 -0.00000000000E+00  0.00000000000E+00  0.96592103513E+03  0.96592103513E+03  0.00000000000E+00 0.  1.
          1   -1    0    0  501    0  0.00000000000E+00 -0.00000000000E+00 -0.47594281884E+04  0.47594281884E+04  0.00000000000E+00 0. -1.
    9900016    2    1    2    0    0  0.12817650447E+03  0.73452547595E+02 -0.16227620321E+04  0.24725965984E+04  0.18597184820E+04 0.  0.
         24    2    3    3    0    0 -0.58186948870E+03 -0.34694851067E+02  0.20710144470E+02  0.58912683196E+03  0.82859395855E+02 0.  0.
        -15    1    4    4    0    0 -0.25498048287E+03 -0.21673487232E+02 -0.31525769793E+02  0.25783456101E+03  0.00000000000E+00 0.  1.
        -15    1    1    2    0    0 -0.26475701981E+03  0.16397447805E+03 -0.28833588908E+03  0.42440722652E+03  0.00000000000E+00 0.  1.
         15    1    1    2    0    0  0.42344251948E+03 -0.10470352483E+04 -0.15258071000E+04  0.18983344502E+04  0.00000000000E+00 0. -1.
         15    1    3    3    0    0  0.72240903501E+03  0.46863798812E+02 -0.10230688755E+04  0.12532920464E+04  0.00000000000E+00 0. -1.
        -16    1    1    2    0    0 -0.28686200413E+03  0.80960822265E+03 -0.35660213208E+03  0.93001094843E+03  0.00000000000E+00 0.  1.
         16    1    4    4    0    0 -0.32688900583E+03 -0.13021363836E+02  0.52235914263E+02  0.33129227095E+03  0.00000000000E+00 0. -1.
    9900018    1    3    3    0    0 -0.12363041840E+02  0.61283599850E+02 -0.62040330111E+03  0.63017772004E+03  0.91187600000E+02 0.  0.
<mgrwt>
<rscale>  0 0.23548530E+04</rscale>
<asrwt>0</asrwt>
<pdfrwt beam="1">  1        1 0.73221972E+00 0.27676444E+04</pdfrwt>
<pdfrwt beam="2">  1       -1 0.14860324E+00 0.27676444E+04</pdfrwt>
<totfact> 0.50757288E-03</totfact>
</mgrwt>
</event>
<event>
11    1  0.9631391E-010  0.4288267E+04  0.7818608E-02  0.8053853E-01
          2   -1    0    0  501    0  0.00000000000E+00  0.00000000000E+00  0.41839223429E+04  0.41839223429E+04  0.00000000000E+00 0. -1.
         -2   -1    0    0    0  501 -0.00000000000E+00 -0.00000000000E+00 -0.39744178681E+04  0.39744178681E+04  0.00000000000E+00 0.  1.
    9900016    2    1    2    0    0  0.11889524196E+04 -0.45733653738E+03  0.80051250069E+03  0.23827729427E+04  0.18477072463E+04 0.  0.
        -24    2    3    3    0    0  0.97661675996E+03 -0.33658173812E+03  0.75829180831E+03  0.12839573416E+04  0.80451389870E+02 0.  0.
        -15    1    3    3    0    0  0.33484729000E+03 -0.53565622984E+03  0.13762466321E+03  0.64652212036E+03  0.00000000000E+00 0.  1.
        -15    1    1    2    0    0  0.13798910816E+04  0.84986636536E+03 -0.16493079834E+04  0.23122692447E+04  0.00000000000E+00 0.  1.
         15    1    1    2    0    0 -0.60399106213E+03 -0.63605166446E+03 -0.43912255547E+03  0.98091566494E+03  0.00000000000E+00 0. -1.
         15    1    4    4    0    0  0.37383287553E+03 -0.15673223706E+03  0.26136440318E+03  0.48231459050E+03  0.00000000000E+00 0. -1.
        -16    1    4    4    0    0  0.60278388443E+03 -0.17984950106E+03  0.49692740513E+03  0.80164275106E+03  0.00000000000E+00 0.  1.
         16    1    1    2    0    0 -0.19648524390E+04  0.24352183648E+03  0.14974225130E+04  0.24823823586E+04  0.00000000000E+00 0. -1.
    9900018    1    3    3    0    0 -0.12251163037E+03  0.41490143059E+03 -0.95403970834E+02  0.45229348074E+03  0.91187600000E+02 0.  0.
<mgrwt>
<rscale>  0 0.37643304E+04</rscale>
<asrwt>0</asrwt>
<pdfrwt beam="1">  1        2 0.64368036E+00 0.42882666E+04</pdfrwt>
<pdfrwt beam="2">  1       -2 0.61144891E+00 0.42882666E+04</pdfrwt>
<totfact> 0.76539953E-05</totfact>
</mgrwt>
</event>
<event>
11    1  0.9631391E-010  0.2385758E+04  0.7818608E-02  0.8702790E-01
         -2   -1    0    0    0  501 -0.00000000000E+00  0.00000000000E+00  0.78955293977E+03  0.78955293977E+03  0.00000000000E+00 0. -1.
          2   -1    0    0  501    0  0.00000000000E+00 -0.00000000000E+00 -0.32055486607E+04  0.32055486607E+04  0.00000000000E+00 0.  1.
    9900016    2    1    2    0    0 -0.16310275459E+03 -0.40161664596E+03 -0.18614313210E+04  0.26564121499E+04  0.18449120599E+04 0.  0.
        -24    2    3    3    0    0  0.21969681643E+02 -0.84291446939E+03 -0.16153557651E+04  0.18240070370E+04  0.81485910259E+02 0.  0.
        -15    1    1    2    0    0  0.46560038633E+03  0.42358438793E+03 -0.42958902714E+03  0.76207229689E+03  0.00000000000E+00 0.  1.
        -15    1    3    3    0    0 -0.23496275988E+03  0.52421471241E+03 -0.34190057173E+03  0.66850921024E+03  0.00000000000E+00 0.  1.
         15    1    1    2    0    0  0.11239045824E+03 -0.87866842889E+02 -0.25708637843E+02  0.14495906747E+03  0.00000000000E+00 0. -1.
         15    1    4    4    0    0  0.72674749588E+01 -0.54722569143E+02 -0.15372564679E+03  0.16333692248E+03  0.00000000000E+00 0. -1.
        -16    1    4    4    0    0  0.14702206684E+02 -0.78819190025E+03 -0.14616301183E+04  0.16606701145E+04  0.00000000000E+00 0.  1.
         16    1    1    2    0    0 -0.41488808998E+03  0.65899100924E+02 -0.99266734984E+02  0.43165808620E+03  0.00000000000E+00 0. -1.
    9900018    1    3    3    0    0  0.49890323651E+02 -0.82916888976E+02  0.95825015819E+02  0.16389590270E+03  0.91187600000E+02 0.  0.
<mgrwt>
<rscale>  0 0.18066139E+04</rscale>
<asrwt>0</asrwt>
<pdfrwt beam="1">  1        2 0.49316133E+00 0.23857579E+04</pdfrwt>
<pdfrwt beam="2">  1       -2 0.12146968E+00 0.23857579E+04</pdfrwt>
<totfact> 0.58502799E-01</totfact>
</mgrwt>
</event>
<event>
11    1  0.9631391E-010  0.3050322E+04  0.7818608E-02  0.8474491E-01
         -1   -1    0    0    0  501 -0.00000000000E+00  0.00000000000E+00  0.16177774849E+04  0.16177774849E+04  0.00000000000E+00 0.  1.
          1   -1    0    0  501    0  0.00000000000E+00 -0.00000000000E+00 -0.26708810743E+04  0.26708810743E+04  0.00000000000E+00 0. -1.
    9900016    2    1    2    0    0 -0.18024536816E+03  0.51260562999E+03 -0.80398836340E+03  0.20796488438E+04  0.18393719310E+04 0.  0.
         24    2    3    3    0    0 -0.45159391156E+03  0.10261281708E+04 -0.81410349874E+03  0.13877677751E+04  0.79112623408E+02 0.  0.
        -15    1    4    4    0    0 -0.20597341189E+03  0.39195128521E+03 -0.35029526833E+03  0.56458624797E+03  0.00000000000E+00 0.  1.
        -15    1    1    2    0    0  0.15010852776E+03 -0.21001187578E+03 -0.12108004378E+03  0.28512792757E+03  0.00000000000E+00 0.  1.
         15    1    1    2    0    0 -0.71369536055E+03  0.18147294987E+03 -0.57114885918E+03  0.93193589831E+03  0.00000000000E+00 0. -1.
         15    1    3    3    0    0  0.25072629925E+02 -0.26380088380E+03 -0.13991634087E+03  0.29966001653E+03  0.00000000000E+00 0. -1.
        -16    1    1    2    0    0  0.74383220094E+03 -0.48406670408E+03  0.44311367693E+03  0.99194588957E+03  0.00000000000E+00 0.  1.
         16    1    4    4    0    0 -0.24562049967E+03  0.63417688555E+03 -0.46380823042E+03  0.82318152714E+03  0.00000000000E+00 0. -1.
    9900018    1    3    3    0    0  0.24627591348E+03 -0.24972165696E+03  0.15003147621E+03  0.39222105216E+03  0.91187600000E+02 0.  0.
<mgrwt>
<rscale>  0 0.23087194E+04</rscale>
<asrwt>0</asrwt>
<pdfrwt beam="1">  1        1 0.41090478E+00 0.30503219E+04</pdfrwt>
<pdfrwt beam="2">  1       -1 0.24888885E+00 0.30503219E+04</pdfrwt>
<totfact> 0.59798353E-02</totfact>
</mgrwt>
</event>
<event>
11    1  0.9631391E-010  0.3137202E+04  0.7818608E-02  0.8205602E-01
          2   -1    0    0  501    0  0.00000000000E+00  0.00000000000E+00  0.21452838506E+04  0.21452838506E+04  0.00000000000E+00 0. -1.
         -2   -1    0    0    0  501 -0.00000000000E+00 -0.00000000000E+00 -0.11469384922E+04  0.11469384922E+04  0.00000000000E+00 0.  1.
    9900016    2    1    2    0    0 -0.17585966470E+03  0.17199697363E+03  0.14763727722E+03  0.18720730963E+04  0.18499598189E+04 0.  0.
        -24    2    3    3    0    0  0.63963397790E+03  0.15486182574E+03 -0.33699763335E+03  0.74371069161E+03  0.80152212486E+02 0.  0.
        -15    1    1    2    0    0 -0.24108293767E+02 -0.32576583373E+03 -0.27387165745E+02  0.32780275334E+03  0.00000000000E+00 0.  1.
        -15    1    3    3    0    0 -0.48259042390E+03  0.24096882900E+03  0.69414364299E+02  0.54385462006E+03  0.00000000000E+00 0.  1.
         15    1    4    4    0    0  0.19332316860E+03  0.68520821266E+02 -0.13965540020E+03  0.24813823017E+03  0.00000000000E+00 0. -1.
         15    1    1    2    0    0 -0.12191752766E+03  0.23837739531E+03  0.60580178673E+03  0.66233184353E+03  0.00000000000E+00 0. -1.
        -16    1    4    4    0    0  0.44631080930E+03  0.86341004473E+02 -0.19734223315E+03  0.49557246144E+03  0.00000000000E+00 0.  1.
         16    1    1    2    0    0  0.32188548613E+03 -0.84608535205E+02  0.27229346022E+03  0.43001464962E+03  0.00000000000E+00 0. -1.
    9900018    1    3    3    0    0 -0.33290321870E+03 -0.22383368111E+03  0.41522054628E+03  0.58450778461E+03  0.91187600000E+02 0.  0.
<mgrwt>
<rscale>  0 0.31372017E+04</rscale>
<asrwt>0</asrwt>
<pdfrwt beam="1">  1        2 0.33004367E+00 0.31372017E+04</pdfrwt>
<pdfrwt beam="2">  1       -2 0.17645208E+00 0.31372017E+04</pdfrwt>
<totfact> 0.90042958E-01</totfact>
</mgrwt>
</event>
<event>
11    1  0.9631391E-010  0.2633039E+04  0.7818608E-02  0.8618401E-01
          2   -1    0    0  501    0  0.00000000000E+00  0.00000000000E+00  0.23825583687E+04  0.23825583687E+04  0.00000000000E+00 0. -1.
         -2   -1    0    0    0  501 -0.00000000000E+00 -0.00000000000E+00 -0.13387488151E+04  0.13387488151E+04  0.00000000000E+00 0.  1.
    9900016    2    1    2    0    0  0.88710564626E+02 -0.10371943603E+03  0.18860967418E+03  0.18600339254E+04  0.18454065429E+04 0.  0.
         24    2    3    3    0    0 -0.25866128853E+03 -0.32843644242E+03 -0.64056831030E+03  0.76925202349E+03  0.81515376336E+02 0.  0.
        -15    1    1    2    0    0 -0.25140872858E+03 -0.17325885439E+03  0.17405731345E+03  0.35145544212E+03  0.00000000000E+00 0.  1.
        -15    1    4    4    0    0 -0.97237522203E+02 -0.18414917942E+03 -0.34269737640E+03  0.40100816425E+03  0.00000000000E+00 0.  1.
         15    1    3    3    0    0  0.38260689689E+03 -0.48815157208E+02  0.30589786423E+03  0.49228493829E+03  0.00000000000E+00 0. -1.
         15    1    1    2    0    0  0.14798296389E+03 -0.49895977379E+03  0.48023613833E+03  0.70815715912E+03  0.00000000000E+00 0. -1.
        -16    1    1    2    0    0  0.14715200063E+02  0.77593806421E+03  0.20090642759E+03  0.80166065717E+03  0.00000000000E+00 0.  1.
         16    1    4    4    0    0 -0.16142376633E+03 -0.14428726300E+03 -0.29787093390E+03  0.36824385924E+03  0.00000000000E+00 0. -1.
    9900018    1    3    3    0    0 -0.35235043735E+02  0.27353216359E+03  0.52328012026E+03  0.59849696363E+03  0.91187600000E+02 0.  0.
<mgrwt>
<rscale>  0 0.19749950E+04</rscale>
<asrwt>0</asrwt>
<pdfrwt beam="1">  1        2 0.36654744E+00 0.26330392E+04</pdfrwt>
<pdfrwt beam="2">  1       -2 0.20596136E+00 0.26330392E+04</pdfrwt>
<totfact> 0.42397484E-01</totfact>
</mgrwt>
</event>
<event>
11    1  0.9631391E-010  0.3556885E+04  0.7818608E-02  0.8301447E-01
          1   -1    0    0  501    0  0.00000000000E+00  0.00000000000E+00  0.18405293776E+04  0.18405293776E+04  0.00000000000E+00 0. -1.
         -1   -1    0    0    0  501 -0.00000000000E+00 -0.00000000000E+00 -0.34139292018E+04  0.34139292018E+04  0.00000000000E+00 0.  1.
    9900016    2    1    2    0    0 -0.69230908911E+03 -0.18995503466E+03  0.24159824214E+03  0.19935666286E+04  0.18440616590E+04 0.  0.
         24    2    3    3    0    0 -0.18672292113E+03 -0.71304637822E+03 -0.35626434902E+03  0.82259914725E+03  0.80277542960E+02 0.  0.
        -15    1    4    4    0    0 -0.36549569597E+02 -0.27556287388E+03 -0.15380390657E+03  0.31768917227E+03  0.00000000000E+00 0.  1.
        -15    1    1    2    0    0  0.41025930246E+03 -0.14096004623E+03 -0.40747170880E+03  0.59516016614E+03  0.00000000000E+00 0.  1.
         15    1    1    2    0    0  0.67414401926E+03 -0.12926354344E+03  0.37590593964E+03  0.78261388809E+03  0.00000000000E+00 0. -1.
         15    1    3    3    0    0 -0.31930625575E+03  0.20021253930E+03  0.68098096426E+03  0.77831652914E+03  0.00000000000E+00 0. -1.
        -16    1    1    2    0    0 -0.39209423261E+03  0.46017862433E+03 -0.17834322972E+04  0.18831178966E+04  0.00000000000E+00 0.  1.
         16    1    4    4    0    0 -0.15017335153E+03 -0.43748350434E+03 -0.20246044245E+03  0.50490997498E+03  0.00000000000E+00 0. -1.
    9900018    1    3    3    0    0 -0.18627991224E+03  0.32287880426E+03 -0.83118373103E+02  0.39265095223E+03  0.91187600000E+02 0.  0.
<mgrwt>
<rscale>  0 0.28058753E+04</rscale>
<asrwt>0</asrwt>
<pdfrwt beam="1">  1        1 0.28315837E+00 0.35568850E+04</pdfrwt>
<pdfrwt beam="2">  1       -1 0.52521987E+00 0.35568850E+04</pdfrwt>
<totfact> 0.30857006E-03</totfact>
</mgrwt>
</event>
