<event>
10    1  0.7415622E-013  0.2669924E+04  0.7818608E-02  0.8344830E-01
          2   -1    0    0  501    0  0.00000000000E+00  0.00000000000E+00  0.18637945333E+04  0.18637945333E+04  0.00000000000E+00 0.  1.
         -2   -1    0    0    0  501 -0.00000000000E+00 -0.00000000000E+00 -0.95618061255E+03  0.95618061255E+03  0.00000000000E+00 0. -1.
    9900016    2    1    2    0    0  0.37126510712E+03 -0.11642889462E+03  0.72600532751E+03  0.22983648158E+04  0.21456942056E+04 0.  0.
        -15    1    3    3    0    0 -0.42280463050E+03  0.42286186083E+03 -0.17795982387E+03  0.62389551034E+03  0.00000000000E+00 0.  1.
        -15    1    3    3    0    0  0.23309021801E+03  0.82903565791E+02  0.54895554635E+03  0.60212643425E+03  0.00000000000E+00 0.  1.
         15    1    3    3    0    0  0.85611710139E+02  0.69144850515E+02 -0.71283187756E+02  0.13111700165E+03  0.00000000000E+00 0. -1.
         15    1    3    3    0    0  0.46544647429E+03 -0.67329489254E+03  0.41736593076E+03  0.91878221190E+03  0.00000000000E+00 0. -1.
        -16    1    3    3    0    0  0.99213351835E+01 -0.18044279210E+02  0.89268620204E+01  0.22443657669E+02  0.00000000000E+00 0.  1.
         16    1    1    2    0    0 -0.37316092278E+03  0.62544562603E+02  0.17078154517E+03  0.41512315374E+03  0.00000000000E+00 0. -1.
    9900018    1    1    2    0    0  0.18958156529E+01  0.53884332016E+02  0.10827048097E+02  0.10648717631E+03  0.91187600000E+02 0.  0.
<mgrwt>
<rscale>  0 0.26699245E+04</rscale>
<asrwt>0</asrwt>
<pdfrwt beam="1">  1        2 0.28673762E+00 0.26699245E+04</pdfrwt>
<pdfrwt beam="2">  1       -2 0.14710471E+00 0.26699245E+04</pdfrwt>
<totfact> 0.22068638E+00</totfact>
</mgrwt>
</event>
<event>
11    1  0.7415622E-013  0.3145537E+04  0.7818608E-02  0.8203351E-01
         -2   -1    0    0    0  501 -0.00000000000E+00  0.00000000000E+00  0.90020440998E+03  0.90020440998E+03  0.00000000000E+00 0.  1.
          2   -1    0    0  501    0  0.00000000000E+00 -0.00000000000E+00 -0.27478211107E+04  0.27478211107E+04  0.00000000000E+00 0. -1.
    9900016    2    1    2    0    0 -0.63669363527E+03 -0.27148652381E+03 -0.97411924679E+03  0.24609578159E+04  0.21513533756E+04 0.  0.
        -24    2    3    3    0    0 -0.20154645587E+03  0.36842867197E+03  0.51311335273E+02  0.43276784230E+03  0.91074101694E+02 0.  0.
        -15    1    3    3    0    0  0.13046454929E+03 -0.65575623580E+03 -0.86024403208E+03  0.10895214702E+04  0.00000000000E+00 0.  1.
        -15    1    3    3    0    0 -0.27180242343E+03 -0.31694018357E+03  0.89308583097E+02  0.42697032726E+03  0.00000000000E+00 0.  1.
         15    1    4    4    0    0 -0.56521787483E+02  0.18272345252E+03  0.47666334726E+02  0.19711583403E+03  0.00000000000E+00 0. -1.
         15    1    3    3    0    0 -0.29380930527E+03  0.33278122358E+03 -0.25449513309E+03  0.51169817607E+03  0.00000000000E+00 0. -1.
        -16    1    4    4    0    0 -0.14502466838E+03  0.18570521946E+03  0.36450005472E+01  0.23565200827E+03  0.00000000000E+00 0.  1.
         16    1    1    2    0    0  0.63536586493E+03  0.30727176305E+03 -0.77277506775E+03  0.10465596132E+04  0.00000000000E+00 0. -1.
    9900018    1    1    2    0    0  0.13277703404E+01 -0.35785239241E+02 -0.10072238613E+03  0.14050809152E+03  0.91187600000E+02 0.  0.
<mgrwt>
<rscale>  0 0.31455370E+04</rscale>
<asrwt>0</asrwt>
<pdfrwt beam="1">  1        2 0.42274171E+00 0.31455370E+04</pdfrwt>
<pdfrwt beam="2">  1       -2 0.13849299E+00 0.31455370E+04</pdfrwt>
<totfact> 0.77648949E-01</totfact>
</mgrwt>
</event>
<event>
10    1  0.7415622E-013  0.3094924E+04  0.7818608E-02  0.8217132E-01
         -2   -1    0    0    0  501 -0.00000000000E+00  0.00000000000E+00  0.80134687299E+03  0.80134687299E+03  0.00000000000E+00 0.  1.
          2   -1    0    0  501    0  0.00000000000E+00 -0.00000000000E+00 -0.29882675547E+04  0.29882675547E+04  0.00000000000E+00 0. -1.
    9900016    2    1    2    0    0 -0.23168835489E+03  0.50523443272E+03 -0.21303616278E+04  0.30746781107E+04  0.21462207467E+04 0.  0.
        -15    1    3    3    0    0  0.90773191370E+02 -0.22045251738E+03 -0.56792923483E+03  0.61594050076E+03  0.00000000000E+00 0.  1.
        -15    1    3    3    0    0 -0.33431005032E+02  0.25596115702E+02 -0.99095966363E+02  0.10766988337E+03  0.00000000000E+00 0.  1.
         15    1    3    3    0    0  0.34856601930E+03 -0.12619544924E+03 -0.13315466980E+03  0.39389557920E+03  0.00000000000E+00 0. -1.
         15    1    3    3    0    0  0.18645865887E+03  0.50633205464E+03 -0.62998328864E+03  0.82946845931E+03  0.00000000000E+00 0. -1.
        -16    1    1    2    0    0  0.28685442594E+03 -0.47448162146E+03  0.55545981963E+02  0.55722852305E+03  0.00000000000E+00 0.  1.
         16    1    3    3    0    0 -0.82405521941E+03  0.31995422901E+03 -0.70019846811E+03  0.11277036880E+04  0.00000000000E+00 0. -1.
    9900018    1    1    2    0    0 -0.55166071051E+02 -0.30752811261E+02 -0.11210503589E+03  0.15770779391E+03  0.91187600000E+02 0.  0.
<mgrwt>
<rscale>  0 0.30949241E+04</rscale>
<asrwt>0</asrwt>
<pdfrwt beam="1">  1        2 0.45973347E+00 0.30949241E+04</pdfrwt>
<pdfrwt beam="2">  1       -2 0.12328414E+00 0.30949241E+04</pdfrwt>
<totfact> 0.74615906E-01</totfact>
</mgrwt>
</event>
<event>
10    1  0.7415622E-013  0.4075934E+04  0.7818608E-02  0.7989401E-01
         -2   -1    0    0    0  501 -0.00000000000E+00  0.00000000000E+00  0.11501514538E+04  0.11501514538E+04  0.00000000000E+00 0.  1.
          2   -1    0    0  501    0  0.00000000000E+00 -0.00000000000E+00 -0.36110984949E+04  0.36110984949E+04  0.00000000000E+00 0. -1.
    9900016    2    1    2    0    0  0.31303008005E+03  0.62167054679E+03 -0.30469299093E+04  0.38513939043E+04  0.22505534951E+04 0.  0.
        -15    1    3    3    0    0  0.65896849643E+02 -0.77004130004E+02 -0.15865505845E+03  0.18826433120E+03  0.00000000000E+00 0.  1.
        -15    1    3    3    0    0 -0.48638845690E+03  0.45700850574E+03 -0.37245871984E+03  0.76430099000E+03  0.00000000000E+00 0.  1.
         15    1    3    3    0    0 -0.37654308745E+02  0.76902450765E+02  0.55483797858E+02  0.10203080773E+03  0.00000000000E+00 0. -1.
         15    1    3    3    0    0  0.59195374537E+03  0.32879278850E+03 -0.19510988513E+04  0.20652604344E+04  0.00000000000E+00 0. -1.
        -16    1    1    2    0    0 -0.31303008005E+03 -0.62167054679E+03  0.58598286813E+03  0.90985604439E+03  0.00000000000E+00 0.  1.
         16    1    3    3    0    0  0.15354951590E+03 -0.22641280774E+03 -0.41459241895E+03  0.49671630454E+03  0.00000000000E+00 0. -1.
    9900018    1    3    3    0    0  0.25672734773E+02  0.62383739516E+02 -0.20560865862E+03  0.23482103645E+03  0.91187600000E+02 0.  0.
<mgrwt>
<rscale>  0 0.40759343E+04</rscale>
<asrwt>0</asrwt>
<pdfrwt beam="1">  1        2 0.55555361E+00 0.40759343E+04</pdfrwt>
<pdfrwt beam="2">  1       -2 0.17694638E+00 0.40759343E+04</pdfrwt>
<totfact> 0.10096864E-01</totfact>
</mgrwt>
</event>
<event>
11    1  0.7415622E-013  0.2643027E+04  0.7818608E-02  0.8353731E-01
         -2   -1    0    0    0  501 -0.00000000000E+00  0.00000000000E+00  0.16156180344E+04  0.16156180344E+04  0.00000000000E+00 0. -1.
          2   -1    0    0  501    0  0.00000000000E+00 -0.00000000000E+00 -0.10809476065E+04  0.10809476065E+04  0.00000000000E+00 0.  1.
    9900016    2    1    2    0    0  0.10499529451E+03 -0.51559321159E+02  0.81479987355E+03  0.23929954154E+04  0.22469636955E+04 0.  0.
         24    2    3    3    0    0  0.24513724339E+03  0.55250259466E+03 -0.12683438038E+03  0.62009794418E+03  0.55525805931E+02 0.  0.
        -15    1    3    3    0    0 -0.24574805387E+03 -0.29909986301E+03  0.15612065827E+03  0.41740447287E+03  0.00000000000E+00 0.  1.
        -15    1    4    4    0    0  0.19048402536E+03  0.43993499335E+03 -0.12288619120E+03  0.49490198856E+03  0.00000000000E+00 0.  1.
         15    1    3    3    0    0  0.23669498415E+03 -0.62166110482E+03  0.64586052880E+03  0.92715849100E+03  0.00000000000E+00 0. -1.
         15    1    3    3    0    0 -0.12256928481E+03  0.28035049218E+03  0.97169664338E+02  0.32103204157E+03  0.00000000000E+00 0. -1.
        -16    1    1    2    0    0 -0.10499529451E+03  0.51559321159E+02 -0.28012944568E+03  0.30357022549E+03  0.00000000000E+00 0.  1.
         16    1    4    4    0    0  0.54653218030E+02  0.11256760131E+03 -0.39481891795E+01  0.12519595562E+03  0.00000000000E+00 0. -1.
    9900018    1    3    3    0    0 -0.85195943503E+01  0.36348559819E+02  0.42483402520E+02  0.10730246583E+03  0.91187600000E+02 0.  0.
<mgrwt>
<rscale>  0 0.26430274E+04</rscale>
<asrwt>0</asrwt>
<pdfrwt beam="1">  1        2 0.16629963E+00 0.26430274E+04</pdfrwt>
<pdfrwt beam="2">  1       -2 0.24855662E+00 0.26430274E+04</pdfrwt>
<totfact> 0.12941731E+00</totfact>
</mgrwt>
</event>
<event>
10    1  0.7415622E-013  0.2751160E+04  0.7818608E-02  0.8318594E-01
         -1   -1    0    0    0  501 -0.00000000000E+00  0.00000000000E+00  0.11946330576E+04  0.11946330576E+04  0.00000000000E+00 0.  1.
          1   -1    0    0  501    0  0.00000000000E+00 -0.00000000000E+00 -0.15839347921E+04  0.15839347921E+04  0.00000000000E+00 0. -1.
    9900016    2    1    2    0    0 -0.43873125937E+03  0.18163369652E+02 -0.16100778787E+03  0.22073053480E+04  0.21571876056E+04 0.  0.
        -15    1    3    3    0    0 -0.28035019341E+02  0.15103846828E+03  0.62092159043E+03  0.63964224585E+03  0.00000000000E+00 0.  1.
        -15    1    3    3    0    0 -0.36204075928E+02 -0.76398391557E+02  0.61374387204E+02  0.10447135852E+03  0.00000000000E+00 0.  1.
         15    1    3    3    0    0  0.24349102822E+03  0.16040906567E+03  0.10481067481E+03  0.30984548847E+03  0.00000000000E+00 0. -1.
         15    1    3    3    0    0 -0.43791657081E+03 -0.13009350226E+03 -0.65910867724E+03  0.80194731169E+03  0.00000000000E+00 0. -1.
        -16    1    3    3    0    0 -0.18006662150E+03 -0.86792270492E+02 -0.28900576308E+03  0.35139894350E+03  0.00000000000E+00 0.  1.
         16    1    1    2    0    0  0.41684902067E+03  0.47388043799E+01 -0.22710363397E+03  0.47472267995E+03  0.00000000000E+00 0. -1.
    9900018    1    1    2    0    0  0.21882238696E+02 -0.22902174032E+02 -0.11903126057E+01  0.96539821750E+02  0.91187600000E+02 0.  0.
<mgrwt>
<rscale>  0 0.27511604E+04</rscale>
<asrwt>0</asrwt>
<pdfrwt beam="1">  1        1 0.24368227E+00 0.27511604E+04</pdfrwt>
<pdfrwt beam="2">  1       -1 0.18378970E+00 0.27511604E+04</pdfrwt>
<totfact> 0.97292084E-01</totfact>
</mgrwt>
</event>
<event>
11    1  0.7415622E-013  0.3261431E+04  0.7818608E-02  0.8172779E-01
         -1   -1    0    0    0  501 -0.00000000000E+00  0.00000000000E+00  0.15296389784E+04  0.15296389784E+04  0.00000000000E+00 0.  1.
          1   -1    0    0  501    0  0.00000000000E+00 -0.00000000000E+00 -0.17384706135E+04  0.17384706135E+04  0.00000000000E+00 0. -1.
    9900016    2    1    2    0    0 -0.28849277798E+03  0.56219979278E+03 -0.72743171352E+03  0.24506484423E+04  0.22532696687E+04 0.  0.
         24    2    3    3    0    0  0.40865676996E+03 -0.45342299932E+03  0.19766337939E+03  0.64898034483E+03  0.97528993030E+02 0.  0.
        -15    1    4    4    0    0  0.21304281536E+03 -0.30647991638E+03  0.12817056118E+03  0.39464524965E+03  0.00000000000E+00 0.  1.
        -15    1    3    3    0    0  0.12304769771E+03  0.91238560360E+02 -0.13590966789E+03  0.20478439548E+03  0.00000000000E+00 0.  1.
         15    1    3    3    0    0 -0.56762190046E+02 -0.14031100801E+02 -0.90887838632E+02  0.10807135245E+03  0.00000000000E+00 0. -1.
         15    1    3    3    0    0 -0.80388202259E+03  0.89628983901E+03 -0.66552564856E+03  0.13756766228E+04  0.00000000000E+00 0. -1.
        -16    1    1    2    0    0  0.28849277798E+03 -0.56219979278E+03  0.51860007838E+03  0.81746114968E+03  0.00000000000E+00 0.  1.
         16    1    4    4    0    0  0.19561395459E+03 -0.14694308295E+03  0.69492818203E+02  0.25433509518E+03  0.00000000000E+00 0. -1.
    9900018    1    3    3    0    0  0.40446966990E+02  0.42125493532E+02 -0.32771937835E+02  0.11313572666E+03  0.91187600000E+02 0.  0.
<mgrwt>
<rscale>  0 0.32614306E+04</rscale>
<asrwt>0</asrwt>
<pdfrwt beam="1">  1        1 0.26745701E+00 0.32614306E+04</pdfrwt>
<pdfrwt beam="2">  1       -1 0.23532908E+00 0.32614306E+04</pdfrwt>
<totfact> 0.32499379E-01</totfact>
</mgrwt>
</event>
<event>
11    1  0.7415622E-013  0.2569292E+04  0.7818608E-02  0.8378707E-01
          2   -1    0    0  501    0  0.00000000000E+00  0.00000000000E+00  0.21259092954E+04  0.21259092954E+04  0.00000000000E+00 0.  1.
         -2   -1    0    0    0  501 -0.00000000000E+00 -0.00000000000E+00 -0.77628684163E+03  0.77628684163E+03  0.00000000000E+00 0. -1.
    9900016    2    1    2    0    0 -0.29636023015E+03 -0.59725514713E+02  0.11891068642E+04  0.25599071106E+04  0.22467204448E+04 0.  0.
        -24    2    3    3    0    0 -0.40384130870E+03 -0.14960176509E+03  0.36781384981E+03  0.57056740012E+03  0.69221667396E+02 0.  0.
        -15    1    3    3    0    0  0.41439631240E+03 -0.15919336828E+03  0.45552280479E+03  0.63605648956E+03  0.00000000000E+00 0.  1.
        -15    1    3    3    0    0 -0.56958971980E+03 -0.22834328027E+03  0.92103600427E+02  0.62052894836E+03  0.00000000000E+00 0.  1.
         15    1    3    3    0    0  0.23879054140E+03  0.52180662100E+03  0.21248620864E+03  0.61192602596E+03  0.00000000000E+00 0. -1.
         15    1    4    4    0    0 -0.24148804947E+03 -0.11388734805E+03  0.25836840391E+03  0.37153874391E+03  0.00000000000E+00 0. -1.
        -16    1    4    4    0    0 -0.16235325923E+03 -0.35714417042E+02  0.10944544590E+03  0.19902865621E+03  0.00000000000E+00 0.  1.
         16    1    1    2    0    0  0.29636023015E+03  0.59725514713E+02  0.16051558952E+03  0.34228902641E+03  0.00000000000E+00 0. -1.
    9900018    1    3    3    0    0  0.23883944555E+02 -0.44393722079E+02  0.61180400530E+02  0.12082824657E+03  0.91187600000E+02 0.  0.
<mgrwt>
<rscale>  0 0.25692921E+04</rscale>
<asrwt>0</asrwt>
<pdfrwt beam="1">  1        2 0.32706297E+00 0.25692921E+04</pdfrwt>
<pdfrwt beam="2">  1       -2 0.11942875E+00 0.25692921E+04</pdfrwt>
<totfact> 0.27078511E+00</totfact>
</mgrwt>
</event>
<event>
10    1  0.7415622E-013  0.3661878E+04  0.7818608E-02  0.8076463E-01
         -2   -1    0    0    0  501 -0.00000000000E+00  0.00000000000E+00  0.17841154221E+04  0.17841154221E+04  0.00000000000E+00 0.  1.
          2   -1    0    0  501    0  0.00000000000E+00 -0.00000000000E+00 -0.18789919301E+04  0.18789919301E+04  0.00000000000E+00 0. -1.
    9900016    2    1    2    0    0  0.10054641446E+04  0.29331869986E+03 -0.35433961212E+03  0.24310680232E+04  0.21650730165E+04 0.  0.
        -15    1    3    3    0    0  0.83976830765E+03  0.56421012959E+02 -0.19561323106E+03  0.86409413689E+03  0.00000000000E+00 0.  1.
        -15    1    3    3    0    0 -0.24476263268E+03  0.15039067426E+03 -0.22859675345E+03  0.36712746689E+03  0.00000000000E+00 0.  1.
         15    1    3    3    0    0  0.35422852545E+03 -0.25355515139E+03  0.33594505354E+03  0.55011557153E+03  0.00000000000E+00 0. -1.
         15    1    3    3    0    0 -0.17475431459E+03  0.31159674576E+03 -0.19149368568E+03  0.40534113299E+03  0.00000000000E+00 0. -1.
        -16    1    1    2    0    0 -0.10528917619E+04 -0.31373630035E+03  0.25069766522E+03  0.11268810265E+04  0.00000000000E+00 0.  1.
         16    1    3    3    0    0  0.23098425878E+03  0.28465418275E+02 -0.74580995455E+02  0.24438971485E+03  0.00000000000E+00 0. -1.
    9900018    1    1    2    0    0  0.47427617293E+02  0.20417600490E+02  0.87654389348E+01  0.10515830260E+03  0.91187600000E+02 0.  0.
<mgrwt>
<rscale>  0 0.36618785E+04</rscale>
<asrwt>0</asrwt>
<pdfrwt beam="1">  1        2 0.28907568E+00 0.36618785E+04</pdfrwt>
<pdfrwt beam="2">  1       -2 0.27447929E+00 0.36618785E+04</pdfrwt>
<totfact> 0.28786734E-01</totfact>
</mgrwt>
</event>
<event>
10    1  0.7415622E-013  0.3213605E+04  0.7818608E-02  0.8185233E-01
         -2   -1    0    0    0  501 -0.00000000000E+00  0.00000000000E+00  0.13131652924E+04  0.13131652924E+04  0.00000000000E+00 0.  1.
          2   -1    0    0  501    0  0.00000000000E+00 -0.00000000000E+00 -0.19661001744E+04  0.19661001744E+04  0.00000000000E+00 0. -1.
    9900016    2    1    2    0    0  0.26353404220E+03 -0.29149071887E+02  0.27955318157E+03  0.21876581296E+04  0.21534619223E+04 0.  0.
        -15    1    3    3    0    0 -0.51688572141E+03 -0.25699944767E+02  0.77925463190E+02  0.52335811255E+03  0.00000000000E+00 0.  1.
        -15    1    3    3    0    0  0.50235665328E+03  0.34041939339E+03 -0.45104960941E+03  0.75610404088E+03  0.00000000000E+00 0.  1.
         15    1    3    3    0    0 -0.17195041082E+02 -0.26168019643E+03  0.11158876738E+03  0.28499868008E+03  0.00000000000E+00 0. -1.
         15    1    3    3    0    0  0.23383950261E+03 -0.55539830094E+02  0.39282535333E+03  0.46051855980E+03  0.00000000000E+00 0. -1.
        -16    1    3    3    0    0  0.61418648813E+02 -0.26648493986E+02  0.14826320708E+03  0.16267873625E+03  0.00000000000E+00 0.  1.
         16    1    1    2    0    0 -0.29051072196E+03 -0.22914373801E+02 -0.93882100563E+03  0.98300886502E+03  0.00000000000E+00 0. -1.
    9900018    1    1    2    0    0  0.26976679756E+02  0.52063445688E+02  0.63329421006E+01  0.10859847226E+03  0.91187600000E+02 0.  0.
<mgrwt>
<rscale>  0 0.32136051E+04</rscale>
<asrwt>0</asrwt>
<pdfrwt beam="1">  1        2 0.30247695E+00 0.32136051E+04</pdfrwt>
<pdfrwt beam="2">  1       -2 0.20202543E+00 0.32136051E+04</pdfrwt>
<totfact> 0.75714163E-01</totfact>
</mgrwt>
</event>
<event>
11    1  0.7415622E-013  0.2998711E+04  0.7818608E-02  0.8244099E-01
          2   -1    0    0  501    0  0.00000000000E+00  0.00000000000E+00  0.14111478035E+04  0.14111478035E+04  0.00000000000E+00 0.  1.
         -2   -1    0    0    0  501 -0.00000000000E+00 -0.00000000000E+00 -0.15930772733E+04  0.15930772733E+04  0.00000000000E+00 0. -1.
    9900016    2    1    2    0    0  0.59285537022E+03  0.56879367972E+02 -0.61702802071E+01  0.22356760640E+04  0.21548774068E+04 0.  0.
        -24    2    3    3    0    0 -0.30471920723E+03  0.66351166002E+03  0.41370831124E+03  0.84478230318E+03  0.96959036415E+02 0.  0.
        -15    1    3    3    0    0  0.11483036328E+03  0.12783069758E+03 -0.18338583663E+03  0.25131069347E+03  0.00000000000E+00 0.  1.
        -15    1    3    3    0    0  0.63199084288E+03 -0.65776487086E+03 -0.91417052072E+02  0.91674649071E+03  0.00000000000E+00 0.  1.
         15    1    4    4    0    0 -0.11306675737E+03  0.27852649913E+03  0.22329367075E+03  0.37446116720E+03  0.00000000000E+00 0. -1.
         15    1    3    3    0    0  0.15075337128E+03 -0.76698118765E+02 -0.14507570274E+03  0.22283657667E+03  0.00000000000E+00 0. -1.
        -16    1    4    4    0    0 -0.19165244986E+03  0.38498516089E+03  0.19041464049E+03  0.47032113599E+03  0.00000000000E+00 0.  1.
         16    1    1    2    0    0 -0.63106889237E+03 -0.67664745027E+02 -0.20133729533E+03  0.66585521784E+03  0.00000000000E+00 0. -1.
    9900018    1    1    2    0    0  0.38213522149E+02  0.10785377055E+02  0.25578105648E+02  0.10269379492E+03  0.91187600000E+02 0.  0.
<mgrwt>
<rscale>  0 0.29987114E+04</rscale>
<asrwt>0</asrwt>
<pdfrwt beam="1">  1        2 0.21709966E+00 0.29987114E+04</pdfrwt>
<pdfrwt beam="2">  1       -2 0.24508881E+00 0.29987114E+04</pdfrwt>
<totfact> 0.84112719E-01</totfact>
</mgrwt>
</event>
<event>
10    1  0.7415622E-013  0.2489325E+04  0.7818608E-02  0.8406799E-01
         -2   -1    0    0    0  501 -0.00000000000E+00  0.00000000000E+00  0.75460186152E+03  0.75460186152E+03  0.00000000000E+00 0.  1.
          2   -1    0    0  501    0  0.00000000000E+00 -0.00000000000E+00 -0.20529822839E+04  0.20529822839E+04  0.00000000000E+00 0. -1.
    9900016    2    1    2    0    0 -0.21378893463E+02  0.41737798099E+02 -0.92124890775E+03  0.24275482521E+04  0.22454602792E+04 0.  0.
        -15    1    3    3    0    0 -0.21928559721E+03  0.47362885578E+03 -0.90352593160E+03  0.10434412179E+04  0.00000000000E+00 0.  1.
        -15    1    3    3    0    0 -0.23335375466E+03 -0.12987724134E+03  0.36861067837E+02  0.26959378879E+03  0.00000000000E+00 0.  1.
         15    1    3    3    0    0  0.53740419556E+01  0.39997850173E+02  0.34526885694E+02  0.53111337595E+02  0.00000000000E+00 0. -1.
         15    1    3    3    0    0  0.13632017818E+03 -0.51179162613E+02  0.35024154615E+03  0.37930415014E+03  0.00000000000E+00 0. -1.
        -16    1    3    3    0    0  0.27067244744E+03 -0.30217727829E+03 -0.42439583199E+03  0.58710007966E+03  0.00000000000E+00 0.  1.
         16    1    1    2    0    0  0.21378893463E+02 -0.41737798099E+02 -0.37713151459E+03  0.38003589327E+03  0.00000000000E+00 0. -1.
    9900018    1    3    3    0    0  0.18893790832E+02  0.11344774390E+02 -0.14956643843E+02  0.94997678007E+02  0.91187600000E+02 0.  0.
<mgrwt>
<rscale>  0 0.24893246E+04</rscale>
<asrwt>0</asrwt>
<pdfrwt beam="1">  1        2 0.31584343E+00 0.24893246E+04</pdfrwt>
<pdfrwt beam="2">  1       -2 0.11609260E+00 0.24893246E+04</pdfrwt>
<totfact> 0.32103562E+00</totfact>
</mgrwt>
</event>
<event>
11    1  0.7415622E-013  0.2534742E+04  0.7818608E-02  0.8390712E-01
         -2   -1    0    0    0  501 -0.00000000000E+00  0.00000000000E+00  0.36985360711E+03  0.36985360711E+03  0.00000000000E+00 0. -1.
          2   -1    0    0  501    0  0.00000000000E+00 -0.00000000000E+00 -0.43428796385E+04  0.43428796385E+04  0.00000000000E+00 0.  1.
    9900016    2    1    2    0    0 -0.18381220630E+03  0.42208536160E+02 -0.31708274305E+04  0.38886634166E+04  0.22432093274E+04 0.  0.
         24    2    3    3    0    0  0.27076538764E+03  0.28257992819E+03 -0.29274932800E+03  0.49941112706E+03  0.10268395118E+03 0.  0.
        -15    1    3    3    0    0  0.10820184502E+02 -0.70832824035E+03 -0.77305939566E+03  0.10485546250E+04  0.00000000000E+00 0.  1.
        -15    1    4    4    0    0  0.21365699517E+03  0.24879646109E+03 -0.19586813705E+03  0.38198601774E+03  0.00000000000E+00 0.  1.
         15    1    3    3    0    0 -0.78255726020E+02  0.46132984565E+03 -0.63231284069E+03  0.78661853121E+03  0.00000000000E+00 0. -1.
         15    1    3    3    0    0 -0.34228246706E+03 -0.24190120352E+02 -0.13445397022E+04  0.13876344835E+04  0.00000000000E+00 0. -1.
        -16    1    1    2    0    0  0.18381220630E+03 -0.42208536160E+02 -0.80219860095E+03  0.82406982901E+03  0.00000000000E+00 0.  1.
         16    1    4    4    0    0  0.57108392466E+02  0.33783467100E+02 -0.96881190951E+02  0.11742510932E+03  0.00000000000E+00 0. -1.
    9900018    1    3    3    0    0 -0.44859585359E+02  0.30817123027E+02 -0.12816616394E+03  0.16644464979E+03  0.91187600000E+02 0.  0.
<mgrwt>
<rscale>  0 0.25347424E+04</rscale>
<asrwt>0</asrwt>
<pdfrwt beam="1">  1        2 0.66813532E+00 0.25347424E+04</pdfrwt>
<pdfrwt beam="2">  1       -2 0.56900556E-01 0.25347424E+04</pdfrwt>
<totfact> 0.44863293E-01</totfact>
</mgrwt>
</event>
<event>
11    1  0.7415622E-013  0.3006399E+04  0.7818608E-02  0.8241906E-01
         -2   -1    0    0    0  501 -0.00000000000E+00  0.00000000000E+00  0.18060186205E+04  0.18060186205E+04  0.00000000000E+00 0. -1.
          2   -1    0    0  501    0  0.00000000000E+00 -0.00000000000E+00 -0.12511544869E+04  0.12511544869E+04  0.00000000000E+00 0.  1.
    9900016    2    1    2    0    0 -0.24833191128E+03 -0.36484798949E+02 -0.18828223456E+03  0.22727839162E+04  0.22510212462E+04 0.  0.
        -24    2    3    3    0    0 -0.10404087312E+03 -0.55432136298E+03 -0.30555477147E+03  0.64508669949E+03  0.68384609066E+02 0.  0.
        -15    1    3    3    0    0 -0.65293284608E+03  0.24090488296E+03 -0.88222601681E+02  0.70152668629E+03  0.00000000000E+00 0.  1.
        -15    1    3    3    0    0  0.52819365595E+03  0.26973984151E+03  0.10975012277E+02  0.59318510701E+03  0.00000000000E+00 0.  1.
         15    1    4    4    0    0 -0.84279656892E+02 -0.33652214134E+03 -0.15752948659E+03  0.38100623528E+03  0.00000000000E+00 0. -1.
         15    1    3    3    0    0 -0.47422110779E+02 -0.22329606715E+02  0.22308609828E+03  0.22916124274E+03  0.00000000000E+00 0. -1.
        -16    1    4    4    0    0 -0.19761216226E+02 -0.21779922164E+03 -0.14802528488E+03  0.26408046421E+03  0.00000000000E+00 0.  1.
         16    1    1    2    0    0  0.24833191128E+03  0.36484798949E+02  0.74314636822E+03  0.78438919123E+03  0.00000000000E+00 0. -1.
    9900018    1    3    3    0    0  0.27870262749E+02  0.29521446281E+02 -0.28565971969E+02  0.10382418063E+03  0.91187600000E+02 0.  0.
<mgrwt>
<rscale>  0 0.30063987E+04</rscale>
<asrwt>0</asrwt>
<pdfrwt beam="1">  1        2 0.19248531E+00 0.30063987E+04</pdfrwt>
<pdfrwt beam="2">  1       -2 0.27784902E+00 0.30063987E+04</pdfrwt>
<totfact> 0.65578632E-01</totfact>
</mgrwt>
</event>
<event>
11    1  0.7415622E-013  0.2530569E+04  0.7818608E-02  0.8392175E-01
          2   -1    0    0  501    0  0.00000000000E+00  0.00000000000E+00  0.21375363372E+04  0.21375363372E+04  0.00000000000E+00 0. -1.
         -2   -1    0    0    0  501 -0.00000000000E+00 -0.00000000000E+00 -0.74896757953E+03  0.74896757953E+03  0.00000000000E+00 0.  1.
    9900016    2    1    2    0    0 -0.18721038045E+03  0.73785650242E+02  0.10393989906E+04  0.24835007220E+04  0.22465381203E+04 0.  0.
         24    2    3    3    0    0 -0.86172926508E+03  0.11114734367E+03  0.78085107672E+03  0.11701805824E+04  0.68287137661E+02 0.  0.
        -15    1    4    4    0    0 -0.25906752003E+03  0.49332166601E+02  0.20108505802E+03  0.33163962844E+03  0.00000000000E+00 0.  1.
        -15    1    3    3    0    0 -0.56551001366E+02 -0.59990726227E+02  0.15688054961E+03  0.17722417960E+03  0.00000000000E+00 0.  1.
         15    1    3    3    0    0 -0.96716538465E+02  0.24343337817E+02 -0.13187438288E+03  0.16534067790E+03  0.00000000000E+00 0. -1.
         15    1    3    3    0    0  0.83896001390E+03 -0.34550482117E+02  0.17744428819E+03  0.85821565830E+03  0.00000000000E+00 0. -1.
        -16    1    1    2    0    0  0.18721038045E+03 -0.73785650242E+02  0.34916976704E+03  0.40300319471E+03  0.00000000000E+00 0.  1.
         16    1    4    4    0    0 -0.60266174505E+03  0.61815177069E+02  0.57976601870E+03  0.83854095399E+03  0.00000000000E+00 0. -1.
    9900018    1    3    3    0    0 -0.11173589433E+02  0.32836177099E+02  0.56097458996E+02  0.11253962381E+03  0.91187600000E+02 0.  0.
<mgrwt>
<rscale>  0 0.25305694E+04</rscale>
<asrwt>0</asrwt>
<pdfrwt beam="1">  1        2 0.32885174E+00 0.25305694E+04</pdfrwt>
<pdfrwt beam="2">  1       -2 0.11522578E+00 0.25305694E+04</pdfrwt>
<totfact> 0.29224638E+00</totfact>
</mgrwt>
</event>
<event>
10    1  0.7415622E-013  0.4367014E+04  0.7818608E-02  0.7934342E-01
          2   -1    0    0  501    0  0.00000000000E+00  0.00000000000E+00  0.23029247656E+04  0.23029247656E+04  0.00000000000E+00 0. -1.
         -2   -1    0    0    0  501 -0.00000000000E+00 -0.00000000000E+00 -0.20702812872E+04  0.20702812872E+04  0.00000000000E+00 0.  1.
    9900016    2    1    2    0    0 -0.10764446250E+04  0.37468017510E+03  0.12837465222E+04  0.28227429371E+04  0.22407039723E+04 0.  0.
        -15    1    3    3    0    0 -0.48658203145E+03  0.37420959050E+03  0.26089355555E+01  0.61384175281E+03  0.00000000000E+00 0.  1.
        -15    1    3    3    0    0 -0.13645495992E+03  0.55360563602E+03  0.82635063876E+03  0.10039693892E+04  0.00000000000E+00 0.  1.
         15    1    3    3    0    0  0.40142273360E+02 -0.53713766982E+02  0.26639548243E+01  0.67109369906E+02  0.00000000000E+00 0. -1.
         15    1    3    3    0    0 -0.56094881666E+03 -0.33028858794E+03  0.47015745743E+03  0.80299574158E+03  0.00000000000E+00 0. -1.
        -16    1    3    3    0    0  0.12041077087E+03 -0.17306848183E+03 -0.63074920754E+02  0.22006794127E+03  0.00000000000E+00 0.  1.
         16    1    1    2    0    0  0.10764446250E+04 -0.37468017510E+03 -0.10511030438E+04  0.15504631157E+04  0.00000000000E+00 0. -1.
    9900018    1    3    3    0    0 -0.53011861257E+02  0.39357853268E+01  0.45040456354E+02  0.11475874234E+03  0.91187600000E+02 0.  0.
<mgrwt>
<rscale>  0 0.43670136E+04</rscale>
<asrwt>0</asrwt>
<pdfrwt beam="1">  1        2 0.35429612E+00 0.43670136E+04</pdfrwt>
<pdfrwt beam="2">  1       -2 0.31850481E+00 0.43670136E+04</pdfrwt>
<totfact> 0.84602520E-02</totfact>
</mgrwt>
</event>
<event>
11    1  0.7415622E-013  0.2920817E+04  0.7818608E-02  0.8266711E-01
         -2   -1    0    0    0  501 -0.00000000000E+00  0.00000000000E+00  0.68903651442E+03  0.68903651442E+03  0.00000000000E+00 0.  1.
          2   -1    0    0  501    0  0.00000000000E+00 -0.00000000000E+00 -0.30953268848E+04  0.30953268848E+04  0.00000000000E+00 0. -1.
    9900016    2    1    2    0    0 -0.17538612263E+03 -0.20565634972E+03 -0.12150744350E+04  0.24933153930E+04  0.21603612985E+04 0.  0.
        -24    2    3    3    0    0  0.37219309473E+03 -0.30173804794E+03  0.13194654577E+03  0.50765544556E+03  0.10358866315E+03 0.  0.
        -15    1    3    3    0    0 -0.60245218752E+03 -0.45775807372E+03 -0.39870022674E+03  0.85525023421E+03  0.00000000000E+00 0.  1.
        -15    1    3    3    0    0 -0.89931441103E+01  0.16181738529E+03 -0.91762357499E+02  0.18624197453E+03  0.00000000000E+00 0.  1.
         15    1    3    3    0    0  0.63866114270E+02  0.39202238665E+03 -0.85655839649E+03  0.94416773869E+03  0.00000000000E+00 0. -1.
         15    1    4    4    0    0  0.11955378766E+03 -0.12606394839E+03  0.23247005944E+01  0.17375451493E+03  0.00000000000E+00 0. -1.
        -16    1    4    4    0    0  0.25263930707E+03 -0.17567409955E+03  0.12962184518E+03  0.33390093063E+03  0.00000000000E+00 0.  1.
         16    1    1    2    0    0  0.18334158697E+03  0.19406213197E+03 -0.11649031040E+04  0.11951039663E+04  0.00000000000E+00 0. -1.
    9900018    1    1    2    0    0 -0.79554643350E+01  0.11594217754E+02 -0.26312831370E+02  0.95944039870E+02  0.91187600000E+02 0.  0.
<mgrwt>
<rscale>  0 0.29208172E+04</rscale>
<asrwt>0</asrwt>
<pdfrwt beam="1">  1        2 0.47620413E+00 0.29208172E+04</pdfrwt>
<pdfrwt beam="2">  1       -2 0.10600562E+00 0.29208172E+04</pdfrwt>
<totfact> 0.93737672E-01</totfact>
</mgrwt>
</event>
<event>
10    1  0.7415622E-013  0.2745317E+04  0.7818608E-02  0.8320449E-01
          1   -1    0    0  501    0  0.00000000000E+00  0.00000000000E+00  0.42025015746E+04  0.42025015746E+04  0.00000000000E+00 0. -1.
         -1   -1    0    0    0  501 -0.00000000000E+00 -0.00000000000E+00 -0.44834996839E+03  0.44834996839E+03  0.00000000000E+00 0.  1.
    9900016    2    1    2    0    0  0.35245463384E+03 -0.24275447202E+03  0.30618288543E+04  0.37613497551E+04  0.21423823293E+04 0.  0.
        -15    1    3    3    0    0 -0.22622290913E+03 -0.40630385941E+03  0.21771687320E+04  0.22262801527E+04  0.00000000000E+00 0.  1.
        -15    1    3    3    0    0 -0.24692317097E+03  0.10956605474E+03  0.36040283369E+02  0.27253380476E+03  0.00000000000E+00 0.  1.
         15    1    3    3    0    0  0.43308194912E+03 -0.10937690681E+03  0.20805857904E+03  0.49275922590E+03  0.00000000000E+00 0. -1.
         15    1    3    3    0    0  0.28988155016E+03  0.12385401690E+03  0.44373199237E+03  0.54430617457E+03  0.00000000000E+00 0. -1.
        -16    1    3    3    0    0  0.10263721467E+03  0.39506222564E+02  0.19682926747E+03  0.22547039715E+03  0.00000000000E+00 0.  1.
         16    1    1    2    0    0 -0.33821806343E+03  0.28393508695E+03  0.63456180962E+03  0.77309720104E+03  0.00000000000E+00 0. -1.
    9900018    1    1    2    0    0 -0.14236570417E+02 -0.41180614930E+02  0.57760942300E+02  0.11640458682E+03  0.91187600000E+02 0.  0.
<mgrwt>
<rscale>  0 0.27453171E+04</rscale>
<asrwt>0</asrwt>
<pdfrwt beam="1">  1        1 0.64653868E+00 0.27453171E+04</pdfrwt>
<pdfrwt beam="2">  1       -1 0.68976921E-01 0.27453171E+04</pdfrwt>
<totfact> 0.11649520E-01</totfact>
</mgrwt>
</event>
