<event>
11    1  0.3298369E-011  0.3175701E+04  0.7818608E-02  0.8874882E-01
          1   -1    0    0  501    0  0.00000000000E+00  0.00000000000E+00  0.28472152893E+04  0.28472152893E+04  0.00000000000E+00 0. -1.
         -1   -1    0    0    0  501 -0.00000000000E+00 -0.00000000000E+00 -0.98599762206E+03  0.98599762206E+03  0.00000000000E+00 0.  1.
         23    2    1    2    0    0 -0.54315726806E+02  0.12741701576E+03  0.28800204090E+02  0.16676622395E+03  0.88296249132E+02 0.  0.
    9900016    2    1    2    0    0 -0.48630396364E+02 -0.32150479591E+03  0.76186370260E+03  0.20136707914E+04  0.18354028183E+04 0.  0.
        -15    1    3    3    0    0 -0.33380539728E+02  0.15235747497E+00  0.16412772648E+02  0.37197617549E+02  0.00000000000E+00 0.  1.
        -15    1    4    4    0    0  0.30905672955E+02  0.18464515083E+03  0.49077831095E+03  0.52527358857E+03  0.00000000000E+00 0.  1.
         15    1    4    4    0    0 -0.27601757195E+03 -0.76405593745E+03 -0.27130502180E+03  0.85648910701E+03  0.00000000000E+00 0. -1.
         15    1    3    3    0    0 -0.20935187078E+02  0.12726465829E+03  0.12387431443E+02  0.12956860640E+03  0.00000000000E+00 0. -1.
        -16    1    1    2    0    0  0.16897004757E+03  0.57154114866E+03  0.11069646648E+04  0.12572115696E+04  0.00000000000E+00 0.  1.
         16    1    4    4    0    0  0.19648150263E+03  0.25790599071E+03  0.54239041345E+03  0.63190809579E+03  0.00000000000E+00 0. -1.
    9900018    1    1    2    0    0 -0.66023924405E+02 -0.37745336851E+03 -0.36410904297E+02  0.39556432642E+03  0.91187600000E+02 0.  0.
<mgrwt>
<rscale>  0 0.15144782E+04</rscale>
<asrwt>0</asrwt>
<pdfrwt beam="1">  1        1 0.43803312E+00 0.31757011E+04</pdfrwt>
<pdfrwt beam="2">  1       -1 0.15169194E+00 0.31757011E+04</pdfrwt>
<totfact> 0.21743039E-01</totfact>
</mgrwt>
</event>
<event>
11    1  0.3298369E-011  0.2620775E+04  0.7818608E-02  0.8361179E-01
          1   -1    0    0  501    0  0.00000000000E+00  0.00000000000E+00  0.17259703007E+04  0.17259703007E+04  0.00000000000E+00 0. -1.
         -1   -1    0    0    0  501 -0.00000000000E+00 -0.00000000000E+00 -0.99486939389E+03  0.99486939389E+03  0.00000000000E+00 0.  1.
         23    2    1    2    0    0 -0.19856566178E+03  0.61315336081E+02  0.49547354248E+02  0.23184815284E+03  0.90059609068E+02 0.  0.
    9900016    2    1    2    0    0 -0.16048687478E+03  0.37867384734E+02  0.41679730633E+03  0.19083931747E+04  0.18550079619E+04 0.  0.
        -15    1    4    4    0    0 -0.20369077259E+03  0.79368708462E+03 -0.28157981497E+03  0.86643886763E+03  0.00000000000E+00 0.  1.
        -15    1    3    3    0    0 -0.77171577731E+02  0.69467411560E+02  0.33635975884E+02  0.10914464051E+03  0.00000000000E+00 0. -1.
         15    1    4    4    0    0 -0.48605179088E+02 -0.44998368097E+03  0.37902120746E+03  0.59034299545E+03  0.00000000000E+00 0. -1.
         15    1    3    3    0    0 -0.12139408405E+03 -0.81520754794E+01  0.15911378364E+02  0.12270351233E+03  0.00000000000E+00 0.  1.
        -16    1    4    4    0    0  0.91809076895E+02 -0.30583601892E+03  0.31935591384E+03  0.45161131161E+03  0.00000000000E+00 0.  1.
         16    1    1    2    0    0  0.14776255455E+03 -0.53231869108E+02  0.30446932065E+03  0.34259155219E+03  0.00000000000E+00 0. -1.
    9900018    1    1    2    0    0  0.21128998200E+03 -0.45950851707E+02 -0.39713074377E+02  0.23800681490E+03  0.91187600000E+02 0.  0.
<mgrwt>
<rscale>  0 0.26207747E+04</rscale>
<asrwt>0</asrwt>
<pdfrwt beam="1">  1        1 0.26553389E+00 0.26207747E+04</pdfrwt>
<pdfrwt beam="2">  1       -1 0.15305683E+00 0.26207747E+04</pdfrwt>
<totfact> 0.13287173E+00</totfact>
</mgrwt>
</event>
<event>
11    1  0.3298369E-011  0.2958559E+04  0.7818608E-02  0.8255664E-01
          2   -1    0    0  501    0  0.00000000000E+00  0.00000000000E+00  0.40659589158E+04  0.40659589158E+04  0.00000000000E+00 0. -1.
         -2   -1    0    0    0  501 -0.00000000000E+00 -0.00000000000E+00 -0.53819243536E+03  0.53819243536E+03  0.00000000000E+00 0.  1.
         23    2    1    2    0    0 -0.15289485349E+03  0.58870381548E+01  0.13866739773E+03  0.22509477620E+03  0.89596415325E+02 0.  0.
    9900016    2    1    2    0    0  0.25367543997E+03 -0.57066985791E+03  0.27425527882E+04  0.33638007308E+04  0.18448697095E+04 0.  0.
        -15    1    4    4    0    0  0.17867283765E+03  0.30553805910E+03  0.37650055998E+02  0.35594243241E+03  0.00000000000E+00 0.  1.
        -15    1    3    3    0    0 -0.86158096297E+02 -0.61303527966E+01  0.13091577004E+03  0.15684303500E+03  0.00000000000E+00 0.  1.
         15    1    4    4    0    0 -0.65598361085E+02 -0.92710765394E+03  0.27029863151E+04  0.28583153721E+04  0.00000000000E+00 0. -1.
         15    1    3    3    0    0 -0.66736757189E+02  0.12017390951E+02  0.77516276931E+01  0.68251741203E+02  0.00000000000E+00 0. -1.
        -16    1    1    2    0    0  0.16191797977E+03  0.63584180626E+02  0.35653877510E+02  0.17757133546E+03  0.00000000000E+00 0.  1.
         16    1    4    4    0    0  0.14060096340E+03  0.50899736939E+02  0.19164170629E+01  0.14954292623E+03  0.00000000000E+00 0. -1.
    9900018    1    1    2    0    0 -0.26269856625E+03  0.50119863913E+03  0.61089241706E+03  0.83768450875E+03  0.91187600000E+02 0.  0.
<mgrwt>
<rscale>  0 0.29585593E+04</rscale>
<asrwt>0</asrwt>
<pdfrwt beam="1">  1        2 0.62553212E+00 0.29585593E+04</pdfrwt>
<pdfrwt beam="2">  1       -2 0.82798839E-01 0.29585593E+04</pdfrwt>
<totfact> 0.33176202E-01</totfact>
</mgrwt>
</event>
<event>
12    1  0.3298369E-011  0.2649459E+04  0.7818608E-02  0.8958721E-01
         -1   -1    0    0    0  501 -0.00000000000E+00  0.00000000000E+00  0.95137000259E+03  0.95137000259E+03  0.00000000000E+00 0.  1.
          1   -1    0    0  501    0  0.00000000000E+00 -0.00000000000E+00 -0.21860019755E+04  0.21860019755E+04  0.00000000000E+00 0. -1.
         23    2    1    2    0    0 -0.15966509675E+03 -0.84490582287E+02  0.24243878502E+02  0.20404584872E+03  0.91735168398E+02 0.  0.
    9900016    2    1    2    0    0  0.44775592602E+03 -0.17573690670E+03 -0.11106122982E+04  0.22077374513E+04  0.18464225267E+04 0.  0.
        -24    2    4    4    0    0  0.10509361382E+04 -0.82536881936E+02 -0.14545281860E+03  0.10657893640E+04  0.58918100135E+02 0.  0.
        -15    1    3    3    0    0 -0.89851620290E+02  0.25436603990E+01  0.94148065585E-01  0.89887667346E+02  0.00000000000E+00 0. -1.
        -15    1    4    4    0    0 -0.60318021218E+03 -0.93200024759E+02 -0.96515947959E+03  0.11419480873E+04  0.00000000000E+00 0.  1.
         15    1    3    3    0    0 -0.69813476460E+02 -0.87034242686E+02  0.24149730436E+02  0.11415818138E+03  0.00000000000E+00 0.  1.
         15    1    5    5    0    0  0.20247614943E+03 -0.12127198557E+02 -0.51277806371E+02  0.20922015548E+03  0.00000000000E+00 0. -1.
        -16    1    5    5    0    0  0.84845998878E+03 -0.70409683380E+02 -0.94175012230E+02  0.85656920853E+03  0.00000000000E+00 0.  1.
         16    1    1    2    0    0 -0.18764614694E+03  0.17186644941E+03 -0.37121426236E+03  0.45005464277E+03  0.00000000000E+00 0. -1.
    9900018    1    1    2    0    0 -0.10044468233E+03  0.88361039568E+02  0.22295070914E+03  0.27553403532E+03  0.91187600000E+02 0.  0.
<mgrwt>
<rscale>  0 0.13932467E+04</rscale>
<asrwt>0</asrwt>
<pdfrwt beam="1">  1        1 0.33630800E+00 0.26494591E+04</pdfrwt>
<pdfrwt beam="2">  1       -1 0.14636462E+00 0.26494591E+04</pdfrwt>
<totfact> 0.72230033E-01</totfact>
</mgrwt>
</event>
