<event>
11    1  0.6624904E-015  0.1178962E+04  0.7818608E-02  0.9131473E-01
          1   -1    0    0  501    0  0.00000000000E+00  0.00000000000E+00  0.13557770255E+04  0.13557770255E+04  0.00000000000E+00 0. -1.
         -1   -1    0    0    0  501 -0.00000000000E+00 -0.00000000000E+00 -0.25630160800E+03  0.25630160800E+03  0.00000000000E+00 0.  1.
         23    2    1    2    0    0  0.89574040486E+02 -0.75535420214E+02  0.82597508466E+02  0.16066385273E+03  0.72535623885E+02 0.  0.
         24    2    1    2    0    0  0.22400176497E+03 -0.10022656409E+03  0.37924663641E+03  0.45834818831E+03  0.77671717103E+02 0.  0.
        -15    1    4    4    0    0  0.31574614579E+02 -0.16738990671E+02  0.11811631695E+03  0.12340427231E+03  0.00000000000E+00 0.  1.
        -15    1    3    3    0    0  0.21293180396E+02  0.16028268485E+01 -0.86567643021E+01  0.23041444257E+02  0.00000000000E+00 0. -1.
         15    1    1    2    0    0  0.16149292683E+03  0.13288013081E+03  0.36492255523E+03  0.42060143354E+03  0.00000000000E+00 0. -1.
         15    1    3    3    0    0  0.68280860091E+02 -0.77138247062E+02  0.91254272769E+02  0.13762240847E+03  0.00000000000E+00 0.  1.
        -16    1    1    2    0    0 -0.24470638823E+03  0.64389958522E+02  0.16042745786E+03  0.29960682976E+03  0.00000000000E+00 0.  1.
         16    1    4    4    0    0  0.19242715039E+03 -0.83487573420E+02  0.26113031947E+03  0.33494391600E+03  0.00000000000E+00 0. -1.
    9900018    1    1    2    0    0 -0.23036234406E+03 -0.21508105026E+02  0.11228125949E+03  0.27285832912E+03  0.91187600000E+02 0.  0.
<mgrwt>
<rscale>  0 0.11789620E+04</rscale>
<asrwt>0</asrwt>
<pdfrwt beam="1">  1        1 0.20858108E+00 0.11789620E+04</pdfrwt>
<pdfrwt beam="2">  1       -1 0.39431017E-01 0.11789620E+04</pdfrwt>
<totfact> 0.51141397E+01</totfact>
</mgrwt>
</event>
<event>
11    1  0.6624904E-015  0.2305310E+04  0.7818608E-02  0.8907267E-01
         -2   -1    0    0    0  501 -0.00000000000E+00  0.00000000000E+00  0.18319181850E+04  0.18319181850E+04  0.00000000000E+00 0. -1.
          2   -1    0    0  501    0  0.00000000000E+00 -0.00000000000E+00 -0.10159036748E+04  0.10159036748E+04  0.00000000000E+00 0.  1.
         23    2    1    2    0    0  0.31838455776E+03  0.20636335283E+03  0.47882887151E+03  0.62411419524E+03  0.12762006308E+03 0.  0.
        -24    2    1    2    0    0 -0.36230947523E+03  0.67570216299E+02 -0.59526258005E+02  0.38184832015E+03  0.80192731865E+02 0.  0.
        -15    1    3    3    0    0  0.21552766894E+03  0.10180746202E+03  0.20906402276E+03  0.31705630574E+03  0.00000000000E+00 0.  1.
        -15    1    1    2    0    0  0.47397199694E+01 -0.49452308141E+03 -0.47800627977E+03  0.68779760576E+03  0.00000000000E+00 0.  1.
         15    1    4    4    0    0 -0.28625547411E+03  0.32903272129E+02 -0.18482954636E+02  0.28873247373E+03  0.00000000000E+00 0. -1.
         15    1    3    3    0    0  0.10285688883E+03  0.10455589081E+03  0.26976484875E+03  0.30705788950E+03  0.00000000000E+00 0. -1.
        -16    1    4    4    0    0 -0.76054001117E+02  0.34666944169E+02 -0.41043303370E+02  0.93115846425E+02  0.00000000000E+00 0.  1.
         16    1    1    2    0    0 -0.12040752730E+03  0.22585901904E+03  0.92797238655E+03  0.96262298918E+03  0.00000000000E+00 0. -1.
    9900018    1    1    2    0    0  0.15959272479E+03 -0.52695067577E+01 -0.53254210096E+02  0.19143874946E+03  0.91187600000E+02 0.  0.
<mgrwt>
<rscale>  0 0.14661696E+04</rscale>
<asrwt>0</asrwt>
<pdfrwt beam="1">  1        2 0.15629287E+00 0.23053099E+04</pdfrwt>
<pdfrwt beam="2">  1       -2 0.28183357E+00 0.23053099E+04</pdfrwt>
<totfact> 0.90349346E-01</totfact>
</mgrwt>
</event>
<event>
11    1  0.6624904E-015  0.1593012E+04  0.7818608E-02  0.9303412E-01
         -2   -1    0    0    0  501 -0.00000000000E+00  0.00000000000E+00  0.83709289632E+03  0.83709289632E+03  0.00000000000E+00 0.  1.
          2   -1    0    0  501    0  0.00000000000E+00 -0.00000000000E+00 -0.18395775494E+04  0.18395775494E+04  0.00000000000E+00 0. -1.
         23    2    1    2    0    0  0.20873639379E+03  0.12095502356E+03  0.45330233981E+03  0.51866114574E+03  0.72975153355E+02 0.  0.
         24    2    1    2    0    0  0.35223355221E+03  0.58499684844E+02 -0.20210142745E+03  0.41724397697E+03  0.75873980465E+02 0.  0.
        -15    1    3    3    0    0  0.61307876256E+02  0.33493873496E+02  0.20784718424E+03  0.21927368116E+03  0.00000000000E+00 0. -1.
        -15    1    4    4    0    0  0.31705426135E+02  0.13804702986E+02 -0.47044811005E+02  0.58386797424E+02  0.00000000000E+00 0.  1.
         15    1    3    3    0    0  0.14742851753E+03  0.87461150064E+02  0.24545515557E+03  0.29938746458E+03  0.00000000000E+00 0.  1.
         15    1    1    2    0    0 -0.19273081436E+03 -0.17544841568E+03 -0.11495764484E+04  0.11787507472E+04  0.00000000000E+00 0. -1.
        -16    1    1    2    0    0 -0.35933742602E+03  0.43920850603E+02  0.61084513387E+02  0.36712905719E+03  0.00000000000E+00 0.  1.
         16    1    4    4    0    0  0.32052812608E+03  0.44694981858E+02 -0.15505661645E+03  0.35885717955E+03  0.00000000000E+00 0. -1.
    9900018    1    1    2    0    0 -0.89017056238E+01 -0.47927143328E+02 -0.16519363042E+03  0.19488551859E+03  0.91187600000E+02 0.  0.
<mgrwt>
<rscale>  0 0.10046936E+04</rscale>
<asrwt>0</asrwt>
<pdfrwt beam="1">  1        2 0.28301193E+00 0.15930124E+04</pdfrwt>
<pdfrwt beam="2">  1       -2 0.12878352E+00 0.15930124E+04</pdfrwt>
<totfact> 0.34355482E+00</totfact>
</mgrwt>
</event>
