<event>
12    1  0.7098770E-013  0.3186426E+04  0.7818608E-02  0.8927980E-01
         -2   -1    0    0    0  501 -0.00000000000E+00  0.00000000000E+00  0.10493349445E+04  0.10493349445E+04  0.00000000000E+00 0.  1.
          2   -1    0    0  501    0  0.00000000000E+00 -0.00000000000E+00 -0.31991818971E+04  0.31991818971E+04  0.00000000000E+00 0. -1.
         23    2    1    2    0    0  0.23224620069E+02  0.97309194575E+02  0.23442999181E+03  0.26880765068E+03  0.85391274012E+02 0.  0.
    9900016    2    1    2    0    0 -0.87260654407E+03 -0.48063830461E+03 -0.17789497061E+04  0.27209241355E+04  0.18017521289E+04 0.  0.
         24    2    4    4    0    0  0.51586373565E+03  0.78915160489E+02 -0.26252893972E+03  0.59008351769E+03  0.83271347707E+02 0.  0.
        -15    1    3    3    0    0 -0.31260003826E+02  0.51723015413E+02  0.11162299424E+03  0.12693364804E+03  0.00000000000E+00 0.  1.
        -15    1    5    5    0    0  0.19284849605E+03  0.70488951984E+02 -0.10413577304E+03  0.23022487704E+03  0.00000000000E+00 0.  1.
         15    1    4    4    0    0 -0.13884702797E+04 -0.55955346510E+03 -0.15164207664E+04  0.21308406178E+04  0.00000000000E+00 0. -1.
         15    1    3    3    0    0  0.54484623895E+02  0.45586179162E+02  0.12280699757E+03  0.14187400264E+03  0.00000000000E+00 0. -1.
        -16    1    1    2    0    0  0.90550577596E+03  0.40743679781E+03 -0.52873644197E+03  0.11249478564E+04  0.00000000000E+00 0.  1.
         16    1    5    5    0    0  0.32301523959E+03  0.84262085057E+01 -0.15839316668E+03  0.35985864065E+03  0.00000000000E+00 0. -1.
    9900018    1    1    2    0    0 -0.56123851965E+02 -0.24107687779E+02 -0.76590796272E+02  0.13383719900E+03  0.91187600000E+02 0.  0.
<mgrwt>
<rscale>  0 0.14362632E+04</rscale>
<asrwt>0</asrwt>
<pdfrwt beam="1">  1        2 0.49218182E+00 0.31864257E+04</pdfrwt>
<pdfrwt beam="2">  1       -2 0.16143615E+00 0.31864257E+04</pdfrwt>
<totfact> 0.26476479E-01</totfact>
</mgrwt>
</event>
<event>
12    1  0.7098770E-013  0.2202857E+04  0.7818608E-02  0.9255670E-01
          1   -1    0    0  501    0  0.00000000000E+00  0.00000000000E+00  0.12773414978E+04  0.12773414978E+04  0.00000000000E+00 0. -1.
         -1   -1    0    0    0  501 -0.00000000000E+00 -0.00000000000E+00 -0.12896576440E+04  0.12896576440E+04  0.00000000000E+00 0.  1.
         23    2    1    2    0    0  0.66125343028E+02 -0.68951749174E+00  0.31968876996E+03  0.33926361161E+03  0.92335540829E+02 0.  0.
    9900016    2    1    2    0    0  0.49236524673E+02  0.56714817826E+02 -0.64614393673E+02  0.17998851167E+04  0.17971562557E+04 0.  0.
         24    2    4    4    0    0  0.28116854005E+03  0.83743442766E+03 -0.32539545456E+03  0.94471125680E+03  0.79025238539E+02 0.  0.
        -15    1    5    5    0    0  0.81208569010E+02  0.17067753490E+03 -0.94510880560E+02  0.21132429852E+03  0.00000000000E+00 0.  1.
        -15    1    3    3    0    0  0.17191075288E+02  0.42232979610E+02  0.17052619261E+03  0.17651725129E+03  0.00000000000E+00 0. -1.
         15    1    4    4    0    0 -0.23193201538E+03 -0.78071960983E+03  0.26078106089E+03  0.85517385990E+03  0.00000000000E+00 0. -1.
         15    1    3    3    0    0  0.48934267740E+02 -0.42922497102E+02  0.14916257735E+03  0.16274636032E+03  0.00000000000E+00 0.  1.
        -16    1    1    2    0    0 -0.11521732631E+03 -0.72159145635E+02 -0.30024643411E+03  0.32959049709E+03  0.00000000000E+00 0.  1.
         16    1    5    5    0    0  0.19995997104E+03  0.66675689276E+03 -0.23088457400E+03  0.73338695828E+03  0.00000000000E+00 0. -1.
    9900018    1    1    2    0    0 -0.14454139099E+00  0.16133845300E+02  0.32855911598E+02  0.98259916431E+02  0.91187600000E+02 0.  0.
<mgrwt>
<rscale>  0 0.10496844E+04</rscale>
<asrwt>0</asrwt>
<pdfrwt beam="1">  1        1 0.19651408E+00 0.22028569E+04</pdfrwt>
<pdfrwt beam="2">  1       -1 0.19840887E+00 0.22028569E+04</pdfrwt>
<totfact> 0.13068557E+00</totfact>
</mgrwt>
</event>
<event>
12    1  0.7098770E-013  0.2515279E+04  0.7818608E-02  0.9045608E-01
         -1   -1    0    0    0  501 -0.00000000000E+00  0.00000000000E+00  0.11150845353E+04  0.11150845353E+04  0.00000000000E+00 0.  1.
          1   -1    0    0  501    0  0.00000000000E+00 -0.00000000000E+00 -0.16782750658E+04  0.16782750658E+04  0.00000000000E+00 0. -1.
         23    2    1    2    0    0 -0.67709945871E+02  0.12428307017E+03 -0.18408457533E+03  0.24967102250E+03  0.91747317676E+02 0.  0.
    9900016    2    1    2    0    0  0.36397485684E+03 -0.16745331980E+03  0.10436072406E+03  0.18406459294E+04  0.17934792907E+04 0.  0.
        -24    2    4    4    0    0  0.25787111380E+03  0.37885633229E+03 -0.71326496599E+03  0.85159385329E+03  0.80221863585E+02 0.  0.
        -15    1    3    3    0    0 -0.88477392231E+02  0.95037062788E+02 -0.16173299068E+03  0.20740745530E+03  0.00000000000E+00 0.  1.
        -15    1    4    4    0    0  0.10610374304E+03 -0.54630965209E+03  0.81762569005E+03  0.98905207613E+03  0.00000000000E+00 0.  1.
         15    1    5    5    0    0  0.13957235619E+03  0.14312095932E+03 -0.27297043359E+03  0.33834436485E+03  0.00000000000E+00 0. -1.
         15    1    3    3    0    0  0.20767446359E+02  0.29246007384E+02 -0.22351584649E+02  0.42263567200E+02  0.00000000000E+00 0. -1.
        -16    1    5    5    0    0  0.11829875761E+03  0.23573537297E+03 -0.44029453240E+03  0.51324948844E+03  0.00000000000E+00 0.  1.
         16    1    1    2    0    0 -0.27052320957E+03  0.80352187934E+02 -0.52265311975E+03  0.59397438043E+03  0.00000000000E+00 0. -1.
    9900018    1    1    2    0    0 -0.25741701396E+02 -0.37181938303E+02  0.39186440560E+02  0.10906826873E+03  0.91187600000E+02 0.  0.
<mgrwt>
<rscale>  0 0.12799620E+04</rscale>
<asrwt>0</asrwt>
<pdfrwt beam="1">  1        1 0.25819616E+00 0.25152794E+04</pdfrwt>
<pdfrwt beam="2">  1       -1 0.17155147E+00 0.25152794E+04</pdfrwt>
<totfact> 0.10413222E+00</totfact>
</mgrwt>
</event>
<event>
12    1  0.7098770E-013  0.2174748E+04  0.7818608E-02  0.9178557E-01
          1   -1    0    0  501    0  0.00000000000E+00  0.00000000000E+00  0.39550369357E+04  0.39550369357E+04  0.00000000000E+00 0. -1.
         -1   -1    0    0    0  501 -0.00000000000E+00 -0.00000000000E+00 -0.35490772368E+03  0.35490772368E+03  0.00000000000E+00 0.  1.
         23    2    1    2    0    0 -0.12352923978E+03 -0.35151794573E+02  0.49205271981E+03  0.51657307993E+03  0.90756520931E+02 0.  0.
    9900016    2    1    2    0    0  0.30094596358E+03  0.72153419202E+01  0.27328362617E+04  0.32843977889E+04  0.17967343344E+04 0.  0.
         24    2    4    4    0    0 -0.72905724350E+03  0.21369529153E+03  0.12972888448E+04  0.15055394577E+04  0.80626112793E+02 0.  0.
        -15    1    5    5    0    0 -0.53684469886E+03  0.18665672869E+03  0.10071815599E+04  0.11564850452E+04  0.00000000000E+00 0.  1.
        -15    1    3    3    0    0 -0.91973315682E+02 -0.65183314624E+02  0.37931311220E+03  0.39570998520E+03  0.00000000000E+00 0.  1.
         15    1    4    4    0    0  0.10300032071E+04 -0.20647994961E+03  0.14355474169E+04  0.17788583312E+04  0.00000000000E+00 0. -1.
         15    1    3    3    0    0 -0.31555924100E+02  0.30031520052E+02  0.11273960762E+03  0.12086309473E+03  0.00000000000E+00 0. -1.
        -16    1    1    2    0    0 -0.22755681266E+03  0.12070792630E+02  0.19349683807E+03  0.29894620481E+03  0.00000000000E+00 0.  1.
         16    1    5    5    0    0 -0.19221254463E+03  0.27038562843E+02  0.29010728484E+03  0.34905441254E+03  0.00000000000E+00 0. -1.
    9900018    1    1    2    0    0  0.50140088870E+02  0.15865660023E+02  0.18174339247E+03  0.21002758576E+03  0.91187600000E+02 0.  0.
<mgrwt>
<rscale>  0 0.11277525E+04</rscale>
<asrwt>0</asrwt>
<pdfrwt beam="1">  1        1 0.60846719E+00 0.21747479E+04</pdfrwt>
<pdfrwt beam="2">  1       -1 0.54601191E-01 0.21747479E+04</pdfrwt>
<totfact> 0.32581905E-01</totfact>
</mgrwt>
</event>
<event>
12    1  0.7098770E-013  0.2871622E+04  0.7818608E-02  0.8994112E-01
          1   -1    0    0  501    0  0.00000000000E+00  0.00000000000E+00  0.14729166109E+04  0.14729166109E+04  0.00000000000E+00 0. -1.
         -1   -1    0    0    0  501 -0.00000000000E+00 -0.00000000000E+00 -0.15552859522E+04  0.15552859522E+04  0.00000000000E+00 0.  1.
         23    2    1    2    0    0 -0.92746792927E+01 -0.10056957598E+03  0.64641998994E+02  0.15282040802E+03  0.94737689349E+02 0.  0.
    9900016    2    1    2    0    0 -0.69067301804E+03 -0.34680653941E+03 -0.19254827552E+03  0.20434291636E+04  0.18818139957E+04 0.  0.
         24    2    4    4    0    0  0.17650429649E+03  0.49127572991E+03  0.39007130646E+03  0.65608168311E+03  0.76039077509E+02 0.  0.
        -15    1    3    3    0    0  0.26730228974E+02 -0.16403100863E+02  0.51556023309E+02  0.60345591375E+02  0.00000000000E+00 0.  1.
        -15    1    5    5    0    0  0.56226308475E+02  0.26741969666E+03  0.19455088651E+03  0.33544707387E+03  0.00000000000E+00 0.  1.
         15    1    3    3    0    0 -0.36004908267E+02 -0.84166475118E+02  0.13085975685E+02  0.92474816640E+02  0.00000000000E+00 0. -1.
         15    1    4    4    0    0 -0.79800676394E+03 -0.79967616236E+03 -0.57163883312E+03  0.12661231044E+04  0.00000000000E+00 0. -1.
        -16    1    1    2    0    0  0.69994769733E+03  0.44737611539E+03  0.45536935296E+02  0.83195299152E+03  0.00000000000E+00 0.  1.
         16    1    5    5    0    0  0.12027798801E+03  0.22385603324E+03  0.19552041995E+03  0.32063460923E+03  0.00000000000E+00 0. -1.
    9900018    1    4    4    0    0 -0.69170550581E+02 -0.38406106955E+02 -0.10980748861E+02  0.12122437609E+03  0.91187600000E+02 0.  0.
<mgrwt>
<rscale>  0 0.13456704E+04</rscale>
<asrwt>0</asrwt>
<pdfrwt beam="1">  1        1 0.22660256E+00 0.28716215E+04</pdfrwt>
<pdfrwt beam="2">  1       -1 0.23927476E+00 0.28716215E+04</pdfrwt>
<totfact> 0.47926930E-01</totfact>
</mgrwt>
</event>
<event>
12    1  0.7098770E-013  0.2190532E+04  0.7818608E-02  0.9236441E-01
         -1   -1    0    0    0  501 -0.00000000000E+00  0.00000000000E+00  0.11473930401E+04  0.11473930401E+04  0.00000000000E+00 0.  1.
          1   -1    0    0  501    0  0.00000000000E+00 -0.00000000000E+00 -0.11704638752E+04  0.11704638752E+04  0.00000000000E+00 0. -1.
         23    2    1    2    0    0  0.60503068251E+02 -0.57490772299E+02 -0.28823056768E+02  0.12731714439E+03  0.91722824234E+02 0.  0.
    9900016    2    1    2    0    0  0.42733908678E+02  0.16781276384E+03  0.14962657551E+03  0.18090809786E+04  0.17945468967E+04 0.  0.
        -24    2    4    4    0    0  0.55216692762E+03  0.62551439657E+03 -0.40225514819E+03  0.92954347384E+03  0.78008263934E+02 0.  0.
        -15    1    4    4    0    0 -0.50943301894E+03 -0.45770163273E+03  0.55188172370E+03  0.87953750480E+03  0.00000000000E+00 0.  1.
        -15    1    3    3    0    0 -0.16024691197E+02  0.10019984479E+02 -0.15417614159E+02  0.24390441637E+02  0.00000000000E+00 0. -1.
         15    1    3    3    0    0  0.76527759448E+02 -0.67510756779E+02 -0.13405442609E+02  0.10292670275E+03  0.00000000000E+00 0.  1.
         15    1    5    5    0    0  0.44848678165E+03  0.54948936160E+03 -0.33410768120E+03  0.78403245753E+03  0.00000000000E+00 0. -1.
        -16    1    5    5    0    0  0.10368014596E+03  0.76025034969E+02 -0.68147466984E+02  0.14551101630E+03  0.00000000000E+00 0.  1.
         16    1    1    2    0    0 -0.13939959030E+03 -0.12803869667E+03 -0.19300304296E+03  0.27032633651E+03  0.00000000000E+00 0. -1.
    9900018    1    1    2    0    0  0.36162613366E+02  0.17716705136E+02  0.49128689128E+02  0.11113245582E+03  0.91187600000E+02 0.  0.
<mgrwt>
<rscale>  0 0.10685082E+04</rscale>
<asrwt>0</asrwt>
<pdfrwt beam="1">  1        1 0.18007136E+00 0.21905322E+04</pdfrwt>
<pdfrwt beam="2">  1       -1 0.17652201E+00 0.21905322E+04</pdfrwt>
<totfact> 0.22512042E+00</totfact>
</mgrwt>
</event>
