<event>
12    1  0.3170968E-012  0.3409523E+04  0.7818608E-02  0.8442206E-01
         -2   -1    0    0    0  501 -0.00000000000E+00  0.00000000000E+00  0.15647799867E+04  0.15647799867E+04  0.00000000000E+00 0. -1.
          2   -1    0    0  501    0  0.00000000000E+00 -0.00000000000E+00 -0.33655943409E+04  0.33655943409E+04  0.00000000000E+00 0.  1.
        -24    2    1    2    0    0  0.76511128312E+03 -0.30798213708E+03  0.35115327964E+03  0.89852433182E+03  0.61555477087E+02 0.  0.
    9900016    2    1    2    0    0  0.19418833464E+02 -0.49419611663E+03 -0.12248052677E+04  0.25213549016E+04  0.21476675029E+04 0.  0.
         23    2    4    4    0    0  0.31757811234E+03 -0.70899522111E+02  0.56496522000E+03  0.65819700133E+03  0.90305000240E+02 0.  0.
        -15    1    1    2    0    0 -0.72971067287E+03  0.79361705139E+03 -0.88823417438E+03  0.13968771023E+04  0.00000000000E+00 0.  1.
        -15    1    5    5    0    0  0.16555919650E+03 -0.82974702629E+02  0.30748429115E+03  0.35894461707E+03  0.00000000000E+00 0. -1.
         15    1    5    5    0    0  0.15201891584E+03  0.12075180518E+02  0.25748092886E+03  0.29925238425E+03  0.00000000000E+00 0.  1.
         15    1    3    3    0    0  0.38333452303E+03 -0.17231354733E+03  0.20685510243E+03  0.46842966232E+03  0.00000000000E+00 0. -1.
        -16    1    3    3    0    0  0.38177676009E+03 -0.13566858975E+03  0.14429817721E+03  0.43009466950E+03  0.00000000000E+00 0.  1.
         16    1    4    4    0    0 -0.29815927888E+03 -0.42329659452E+03 -0.17897704877E+04  0.18631579003E+04  0.00000000000E+00 0. -1.
    9900018    1    1    2    0    0 -0.54819443713E+02  0.85612023149E+01 -0.38928191739E+02  0.11361799197E+03  0.91187600000E+02 0.  0.
<mgrwt>
<rscale>  0 0.23927936E+04</rscale>
<asrwt>0</asrwt>
<pdfrwt beam="1">  1        2 0.51778374E+00 0.34095234E+04</pdfrwt>
<pdfrwt beam="2">  1       -2 0.24073538E+00 0.34095234E+04</pdfrwt>
<totfact> 0.58780297E-02</totfact>
</mgrwt>
</event>
<event>
12    1  0.3170968E-012  0.5227164E+04  0.7818608E-02  0.7794389E-01
          2   -1    0    0  501    0  0.00000000000E+00  0.00000000000E+00  0.49535375876E+04  0.49535375876E+04  0.00000000000E+00 0. -1.
         -2   -1    0    0    0  501 -0.00000000000E+00 -0.00000000000E+00 -0.13789763685E+04  0.13789763685E+04  0.00000000000E+00 0.  1.
         24    2    1    2    0    0  0.35631835549E+03 -0.15768287492E+04  0.16357405343E+04  0.23003294468E+04  0.50167652568E+02 0.  0.
    9900016    2    1    2    0    0  0.12350519125E+03  0.92369486142E+03  0.66399798741E+03  0.24404463711E+04  0.21555554814E+04 0.  0.
         23    2    4    4    0    0  0.13438401216E+03 -0.26067488089E+03  0.11272696566E+04  0.11686481659E+04  0.94821941614E+02 0.  0.
        -15    1    3    3    0    0  0.61519935286E+02 -0.33695322503E+03  0.32579337357E+03  0.47271926189E+03  0.00000000000E+00 0.  1.
        -15    1    5    5    0    0  0.10805519436E+02 -0.97639302948E+02  0.47488696597E+03  0.48494105124E+03  0.00000000000E+00 0.  1.
         15    1    5    5    0    0  0.12357849272E+03 -0.16303557794E+03  0.65238269064E+03  0.68370711462E+03  0.00000000000E+00 0. -1.
         15    1    1    2    0    0 -0.48369830725E+03  0.58037377973E+03  0.12664896366E+04  0.14747182023E+04  0.00000000000E+00 0. -1.
        -16    1    4    4    0    0 -0.10878820915E+02  0.11843697423E+04 -0.46327166920E+03  0.12717982052E+04  0.00000000000E+00 0.  1.
         16    1    3    3    0    0  0.29479842020E+03 -0.12398755242E+04  0.13099471608E+04  0.18276101849E+04  0.00000000000E+00 0. -1.
    9900018    1    1    2    0    0  0.38747605187E+01  0.72760108095E+02  0.83330606486E+01  0.11701993588E+03  0.91187600000E+02 0.  0.
<mgrwt>
<rscale>  0 0.52271642E+04</rscale>
<asrwt>0</asrwt>
<pdfrwt beam="1">  1        2 0.76208270E+00 0.52271642E+04</pdfrwt>
<pdfrwt beam="2">  1       -2 0.21215021E+00 0.52271642E+04</pdfrwt>
<totfact> 0.30580320E-03</totfact>
</mgrwt>
</event>
<event>
11    1  0.3170968E-012  0.4916804E+04  0.7818608E-02  0.7841471E-01
         -2   -1    0    0    0  501 -0.00000000000E+00  0.00000000000E+00  0.18002467990E+04  0.18002467990E+04  0.00000000000E+00 0. -1.
          2   -1    0    0  501    0  0.00000000000E+00 -0.00000000000E+00 -0.33571734502E+04  0.33571734502E+04  0.00000000000E+00 0.  1.
    9900016    2    1    2    0    0 -0.66136989545E+03  0.36934315364E+03  0.12660588348E+03  0.22800635496E+04  0.21468200290E+04 0.  0.
         23    2    3    3    0    0 -0.56184566997E+03 -0.39322506730E+02  0.10891016215E+04  0.12296775543E+04  0.93529296085E+02 0.  0.
        -15    1    4    4    0    0 -0.45810107688E+03 -0.62412163195E+02  0.83951305966E+03  0.95840182183E+03  0.00000000000E+00 0. -1.
        -15    1    1    2    0    0  0.10093370089E+04 -0.30782606979E+03 -0.95096511913E+03  0.14205114377E+04  0.00000000000E+00 0.  1.
         15    1    4    4    0    0 -0.10374459309E+03  0.23089656465E+02  0.24958856183E+03  0.27127573247E+03  0.00000000000E+00 0.  1.
         15    1    1    2    0    0 -0.66631776165E+03  0.28684377058E+02 -0.30805011855E+03  0.73464074793E+03  0.00000000000E+00 0. -1.
        -16    1    3    3    0    0 -0.99524225478E+02  0.40866566037E+03 -0.96249573802E+03  0.10503859953E+04  0.00000000000E+00 0.  1.
         16    1    1    2    0    0  0.40116420790E+03 -0.15075423205E+03 -0.39278490554E+03  0.58132567654E+03  0.00000000000E+00 0. -1.
    9900018    1    1    2    0    0 -0.82813559717E+02  0.60552771140E+02 -0.31732391446E+02  0.14087883740E+03  0.91187600000E+02 0.  0.
<mgrwt>
<rscale>  0 0.49168041E+04</rscale>
<asrwt>0</asrwt>
<pdfrwt beam="1">  1        2 0.51648822E+00 0.49168041E+04</pdfrwt>
<pdfrwt beam="2">  1       -2 0.27696105E+00 0.49168041E+04</pdfrwt>
<totfact> 0.32789384E-02</totfact>
</mgrwt>
</event>
<event>
12    1  0.3170968E-012  0.3396559E+04  0.7818608E-02  0.8320210E-01
         -1   -1    0    0    0  501 -0.00000000000E+00  0.00000000000E+00  0.28949616975E+04  0.28949616975E+04  0.00000000000E+00 0.  1.
          1   -1    0    0  501    0  0.00000000000E+00 -0.00000000000E+00 -0.20444356819E+04  0.20444356819E+04  0.00000000000E+00 0. -1.
        -24    2    1    2    0    0 -0.14492569855E+04 -0.46382895582E+02  0.44960728233E+03  0.15192583586E+04  0.59178280037E+02 0.  0.
    9900016    2    1    2    0    0  0.89823659105E+03  0.44586314762E+03  0.80025528029E+03  0.25116261636E+04  0.21592208206E+04 0.  0.
         23    2    4    4    0    0  0.10412739608E+04  0.18158376509E+02  0.14083764993E+04  0.17545247983E+04  0.10125075791E+03 0.  0.
        -15    1    5    5    0    0  0.99456417194E+03  0.29678598270E+02  0.13101948299E+04  0.16451897166E+04  0.00000000000E+00 0.  1.
        -15    1    1    2    0    0  0.48330911078E+03 -0.40763845845E+03 -0.45771367287E+03  0.78055020063E+03  0.00000000000E+00 0.  1.
         15    1    3    3    0    0 -0.25552091280E+03  0.10174077423E+02  0.65607967257E+02  0.26400540544E+03  0.00000000000E+00 0. -1.
         15    1    5    5    0    0  0.46709788903E+02 -0.11520221761E+02  0.98181669426E+02  0.10933508174E+03  0.00000000000E+00 0. -1.
        -16    1    3    3    0    0 -0.11937360727E+04 -0.56556973005E+02  0.38399931507E+03  0.12552529532E+04  0.00000000000E+00 0.  1.
         16    1    4    4    0    0 -0.14303736979E+03  0.42770477111E+03 -0.60812121898E+03  0.75710136532E+03  0.00000000000E+00 0. -1.
    9900018    1    1    2    0    0  0.67711283683E+02  0.81582064111E+01  0.58377125857E+02  0.12796265661E+03  0.91187600000E+02 0.  0.
<mgrwt>
<rscale>  0 0.27460708E+04</rscale>
<asrwt>0</asrwt>
<pdfrwt beam="1">  1        1 0.31452857E+00 0.33965593E+04</pdfrwt>
<pdfrwt beam="2">  1       -1 0.44537872E+00 0.33965593E+04</pdfrwt>
<totfact> 0.76280832E-03</totfact>
</mgrwt>
</event>
