<event>
11    1  0.1904414E-013  0.1560060E+04  0.7818608E-02  0.8845467E-01
          1   -1    0    0  501    0  0.00000000000E+00  0.00000000000E+00  0.89889837457E+03  0.89889837457E+03  0.00000000000E+00 0. -1.
         -1   -1    0    0    0  501 -0.00000000000E+00 -0.00000000000E+00 -0.67688064478E+03  0.67688064478E+03  0.00000000000E+00 0.  1.
    9900016    2    1    2    0    0  0.37638633544E+03 -0.12927128225E+03  0.95152897054E+02  0.82216643177E+03  0.71310997034E+03 0.  0.
         23    2    3    3    0    0  0.15387492058E+03  0.87012377275E+02 -0.48157421096E+02  0.19617778407E+03  0.70128031286E+02 0.  0.
        -15    1    3    3    0    0 -0.27638504258E+02 -0.46766577453E+02 -0.95722581667E+00  0.54331537486E+02  0.00000000000E+00 0.  1.
        -15    1    4    4    0    0  0.17573286017E+01  0.14618729217E+02  0.10176662002E+02  0.17898600426E+02  0.00000000000E+00 0.  1.
         15    1    4    4    0    0  0.15211759198E+03  0.72393648059E+02 -0.58334083098E+02  0.17827918364E+03  0.00000000000E+00 0. -1.
         15    1    3    3    0    0  0.15566256619E+03  0.14972819116E+03  0.22499327722E+02  0.21715336859E+03  0.00000000000E+00 0. -1.
        -16    1    1    2    0    0 -0.47823167162E+03  0.85704811217E+02 -0.89473570833E+02  0.49402061322E+03  0.00000000000E+00 0.  1.
         16    1    3    3    0    0  0.94487352922E+02 -0.31924527323E+03  0.12176821624E+03  0.35450374163E+03  0.00000000000E+00 0. -1.
    9900018    1    1    2    0    0  0.10184533618E+03  0.43566471034E+02  0.21633840357E+03  0.25959197436E+03  0.91187600000E+02 0.  0.
<mgrwt>
<rscale>  0 0.15600601E+04</rscale>
<asrwt>0</asrwt>
<pdfrwt beam="1">  1        1 0.13829206E+00 0.15600601E+04</pdfrwt>
<pdfrwt beam="2">  1       -1 0.10413548E+00 0.15600601E+04</pdfrwt>
<totfact> 0.15239726E+01</totfact>
</mgrwt>
</event>
<event>
11    1  0.1904414E-013  0.1347116E+04  0.7818608E-02  0.8993014E-01
          1   -1    0    0  501    0  0.00000000000E+00  0.00000000000E+00  0.16914371503E+04  0.16914371503E+04  0.00000000000E+00 0. -1.
         -1   -1    0    0    0  501 -0.00000000000E+00 -0.00000000000E+00 -0.26822192825E+03  0.26822192825E+03  0.00000000000E+00 0.  1.
    9900016    2    1    2    0    0  0.37194119898E+03 -0.33219569025E+02  0.81593195757E+03  0.11442626172E+04  0.71003393053E+03 0.  0.
         23    2    3    3    0    0  0.20550258659E+03  0.13519484632E+03  0.13600164293E+03  0.29980671646E+03  0.10430081875E+03 0.  0.
        -15    1    4    4    0    0  0.75918129885E+02  0.40837011195E+02 -0.49576540076E+01  0.86346987567E+02  0.00000000000E+00 0.  1.
        -15    1    3    3    0    0  0.29746567606E+03 -0.20817512569E+03  0.48767196025E+03  0.60798573355E+03  0.00000000000E+00 0.  1.
         15    1    4    4    0    0  0.12958445670E+03  0.94357835122E+02  0.14095929694E+03  0.21345972890E+03  0.00000000000E+00 0. -1.
         15    1    3    3    0    0 -0.58861563954E+02  0.13481779228E+02  0.94599369420E+02  0.11222959849E+03  0.00000000000E+00 0. -1.
        -16    1    1    2    0    0 -0.24908587024E+03 -0.78917390748E+02  0.11061886340E+03  0.28373977207E+03  0.00000000000E+00 0.  1.
         16    1    3    3    0    0 -0.72165499705E+02  0.26278931117E+02  0.97658984968E+02  0.12424056871E+03  0.00000000000E+00 0. -1.
    9900018    1    1    2    0    0 -0.12285532874E+03  0.11213695977E+03  0.49666440105E+03  0.53165668924E+03  0.91187600000E+02 0.  0.
<mgrwt>
<rscale>  0 0.13471162E+04</rscale>
<asrwt>0</asrwt>
<pdfrwt beam="1">  1        1 0.26022109E+00 0.13471162E+04</pdfrwt>
<pdfrwt beam="2">  1       -1 0.41264913E-01 0.13471162E+04</pdfrwt>
<totfact> 0.27208078E+01</totfact>
</mgrwt>
</event>
<event>
10    1  0.1904414E-013  0.1347029E+04  0.7818608E-02  0.8993080E-01
         -2   -1    0    0    0  501 -0.00000000000E+00  0.00000000000E+00  0.23561060790E+03  0.23561060790E+03  0.00000000000E+00 0. -1.
          2   -1    0    0  501    0  0.00000000000E+00 -0.00000000000E+00 -0.19253032413E+04  0.19253032413E+04  0.00000000000E+00 0.  1.
    9900016    2    1    2    0    0  0.10852795545E+03 -0.59577593635E+02 -0.12914307376E+04  0.14782219594E+04  0.70853299459E+03 0.  0.
        -15    1    3    3    0    0 -0.32147367899E+02 -0.29644654460E+02 -0.38366172182E+02  0.58174066119E+02  0.00000000000E+00 0.  1.
        -15    1    3    3    0    0  0.88364411895E+02 -0.43247931481E+02 -0.12170137666E+03  0.15649242138E+03  0.00000000000E+00 0.  1.
         15    1    3    3    0    0  0.59571012887E+02 -0.64742995186E+02  0.66323325982E+01  0.88228956911E+02  0.00000000000E+00 0. -1.
         15    1    3    3    0    0  0.45117276540E+01 -0.65716045994E+02 -0.64531559587E+02  0.92213212557E+02  0.00000000000E+00 0. -1.
        -16    1    3    3    0    0 -0.11771829082E+02  0.14377403348E+03 -0.10734639618E+04  0.10831133024E+04  0.00000000000E+00 0.  1.
         16    1    1    2    0    0 -0.28048390625E+03 -0.98325980794E+02 -0.26811613441E+03  0.40028175289E+03  0.00000000000E+00 0. -1.
    9900018    1    1    2    0    0  0.17195595079E+03  0.15790357443E+03 -0.13014576138E+03  0.28241013691E+03  0.91187600000E+02 0.  0.
<mgrwt>
<rscale>  0 0.13470291E+04</rscale>
<asrwt>0</asrwt>
<pdfrwt beam="1">  1        2 0.29620051E+00 0.13470291E+04</pdfrwt>
<pdfrwt beam="2">  1       -2 0.36247784E-01 0.13470291E+04</pdfrwt>
<totfact> 0.51464981E+01</totfact>
</mgrwt>
</event>
<event>
11    1  0.1904414E-013  0.1822545E+04  0.7818608E-02  0.8694401E-01
          1   -1    0    0  501    0  0.00000000000E+00  0.00000000000E+00  0.12103901115E+04  0.12103901115E+04  0.00000000000E+00 0. -1.
         -1   -1    0    0    0  501 -0.00000000000E+00 -0.00000000000E+00 -0.68607456699E+03  0.68607456699E+03  0.00000000000E+00 0.  1.
    9900016    2    1    2    0    0  0.43539639118E+02 -0.15643509839E+03 -0.12677672657E+02  0.72830112368E+03  0.70985502970E+03 0.  0.
         23    2    3    3    0    0 -0.53894979983E+02 -0.17742544145E+03 -0.21603596483E+03  0.29329252482E+03  0.70459285210E+02 0.  0.
        -15    1    3    3    0    0  0.51723577203E+02  0.79195027421E+02  0.56830382888E+00  0.94591245769E+02  0.00000000000E+00 0.  1.
        -15    1    4    4    0    0 -0.28902784278E+02 -0.98890678028E+02 -0.66729391390E+02  0.12274994426E+03  0.00000000000E+00 0. -1.
         15    1    3    3    0    0 -0.70653370699E+02 -0.11491982166E+03  0.59878607467E+02  0.14759373914E+03  0.00000000000E+00 0. -1.
         15    1    4    4    0    0 -0.24992195705E+02 -0.78534763425E+02 -0.14930657344E+03  0.17054258056E+03  0.00000000000E+00 0.  1.
        -16    1    1    2    0    0 -0.35204517959E+03  0.18585416714E+03 -0.13679293095E+03  0.42093929002E+03  0.00000000000E+00 0.  1.
         16    1    3    3    0    0  0.11636441260E+03  0.56715137295E+02  0.14291138087E+03  0.19282361396E+03  0.00000000000E+00 0. -1.
    9900018    1    1    2    0    0  0.30850554048E+03 -0.29419068751E+02  0.67378614817E+03  0.74722426484E+03  0.91187600000E+02 0.  0.
<mgrwt>
<rscale>  0 0.18225453E+04</rscale>
<asrwt>0</asrwt>
<pdfrwt beam="1">  1        1 0.18621386E+00 0.18225453E+04</pdfrwt>
<pdfrwt beam="2">  1       -1 0.10554993E+00 0.18225453E+04</pdfrwt>
<totfact> 0.83180281E+00</totfact>
</mgrwt>
</event>
<event>
11    1  0.1904414E-013  0.2018774E+04  0.7818608E-02  0.8597893E-01
         -5   -1    0    0    0  501 -0.00000000000E+00  0.00000000000E+00  0.79945754969E+03  0.79945754969E+03  0.00000000000E+00 0.  1.
          5   -1    0    0  501    0  0.00000000000E+00 -0.00000000000E+00 -0.12744415603E+04  0.12744415603E+04  0.00000000000E+00 0. -1.
    9900016    2    1    2    0    0  0.22170917183E+03  0.11217828615E+03 -0.19812387007E+03  0.78596396142E+03  0.71885141441E+03 0.  0.
         23    2    3    3    0    0  0.43195695976E+02  0.10257227927E+03  0.31017477314E+02  0.16145164795E+03  0.11277238182E+03 0.  0.
        -15    1    3    3    0    0 -0.97085631164E+02  0.15659843239E+03 -0.79105124895E+02  0.20051511063E+03  0.00000000000E+00 0.  1.
        -15    1    4    4    0    0  0.33337573403E+02  0.79319370889E+02 -0.33372257084E+02  0.92285773234E+02  0.00000000000E+00 0. -1.
         15    1    3    3    0    0  0.39125944613E+02 -0.90567684453E+02  0.48671094061E+02  0.11001009229E+03  0.00000000000E+00 0. -1.
         15    1    4    4    0    0  0.98581225733E+01  0.23252908380E+02  0.64389734398E+02  0.69165874712E+02  0.00000000000E+00 0.  1.
        -16    1    3    3    0    0  0.23647316240E+03 -0.56424741050E+02 -0.19870731656E+03  0.31398711055E+03  0.00000000000E+00 0.  1.
         16    1    1    2    0    0 -0.33819045151E+03 -0.57062662059E+03 -0.42035491687E+03  0.78529343417E+03  0.00000000000E+00 0. -1.
    9900018    1    1    2    0    0  0.11648127968E+03  0.45844833443E+03  0.14349477632E+03  0.50264171443E+03  0.91187600000E+02 0.  0.
<mgrwt>
<rscale>  0 0.20187738E+04</rscale>
<asrwt>0</asrwt>
<pdfrwt beam="1">  1        5 0.19606793E+00 0.20187738E+04</pdfrwt>
<pdfrwt beam="2">  1       -5 0.12299347E+00 0.20187738E+04</pdfrwt>
<totfact> 0.50225404E-02</totfact>
</mgrwt>
</event>
<event>
11    1  0.1904414E-013  0.1195606E+04  0.7818608E-02  0.9116711E-01
          1   -1    0    0  501    0  0.00000000000E+00  0.00000000000E+00  0.63980651704E+03  0.63980651704E+03  0.00000000000E+00 0. -1.
         -1   -1    0    0    0  501 -0.00000000000E+00 -0.00000000000E+00 -0.55855706363E+03  0.55855706363E+03  0.00000000000E+00 0.  1.
    9900016    2    1    2    0    0 -0.26144294639E+03  0.22334969460E+02 -0.31699195158E+01  0.76201051280E+03  0.71540108202E+03 0.  0.
         23    2    3    3    0    0 -0.80843292984E+02  0.62885129834E+02  0.44294114992E+02  0.12549026290E+03  0.57407838189E+02 0.  0.
        -15    1    4    4    0    0 -0.87121114942E+02  0.49187858369E+02  0.46386970897E+02  0.11027821702E+03  0.00000000000E+00 0. -1.
        -15    1    3    3    0    0 -0.16656450557E+03  0.13432701299E+02 -0.42530661650E+02  0.17243268008E+03  0.00000000000E+00 0.  1.
         15    1    3    3    0    0  0.17987122662E+03 -0.89667348444E+02  0.11671759746E+03  0.23241533749E+03  0.00000000000E+00 0. -1.
         15    1    4    4    0    0  0.62778219581E+01  0.13697271465E+02 -0.20928559056E+01  0.15212045884E+02  0.00000000000E+00 0.  1.
        -16    1    3    3    0    0 -0.19390637445E+03  0.35684486772E+02 -0.12165097032E+03  0.23167223232E+03  0.00000000000E+00 0.  1.
         16    1    1    2    0    0  0.15675193231E+03 -0.16099230078E+03  0.84707612262E+02  0.24013552168E+03  0.00000000000E+00 0. -1.
    9900018    1    1    2    0    0  0.10469101407E+03  0.13865733132E+03 -0.28823933275E+00  0.19621754619E+03  0.91187600000E+02 0.  0.
<mgrwt>
<rscale>  0 0.11956060E+04</rscale>
<asrwt>0</asrwt>
<pdfrwt beam="1">  1        1 0.98431772E-01 0.11956060E+04</pdfrwt>
<pdfrwt beam="2">  1       -1 0.85931856E-01 0.11956060E+04</pdfrwt>
<totfact> 0.41291570E+01</totfact>
</mgrwt>
</event>
<event>
11    1  0.1904414E-013  0.2656326E+04  0.7818608E-02  0.8349316E-01
         -1   -1    0    0    0  501 -0.00000000000E+00  0.00000000000E+00  0.77611125748E+03  0.77611125748E+03  0.00000000000E+00 0.  1.
          1   -1    0    0  501    0  0.00000000000E+00 -0.00000000000E+00 -0.22728914426E+04  0.22728914426E+04  0.00000000000E+00 0. -1.
    9900016    2    1    2    0    0  0.23212385500E+03 -0.76304549019E+03 -0.40024851119E+03  0.11286507593E+04  0.69103817667E+03 0.  0.
         23    2    3    3    0    0 -0.97159447165E+01 -0.29186747180E+03 -0.54474235917E+02  0.30530141461E+03  0.70430751147E+02 0.  0.
        -15    1    4    4    0    0  0.56266619034E+01 -0.26651657533E+03 -0.64046000373E+02  0.27416169392E+03  0.00000000000E+00 0.  1.
        -15    1    3    3    0    0  0.99134295650E+02 -0.10651102317E+03 -0.30279017086E+03  0.33593763439E+03  0.00000000000E+00 0.  1.
         15    1    3    3    0    0  0.13578774170E+03 -0.20944546577E+03 -0.15683118754E+03  0.29479100277E+03  0.00000000000E+00 0. -1.
         15    1    4    4    0    0 -0.15342606620E+02 -0.25350896468E+02  0.95717644565E+01  0.31139720687E+02  0.00000000000E+00 0. -1.
        -16    1    3    3    0    0  0.69177623689E+01 -0.15522152945E+03  0.11384708312E+03  0.19262070754E+03  0.00000000000E+00 0.  1.
         16    1    1    2    0    0 -0.14714917962E+03  0.11364057195E+04 -0.98547797932E+03  0.15113694744E+04  0.00000000000E+00 0. -1.
    9900018    1    1    2    0    0 -0.84974675381E+02 -0.37336022933E+03 -0.11105369458E+03  0.40898246634E+03  0.91187600000E+02 0.  0.
<mgrwt>
<rscale>  0 0.26563258E+04</rscale>
<asrwt>0</asrwt>
<pdfrwt beam="1">  1        1 0.34967560E+00 0.26563258E+04</pdfrwt>
<pdfrwt beam="2">  1       -1 0.11940173E+00 0.26563258E+04</pdfrwt>
<totfact> 0.10666348E+00</totfact>
</mgrwt>
</event>
<event>
11    1  0.1904414E-013  0.1300278E+04  0.7818608E-02  0.9029345E-01
          1   -1    0    0  501    0  0.00000000000E+00  0.00000000000E+00  0.34626430662E+04  0.34626430662E+04  0.00000000000E+00 0. -1.
         -1   -1    0    0    0  501 -0.00000000000E+00 -0.00000000000E+00 -0.12206876568E+03  0.12206876568E+03  0.00000000000E+00 0.  1.
    9900016    2    1    2    0    0  0.54500692870E+02 -0.13845213818E+03  0.18513549240E+04  0.19886463785E+04  0.71067576564E+03 0.  0.
         23    2    3    3    0    0 -0.14422395709E+03  0.17278382072E+03  0.62192812760E+03  0.67230471443E+03  0.12059948033E+03 0.  0.
        -15    1    4    4    0    0 -0.57124294450E+02  0.52276729169E+01  0.80180914230E+02  0.98587486971E+02  0.00000000000E+00 0.  1.
        -15    1    3    3    0    0 -0.67711257702E+02 -0.83733935168E+02  0.39945689708E+03  0.41371729350E+03  0.00000000000E+00 0.  1.
         15    1    3    3    0    0  0.58492289321E+02 -0.31927698234E+02  0.11728844581E+03  0.13489738821E+03  0.00000000000E+00 0. -1.
         15    1    4    4    0    0 -0.87099662637E+02  0.16755614780E+03  0.54174721337E+03  0.57371722746E+03  0.00000000000E+00 0. -1.
        -16    1    3    3    0    0  0.20794361834E+03 -0.19557432550E+03  0.71268145353E+03  0.76772698233E+03  0.00000000000E+00 0.  1.
         16    1    1    2    0    0 -0.23699888911E+03  0.22729490510E+03  0.10973180433E+04  0.11453987670E+04  0.00000000000E+00 0. -1.
    9900018    1    1    2    0    0  0.18249819624E+03 -0.88842766914E+02  0.39190133318E+03  0.45066668637E+03  0.91187600000E+02 0.  0.
<mgrwt>
<rscale>  0 0.13002778E+04</rscale>
<asrwt>0</asrwt>
<pdfrwt beam="1">  1        1 0.53271424E+00 0.13002778E+04</pdfrwt>
<pdfrwt beam="2">  1       -1 0.18779813E-01 0.13002778E+04</pdfrwt>
<totfact> 0.60733213E+00</totfact>
</mgrwt>
</event>
<event>
11    1  0.1904414E-013  0.1327687E+04  0.7818608E-02  0.9007893E-01
          1   -1    0    0  501    0  0.00000000000E+00  0.00000000000E+00  0.28030489705E+03  0.28030489705E+03  0.00000000000E+00 0. -1.
         -1   -1    0    0    0  501 -0.00000000000E+00 -0.00000000000E+00 -0.15721739727E+04  0.15721739727E+04  0.00000000000E+00 0.  1.
    9900016    2    1    2    0    0 -0.16940396365E+03 -0.82754890100E+02 -0.71571935694E+03  0.10376824285E+04  0.72731324045E+03 0.  0.
         23    2    3    3    0    0 -0.96363272871E+02  0.19197333021E+03 -0.49018886108E+03  0.53811547417E+03  0.56066961205E+02 0.  0.
        -15    1    3    3    0    0 -0.24141293160E+02 -0.81125731720E+01 -0.32005002992E+02  0.40901541480E+02  0.00000000000E+00 0.  1.
        -15    1    4    4    0    0 -0.77177070625E+02  0.96855924520E+02 -0.24774080578E+03  0.27697089593E+03  0.00000000000E+00 0.  1.
         15    1    4    4    0    0 -0.19186202246E+02  0.95117405691E+02 -0.24244805530E+03  0.26114457823E+03  0.00000000000E+00 0. -1.
         15    1    3    3    0    0  0.64841996593E+02  0.43019595805E+02 -0.75217468823E+02  0.10822586457E+03  0.00000000000E+00 0. -1.
        -16    1    3    3    0    0 -0.11374139421E+03 -0.30963524294E+03 -0.11830802404E+03  0.35043954826E+03  0.00000000000E+00 0.  1.
         16    1    1    2    0    0  0.35048886208E+03  0.10813067625E+03 -0.31707811249E+03  0.48484349538E+03  0.00000000000E+00 0. -1.
    9900018    1    1    2    0    0 -0.18108489843E+03 -0.25375786146E+02 -0.25907160619E+03  0.32995294587E+03  0.91187600000E+02 0.  0.
<mgrwt>
<rscale>  0 0.13276868E+04</rscale>
<asrwt>0</asrwt>
<pdfrwt beam="1">  1        1 0.43123831E-01 0.13276868E+04</pdfrwt>
<pdfrwt beam="2">  1       -1 0.24187292E+00 0.13276868E+04</pdfrwt>
<totfact> 0.74106472E+00</totfact>
</mgrwt>
</event>
<event>
11    1  0.1904414E-013  0.1374613E+04  0.7818608E-02  0.8972403E-01
          1   -1    0    0  501    0  0.00000000000E+00  0.00000000000E+00  0.86932190310E+03  0.86932190310E+03  0.00000000000E+00 0. -1.
         -1   -1    0    0    0  501 -0.00000000000E+00 -0.00000000000E+00 -0.54340065145E+03  0.54340065145E+03  0.00000000000E+00 0.  1.
    9900016    2    1    2    0    0 -0.74351328119E+02 -0.20619346443E+03  0.27554699087E+03  0.78961824551E+03  0.70677221557E+03 0.  0.
         23    2    3    3    0    0 -0.54937310447E+02  0.61332336575E+02  0.35018422016E+03  0.36807962877E+03  0.77934982372E+02 0.  0.
        -15    1    4    4    0    0 -0.69146529623E+02  0.23640366414E+02  0.22873173332E+03  0.24012145950E+03  0.00000000000E+00 0. -1.
        -15    1    3    3    0    0  0.47752233040E+02 -0.10502576002E+03 -0.10268024248E+03  0.15444713731E+03  0.00000000000E+00 0.  1.
         15    1    3    3    0    0 -0.49504520397E+02  0.19473789031E+02  0.61405149865E+02  0.81243574693E+02  0.00000000000E+00 0. -1.
         15    1    4    4    0    0  0.14209219175E+02  0.37691970161E+02  0.12145248684E+03  0.12795816928E+03  0.00000000000E+00 0.  1.
        -16    1    3    3    0    0 -0.17661730314E+02 -0.18197383002E+03 -0.33362136686E+02  0.18584790473E+03  0.00000000000E+00 0.  1.
         16    1    1    2    0    0  0.29549843488E+02  0.23387176851E+03  0.28266476727E+03  0.36806054938E+03  0.00000000000E+00 0. -1.
    9900018    1    1    2    0    0  0.44801484631E+02 -0.27678304076E+02 -0.23229050649E+03  0.25504375966E+03  0.91187600000E+02 0.  0.
<mgrwt>
<rscale>  0 0.13746128E+04</rscale>
<asrwt>0</asrwt>
<pdfrwt beam="1">  1        1 0.13374183E+00 0.13746128E+04</pdfrwt>
<pdfrwt beam="2">  1       -1 0.83600100E-01 0.13746128E+04</pdfrwt>
<totfact> 0.26760646E+01</totfact>
</mgrwt>
</event>
<event>
11    1  0.1904414E-013  0.3028772E+04  0.7818608E-02  0.8235562E-01
         -3   -1    0    0    0  501 -0.00000000000E+00  0.00000000000E+00  0.15725143272E+04  0.15725143272E+04  0.00000000000E+00 0.  1.
          3   -1    0    0  501    0  0.00000000000E+00 -0.00000000000E+00 -0.14584060411E+04  0.14584060411E+04  0.00000000000E+00 0. -1.
    9900016    2    1    2    0    0 -0.11138268906E+03  0.34542942682E+03  0.57338924165E+03  0.97681571593E+03  0.70261378304E+03 0.  0.
         23    2    3    3    0    0 -0.22020236150E+03  0.25558713220E+03  0.26787127505E+03  0.43631969925E+03  0.69325304230E+02 0.  0.
        -15    1    3    3    0    0 -0.58284195879E+02  0.80088974827E+02  0.31527410934E+03  0.33046793399E+03  0.00000000000E+00 0.  1.
        -15    1    4    4    0    0 -0.16996566651E+03  0.16837138193E+03  0.15487550873E+03  0.28499767236E+03  0.00000000000E+00 0.  1.
         15    1    3    3    0    0  0.37723801935E+02  0.55785240826E+02  0.18475108611E+02  0.69831282135E+02  0.00000000000E+00 0. -1.
         15    1    4    4    0    0 -0.50236694988E+02  0.87215750265E+02  0.11299576632E+03  0.15132202689E+03  0.00000000000E+00 0. -1.
        -16    1    3    3    0    0  0.12938006638E+03 -0.46031921032E+02 -0.28231251345E+02  0.14019680055E+03  0.00000000000E+00 0.  1.
         16    1    1    2    0    0 -0.99371282112E+01  0.32994125109E+03 -0.10769360724E+04  0.11263886007E+04  0.00000000000E+00 0. -1.
    9900018    1    1    2    0    0  0.12131981727E+03 -0.67537067791E+03  0.61765511688E+03  0.92771605162E+03  0.91187600000E+02 0.  0.
<mgrwt>
<rscale>  0 0.30287716E+04</rscale>
<asrwt>0</asrwt>
<pdfrwt beam="1">  1        3 0.22437016E+00 0.30287716E+04</pdfrwt>
<pdfrwt beam="2">  1       -3 0.24192528E+00 0.30287716E+04</pdfrwt>
<totfact> 0.18839210E-02</totfact>
</mgrwt>
</event>
<event>
11    1  0.1904414E-013  0.1689085E+04  0.7818608E-02  0.8767614E-01
          1   -1    0    0  501    0  0.00000000000E+00  0.00000000000E+00  0.77868330896E+03  0.77868330896E+03  0.00000000000E+00 0. -1.
         -1   -1    0    0    0  501 -0.00000000000E+00 -0.00000000000E+00 -0.91597206333E+03  0.91597206333E+03  0.00000000000E+00 0.  1.
    9900016    2    1    2    0    0 -0.20967995912E+03  0.17939780325E+03 -0.11564351813E+03  0.78170195033E+03  0.72217398098E+03 0.  0.
         23    2    3    3    0    0  0.12546467356E+03  0.16471729330E+02 -0.93606546424E+01  0.14826516916E+03  0.76695738818E+02 0.  0.
        -15    1    4    4    0    0  0.93680651420E+02  0.82636049996E+01 -0.41072984018E+02  0.10262232522E+03  0.00000000000E+00 0. -1.
        -15    1    3    3    0    0  0.15644291698E+02  0.78994318717E+02 -0.80708411553E+02  0.11401181495E+03  0.00000000000E+00 0.  1.
         15    1    4    4    0    0  0.31784022137E+02  0.82081243309E+01  0.31712329375E+02  0.45642843937E+02  0.00000000000E+00 0.  1.
         15    1    3    3    0    0  0.10070422765E+01  0.34504367625E+02  0.12787284726E+03  0.13245010603E+03  0.00000000000E+00 0. -1.
        -16    1    1    2    0    0  0.12339298714E+02 -0.44547554608E+03 -0.23968854896E+03  0.50601513905E+03  0.00000000000E+00 0.  1.
         16    1    3    3    0    0 -0.35179596665E+03  0.49427387573E+02 -0.15344729919E+03  0.38697486020E+03  0.00000000000E+00 0. -1.
    9900018    1    1    2    0    0  0.19734066040E+03  0.26607774284E+03  0.21804331271E+03  0.40693828291E+03  0.91187600000E+02 0.  0.
<mgrwt>
<rscale>  0 0.16890851E+04</rscale>
<asrwt>0</asrwt>
<pdfrwt beam="1">  1        1 0.11979743E+00 0.16890851E+04</pdfrwt>
<pdfrwt beam="2">  1       -1 0.14091878E+00 0.16890851E+04</pdfrwt>
<totfact> 0.90611321E+00</totfact>
</mgrwt>
</event>
