<event>
11    1  0.7041409E-016  0.2254032E+04  0.7818608E-02  0.8496270E-01
          2   -1    0    0  501    0  0.00000000000E+00  0.00000000000E+00  0.65571320309E+03  0.65571320309E+03  0.00000000000E+00 0. -1.
         -2   -1    0    0    0  501 -0.00000000000E+00 -0.00000000000E+00 -0.19370734882E+04  0.19370734882E+04  0.00000000000E+00 0.  1.
    9900016    2    1    2    0    0 -0.13273492394E+03  0.17797226288E+03 -0.48027717459E+03  0.82702267574E+03  0.63561596532E+03 0.  0.
         23    2    3    3    0    0 -0.98097028451E+02 -0.42653879302E+02  0.12123463687E+03  0.18539027495E+03  0.90715690250E+02 0.  0.
        -15    1    4    4    0    0 -0.28633215423E+02 -0.12926052591E+02  0.50349179491E+01  0.31816572094E+02  0.00000000000E+00 0.  1.
        -15    1    4    4    0    0 -0.14437521130E+02  0.66418154905E+00  0.10433640782E+02  0.17825375549E+02  0.00000000000E+00 0.  1.
         15    1    4    4    0    0 -0.88659591407E+01 -0.11076774030E+02 -0.43136959484E+01  0.14829299617E+02  0.00000000000E+00 0. -1.
         15    1    4    4    0    0 -0.46160332758E+02 -0.19315234231E+02  0.11007977409E+03  0.12091902769E+03  0.00000000000E+00 0. -1.
        -16    1    3    3    0    0 -0.34637895491E+02  0.22062614218E+03 -0.60151181146E+03  0.64163240079E+03  0.00000000000E+00 0.  1.
         16    1    1    2    0    0  0.32709381452E+03 -0.75037477183E+03 -0.83104946658E+02  0.82277523896E+03  0.00000000000E+00 0. -1.
    9900018    1    1    2    0    0 -0.19435889057E+03  0.57240250895E+03 -0.71797816391E+03  0.94298877662E+03  0.91187600000E+02 0.  0.
<mgrwt>
<rscale>  0 0.22540316E+04</rscale>
<asrwt>0</asrwt>
<pdfrwt beam="1">  1        2 0.10087896E+00 0.22540316E+04</pdfrwt>
<pdfrwt beam="2">  1       -2 0.29801130E+00 0.22540316E+04</pdfrwt>
<totfact> 0.13235669E+00</totfact>
</mgrwt>
</event>
<event>
11    1  0.7041409E-016  0.1486171E+04  0.7818608E-02  0.8893701E-01
          1   -1    0    0  501    0  0.00000000000E+00  0.00000000000E+00  0.50105861032E+03  0.50105861032E+03  0.00000000000E+00 0. -1.
         -1   -1    0    0    0  501 -0.00000000000E+00 -0.00000000000E+00 -0.11020188156E+04  0.11020188156E+04  0.00000000000E+00 0.  1.
    9900016    2    1    2    0    0 -0.39277277376E+03 -0.87175444912E+02 -0.87108623048E+03  0.11184764772E+04  0.57474202833E+03 0.  0.
         23    2    3    3    0    0  0.70405786541E+02  0.12524024437E+03 -0.22751616032E+03  0.28394957003E+03  0.90673378274E+02 0.  0.
        -15    1    4    4    0    0 -0.34926584894E+01  0.18151648204E+02 -0.31056177042E+02  0.36140934248E+02  0.00000000000E+00 0. -1.
        -15    1    4    4    0    0  0.16869496236E+02  0.47978642492E+02 -0.10151708378E+03  0.11354403700E+03  0.00000000000E+00 0.  1.
         15    1    4    4    0    0  0.18048970943E+02  0.14203932106E+01 -0.45215896637E+02  0.48705853628E+02  0.00000000000E+00 0.  1.
         15    1    4    4    0    0  0.38979977852E+02  0.57689560460E+02 -0.49727002856E+02  0.85558745154E+02  0.00000000000E+00 0. -1.
        -16    1    3    3    0    0  0.35016193202E+01 -0.79431061208E+01 -0.58568733196E-01  0.86808814649E+01  0.00000000000E+00 0.  1.
         16    1    1    2    0    0  0.39277277376E+03  0.87175444912E+02  0.27012602520E+03  0.48460094872E+03  0.00000000000E+00 0. -1.
    9900018    1    3    3    0    0 -0.46668017962E+03 -0.20447258316E+03 -0.64351150143E+03  0.82584602571E+03  0.91187600000E+02 0.  0.
<mgrwt>
<rscale>  0 0.14861709E+04</rscale>
<asrwt>0</asrwt>
<pdfrwt beam="1">  1        1 0.77085940E-01 0.14861709E+04</pdfrwt>
<pdfrwt beam="2">  1       -1 0.16954136E+00 0.14861709E+04</pdfrwt>
<totfact> 0.10612209E+01</totfact>
</mgrwt>
</event>
<event>
11    1  0.7041409E-016  0.1835547E+04  0.7818608E-02  0.8687621E-01
         -1   -1    0    0    0  501 -0.00000000000E+00  0.00000000000E+00  0.18172052004E+04  0.18172052004E+04  0.00000000000E+00 0.  1.
          1   -1    0    0  501    0  0.00000000000E+00 -0.00000000000E+00 -0.46351850424E+03  0.46351850424E+03  0.00000000000E+00 0. -1.
    9900016    2    1    2    0    0  0.39357009379E+03 -0.86438749779E+01  0.40346342077E+03  0.80651615889E+03  0.57681318237E+03 0.  0.
         23    2    3    3    0    0  0.62430190138E+01 -0.17173756435E+03  0.32466755172E+03  0.37892920476E+03  0.92981486255E+02 0.  0.
        -15    1    4    4    0    0  0.98011068443E+01 -0.77062232548E+02  0.16503640806E+03  0.18240522297E+03  0.00000000000E+00 0.  1.
        -15    1    4    4    0    0  0.84849779249E+01 -0.13561297792E+02  0.20688747722E+02  0.26152015802E+02  0.00000000000E+00 0. -1.
         15    1    4    4    0    0  0.12509099194E+02 -0.26942508135E+02  0.15861827217E+02  0.33674528503E+02  0.00000000000E+00 0.  1.
         15    1    4    4    0    0 -0.24552164950E+02 -0.54171525873E+02  0.12308056872E+03  0.13669743748E+03  0.00000000000E+00 0. -1.
        -16    1    1    2    0    0 -0.24650909307E+03 -0.83202761179E+02  0.11590400935E+04  0.11878818842E+04  0.00000000000E+00 0.  1.
         16    1    3    3    0    0  0.38732707478E+03  0.16309368937E+03  0.78795869058E+02  0.42758695414E+03  0.00000000000E+00 0. -1.
    9900018    1    1    2    0    0 -0.14706100072E+03  0.91846636157E+02 -0.20881681816E+03  0.28632566152E+03  0.91187600000E+02 0.  0.
<mgrwt>
<rscale>  0 0.18355470E+04</rscale>
<asrwt>0</asrwt>
<pdfrwt beam="1">  1        1 0.71310540E-01 0.18355470E+04</pdfrwt>
<pdfrwt beam="2">  1       -1 0.27957003E+00 0.18355470E+04</pdfrwt>
<totfact> 0.20737210E+00</totfact>
</mgrwt>
</event>
<event>
11    1  0.7041409E-016  0.2050647E+04  0.7818608E-02  0.8583301E-01
         -2   -1    0    0    0  501 -0.00000000000E+00  0.00000000000E+00  0.34292324494E+04  0.34292324494E+04  0.00000000000E+00 0.  1.
          2   -1    0    0  501    0  0.00000000000E+00 -0.00000000000E+00 -0.30656665296E+03  0.30656665296E+03  0.00000000000E+00 0. -1.
    9900016    2    1    2    0    0 -0.40785332777E+02  0.21839778996E+03  0.13451257058E+04  0.14883174340E+04  0.59696279768E+03 0.  0.
         23    2    3    3    0    0  0.21271797004E+03 -0.38166018413E+02  0.80877151252E+03  0.84197021076E+03  0.89982757224E+02 0.  0.
        -15    1    4    4    0    0  0.14040956693E+02 -0.24524334470E+00  0.23247970994E+02  0.27160205531E+02  0.00000000000E+00 0.  1.
        -15    1    4    4    0    0  0.13559710092E+02  0.89844121220E+01  0.54041066139E+02  0.56436001173E+02  0.00000000000E+00 0.  1.
         15    1    4    4    0    0  0.58686339361E+02 -0.25294776903E+02  0.35327751361E+03  0.35901102182E+03  0.00000000000E+00 0. -1.
         15    1    4    4    0    0  0.12643096390E+03 -0.21610410288E+02  0.37820496178E+03  0.39936298223E+03  0.00000000000E+00 0. -1.
        -16    1    3    3    0    0 -0.25350330282E+03  0.25656380837E+03  0.53635419332E+03  0.64634722325E+03  0.00000000000E+00 0.  1.
         16    1    1    2    0    0  0.75603856574E+02 -0.64920545662E+03  0.32632540720E+03  0.73052853429E+03  0.00000000000E+00 0. -1.
    9900018    1    1    2    0    0 -0.34818523797E+02  0.43080766666E+03  0.14512146834E+04  0.15169531341E+04  0.91187600000E+02 0.  0.
<mgrwt>
<rscale>  0 0.20506470E+04</rscale>
<asrwt>0</asrwt>
<pdfrwt beam="1">  1        2 0.47164103E-01 0.20506470E+04</pdfrwt>
<pdfrwt beam="2">  1       -2 0.52757420E+00 0.20506470E+04</pdfrwt>
<totfact> 0.11110381E-01</totfact>
</mgrwt>
</event>
<event>
12    1  0.7041409E-016  0.7493131E+03  0.7818608E-02  0.9636429E-01
         -1   -1    0    0    0  501 -0.00000000000E+00  0.00000000000E+00  0.65572155701E+03  0.65572155701E+03  0.00000000000E+00 0.  1.
          1   -1    0    0  501    0  0.00000000000E+00 -0.00000000000E+00 -0.21406574537E+03  0.21406574537E+03  0.00000000000E+00 0. -1.
    9900016    2    1    2    0    0  0.57404717482E+02  0.76735622928E+02  0.24783033482E+03  0.65356525707E+03  0.59711306549E+03 0.  0.
         23    2    3    3    0    0 -0.54085813387E+02 -0.43902254424E+02  0.26610761441E+03  0.29060741861E+03  0.93737538641E+02 0.  0.
         23    2    4    4    0    0 -0.20463497112E+02 -0.19023606692E+02  0.15502028327E+03  0.16734918395E+03  0.56513793167E+02 0.  0.
        -15    1    4    4    0    0 -0.27766653034E+02 -0.71787917988E+00  0.68942932631E+02  0.74327857033E+02  0.00000000000E+00 0.  1.
        -15    1    5    5    0    0 -0.23836382596E+02 -0.37259291256E+02  0.11598027870E+03  0.12412837294E+03  0.00000000000E+00 0.  1.
         15    1    4    4    0    0 -0.58556632416E+01 -0.24160768551E+02  0.42144398507E+02  0.48930377625E+02  0.00000000000E+00 0. -1.
         15    1    5    5    0    0  0.33728854842E+01  0.18235684564E+02  0.39040004567E+02  0.43220811012E+02  0.00000000000E+00 0. -1.
        -16    1    1    2    0    0 -0.57404717482E+02 -0.76735622928E+02  0.19382547682E+03  0.21622204531E+03  0.00000000000E+00 0.  1.
         16    1    3    3    0    0  0.25973910725E+02 -0.40637365416E+02 -0.12406687417E+03  0.13311133976E+03  0.00000000000E+00 0. -1.
    9900018    1    3    3    0    0  0.85516620145E+02  0.16127524277E+03  0.10578959458E+03  0.22984649870E+03  0.91187600000E+02 0.  0.
<mgrwt>
<rscale>  0 0.74931308E+03</rscale>
<asrwt>0</asrwt>
<pdfrwt beam="1">  1        1 0.32933192E-01 0.74931308E+03</pdfrwt>
<pdfrwt beam="2">  1       -1 0.10088024E+00 0.74931308E+03</pdfrwt>
<totfact> 0.12900776E+02</totfact>
</mgrwt>
</event>
<event>
11    1  0.7041409E-016  0.1687160E+04  0.7818608E-02  0.8768721E-01
          2   -1    0    0  501    0  0.00000000000E+00  0.00000000000E+00  0.18925504643E+04  0.18925504643E+04  0.00000000000E+00 0. -1.
         -2   -1    0    0    0  501 -0.00000000000E+00 -0.00000000000E+00 -0.37601496581E+03  0.37601496581E+03  0.00000000000E+00 0.  1.
    9900016    2    1    2    0    0  0.49179363849E+02  0.12245910101E+03  0.17917334787E+04  0.19633625966E+04  0.79187687526E+03 0.  0.
         23    2    3    3    0    0 -0.24141835577E+03  0.10432784499E+03  0.23322544985E+03  0.36357972009E+03  0.92892306768E+02 0.  0.
        -15    1    4    4    0    0 -0.21782790311E+02  0.30883686326E+02  0.90205517805E+01  0.38854374133E+02  0.00000000000E+00 0.  1.
        -15    1    4    4    0    0 -0.11554234189E+02 -0.27771723924E+01  0.11902270000E+02  0.16818948997E+02  0.00000000000E+00 0. -1.
         15    1    4    4    0    0 -0.19546087220E+03  0.66890736154E+02  0.19030135208E+03  0.28088062900E+03  0.00000000000E+00 0. -1.
         15    1    4    4    0    0 -0.12620459068E+02  0.93305948979E+01  0.22001275992E+02  0.27025767954E+02  0.00000000000E+00 0.  1.
        -16    1    1    2    0    0 -0.49179363849E+02 -0.12245910101E+03 -0.27519798026E+03  0.30520283352E+03  0.00000000000E+00 0.  1.
         16    1    3    3    0    0  0.19270432674E+03  0.85708754479E+02  0.94093615930E+03  0.96428305182E+03  0.00000000000E+00 0. -1.
    9900018    1    3    3    0    0  0.97893392880E+02 -0.67577498459E+02  0.61757186958E+03  0.63549982467E+03  0.91187600000E+02 0.  0.
<mgrwt>
<rscale>  0 0.16871601E+04</rscale>
<asrwt>0</asrwt>
<pdfrwt beam="1">  1        2 0.29116160E+00 0.16871601E+04</pdfrwt>
<pdfrwt beam="2">  1       -2 0.57848457E-01 0.16871601E+04</pdfrwt>
<totfact> 0.20425787E+01</totfact>
</mgrwt>
</event>
<event>
11    1  0.7041409E-016  0.1503692E+04  0.7818608E-02  0.8882001E-01
          2   -1    0    0  501    0  0.00000000000E+00  0.00000000000E+00  0.98417224947E+03  0.98417224947E+03  0.00000000000E+00 0. -1.
         -2   -1    0    0    0  501 -0.00000000000E+00 -0.00000000000E+00 -0.57436348452E+03  0.57436348452E+03  0.00000000000E+00 0.  1.
    9900016    2    1    2    0    0 -0.21711598492E+03 -0.34210750612E+03  0.73504071250E+03  0.10389659924E+04  0.61236311755E+03 0.  0.
         23    2    3    3    0    0 -0.29561269398E+02  0.11453800956E+03  0.17632818460E+03  0.23118988293E+03  0.91456596279E+02 0.  0.
        -15    1    4    4    0    0  0.23848777979E+02  0.18135993373E+02  0.20233233394E+02  0.36153315205E+02  0.00000000000E+00 0. -1.
        -15    1    4    4    0    0 -0.29481473295E+01  0.12314470679E+02  0.60157923764E+01  0.14018827294E+02  0.00000000000E+00 0. -1.
         15    1    4    4    0    0 -0.43426052191E+02  0.49846880559E+02  0.10271149078E+03  0.12214820444E+03  0.00000000000E+00 0.  1.
         15    1    4    4    0    0 -0.70358478567E+01  0.34240664951E+02  0.47367668046E+02  0.58869535988E+02  0.00000000000E+00 0.  1.
        -16    1    1    2    0    0  0.21711598492E+03  0.34210750612E+03 -0.32523194755E+03  0.51956974157E+03  0.00000000000E+00 0.  1.
         16    1    3    3    0    0 -0.97304697125E+02 -0.27050335093E+03  0.11467498926E+03  0.30950059792E+03  0.00000000000E+00 0. -1.
    9900018    1    3    3    0    0 -0.90250018394E+02 -0.18614216475E+03  0.44403753864E+03  0.49827551158E+03  0.91187600000E+02 0.  0.
<mgrwt>
<rscale>  0 0.15036923E+04</rscale>
<asrwt>0</asrwt>
<pdfrwt beam="1">  1        2 0.15141112E+00 0.15036923E+04</pdfrwt>
<pdfrwt beam="2">  1       -2 0.88363613E-01 0.15036923E+04</pdfrwt>
<totfact> 0.27468923E+01</totfact>
</mgrwt>
</event>
<event>
11    1  0.7041409E-016  0.1291529E+04  0.7818608E-02  0.9036310E-01
         -1   -1    0    0    0  501 -0.00000000000E+00  0.00000000000E+00  0.90885432373E+03  0.90885432373E+03  0.00000000000E+00 0.  1.
          1   -1    0    0  501    0  0.00000000000E+00 -0.00000000000E+00 -0.45883207914E+03  0.45883207914E+03  0.00000000000E+00 0. -1.
    9900016    2    1    2    0    0 -0.19919803071E+02 -0.89022474761E+02  0.23414467037E+03  0.65852118718E+03  0.60869091314E+03 0.  0.
         23    2    3    3    0    0 -0.13586662742E+03  0.11453694936E+03  0.34501292339E+03  0.39934581267E+03  0.94152576050E+02 0.  0.
        -15    1    4    4    0    0 -0.18470470812E+02  0.41875538967E+02  0.12796940228E+03  0.13590764134E+03  0.00000000000E+00 0. -1.
        -15    1    4    4    0    0 -0.47277605272E+02  0.10561505617E+02  0.43714263423E+02  0.65250702585E+02  0.00000000000E+00 0. -1.
         15    1    4    4    0    0 -0.40603199821E+02  0.44115276234E+02  0.12645090230E+03  0.13994501822E+03  0.00000000000E+00 0.  1.
         15    1    4    4    0    0 -0.29515351512E+02  0.17984628543E+02  0.46878355386E+02  0.58242450518E+02  0.00000000000E+00 0.  1.
        -16    1    3    3    0    0  0.11594682435E+03 -0.20355942412E+03 -0.11086825302E+03  0.25917537451E+03  0.00000000000E+00 0.  1.
         16    1    1    2    0    0 -0.11538676657E+02 -0.10084170450E+03 -0.20986963206E+03  0.23312540163E+03  0.00000000000E+00 0. -1.
    9900018    1    1    2    0    0  0.31458479728E+02  0.18986417926E+03  0.42574720628E+03  0.47603981405E+03  0.91187600000E+02 0.  0.
<mgrwt>
<rscale>  0 0.12915286E+04</rscale>
<asrwt>0</asrwt>
<pdfrwt beam="1">  1        1 0.70589551E-01 0.12915286E+04</pdfrwt>
<pdfrwt beam="2">  1       -1 0.13982374E+00 0.12915286E+04</pdfrwt>
<totfact> 0.20622174E+01</totfact>
</mgrwt>
</event>
