<event>
11    1  0.7232208E-019  0.3184400E+04  0.7818608E-02  0.8192949E-01
         -2   -1    0    0    0  501 -0.00000000000E+00  0.00000000000E+00  0.16122240711E+04  0.16122240711E+04  0.00000000000E+00 0.  1.
          2   -1    0    0  501    0  0.00000000000E+00 -0.00000000000E+00 -0.15724251135E+04  0.15724251135E+04  0.00000000000E+00 0. -1.
    9900016    2    1    2    0    0  0.17031964327E+03 -0.81832671054E+03  0.47284926027E+03  0.22432672479E+04  0.20273120471E+04 0.  0.
         24    2    3    3    0    0  0.64553206675E+01  0.34724937226E+03 -0.45730996921E+03  0.58095470064E+03  0.88046343228E+02 0.  0.
        -15    1    4    4    0    0 -0.23819052084E+02  0.42911261486E+02 -0.55275394013E+02  0.73919502080E+02  0.00000000000E+00 0.  1.
        -15    1    4    4    0    0 -0.54811019122E+01  0.27503134608E+02 -0.44102922560E+02  0.52264066717E+02  0.00000000000E+00 0. -1.
         15    1    3    3    0    0 -0.15110899794E+03 -0.37546483510E+02  0.27817880271E+03  0.31879007821E+03  0.00000000000E+00 0. -1.
         15    1    4    4    0    0  0.79703430256E+01  0.14662385035E+02 -0.17381818780E+02  0.24096462956E+02  0.00000000000E+00 0.  1.
        -16    1    1    2    0    0 -0.17031964327E+03  0.81832671054E+03 -0.43305030269E+03  0.94138193669E+03  0.00000000000E+00 0.  1.
         16    1    4    4    0    0  0.27785131638E+02  0.26217259113E+03 -0.34054983385E+03  0.43067466888E+03  0.00000000000E+00 0. -1.
    9900018    1    3    3    0    0  0.31497332054E+03 -0.11280295993E+04  0.65198042676E+03  0.13435224690E+04  0.91187600000E+02 0.  0.
<mgrwt>
<rscale>  0 0.31844005E+04</rscale>
<asrwt>0</asrwt>
<pdfrwt beam="1">  1        2 0.24191156E+00 0.31844005E+04</pdfrwt>
<pdfrwt beam="2">  1       -2 0.24803447E+00 0.31844005E+04</pdfrwt>
<totfact> 0.64384811E-01</totfact>
</mgrwt>
</event>
<event>
11    1  0.7232208E-019  0.3209022E+04  0.7818608E-02  0.8186438E-01
          1   -1    0    0  501    0  0.00000000000E+00  0.00000000000E+00  0.10717230593E+04  0.10717230593E+04  0.00000000000E+00 0. -1.
         -1   -1    0    0    0  501 -0.00000000000E+00 -0.00000000000E+00 -0.24021654864E+04  0.24021654864E+04  0.00000000000E+00 0.  1.
    9900016    2    1    2    0    0 -0.57219197517E+02 -0.55332109091E+03 -0.15205509256E+03  0.21708018346E+04  0.20928023289E+04 0.  0.
         24    2    3    3    0    0 -0.14373827046E+03  0.12460335394E+03 -0.72349129633E+03  0.75310140696E+03  0.86806607363E+02 0.  0.
        -15    1    4    4    0    0 -0.14039051966E+02  0.23598918259E+02 -0.91899183932E+02  0.95913835969E+02  0.00000000000E+00 0.  1.
        -15    1    4    4    0    0  0.13661133649E+01  0.22763593019E+02 -0.40897818653E+02  0.46826050479E+02  0.00000000000E+00 0.  1.
         15    1    3    3    0    0 -0.10263548014E+03 -0.33661668660E+03  0.85646147885E+03  0.92594335692E+03  0.00000000000E+00 0. -1.
         15    1    4    4    0    0 -0.12007452137E+02  0.12092468284E+02 -0.81800441878E+02  0.83556681286E+02  0.00000000000E+00 0. -1.
        -16    1    1    2    0    0  0.57219197517E+02  0.55332109091E+03 -0.11783873346E+04  0.13030867111E+04  0.00000000000E+00 0.  1.
         16    1    4    4    0    0 -0.11905787972E+03  0.66148374378E+02 -0.50889385187E+03  0.52680483922E+03  0.00000000000E+00 0. -1.
    9900018    1    3    3    0    0  0.18915455308E+03 -0.34130775825E+03 -0.28502527507E+03  0.49175707073E+03  0.91187600000E+02 0.  0.
<mgrwt>
<rscale>  0 0.32090224E+04</rscale>
<asrwt>0</asrwt>
<pdfrwt beam="1">  1        1 0.16488047E+00 0.32090224E+04</pdfrwt>
<pdfrwt beam="2">  1       -1 0.36956392E+00 0.32090224E+04</pdfrwt>
<totfact> 0.12802555E-01</totfact>
</mgrwt>
</event>
<event>
11    1  0.7232208E-019  0.2602679E+04  0.7818608E-02  0.8367292E-01
         -1   -1    0    0    0  501 -0.00000000000E+00  0.00000000000E+00  0.70615959079E+03  0.70615959079E+03  0.00000000000E+00 0.  1.
          1   -1    0    0  501    0  0.00000000000E+00 -0.00000000000E+00 -0.23981616960E+04  0.23981616960E+04  0.00000000000E+00 0. -1.
    9900016    2    1    2    0    0 -0.12175864418E+03 -0.14298185282E+03 -0.94482143310E+03  0.23339006650E+04  0.21258259092E+04 0.  0.
        -24    2    3    3    0    0  0.10244042372E+02 -0.23838310563E+03  0.51973524896E+03  0.57654144051E+03  0.73101697338E+02 0.  0.
        -15    1    3    3    0    0  0.36386305428E+01 -0.10488641980E+02  0.32227926592E+02  0.34086514859E+02  0.00000000000E+00 0. -1.
        -15    1    3    3    0    0 -0.10886506222E+03  0.23998066960E+03 -0.14082562551E+04  0.14326995511E+04  0.00000000000E+00 0.  1.
         15    1    4    4    0    0  0.26987947245E+02 -0.96074505775E+02  0.15154338856E+03  0.18144987895E+03  0.00000000000E+00 0. -1.
         15    1    3    3    0    0 -0.47497296148E+01 -0.40955586778E+02  0.71787814284E+02  0.82785326595E+02  0.00000000000E+00 0.  1.
        -16    1    4    4    0    0 -0.16743904873E+02 -0.14230859986E+03  0.36819186040E+03  0.39509156156E+03  0.00000000000E+00 0.  1.
         16    1    1    2    0    0  0.12175864418E+03  0.14298185282E+03 -0.74718067216E+03  0.77042062182E+03  0.00000000000E+00 0. -1.
    9900018    1    3    3    0    0 -0.22026525265E+02 -0.93135188024E+02 -0.16031616780E+03  0.20778783197E+03  0.91187600000E+02 0.  0.
<mgrwt>
<rscale>  0 0.26026793E+04</rscale>
<asrwt>0</asrwt>
<pdfrwt beam="1">  1        1 0.36894796E+00 0.26026793E+04</pdfrwt>
<pdfrwt beam="2">  1       -1 0.10863993E+00 0.26026793E+04</pdfrwt>
<totfact> 0.11022802E+00</totfact>
</mgrwt>
</event>
