<event>
12    1  0.1109061E-008  0.3358430E+04  0.7818608E-02  0.8592946E-01
          2   -1    0    0  501    0  0.00000000000E+00  0.00000000000E+00  0.35191075223E+04  0.35191075223E+04  0.00000000000E+00 0. -1.
         -2   -1    0    0    0  501 -0.00000000000E+00 -0.00000000000E+00 -0.22539161621E+04  0.22539161621E+04  0.00000000000E+00 0.  1.
         24    2    1    2    0    0  0.38914479470E+03  0.20348399008E+03  0.22333607171E+04  0.22778260628E+04  0.88045864180E+02 0.  0.
    9900016    2    1    2    0    0 -0.75785543196E+03 -0.96317278220E+03 -0.67235878978E+03  0.26004471053E+04  0.21927635854E+04 0.  0.
         23    2    4    4    0    0 -0.80171665215E+02  0.15975023051E+03 -0.89161517834E+02  0.22643725213E+03  0.10666030583E+03 0.  0.
        -15    1    5    5    0    0 -0.72436110499E+02  0.31863749632E+02 -0.23971805139E+02  0.82685767134E+02  0.00000000000E+00 0.  1.
        -15    1    3    3    0    0  0.23269481877E+03  0.87746390896E+02  0.10889003519E+04  0.11169379053E+04  0.00000000000E+00 0.  1.
         15    1    5    5    0    0 -0.77355547162E+01  0.12788648088E+03 -0.65189712695E+02  0.14375148500E+03  0.00000000000E+00 0. -1.
         15    1    1    2    0    0  0.36871063726E+03  0.75968879212E+03 -0.29581056711E+03  0.89475051635E+03  0.00000000000E+00 0. -1.
        -16    1    4    4    0    0  0.41544842699E+03 -0.32277585287E+03  0.43033619368E+03  0.67968440196E+03  0.00000000000E+00 0.  1.
         16    1    3    3    0    0  0.15644997593E+03  0.11573759918E+03  0.11444603652E+04  0.11608881575E+04  0.00000000000E+00 0. -1.
    9900018    1    4    4    0    0 -0.10931321937E+04 -0.80014715984E+03 -0.10135334656E+04  0.16943254512E+04  0.91187600000E+02 0.  0.
<mgrwt>
<rscale>  0 0.20295106E+04</rscale>
<asrwt>0</asrwt>
<pdfrwt beam="1">  1        2 0.54140116E+00 0.33584304E+04</pdfrwt>
<pdfrwt beam="2">  1       -2 0.34675633E+00 0.33584304E+04</pdfrwt>
<totfact> 0.10013224E-02</totfact>
</mgrwt>
</event>
<event>
12    1  0.1117223E-008  0.4118870E+04  0.7818608E-02  0.8268082E-01
          2   -1    0    0  501    0  0.00000000000E+00  0.00000000000E+00  0.42050234358E+04  0.42050234358E+04  0.00000000000E+00 0. -1.
         -2   -1    0    0    0  501 -0.00000000000E+00 -0.00000000000E+00 -0.15851759555E+04  0.15851759555E+04  0.00000000000E+00 0.  1.
        -24    2    1    2    0    0 -0.10278141951E+04  0.91425667057E+02  0.67195906449E+03  0.12339549762E+04  0.79719676311E+02 0.  0.
    9900016    2    1    2    0    0  0.46320871889E+02 -0.12347591764E+04  0.73825603055E+03  0.26239527279E+04  0.21939302871E+04 0.  0.
         23    2    4    4    0    0  0.21082132444E+02 -0.28523358880E+03 -0.58495558645E+03  0.65531549457E+03  0.73910099616E+02 0.  0.
        -15    1    5    5    0    0 -0.23944494387E+02 -0.66205324682E+02 -0.16871359807E+03  0.18281346231E+03  0.00000000000E+00 0. -1.
        -15    1    1    2    0    0  0.98149332319E+03  0.11433335094E+04  0.12096323853E+04  0.19322916872E+04  0.00000000000E+00 0.  1.
         15    1    5    5    0    0  0.45026626831E+02 -0.21902826412E+03 -0.41624198837E+03  0.47250203226E+03  0.00000000000E+00 0.  1.
         15    1    3    3    0    0 -0.24130490989E+03  0.46551606622E+02  0.18763051724E+03  0.30919301838E+03  0.00000000000E+00 0. -1.
        -16    1    3    3    0    0 -0.78650928519E+03  0.44874060436E+02  0.48432854725E+03  0.92476195784E+03  0.00000000000E+00 0.  1.
         16    1    4    4    0    0  0.17945220609E+02 -0.11819181286E+04  0.93551731994E+03  0.15074631503E+04  0.00000000000E+00 0. -1.
    9900018    1    4    4    0    0  0.72935188365E+01  0.23239254092E+03  0.38769429706E+03  0.46117408303E+03  0.91187600000E+02 0.  0.
<mgrwt>
<rscale>  0 0.29161725E+04</rscale>
<asrwt>0</asrwt>
<pdfrwt beam="1">  1        2 0.64692668E+00 0.41188705E+04</pdfrwt>
<pdfrwt beam="2">  1       -2 0.24387323E+00 0.41188705E+04</pdfrwt>
<totfact> 0.12132934E-02</totfact>
</mgrwt>
</event>
<event>
11    1  0.1109061E-008  0.4098819E+04  0.7818608E-02  0.8266846E-01
          2   -1    0    0  501    0  0.00000000000E+00  0.00000000000E+00  0.24741396313E+04  0.24741396313E+04  0.00000000000E+00 0. -1.
         -2   -1    0    0    0  501 -0.00000000000E+00 -0.00000000000E+00 -0.26866444581E+04  0.26866444581E+04  0.00000000000E+00 0.  1.
        -24    2    1    2    0    0 -0.10408733874E+04 -0.16154188560E+03 -0.91007261406E+02  0.10601643760E+04  0.78441016521E+02 0.  0.
    9900016    2    1    2    0    0  0.89186406903E+02  0.90734410231E+03  0.88016189440E+03  0.25305080203E+04  0.21903329302E+04 0.  0.
        -15    1    4    4    0    0 -0.25832001100E+03  0.19702703055E+03 -0.83067292705E+02  0.33533424217E+03  0.00000000000E+00 0.  1.
        -15    1    1    2    0    0  0.95168698054E+03 -0.74580221671E+03 -0.10016594599E+04  0.15701116931E+04  0.00000000000E+00 0.  1.
         15    1    4    4    0    0 -0.20617538720E+03  0.35598624486E+03 -0.13745640578E+03  0.43373812411E+03  0.00000000000E+00 0. -1.
         15    1    3    3    0    0 -0.50807670047E+03 -0.99805553446E+02 -0.11278848380E+02  0.51790954275E+03  0.00000000000E+00 0. -1.
        -16    1    3    3    0    0 -0.53279668697E+03 -0.61736332152E+02 -0.79728413026E+02  0.54225483327E+03  0.00000000000E+00 0.  1.
         16    1    4    4    0    0  0.98758707406E+02 -0.34301705469E+03  0.79208563996E+03  0.86880011690E+03  0.00000000000E+00 0. -1.
    9900018    1    4    4    0    0  0.45492309770E+03  0.69734788159E+03  0.30859995292E+03  0.89263553712E+03  0.91187600000E+02 0.  0.
<mgrwt>
<rscale>  0 0.29203565E+04</rscale>
<asrwt>0</asrwt>
<pdfrwt beam="1">  1        2 0.38063687E+00 0.40988194E+04</pdfrwt>
<pdfrwt beam="2">  1       -2 0.41332991E+00 0.40988194E+04</pdfrwt>
<totfact> 0.16507439E-02</totfact>
</mgrwt>
</event>
<event>
11    1  0.1109061E-008  0.5041708E+04  0.7818608E-02  0.7822105E-01
          2   -1    0    0  501    0  0.00000000000E+00  0.00000000000E+00  0.14033167335E+04  0.14033167335E+04  0.00000000000E+00 0.  1.
         -2   -1    0    0    0  501 -0.00000000000E+00 -0.00000000000E+00 -0.45283460145E+04  0.45283460145E+04  0.00000000000E+00 0. -1.
        -24    2    1    2    0    0 -0.19102478205E+02 -0.12903830381E+04 -0.11516922820E+04  0.17315666415E+04  0.80465098313E+02 0.  0.
    9900016    2    1    2    0    0  0.76726384338E+03  0.51835821763E+03 -0.67501863318E+03  0.25144513246E+04  0.22381747612E+04 0.  0.
        -15    1    4    4    0    0  0.25497370164E+03 -0.24749205814E+02  0.19686079658E+03  0.32307628348E+03  0.00000000000E+00 0.  1.
        -15    1    1    2    0    0 -0.74816136517E+03  0.77202482045E+03 -0.12983183659E+04  0.16856447819E+04  0.00000000000E+00 0.  1.
         15    1    4    4    0    0  0.49757531680E+03  0.18608515166E+03  0.45749619905E+03  0.70107891974E+03  0.00000000000E+00 0. -1.
         15    1    3    3    0    0 -0.39798989202E+02 -0.97796879249E+03 -0.84069879276E+03  0.12902640733E+04  0.00000000000E+00 0. -1.
        -16    1    3    3    0    0  0.20696510997E+02 -0.31241424559E+03 -0.31099348919E+03  0.44130256824E+03  0.00000000000E+00 0.  1.
         16    1    4    4    0    0 -0.19141854060E+03  0.22602220871E+03 -0.11122655730E+04  0.11510264121E+04  0.00000000000E+00 0. -1.
    9900018    1    4    4    0    0  0.20613336553E+03  0.13100006307E+03 -0.21711005581E+03  0.33926970928E+03  0.91187600000E+02 0.  0.
<mgrwt>
<rscale>  0 0.50417075E+04</rscale>
<asrwt>0</asrwt>
<pdfrwt beam="1">  1        2 0.21589489E+00 0.50417075E+04</pdfrwt>
<pdfrwt beam="2">  1       -2 0.69666860E+00 0.50417075E+04</pdfrwt>
<totfact> 0.24669533E-03</totfact>
</mgrwt>
</event>
<event>
12    1  0.1109061E-008  0.4491687E+04  0.7818608E-02  0.8278864E-01
         -2   -1    0    0    0  501 -0.00000000000E+00  0.00000000000E+00  0.38783729801E+04  0.38783729801E+04  0.00000000000E+00 0.  1.
          2   -1    0    0  501    0  0.00000000000E+00 -0.00000000000E+00 -0.18028795619E+04  0.18028795619E+04  0.00000000000E+00 0. -1.
         24    2    1    2    0    0  0.73378436901E+03  0.17581135441E+03  0.55055503861E+03  0.93776307641E+03  0.83304288031E+02 0.  0.
    9900016    2    1    2    0    0  0.14582853871E+03 -0.73754786950E+03 -0.54940557052E+03  0.24213849023E+04  0.22351768479E+04 0.  0.
         23    2    4    4    0    0 -0.24699395199E+03 -0.18730200355E+03  0.20824948546E+03  0.38758357850E+03  0.10375514093E+03 0.  0.
        -15    1    5    5    0    0 -0.20428338584E+03 -0.10440270266E+03  0.17513341718E+03  0.28862317971E+03  0.00000000000E+00 0.  1.
        -15    1    3    3    0    0  0.64354112894E+03  0.12518005609E+03  0.47151479021E+03  0.80755274036E+03  0.00000000000E+00 0.  1.
         15    1    5    5    0    0 -0.42710566148E+02 -0.82899300891E+02  0.33116068281E+02  0.98960398783E+02  0.00000000000E+00 0. -1.
         15    1    1    2    0    0 -0.87961290772E+03  0.56173651510E+03  0.20743439501E+04  0.23221045634E+04  0.00000000000E+00 0. -1.
        -16    1    4    4    0    0 -0.49337808583E+03  0.31556850938E+03 -0.13798778359E+02  0.58582917815E+03  0.00000000000E+00 0.  1.
         16    1    3    3    0    0  0.90243240072E+02  0.50631298317E+02  0.79040248395E+02  0.13021033605E+03  0.00000000000E+00 0. -1.
    9900018    1    4    4    0    0  0.88620057653E+03 -0.86581437533E+03 -0.74385627762E+03  0.14479721456E+04  0.91187600000E+02 0.  0.
<mgrwt>
<rscale>  0 0.28799650E+04</rscale>
<asrwt>0</asrwt>
<pdfrwt beam="1">  1        2 0.27736609E+00 0.44916873E+04</pdfrwt>
<pdfrwt beam="2">  1       -2 0.59667276E+00 0.44916873E+04</pdfrwt>
<totfact> 0.33402095E-03</totfact>
</mgrwt>
</event>
<event>
12    1  0.1109061E-008  0.3682200E+04  0.7818608E-02  0.8370497E-01
          2   -1    0    0  501    0  0.00000000000E+00  0.00000000000E+00  0.35083440603E+04  0.35083440603E+04  0.00000000000E+00 0. -1.
         -2   -1    0    0    0  501 -0.00000000000E+00 -0.00000000000E+00 -0.18337240847E+04  0.18337240847E+04  0.00000000000E+00 0.  1.
        -24    2    1    2    0    0 -0.89766608127E+03 -0.91540757880E+02 -0.53081556135E+03  0.10499192175E+04  0.79881783047E+02 0.  0.
    9900016    2    1    2    0    0 -0.17951094088E+03 -0.52878654494E+03  0.20130226177E+04  0.30343178454E+04  0.22006783816E+04 0.  0.
         23    2    4    4    0    0 -0.61430061661E+03  0.24382825556E+03  0.17320721480E+04  0.18578252596E+04  0.12092685194E+03 0.  0.
        -15    1    1    2    0    0  0.10771770221E+04  0.62032730281E+03  0.19241291921E+03  0.12578310821E+04  0.00000000000E+00 0.  1.
        -15    1    5    5    0    0 -0.44828463426E+03  0.14884570157E+03  0.10918485389E+04  0.11896417057E+04  0.00000000000E+00 0. -1.
         15    1    5    5    0    0 -0.16601598236E+03  0.94982553998E+02  0.64022360914E+03  0.66818355387E+03  0.00000000000E+00 0.  1.
         15    1    3    3    0    0 -0.39861745922E+03 -0.17684845793E+02 -0.19699831101E+03  0.44499097418E+03  0.00000000000E+00 0. -1.
        -16    1    3    3    0    0 -0.49904862205E+03 -0.73855912087E+02 -0.33381725034E+03  0.60492824330E+03  0.00000000000E+00 0.  1.
         16    1    4    4    0    0  0.24555829760E+03 -0.83572793116E+03  0.72768645861E+02  0.87409114414E+03  0.00000000000E+00 0. -1.
    9900018    1    4    4    0    0  0.18923137814E+03  0.63113130663E+02  0.20818182383E+03  0.30240144163E+03  0.91187600000E+02 0.  0.
<mgrwt>
<rscale>  0 0.25932517E+04</rscale>
<asrwt>0</asrwt>
<pdfrwt beam="1">  1        2 0.53974524E+00 0.36822000E+04</pdfrwt>
<pdfrwt beam="2">  1       -2 0.28211140E+00 0.36822000E+04</pdfrwt>
<totfact> 0.25370751E-02</totfact>
</mgrwt>
</event>
<event>
11    1  0.1109061E-008  0.3388981E+04  0.7818608E-02  0.8460745E-01
          1   -1    0    0  501    0  0.00000000000E+00  0.00000000000E+00  0.19677683574E+04  0.19677683574E+04  0.00000000000E+00 0. -1.
         -1   -1    0    0    0  501 -0.00000000000E+00 -0.00000000000E+00 -0.26691200823E+04  0.26691200823E+04  0.00000000000E+00 0.  1.
        -24    2    1    2    0    0  0.39204386529E+03  0.66422045300E+03 -0.96450123861E+03  0.12377064393E+04  0.82264135667E+02 0.  0.
    9900016    2    1    2    0    0 -0.16940977804E+03  0.45163905226E+03  0.14666481288E+03  0.22553826046E+04  0.21983090364E+04 0.  0.
        -15    1    1    2    0    0 -0.22263408725E+03 -0.11158595053E+04  0.11648470085E+03  0.11437993958E+04  0.00000000000E+00 0.  1.
        -15    1    4    4    0    0 -0.22026188607E+03 -0.23690757673E+03 -0.67470531002E+03  0.74824311138E+03  0.00000000000E+00 0. -1.
         15    1    3    3    0    0  0.35121573334E+03  0.55177357808E+03 -0.78177753787E+03  0.10193050042E+04  0.00000000000E+00 0. -1.
         15    1    4    4    0    0  0.17216339158E+02  0.55961893558E+01 -0.62856082201E+02  0.65411059760E+02  0.00000000000E+00 0.  1.
        -16    1    3    3    0    0  0.40828131957E+02  0.11244687492E+03 -0.18272370074E+03  0.21840143509E+03  0.00000000000E+00 0.  1.
         16    1    4    4    0    0 -0.18886755141E+03  0.20689639736E+03 -0.11992509431E+03  0.30472791054E+03  0.00000000000E+00 0. -1.
    9900018    1    4    4    0    0  0.22250332027E+03  0.47605404227E+03  0.10041512994E+04  0.11370005230E+04  0.91187600000E+02 0.  0.
<mgrwt>
<rscale>  0 0.23440684E+04</rscale>
<asrwt>0</asrwt>
<pdfrwt beam="1">  1        1 0.30273360E+00 0.33889808E+04</pdfrwt>
<pdfrwt beam="2">  1       -1 0.41063385E+00 0.33889808E+04</pdfrwt>
<totfact> 0.15046366E-02</totfact>
</mgrwt>
</event>
<event>
11    1  0.1109061E-008  0.5169251E+04  0.7818608E-02  0.7802916E-01
          2   -1    0    0  501    0  0.00000000000E+00  0.00000000000E+00  0.21665737187E+04  0.21665737187E+04  0.00000000000E+00 0. -1.
         -2   -1    0    0    0  501 -0.00000000000E+00 -0.00000000000E+00 -0.30833431410E+04  0.30833431410E+04  0.00000000000E+00 0.  1.
        -24    2    1    2    0    0  0.15762936630E+04  0.91671380242E+03 -0.94682748659E+03  0.20562477049E+04  0.81279928783E+02 0.  0.
    9900016    2    1    2    0    0 -0.12162744384E+04 -0.38519180428E+03 -0.58916642264E+02  0.25455596155E+04  0.22019778268E+04 0.  0.
        -15    1    4    4    0    0 -0.69819536230E+03  0.41891345518E+03 -0.77742390445E+03  0.11257678153E+04  0.00000000000E+00 0. -1.
        -15    1    1    2    0    0 -0.36001922468E+03 -0.53152199814E+03  0.88974706526E+02  0.64810953939E+03  0.00000000000E+00 0.  1.
         15    1    3    3    0    0  0.14712791915E+04  0.83120878809E+03 -0.87918412433E+03  0.19048714479E+04  0.00000000000E+00 0. -1.
         15    1    4    4    0    0  0.10495357224E+00  0.35624357796E+02 -0.17829758802E+02  0.39837246172E+02  0.00000000000E+00 0.  1.
        -16    1    3    3    0    0  0.10501447155E+03  0.85505014324E+02 -0.67643362255E+02  0.15137625694E+03  0.00000000000E+00 0.  1.
         16    1    4    4    0    0 -0.33211369842E+03 -0.81401686835E+03  0.36088677773E+03  0.95034848186E+03  0.00000000000E+00 0. -1.
    9900018    1    4    4    0    0 -0.18607033122E+03 -0.25712748910E+02  0.37545024326E+03  0.42960607209E+03  0.91187600000E+02 0.  0.
<mgrwt>
<rscale>  0 0.51692515E+04</rscale>
<asrwt>0</asrwt>
<pdfrwt beam="1">  1        2 0.33331904E+00 0.51692515E+04</pdfrwt>
<pdfrwt beam="2">  1       -2 0.47436048E+00 0.51692515E+04</pdfrwt>
<totfact> 0.93510852E-03</totfact>
</mgrwt>
</event>
<event>
11    1  0.1109061E-008  0.4278716E+04  0.7818608E-02  0.7950565E-01
         -2   -1    0    0    0  501 -0.00000000000E+00  0.00000000000E+00  0.14957141313E+04  0.14957141313E+04  0.00000000000E+00 0.  1.
          2   -1    0    0  501    0  0.00000000000E+00 -0.00000000000E+00 -0.30599780402E+04  0.30599780402E+04  0.00000000000E+00 0. -1.
        -24    2    1    2    0    0 -0.80979127320E+03  0.25542597644E+03 -0.77361647800E+02  0.85602225157E+03  0.76058760457E+02 0.  0.
    9900016    2    1    2    0    0  0.50339268323E+02  0.22564882190E+02 -0.20932794961E+03  0.21876373850E+04  0.21769005310E+04 0.  0.
        -15    1    1    2    0    0  0.75945200487E+03 -0.27799085863E+03 -0.12775743115E+04  0.15120325349E+04  0.00000000000E+00 0.  1.
        -15    1    4    4    0    0 -0.13893732728E+03  0.35811457073E+03  0.99858734565E+02  0.39688964909E+03  0.00000000000E+00 0. -1.
         15    1    4    4    0    0 -0.27961529435E+03  0.44481022897E+03 -0.59022871465E+02  0.52870081520E+03  0.00000000000E+00 0.  1.
         15    1    3    3    0    0 -0.58720868655E+03  0.15224702065E+03 -0.69120264011E+02  0.61054959483E+03  0.00000000000E+00 0. -1.
        -16    1    3    3    0    0 -0.22258258665E+03  0.10317895579E+03 -0.82413837890E+01  0.24547265673E+03  0.00000000000E+00 0.  1.
         16    1    4    4    0    0  0.31166239349E+03  0.20716936711E+02 -0.30788440139E+03  0.43858345113E+03  0.00000000000E+00 0. -1.
    9900018    1    4    4    0    0  0.15722949646E+03 -0.80107685423E+03  0.57720588680E+02  0.82346346955E+03  0.91187600000E+02 0.  0.
<mgrwt>
<rscale>  0 0.42787159E+04</rscale>
<asrwt>0</asrwt>
<pdfrwt beam="1">  1        2 0.47076585E+00 0.42787159E+04</pdfrwt>
<pdfrwt beam="2">  1       -2 0.23010987E+00 0.42787159E+04</pdfrwt>
<totfact> 0.10500902E-01</totfact>
</mgrwt>
</event>
<event>
12    1  0.1109061E-008  0.3869941E+04  0.7818608E-02  0.8360607E-01
         -1   -1    0    0    0  501 -0.00000000000E+00  0.00000000000E+00  0.16572658263E+04  0.16572658263E+04  0.00000000000E+00 0. -1.
          1   -1    0    0  501    0  0.00000000000E+00 -0.00000000000E+00 -0.34102890626E+04  0.34102890626E+04  0.00000000000E+00 0.  1.
        -24    2    1    2    0    0  0.81218765048E+03  0.53437865029E+01  0.71912914327E+01  0.81610860553E+03  0.79399028337E+02 0.  0.
    9900016    2    1    2    0    0  0.12558191860E+03  0.79584492134E+02  0.36995543674E+02  0.22225084780E+04  0.22172214041E+04 0.  0.
         23    2    4    4    0    0 -0.25169502793E+03 -0.30172541585E+03 -0.83398125876E+03  0.92931275976E+03  0.11708480621E+03 0.  0.
        -15    1    1    2    0    0 -0.93776956908E+03 -0.84928278637E+02 -0.17972100714E+04  0.20289378054E+04  0.00000000000E+00 0.  1.
        -15    1    5    5    0    0 -0.15282254537E+03 -0.94897546538E+02 -0.33700731693E+03  0.38201335890E+03  0.00000000000E+00 0. -1.
         15    1    3    3    0    0  0.48680581001E+03 -0.34797110988E+02  0.12717311760E+02  0.48821354509E+03  0.00000000000E+00 0. -1.
         15    1    5    5    0    0 -0.98872482560E+02 -0.20682786931E+03 -0.49697394182E+03  0.54729940086E+03  0.00000000000E+00 0.  1.
        -16    1    3    3    0    0  0.32538184047E+03  0.40140897491E+02 -0.55260203272E+01  0.32789506044E+03  0.00000000000E+00 0.  1.
         16    1    4    4    0    0  0.21764457431E+03  0.43639198476E+02  0.88105844956E+03  0.90859095963E+03  0.00000000000E+00 0. -1.
    9900018    1    4    4    0    0  0.15963237222E+03  0.33767070951E+03 -0.10081647132E+02  0.38460475858E+03  0.91187600000E+02 0.  0.
<mgrwt>
<rscale>  0 0.26224732E+04</rscale>
<asrwt>0</asrwt>
<pdfrwt beam="1">  1        1 0.52465985E+00 0.38699406E+04</pdfrwt>
<pdfrwt beam="2">  1       -1 0.25496398E+00 0.38699406E+04</pdfrwt>
<totfact> 0.14603454E-02</totfact>
</mgrwt>
</event>
