<event>
12    1  0.3175452E-019  0.2446485E+04  0.7818608E-02  0.9150358E-01
         -4   -1    0    0    0  501 -0.00000000000E+00  0.00000000000E+00  0.15335124799E+04  0.15335124799E+04  0.00000000000E+00 0.  1.
          4   -1    0    0  501    0  0.00000000000E+00 -0.00000000000E+00 -0.10850662933E+04  0.10850662933E+04  0.00000000000E+00 0. -1.
         23    2    1    2    0    0  0.40764073854E+02  0.47529733988E+02  0.74542740984E+02  0.14368645836E+03  0.10568061674E+03 0.  0.
    9900016    2    1    2    0    0 -0.13670885006E+03  0.10009573321E+03  0.32669057390E+03  0.21821043272E+04  0.21508472977E+04 0.  0.
         24    2    4    4    0    0  0.50520784932E+03 -0.28332127514E+03  0.10119849867E+04  0.11678587536E+04  0.65379959779E+02 0.  0.
        -15    1    3    3    0    0  0.30724474487E+02 -0.25059650667E+01 -0.19650454733E+02  0.36556990640E+02  0.00000000000E+00 0. -1.
        -15    1    5    5    0    0  0.18164188242E+03 -0.11184187537E+03  0.43480222283E+03  0.48430914870E+03  0.00000000000E+00 0.  1.
         15    1    3    3    0    0  0.10039599367E+02  0.50035699055E+02  0.94193195717E+02  0.10712946772E+03  0.00000000000E+00 0.  1.
         15    1    4    4    0    0 -0.64191669937E+03  0.38341700835E+03 -0.68529441282E+03  0.10142455736E+04  0.00000000000E+00 0. -1.
        -16    1    1    2    0    0  0.71289017783E+02 -0.17631482414E+03  0.33712526552E+02  0.19314651359E+03  0.00000000000E+00 0.  1.
         16    1    5    5    0    0  0.32356596689E+03 -0.17147939978E+03  0.57718276390E+03  0.68354960494E+03  0.00000000000E+00 0. -1.
    9900018    1    1    2    0    0  0.24655758422E+02  0.28689356943E+02  0.13500345140E+02  0.99641473985E+02  0.91187600000E+02 0.  0.
<mgrwt>
<rscale>  0 0.11580841E+04</rscale>
<asrwt>0</asrwt>
<pdfrwt beam="1">  1        4 0.16693328E+00 0.24464849E+04</pdfrwt>
<pdfrwt beam="2">  1       -4 0.23592500E+00 0.24464849E+04</pdfrwt>
<totfact> 0.30538209E-02</totfact>
</mgrwt>
</event>
<event>
11    1  0.3175452E-019  0.3229844E+04  0.7818608E-02  0.8502715E-01
         -2   -1    0    0    0  501 -0.00000000000E+00  0.00000000000E+00  0.24197770083E+04  0.24197770083E+04  0.00000000000E+00 0.  1.
          2   -1    0    0  501    0  0.00000000000E+00 -0.00000000000E+00 -0.18650587174E+04  0.18650587174E+04  0.00000000000E+00 0. -1.
    9900016    2    1    2    0    0  0.28620870148E+03 -0.11838403923E+03  0.17225991844E+03  0.22628811972E+04  0.22349558456E+04 0.  0.
         24    2    3    3    0    0  0.14157482191E+03  0.83121082622E+03 -0.50934682520E+03  0.99073441997E+03  0.10566756717E+03 0.  0.
        -15    1    4    4    0    0  0.45163778373E+02  0.35848585532E+03 -0.27679219765E+03  0.45515469461E+03  0.00000000000E+00 0.  1.
        -15    1    1    2    0    0 -0.13649273460E+03 -0.51925543618E+02 -0.21042478204E+03  0.25613495969E+03  0.00000000000E+00 0.  1.
         15    1    1    2    0    0  0.56563539671E+03  0.73255743275E+02 -0.27810724429E+03  0.63454979731E+03  0.00000000000E+00 0. -1.
         15    1    3    3    0    0  0.10925683002E+03 -0.95979306988E+03  0.66412924854E+03  0.11722659471E+04  0.00000000000E+00 0. -1.
        -16    1    1    2    0    0 -0.71535136359E+03  0.97053839576E+02  0.87099039880E+03  0.11312697715E+04  0.00000000000E+00 0.  1.
         16    1    4    4    0    0  0.96411043536E+02  0.47272497090E+03 -0.23255462755E+03  0.53557972536E+03  0.00000000000E+00 0. -1.
    9900018    1    3    3    0    0  0.35377049554E+02  0.10198204427E+02  0.17477495101E+02  0.99880830180E+02  0.91187600000E+02 0.  0.
<mgrwt>
<rscale>  0 0.22381493E+04</rscale>
<asrwt>0</asrwt>
<pdfrwt beam="1">  1        2 0.28693211E+00 0.32298436E+04</pdfrwt>
<pdfrwt beam="2">  1       -2 0.37227339E+00 0.32298436E+04</pdfrwt>
<totfact> 0.72443519E-02</totfact>
</mgrwt>
</event>
<event>
10    1  0.3175452E-019  0.2821350E+04  0.7818608E-02  0.8827434E-01
         -1   -1    0    0    0  501 -0.00000000000E+00  0.00000000000E+00  0.13251712938E+04  0.13251712938E+04  0.00000000000E+00 0.  1.
          1   -1    0    0  501    0  0.00000000000E+00 -0.00000000000E+00 -0.18191759460E+04  0.18191759460E+04  0.00000000000E+00 0. -1.
    9900016    2    1    2    0    0 -0.28143105432E+03  0.20085213042E+03 -0.33412807508E+03  0.22085222884E+04  0.21555472880E+04 0.  0.
        -15    1    1    2    0    0 -0.29473909495E+02 -0.65933971232E+02  0.41634173087E+02  0.83363086987E+02  0.00000000000E+00 0.  1.
        -15    1    3    3    0    0  0.35419429055E+03 -0.16666055926E+03 -0.38982385682E+03  0.55244183116E+03  0.00000000000E+00 0.  1.
         15    1    3    3    0    0 -0.96930285069E+03  0.49606721742E+03  0.39968005178E+03  0.11599029461E+04  0.00000000000E+00 0. -1.
         15    1    1    2    0    0 -0.16386751722E+03 -0.91023485965E+02 -0.76769282291E+02  0.20256199274E+03  0.00000000000E+00 0. -1.
        -16    1    1    2    0    0  0.52684681894E+03 -0.58174640806E+02 -0.85543811777E+02  0.53690744379E+03  0.00000000000E+00 0.  1.
         16    1    3    3    0    0  0.33367750582E+03 -0.12855452774E+03 -0.34398427004E+03  0.49617751111E+03  0.00000000000E+00 0. -1.
    9900018    1    1    2    0    0 -0.52074337902E+02  0.14279967579E+02 -0.39197656126E+02  0.11299242798E+03  0.91187600000E+02 0.  0.
<mgrwt>
<rscale>  0 0.15888387E+04</rscale>
<asrwt>0</asrwt>
<pdfrwt beam="1">  1        1 0.27987322E+00 0.28213500E+04</pdfrwt>
<pdfrwt beam="2">  1       -1 0.20387251E+00 0.28213500E+04</pdfrwt>
<totfact> 0.47904877E-01</totfact>
</mgrwt>
</event>
<event>
12    1  0.3175452E-019  0.2858056E+04  0.7818608E-02  0.8830660E-01
         -2   -1    0    0    0  501 -0.00000000000E+00  0.00000000000E+00  0.74717836104E+03  0.74717836104E+03  0.00000000000E+00 0.  1.
          2   -1    0    0  501    0  0.00000000000E+00 -0.00000000000E+00 -0.32924079340E+04  0.32924079340E+04  0.00000000000E+00 0. -1.
         23    2    1    2    0    0 -0.19291057751E+01 -0.23942619325E+03 -0.13723406812E+03  0.30235120920E+03  0.12350886928E+03 0.  0.
    9900016    2    1    2    0    0  0.36365533893E+03 -0.13735219939E+03 -0.17841953955E+04  0.28260433506E+04  0.21568627629E+04 0.  0.
         24    2    4    4    0    0 -0.78741818807E+03 -0.66228720601E+02 -0.14030868917E+04  0.16114353869E+04  0.60477550353E+02 0.  0.
        -15    1    5    5    0    0 -0.29415413484E+03  0.43869346674E+01 -0.52758799491E+03  0.60406538769E+03  0.00000000000E+00 0.  1.
        -15    1    3    3    0    0 -0.50063229850E+02 -0.12252395789E+03 -0.11210693954E+03  0.17345435461E+03  0.00000000000E+00 0. -1.
         15    1    4    4    0    0  0.11510735270E+04 -0.71123478791E+02 -0.38110850372E+03  0.12146079637E+04  0.00000000000E+00 0. -1.
         15    1    3    3    0    0  0.48134124075E+02 -0.11690223536E+03 -0.25127128576E+02  0.12889685459E+03  0.00000000000E+00 0.  1.
        -16    1    1    2    0    0 -0.41981250771E+03  0.36123502443E+03 -0.54000981249E+03  0.77352691103E+03  0.00000000000E+00 0.  1.
         16    1    5    5    0    0 -0.49326405323E+03 -0.70615655268E+02 -0.87549889682E+03  0.10073699992E+04  0.00000000000E+00 0. -1.
    9900018    1    1    2    0    0  0.58086274556E+02  0.15543368209E+02 -0.83790296920E+02  0.13766482426E+03  0.91187600000E+02 0.  0.
<mgrwt>
<rscale>  0 0.15836436E+04</rscale>
<asrwt>0</asrwt>
<pdfrwt beam="1">  1        2 0.50652430E+00 0.28580559E+04</pdfrwt>
<pdfrwt beam="2">  1       -2 0.11495052E+00 0.28580559E+04</pdfrwt>
<totfact> 0.57114472E-01</totfact>
</mgrwt>
</event>
<event>
11    1  0.3175452E-019  0.3906577E+04  0.7818608E-02  0.8023663E-01
          2   -1    0    0  501    0  0.00000000000E+00  0.00000000000E+00  0.44499357413E+04  0.44499357413E+04  0.00000000000E+00 0. -1.
         -2   -1    0    0    0  501 -0.00000000000E+00 -0.00000000000E+00 -0.85739116403E+03  0.85739116403E+03  0.00000000000E+00 0.  1.
         23    2    1    2    0    0 -0.49146208572E+03 -0.58618008193E+03  0.51994878066E+03  0.93146552142E+03  0.11017809644E+03 0.  0.
    9900016    2    1    2    0    0  0.23946693846E+03  0.74625958197E+03  0.15940434264E+04  0.28674701509E+04  0.22510359487E+04 0.  0.
        -15    1    4    4    0    0 -0.71438485317E+03 -0.97252044236E+01 -0.72118351820E+02  0.71808171869E+03  0.00000000000E+00 0.  1.
        -15    1    3    3    0    0 -0.46797845025E+03 -0.58429112107E+03  0.49688321230E+03  0.89849478058E+03  0.00000000000E+00 0.  1.
         15    1    4    4    0    0  0.13244170843E+03  0.85736119931E+02  0.20831715522E+03  0.26131881974E+03  0.00000000000E+00 0. -1.
         15    1    3    3    0    0 -0.23483635464E+02 -0.18889608581E+01  0.23065568362E+02  0.32970740841E+02  0.00000000000E+00 0. -1.
        -16    1    4    4    0    0  0.85987637086E+03  0.65905298663E+03  0.14083552705E+04  0.17768519297E+04  0.00000000000E+00 0.  1.
         16    1    1    2    0    0  0.25199514726E+03 -0.16007950004E+03  0.14785523702E+04  0.15083912330E+04  0.00000000000E+00 0. -1.
    9900018    1    4    4    0    0 -0.38466287661E+02  0.11195679828E+02  0.49489352573E+02  0.11121768270E+03  0.91187600000E+02 0.  0.
<mgrwt>
<rscale>  0 0.39065768E+04</rscale>
<asrwt>0</asrwt>
<pdfrwt beam="1">  1        2 0.68460549E+00 0.39065768E+04</pdfrwt>
<pdfrwt beam="2">  1       -2 0.13190634E+00 0.39065768E+04</pdfrwt>
<totfact> 0.45489121E-02</totfact>
</mgrwt>
</event>
<event>
11    1  0.3175452E-019  0.4297287E+04  0.7818608E-02  0.7947120E-01
         -1   -1    0    0    0  501 -0.00000000000E+00  0.00000000000E+00  0.17399416898E+04  0.17399416898E+04  0.00000000000E+00 0.  1.
          1   -1    0    0  501    0  0.00000000000E+00 -0.00000000000E+00 -0.26533471329E+04  0.26533471329E+04  0.00000000000E+00 0. -1.
         23    2    1    2    0    0  0.70588001532E+03 -0.90818279661E+02  0.74043689499E+03  0.10299545560E+04  0.77749829504E+02 0.  0.
    9900016    2    1    2    0    0 -0.64339153021E+03  0.12351958872E+03 -0.75412944485E+03  0.24608612884E+04  0.22489813941E+04 0.  0.
        -15    1    4    4    0    0  0.37368663475E+03  0.29038943788E+03  0.57175389640E+03  0.74220633564E+03  0.00000000000E+00 0.  1.
        -15    1    3    3    0    0  0.42075237181E+02  0.11372710568E+02  0.34672324643E+02  0.55694113025E+02  0.00000000000E+00 0. -1.
         15    1    4    4    0    0 -0.85324362120E+03 -0.13869972026E+03 -0.11152449359E+04  0.14110398849E+04  0.00000000000E+00 0. -1.
         15    1    3    3    0    0  0.66380477814E+03 -0.10219099023E+03  0.70576457034E+03  0.97426044296E+03  0.00000000000E+00 0.  1.
        -16    1    4    4    0    0 -0.95134077501E+02 -0.87310432909E+01 -0.14742579638E+03  0.17567324571E+03  0.00000000000E+00 0.  1.
         16    1    1    2    0    0 -0.62488485106E+02 -0.32701309059E+02 -0.89971289326E+03  0.90247297836E+03  0.00000000000E+00 0. -1.
    9900018    1    4    4    0    0 -0.68700466253E+02 -0.19439085603E+02 -0.63212608926E+02  0.13194182215E+03  0.91187600000E+02 0.  0.
<mgrwt>
<rscale>  0 0.42972872E+04</rscale>
<asrwt>0</asrwt>
<pdfrwt beam="1">  1        1 0.40820725E+00 0.42972872E+04</pdfrwt>
<pdfrwt beam="2">  1       -1 0.26768334E+00 0.42972872E+04</pdfrwt>
<totfact> 0.43253947E-02</totfact>
</mgrwt>
</event>
<event>
11    1  0.3175452E-019  0.2738161E+04  0.7818608E-02  0.8842683E-01
          1   -1    0    0  501    0  0.00000000000E+00  0.00000000000E+00  0.12448977734E+04  0.12448977734E+04  0.00000000000E+00 0. -1.
         -1   -1    0    0    0  501 -0.00000000000E+00 -0.00000000000E+00 -0.18436907961E+04  0.18436907961E+04  0.00000000000E+00 0.  1.
         23    2    1    2    0    0 -0.20129455489E+03  0.18053813030E+03 -0.61619462419E+02  0.29823404611E+03  0.10969536813E+03 0.  0.
    9900016    2    1    2    0    0 -0.98677879435E+02 -0.16786042987E+03 -0.79698432108E+03  0.23933081573E+04  0.22482939043E+04 0.  0.
        -15    1    4    4    0    0 -0.51107514592E+03 -0.79092041395E+03 -0.10980843407E+04  0.14465621747E+04  0.00000000000E+00 0.  1.
        -15    1    3    3    0    0 -0.14534310256E+03  0.18246850483E+03 -0.33790706237E+02  0.23571420099E+03  0.00000000000E+00 0. -1.
         15    1    3    3    0    0 -0.55951452325E+02 -0.19303745346E+01 -0.27828756183E+02  0.62519845120E+02  0.00000000000E+00 0.  1.
         15    1    4    4    0    0  0.17024065170E+03  0.34353869955E+03  0.23963901441E+03  0.45213667713E+03  0.00000000000E+00 0. -1.
        -16    1    4    4    0    0  0.22815126313E+03  0.25232634304E+03  0.14251874428E+03  0.36882675436E+03  0.00000000000E+00 0.  1.
         16    1    1    2    0    0  0.29997243432E+03 -0.12677700426E+02  0.25981076077E+03  0.39704636612E+03  0.00000000000E+00 0. -1.
    9900018    1    4    4    0    0  0.14005351657E+02  0.27194941488E+02 -0.81057739112E+02  0.12578255118E+03  0.91187600000E+02 0.  0.
<mgrwt>
<rscale>  0 0.15644622E+04</rscale>
<asrwt>0</asrwt>
<pdfrwt beam="1">  1        1 0.19152273E+00 0.27381605E+04</pdfrwt>
<pdfrwt beam="2">  1       -1 0.28364474E+00 0.27381605E+04</pdfrwt>
<totfact> 0.36016339E-01</totfact>
</mgrwt>
</event>
<event>
12    1  0.3175452E-019  0.2788820E+04  0.7818608E-02  0.8843056E-01
          1   -1    0    0  501    0  0.00000000000E+00  0.00000000000E+00  0.26401906255E+04  0.26401906255E+04  0.00000000000E+00 0. -1.
         -1   -1    0    0    0  501 -0.00000000000E+00 -0.00000000000E+00 -0.95237472309E+03  0.95237472309E+03  0.00000000000E+00 0.  1.
         23    2    1    2    0    0  0.25281721940E+03 -0.65866350403E+01 -0.84269200675E+02  0.28835593558E+03  0.10994506454E+03 0.  0.
    9900016    2    1    2    0    0  0.12964651277E+03 -0.15577200034E+03  0.15576277095E+04  0.26661164150E+04  0.21542747092E+04 0.  0.
        -24    2    4    4    0    0 -0.23233438696E+03 -0.10706396594E+04  0.45899586945E+03  0.11913266247E+04  0.91287299187E+02 0.  0.
        -15    1    4    4    0    0  0.36198089973E+03  0.91486765908E+03  0.10986318401E+04  0.14747897903E+04  0.00000000000E+00 0.  1.
        -15    1    3    3    0    0  0.10090392701E+03 -0.31222510310E+02 -0.83195545997E+02  0.13445425434E+03  0.00000000000E+00 0.  1.
         15    1    3    3    0    0  0.15191329239E+03  0.24635875270E+02 -0.10736546781E+01  0.15390168124E+03  0.00000000000E+00 0. -1.
         15    1    5    5    0    0 -0.94495927155E+01 -0.21345318385E+03  0.90355511016E+02  0.23198205722E+03  0.00000000000E+00 0. -1.
        -16    1    5    5    0    0 -0.22288479425E+03 -0.85718647556E+03  0.36864035843E+03  0.95934456753E+03  0.00000000000E+00 0.  1.
         16    1    1    2    0    0 -0.43454317522E+03  0.20275021074E+03  0.12830367170E+03  0.49638417708E+03  0.00000000000E+00 0. -1.
    9900018    1    1    2    0    0  0.52079443054E+02 -0.40391575365E+02  0.86153721881E+02  0.14170882096E+03  0.91187600000E+02 0.  0.
<mgrwt>
<rscale>  0 0.15638719E+04</rscale>
<asrwt>0</asrwt>
<pdfrwt beam="1">  1        1 0.40618317E+00 0.27888195E+04</pdfrwt>
<pdfrwt beam="2">  1       -1 0.14651919E+00 0.27888195E+04</pdfrwt>
<totfact> 0.34406384E-01</totfact>
</mgrwt>
</event>
<event>
12    1  0.3175452E-019  0.3033536E+04  0.7818608E-02  0.8633878E-01
         -2   -1    0    0    0  501 -0.00000000000E+00  0.00000000000E+00  0.14416611791E+04  0.14416611791E+04  0.00000000000E+00 0.  1.
          2   -1    0    0  501    0  0.00000000000E+00 -0.00000000000E+00 -0.21789780521E+04  0.21789780521E+04  0.00000000000E+00 0. -1.
         23    2    1    2    0    0  0.11916615537E+02 -0.49424055028E+03 -0.76580484028E+02  0.51597897669E+03  0.12630917060E+03 0.  0.
    9900016    2    1    2    0    0 -0.52261448614E+00 -0.19523124179E+03 -0.42143427460E+03  0.21990939294E+04  0.21494863925E+04 0.  0.
        -24    2    4    4    0    0 -0.70752065001E+03  0.68098283699E+03 -0.42758689328E+03  0.10732008666E+04  0.67870864865E+02 0.  0.
        -15    1    3    3    0    0 -0.19624434520E+02 -0.21148957169E+03  0.25042728774E+02  0.21386934242E+03  0.00000000000E+00 0. -1.
        -15    1    4    4    0    0  0.70699803553E+03 -0.87621407878E+03  0.61526186814E+01  0.11258930628E+04  0.00000000000E+00 0.  1.
         15    1    5    5    0    0 -0.35609846579E+03  0.31957210881E+03 -0.17603863767E+03  0.50982551134E+03  0.00000000000E+00 0. -1.
         15    1    3    3    0    0  0.31541050057E+02 -0.28275097860E+03 -0.10162321280E+03  0.30210963427E+03  0.00000000000E+00 0.  1.
        -16    1    5    5    0    0 -0.35142218423E+03  0.36141072818E+03 -0.25154825561E+03  0.56337535526E+03  0.00000000000E+00 0.  1.
         16    1    1    2    0    0  0.82873716131E+01  0.75716722852E+03 -0.22145204434E+03  0.78893085909E+03  0.00000000000E+00 0. -1.
    9900018    1    1    2    0    0 -0.19681372664E+02 -0.67695436446E+02 -0.17850069995E+02  0.11663546604E+03  0.91187600000E+02 0.  0.
<mgrwt>
<rscale>  0 0.19427222E+04</rscale>
<asrwt>0</asrwt>
<pdfrwt beam="1">  1        2 0.33522739E+00 0.30335363E+04</pdfrwt>
<pdfrwt beam="2">  1       -2 0.22179403E+00 0.30335363E+04</pdfrwt>
<totfact> 0.42850918E-01</totfact>
</mgrwt>
</event>
<event>
10    1  0.3175452E-019  0.3869680E+04  0.7818608E-02  0.8431300E-01
          2   -1    0    0  501    0  0.00000000000E+00  0.00000000000E+00  0.19764086544E+04  0.19764086544E+04  0.00000000000E+00 0.  1.
         -2   -1    0    0    0  501 -0.00000000000E+00 -0.00000000000E+00 -0.25203870983E+04  0.25203870983E+04  0.00000000000E+00 0. -1.
    9900016    2    1    2    0    0  0.75686537560E+03  0.81044126727E+03  0.58789350146E+03  0.24799522029E+04  0.21388978272E+04 0.  0.
        -15    1    3    3    0    0  0.78458583513E+03  0.14615341077E+04  0.94196202168E+02  0.16614842176E+04  0.00000000000E+00 0.  1.
        -15    1    1    2    0    0 -0.23617351300E+03 -0.17755325314E+03  0.97967058054E+02  0.31128866090E+03  0.00000000000E+00 0.  1.
         15    1    1    2    0    0 -0.23930632774E+03  0.39977229834E+01 -0.15538850868E+03  0.28535782610E+03  0.00000000000E+00 0. -1.
         15    1    3    3    0    0 -0.35106869008E+02 -0.41948145942E+03  0.31066838452E+03  0.52317495371E+03  0.00000000000E+00 0. -1.
        -16    1    3    3    0    0  0.73864094730E+01 -0.23161138106E+03  0.18302891477E+03  0.29529303162E+03  0.00000000000E+00 0.  1.
         16    1    1    2    0    0 -0.32894456011E+03 -0.59573376077E+03 -0.11115976137E+04  0.13033619958E+04  0.00000000000E+00 0. -1.
    9900018    1    1    2    0    0  0.47559025257E+02 -0.41151976338E+02  0.37147118889E+02  0.11683506698E+03  0.91187600000E+02 0.  0.
<mgrwt>
<rscale>  0 0.24220351E+04</rscale>
<asrwt>0</asrwt>
<pdfrwt beam="1">  1        2 0.30406287E+00 0.38696804E+04</pdfrwt>
<pdfrwt beam="2">  1       -2 0.38775186E+00 0.38696804E+04</pdfrwt>
<totfact> 0.47943286E-02</totfact>
</mgrwt>
</event>
