<event>
13    1  0.5886862E-013  0.4769720E+04  0.7818608E-02  0.7865046E-01
          2   -1    0    0  501    0  0.00000000000E+00  0.00000000000E+00  0.23535539297E+04  0.23535539297E+04  0.00000000000E+00 0. -1.
         -2   -1    0    0    0  501 -0.00000000000E+00 -0.00000000000E+00 -0.24165821351E+04  0.24165821351E+04  0.00000000000E+00 0.  1.
    9900016    2    1    2    0    0 -0.41166185104E+02  0.44629684048E+03 -0.97589766007E+03  0.22910679287E+04  0.20237935879E+04 0.  0.
         23    2    3    3    0    0 -0.21076791364E+02  0.38010883996E+03 -0.16081723460E+04  0.16550209858E+04  0.89158327974E+02 0.  0.
    9900016    2    1    2    0    0  0.64952225046E+02 -0.42113658941E+03  0.79815299855E+03  0.23284897258E+04  0.21455165755E+04 0.  0.
        -24    2    5    5    0    0 -0.63922125291E+03 -0.83492526643E+03  0.10356214993E+04  0.14779177741E+04  0.77621172788E+02 0.  0.
        -15    1    5    5    0    0  0.70417347796E+03  0.41378867702E+03 -0.23746850073E+03  0.85057195177E+03  0.00000000000E+00 0.  1.
        -15    1    4    4    0    0  0.26823048179E+02  0.98482084703E+02 -0.52369610987E+03  0.53355019671E+03  0.00000000000E+00 0.  1.
         15    1    4    4    0    0 -0.47899839544E+02  0.28162675525E+03 -0.10844762361E+04  0.11214707890E+04  0.00000000000E+00 0. -1.
         15    1    6    6    0    0 -0.11101752126E+03 -0.10700609348E+03  0.13147356611E+03  0.20263388822E+03  0.00000000000E+00 0. -1.
        -16    1    6    6    0    0 -0.52820373166E+03 -0.72791917295E+03  0.90414793317E+03  0.12752838859E+04  0.00000000000E+00 0.  1.
         16    1    3    3    0    0 -0.20089393740E+02  0.66188000527E+02  0.63227468595E+03  0.63604694296E+03  0.00000000000E+00 0. -1.
    9900018    1    1    2    0    0 -0.23786039942E+02 -0.25160251075E+02  0.11471645610E+03  0.15057841022E+03  0.91187600000E+02 0.  0.
<mgrwt>
<rscale>  0 0.47697196E+04</rscale>
<asrwt>0</asrwt>
<pdfrwt beam="1">  1        2 0.36208522E+00 0.47697196E+04</pdfrwt>
<pdfrwt beam="2">  1       -2 0.37178187E+00 0.47697196E+04</pdfrwt>
<totfact> 0.35442043E-02</totfact>
</mgrwt>
</event>
<event>
13    1  0.5886862E-013  0.4797550E+04  0.7818608E-02  0.7860519E-01
          1   -1    0    0  501    0  0.00000000000E+00  0.00000000000E+00  0.17926691984E+04  0.17926691984E+04  0.00000000000E+00 0. -1.
         -1   -1    0    0    0  501 -0.00000000000E+00 -0.00000000000E+00 -0.32098070806E+04  0.32098070806E+04  0.00000000000E+00 0.  1.
    9900016    2    1    2    0    0 -0.60936105568E+03 -0.23733871116E+03 -0.92783004722E+03  0.26023518667E+04  0.23417335633E+04 0.  0.
         23    2    3    3    0    0 -0.28135228868E+03  0.29410538335E+03  0.72438325035E+03  0.83604743155E+03  0.92666755333E+02 0.  0.
    9900016    2    1    2    0    0  0.56377280298E+03  0.17901847729E+03 -0.47473421738E+03  0.22817727871E+04  0.21520285979E+04 0.  0.
         24    2    5    5    0    0  0.88720696214E+03 -0.61452400346E+03 -0.82036743173E+03  0.13577697336E+04  0.75894544816E+02 0.  0.
        -15    1    4    4    0    0 -0.13940046226E+03  0.15312943247E+03  0.46034685889E+03  0.50477751778E+03  0.00000000000E+00 0.  1.
        -15    1    6    6    0    0  0.48021200918E+03 -0.37767684463E+03 -0.47157594887E+03  0.77176890860E+03  0.00000000000E+00 0.  1.
         15    1    4    4    0    0 -0.14195182642E+03  0.14097595088E+03  0.26403639146E+03  0.33126991377E+03  0.00000000000E+00 0. -1.
         15    1    5    5    0    0 -0.32343415916E+03  0.79354248075E+03  0.34563321435E+03  0.92400305352E+03  0.00000000000E+00 0. -1.
        -16    1    3    3    0    0 -0.32800876701E+03 -0.53144409452E+03 -0.16522132976E+04  0.17663044351E+04  0.00000000000E+00 0.  1.
         16    1    6    6    0    0  0.40699495296E+03 -0.23684715882E+03 -0.34879148286E+03  0.58600082499E+03  0.00000000000E+00 0. -1.
    9900018    1    1    2    0    0  0.45588252706E+02  0.58320233876E+02 -0.14573617673E+02  0.11835162521E+03  0.91187600000E+02 0.  0.
<mgrwt>
<rscale>  0 0.47975503E+04</rscale>
<asrwt>0</asrwt>
<pdfrwt beam="1">  1        1 0.27579527E+00 0.47975503E+04</pdfrwt>
<pdfrwt beam="2">  1       -1 0.49381647E+00 0.47975503E+04</pdfrwt>
<totfact> 0.49646722E-03</totfact>
</mgrwt>
</event>
<event>
13    1  0.5886862E-013  0.5172689E+04  0.7818608E-02  0.7802407E-01
         -2   -1    0    0    0  501 -0.00000000000E+00  0.00000000000E+00  0.40487322756E+04  0.40487322756E+04  0.00000000000E+00 0.  1.
          2   -1    0    0  501    0  0.00000000000E+00 -0.00000000000E+00 -0.16521658472E+04  0.16521658472E+04  0.00000000000E+00 0. -1.
    9900016    2    1    2    0    0 -0.72575484259E+03  0.81517876149E+03  0.17171557229E+04  0.31173512519E+04  0.23617829169E+04 0.  0.
         23    2    3    3    0    0 -0.18821174262E+03 -0.20798329873E+03 -0.52067810688E+03  0.59867830068E+03  0.92894047721E+02 0.  0.
    9900016    2    1    2    0    0  0.72575484259E+03 -0.81517876149E+03  0.67941070551E+03  0.25835468708E+04  0.22409549353E+04 0.  0.
         24    2    5    5    0    0  0.52675785347E+03 -0.47280505096E+03  0.14634012493E+04  0.16275815698E+04  0.80374731042E+02 0.  0.
        -15    1    6    6    0    0  0.40466594201E+02 -0.17006168792E+02  0.64555943543E+02  0.78065516522E+02  0.00000000000E+00 0.  1.
        -15    1    4    4    0    0 -0.81558786828E+02 -0.10230405370E+03 -0.33659671215E+03  0.36113058822E+03  0.00000000000E+00 0. -1.
         15    1    4    4    0    0 -0.10665295579E+03 -0.10567924503E+03 -0.18408139473E+03  0.23754771246E+03  0.00000000000E+00 0.  1.
         15    1    5    5    0    0  0.17979752192E+03 -0.29317467884E+03 -0.77775863477E+03  0.85040404230E+03  0.00000000000E+00 0. -1.
        -16    1    3    3    0    0 -0.53754309997E+03  0.10231620602E+04  0.22378338298E+04  0.25186729513E+04  0.00000000000E+00 0.  1.
         16    1    6    6    0    0  0.48629125927E+03 -0.45579888217E+03  0.13988453058E+04  0.15495160532E+04  0.00000000000E+00 0. -1.
    9900018    1    5    5    0    0  0.19199467191E+02 -0.49199031694E+02 -0.62319090215E+01  0.10556125873E+03  0.91187600000E+02 0.  0.
<mgrwt>
<rscale>  0 0.51726887E+04</rscale>
<asrwt>0</asrwt>
<pdfrwt beam="1">  1        2 0.25417936E+00 0.51726887E+04</pdfrwt>
<pdfrwt beam="2">  1       -2 0.62288189E+00 0.51726887E+04</pdfrwt>
<totfact> 0.31592885E-03</totfact>
</mgrwt>
</event>
