<event>
13    1  0.1593296E-008  0.4923960E+04  0.7818608E-02  0.7840345E-01
         -1   -1    0    0    0  501 -0.00000000000E+00  0.00000000000E+00  0.26659440424E+04  0.26659440424E+04  0.00000000000E+00 0.  1.
          1   -1    0    0  501    0  0.00000000000E+00 -0.00000000000E+00 -0.22736204841E+04  0.22736204841E+04  0.00000000000E+00 0. -1.
    9900016    2    1    2    0    0 -0.28950127603E+03  0.48671649426E+02  0.12388151182E+04  0.25434775355E+04  0.22019162468E+04 0.  0.
         24    2    3    3    0    0  0.63262008381E+03 -0.10890973252E+03  0.14470937958E+04  0.15850832002E+04  0.79616565252E+02 0.  0.
    9900016    2    1    2    0    0  0.28950127603E+03 -0.48671649426E+02 -0.84649155985E+03  0.23960869911E+04  0.22222747331E+04 0.  0.
         23    2    5    5    0    0  0.11977224499E+01  0.37140350673E+03 -0.14671929083E+04  0.15177799009E+04  0.11427509718E+03 0.  0.
        -15    1    4    4    0    0  0.48058581445E+03 -0.48701791047E+02  0.10606887284E+04  0.11655021098E+04  0.00000000000E+00 0.  1.
        -15    1    6    6    0    0  0.23251881242E+02  0.21265946296E+03 -0.10338086492E+04  0.10557106707E+04  0.00000000000E+00 0.  1.
         15    1    6    6    0    0 -0.22054158792E+02  0.15874404377E+03 -0.43338425917E+03  0.46206923015E+03  0.00000000000E+00 0. -1.
         15    1    3    3    0    0 -0.92212135984E+03  0.15758138195E+03 -0.20827867763E+03  0.95839433521E+03  0.00000000000E+00 0. -1.
        -16    1    5    5    0    0  0.25534528971E+03 -0.10252716406E+03  0.37565609212E+03  0.46565065864E+03  0.00000000000E+00 0.  1.
         16    1    4    4    0    0  0.15203426936E+03 -0.60207941474E+02  0.38640506746E+03  0.41958109042E+03  0.00000000000E+00 0. -1.
    9900018    1    5    5    0    0  0.32958263870E+02 -0.31754799210E+03  0.24504525637E+03  0.41265643156E+03  0.91187600000E+02 0.  0.
<mgrwt>
<rscale>  0 0.49239598E+04</rscale>
<asrwt>0</asrwt>
<pdfrwt beam="1">  1        1 0.34978777E+00 0.49239598E+04</pdfrwt>
<pdfrwt beam="2">  1       -1 0.41014523E+00 0.49239598E+04</pdfrwt>
<totfact> 0.85943735E-03</totfact>
</mgrwt>
</event>
<event>
13    1  0.1593296E-008  0.4997542E+04  0.7818608E-02  0.7828887E-01
         -2   -1    0    0    0  501 -0.00000000000E+00  0.00000000000E+00  0.21125583063E+04  0.21125583063E+04  0.00000000000E+00 0.  1.
          2   -1    0    0  501    0  0.00000000000E+00 -0.00000000000E+00 -0.29555901053E+04  0.29555901053E+04  0.00000000000E+00 0. -1.
    9900016    2    1    2    0    0  0.20578342733E+03  0.11718883259E+04 -0.30744755203E+03  0.25208734606E+04  0.22010474642E+04 0.  0.
         24    2    3    3    0    0 -0.69013446545E+02 -0.45615710679E+03  0.49827937706E+03  0.68369052547E+03  0.79424398859E+02 0.  0.
    9900016    2    1    2    0    0 -0.20578342733E+03 -0.11718883259E+04 -0.53558424703E+03  0.25472749511E+04  0.21877134464E+04 0.  0.
         23    2    5    5    0    0  0.33831544648E+03 -0.44152294622E+02  0.47936915918E+03  0.59972693016E+03  0.11606392008E+03 0.  0.
        -15    1    6    6    0    0  0.23326711801E+03  0.21676853240E+02  0.34369308127E+03  0.41594274656E+03  0.00000000000E+00 0. -1.
        -15    1    4    4    0    0 -0.72068434489E+02 -0.26287795821E+03  0.25810567860E+03  0.37538942645E+03  0.00000000000E+00 0.  1.
         15    1    6    6    0    0  0.10504832847E+03 -0.65829147862E+02  0.13567607791E+03  0.18378418360E+03  0.00000000000E+00 0.  1.
         15    1    3    3    0    0  0.27479687388E+03  0.16280454327E+04 -0.80572692908E+03  0.18371829351E+04  0.00000000000E+00 0. -1.
        -16    1    5    5    0    0 -0.44452256440E+03 -0.51502505795E+02 -0.67684745407E+03  0.81140328718E+03  0.00000000000E+00 0.  1.
         16    1    4    4    0    0  0.30549879433E+01 -0.19327914858E+03  0.24017369845E+03  0.30830109902E+03  0.00000000000E+00 0. -1.
    9900018    1    5    5    0    0 -0.99576309409E+02 -0.10762335255E+04 -0.33810595214E+03  0.11361447337E+04  0.91187600000E+02 0.  0.
<mgrwt>
<rscale>  0 0.49975420E+04</rscale>
<asrwt>0</asrwt>
<pdfrwt beam="1">  1        2 0.45470617E+00 0.49975420E+04</pdfrwt>
<pdfrwt beam="2">  1       -2 0.32500897E+00 0.49975420E+04</pdfrwt>
<totfact> 0.30118177E-02</totfact>
</mgrwt>
</event>
<event>
13    1  0.1593296E-008  0.5216653E+04  0.7818608E-02  0.7795929E-01
         -2   -1    0    0    0  501 -0.00000000000E+00  0.00000000000E+00  0.23673945033E+04  0.23673945033E+04  0.00000000000E+00 0.  1.
          2   -1    0    0  501    0  0.00000000000E+00 -0.00000000000E+00 -0.28737783858E+04  0.28737783858E+04  0.00000000000E+00 0. -1.
    9900016    2    1    2    0    0  0.28992391440E+03 -0.57715403495E+03 -0.14946975124E+04  0.27431054883E+04  0.22075652674E+04 0.  0.
        -24    2    3    3    0    0  0.55954758955E+03  0.27144527356E+03 -0.17148935945E+04  0.18258792200E+04  0.78732738818E+02 0.  0.
    9900016    2    1    2    0    0 -0.28992391440E+03  0.57715403495E+03  0.98831362993E+03  0.24980674007E+04  0.22014573017E+04 0.  0.
         23    2    5    5    0    0 -0.21415426815E+03  0.51213717829E+03  0.26561776068E+03  0.62627964389E+03  0.11630501972E+03 0.  0.
        -15    1    6    6    0    0 -0.14927639946E+03  0.21133872362E+03  0.10580626766E+03  0.27953973924E+03  0.00000000000E+00 0.  1.
        -15    1    3    3    0    0 -0.26962367516E+03 -0.84859930851E+03  0.22019608208E+03  0.91722626825E+03  0.00000000000E+00 0.  1.
         15    1    4    4    0    0  0.39210446556E+03  0.14911086079E+03 -0.11438331271E+04  0.12183325422E+04  0.00000000000E+00 0. -1.
         15    1    6    6    0    0 -0.64877868685E+02  0.30079845467E+03  0.15981149302E+03  0.34673990466E+03  0.00000000000E+00 0. -1.
        -16    1    4    4    0    0  0.16744312399E+03  0.12233441277E+03 -0.57106046737E+03  0.60754667780E+03  0.00000000000E+00 0.  1.
         16    1    5    5    0    0  0.26720547117E+03  0.17539634782E+03  0.12142105914E+04  0.12555755664E+04  0.00000000000E+00 0. -1.
    9900018    1    5    5    0    0 -0.34297511742E+03 -0.11037949116E+03 -0.49151472211E+03  0.61621219047E+03  0.91187600000E+02 0.  0.
<mgrwt>
<rscale>  0 0.52166530E+04</rscale>
<asrwt>0</asrwt>
<pdfrwt beam="1">  1        2 0.44211975E+00 0.52166530E+04</pdfrwt>
<pdfrwt beam="2">  1       -2 0.36421454E+00 0.52166530E+04</pdfrwt>
<totfact> 0.18862252E-02</totfact>
</mgrwt>
</event>
<event>
13    1  0.1593296E-008  0.5177593E+04  0.7818608E-02  0.7801681E-01
          2   -1    0    0  501    0  0.00000000000E+00  0.00000000000E+00  0.44638868735E+04  0.44638868735E+04  0.00000000000E+00 0.  1.
         -2   -1    0    0    0  501 -0.00000000000E+00 -0.00000000000E+00 -0.15013526238E+04  0.15013526238E+04  0.00000000000E+00 0. -1.
    9900016    2    1    2    0    0 -0.37989689919E+03  0.12601972190E+04  0.19020351652E+04  0.31911780577E+04  0.21985133480E+04 0.  0.
         24    2    3    3    0    0  0.53168717611E+03  0.13562423715E+04  0.55365945503E+03  0.15607403086E+04  0.85363313402E+02 0.  0.
    9900016    2    1    2    0    0  0.37989689919E+03 -0.12601972190E+04  0.10604990844E+04  0.27740614396E+04  0.21996226671E+04 0.  0.
         23    2    5    5    0    0 -0.43859997634E+03 -0.33274729081E+03 -0.51511965475E+02  0.56392133141E+03  0.11073882178E+03 0.  0.
        -15    1    4    4    0    0  0.35116062054E+03  0.87435792794E+03  0.31498522087E+03  0.99349446749E+03  0.00000000000E+00 0.  1.
        -15    1    6    6    0    0 -0.67211635649E+02 -0.10162465615E+02 -0.20589201222E+02  0.71025311551E+02  0.00000000000E+00 0. -1.
         15    1    6    6    0    0 -0.37138834069E+03 -0.32258482519E+03 -0.30922764254E+02  0.49289601986E+03  0.00000000000E+00 0.  1.
         15    1    3    3    0    0 -0.91158407530E+03 -0.96045152508E+02  0.13483757102E+04  0.16304377491E+04  0.00000000000E+00 0. -1.
        -16    1    5    5    0    0 -0.29992392222E+03  0.10141001317E+03  0.44953561189E+03  0.54983689968E+03  0.00000000000E+00 0.  1.
         16    1    4    4    0    0  0.18052655557E+03  0.48188444357E+03  0.23867423416E+03  0.56724584113E+03  0.00000000000E+00 0. -1.
    9900018    1    5    5    0    0  0.11184207977E+04 -0.10288599414E+04  0.66247543801E+03  0.16603032085E+04  0.91187600000E+02 0.  0.
<mgrwt>
<rscale>  0 0.51775934E+04</rscale>
<asrwt>0</asrwt>
<pdfrwt beam="1">  1        2 0.68675182E+00 0.51775934E+04</pdfrwt>
<pdfrwt beam="2">  1       -2 0.23097733E+00 0.51775934E+04</pdfrwt>
<totfact> 0.79975689E-03</totfact>
</mgrwt>
</event>
<event>
13    1  0.1593296E-008  0.4800317E+04  0.7818608E-02  0.7860071E-01
          2   -1    0    0  501    0  0.00000000000E+00  0.00000000000E+00  0.22752060226E+04  0.22752060226E+04  0.00000000000E+00 0.  1.
         -2   -1    0    0    0  501 -0.00000000000E+00 -0.00000000000E+00 -0.25319729910E+04  0.25319729910E+04  0.00000000000E+00 0. -1.
    9900016    2    1    2    0    0 -0.51555793160E+03 -0.11664633639E+03  0.66988242820E+03  0.23557083287E+04  0.21957260561E+04 0.  0.
        -24    2    3    3    0    0  0.49507950989E+03  0.23824738715E+03 -0.51627242164E+03  0.75749028316E+03  0.73408290659E+02 0.  0.
    9900016    2    1    2    0    0  0.51555793160E+03  0.11664633639E+03 -0.92664939661E+03  0.24514706849E+04  0.22071753592E+04 0.  0.
         23    2    5    5    0    0 -0.45794975824E+03 -0.24890306012E+03 -0.12110302987E+04  0.13232231970E+04  0.11249235662E+03 0.  0.
        -15    1    6    6    0    0 -0.27811681486E+03 -0.88624100274E+02 -0.68992583032E+03  0.74913339614E+03  0.00000000000E+00 0.  1.
        -15    1    3    3    0    0 -0.10106374415E+04 -0.35489372354E+03  0.11861548498E+04  0.15982180455E+04  0.00000000000E+00 0.  1.
         15    1    6    6    0    0 -0.17983294337E+03 -0.16027895985E+03 -0.52110446839E+03  0.57408980087E+03  0.00000000000E+00 0. -1.
         15    1    4    4    0    0  0.46270703784E+03  0.21472058535E+03 -0.45077855280E+03  0.68073786166E+03  0.00000000000E+00 0. -1.
        -16    1    4    4    0    0  0.32372472050E+02  0.23526801799E+02 -0.65493868840E+02  0.76752421494E+02  0.00000000000E+00 0.  1.
         16    1    5    5    0    0  0.47068806029E+03  0.68252855493E+02  0.24683353750E+03  0.53584745742E+03  0.00000000000E+00 0. -1.
    9900018    1    5    5    0    0  0.50281962955E+03  0.29729654101E+03  0.37547364602E+02  0.59240003050E+03  0.91187600000E+02 0.  0.
<mgrwt>
<rscale>  0 0.48003167E+04</rscale>
<asrwt>0</asrwt>
<pdfrwt beam="1">  1        2 0.35003170E+00 0.48003167E+04</pdfrwt>
<pdfrwt beam="2">  1       -2 0.38953430E+00 0.48003167E+04</pdfrwt>
<totfact> 0.30092782E-02</totfact>
</mgrwt>
</event>
<event>
13    1  0.1593296E-008  0.4987579E+04  0.7818608E-02  0.7830426E-01
         -1   -1    0    0    0  501 -0.00000000000E+00  0.00000000000E+00  0.32731899205E+04  0.32731899205E+04  0.00000000000E+00 0.  1.
          1   -1    0    0  501    0  0.00000000000E+00 -0.00000000000E+00 -0.18999769102E+04  0.18999769102E+04  0.00000000000E+00 0. -1.
    9900016    2    1    2    0    0 -0.46007867621E+02 -0.35024402920E+03 -0.48399950248E+03  0.22785142893E+04  0.21983139549E+04 0.  0.
         24    2    3    3    0    0 -0.10103552900E+03  0.57859901986E+03  0.60441394343E+03  0.84658507226E+03  0.80031654103E+02 0.  0.
    9900016    2    1    2    0    0  0.46007867621E+02  0.35024402920E+03  0.18572125128E+04  0.28946525414E+04  0.21920281508E+04 0.  0.
         23    2    5    5    0    0 -0.15661909867E+03 -0.32766091869E+03  0.73352635543E+02  0.38489148317E+03  0.10425749361E+03 0.  0.
        -15    1    6    6    0    0 -0.29337357196E+02 -0.12661072840E+03 -0.15508631867E+02  0.13088725964E+03  0.00000000000E+00 0.  1.
        -15    1    4    4    0    0 -0.13114991902E+02  0.57378198108E+02  0.30313998796E+02  0.66205733541E+02  0.00000000000E+00 0.  1.
         15    1    6    6    0    0 -0.12728174148E+03 -0.20105019029E+03  0.88861267410E+02  0.25400422353E+03  0.00000000000E+00 0. -1.
         15    1    3    3    0    0  0.55027661379E+02 -0.92884304905E+03 -0.10884134459E+04  0.14319292170E+04  0.00000000000E+00 0. -1.
        -16    1    5    5    0    0 -0.31801113903E+03 -0.10824505268E+03 -0.14107633484E+03  0.36434956872E+03  0.00000000000E+00 0.  1.
         16    1    4    4    0    0 -0.87920537098E+02  0.52122082175E+03  0.57409994464E+03  0.78037933872E+03  0.00000000000E+00 0. -1.
    9900018    1    5    5    0    0  0.52063810532E+03  0.78615000056E+03  0.19249362121E+04  0.21454114895E+04  0.91187600000E+02 0.  0.
<mgrwt>
<rscale>  0 0.49875787E+04</rscale>
<asrwt>0</asrwt>
<pdfrwt beam="1">  1        1 0.29230414E+00 0.49875787E+04</pdfrwt>
<pdfrwt beam="2">  1       -1 0.50356768E+00 0.49875787E+04</pdfrwt>
<totfact> 0.35808574E-03</totfact>
</mgrwt>
</event>
<event>
13    1  0.1593296E-008  0.5286647E+04  0.7818608E-02  0.7785749E-01
          1   -1    0    0  501    0  0.00000000000E+00  0.00000000000E+00  0.33661359866E+04  0.33661359866E+04  0.00000000000E+00 0. -1.
         -1   -1    0    0    0  501 -0.00000000000E+00 -0.00000000000E+00 -0.20757207578E+04  0.20757207578E+04  0.00000000000E+00 0.  1.
    9900016    2    1    2    0    0 -0.18111938363E+03  0.85657142284E+03  0.18571306105E+04  0.30130246752E+04  0.22051904125E+04 0.  0.
         24    2    3    3    0    0  0.48802105209E+03 -0.10308041255E+02 -0.31092659388E+03  0.58409467012E+03  0.78869727271E+02 0.  0.
    9900016    2    1    2    0    0  0.18111938363E+03 -0.85657142284E+03 -0.56671538170E+03  0.24288320692E+04  0.21935222959E+04 0.  0.
         23    2    5    5    0    0  0.25182746489E+03  0.18256336302E+03  0.30101253844E+03  0.43897825697E+03  0.73122556087E+02 0.  0.
        -15    1    6    6    0    0  0.17945985413E+03  0.15561239053E+03  0.25756250821E+03  0.35037051954E+03  0.00000000000E+00 0.  1.
        -15    1    4    4    0    0  0.98067323899E+02  0.18455751660E+02 -0.93235036622E+02  0.13656715139E+03  0.00000000000E+00 0.  1.
         15    1    6    6    0    0  0.72367610760E+02  0.26950972486E+02  0.43450030228E+02  0.88607737427E+02  0.00000000000E+00 0. -1.
         15    1    3    3    0    0 -0.66914043572E+03  0.86687946410E+03  0.21680572044E+04  0.24289300051E+04  0.00000000000E+00 0. -1.
        -16    1    5    5    0    0 -0.76026281357E+03 -0.51049575830E+03 -0.48176514688E+03  0.10347478542E+04  0.00000000000E+00 0.  1.
         16    1    4    4    0    0  0.38995372819E+03 -0.28763792915E+02 -0.21769155726E+03  0.44752751872E+03  0.00000000000E+00 0. -1.
    9900018    1    5    5    0    0  0.68955473231E+03 -0.52863902756E+03 -0.38596277326E+03  0.95510595802E+03  0.91187600000E+02 0.  0.
<mgrwt>
<rscale>  0 0.52866467E+04</rscale>
<asrwt>0</asrwt>
<pdfrwt beam="1">  1        1 0.51786707E+00 0.52866467E+04</pdfrwt>
<pdfrwt beam="2">  1       -1 0.31934166E+00 0.52866467E+04</pdfrwt>
<totfact> 0.55406778E-03</totfact>
</mgrwt>
</event>
<event>
12    1  0.1593296E-008  0.4879441E+04  0.7818608E-02  0.7847379E-01
         -1   -1    0    0    0  501 -0.00000000000E+00  0.00000000000E+00  0.41464402768E+04  0.41464402768E+04  0.00000000000E+00 0.  1.
          1   -1    0    0  501    0  0.00000000000E+00 -0.00000000000E+00 -0.14355047947E+04  0.14355047947E+04  0.00000000000E+00 0. -1.
    9900016    2    1    2    0    0 -0.56658695164E+03  0.46452927387E+03  0.49129471650E+03  0.23619178190E+04  0.21909991021E+04 0.  0.
         24    2    3    3    0    0  0.13459747655E+03 -0.37192985926E+03  0.10578296516E+04  0.11321677158E+04  0.79698582080E+02 0.  0.
    9900016    2    1    2    0    0  0.56658695164E+03 -0.46452927387E+03  0.22196407655E+04  0.32200272525E+04  0.22147149160E+04 0.  0.
        -15    1    5    5    0    0 -0.18417136896E+03 -0.35900757042E+03  0.17901586993E+03  0.44142067288E+03  0.00000000000E+00 0. -1.
        -15    1    4    4    0    0  0.13184117807E+02 -0.14483152356E+03  0.35410893272E+03  0.38280951844E+03  0.00000000000E+00 0.  1.
         15    1    3    3    0    0 -0.70118442819E+03  0.83645913313E+03 -0.56653493508E+03  0.12297501032E+04  0.00000000000E+00 0. -1.
         15    1    5    5    0    0 -0.27421593212E+02 -0.18405752151E+03  0.15791817404E+03  0.24406405858E+03  0.00000000000E+00 0.  1.
        -16    1    5    5    0    0  0.21412013111E+03  0.59456098991E+03  0.16643310989E+03  0.65349076607E+03  0.00000000000E+00 0.  1.
         16    1    4    4    0    0  0.12141335874E+03 -0.22709833569E+03  0.70372071886E+03  0.74935819733E+03  0.00000000000E+00 0. -1.
    9900018    1    5    5    0    0  0.56405978270E+03 -0.51602517185E+03  0.17162736117E+04  0.18810517550E+04  0.91187600000E+02 0.  0.
<mgrwt>
<rscale>  0 0.48794405E+04</rscale>
<asrwt>0</asrwt>
<pdfrwt beam="1">  1        1 0.22084689E+00 0.48794405E+04</pdfrwt>
<pdfrwt beam="2">  1       -1 0.63791388E+00 0.48794405E+04</pdfrwt>
<totfact> 0.17142793E-03</totfact>
</mgrwt>
</event>
<event>
13    1  0.1593296E-008  0.5097388E+04  0.7818608E-02  0.7813657E-01
         -1   -1    0    0    0  501 -0.00000000000E+00  0.00000000000E+00  0.20358435196E+04  0.20358435196E+04  0.00000000000E+00 0.  1.
          1   -1    0    0  501    0  0.00000000000E+00 -0.00000000000E+00 -0.31907372546E+04  0.31907372546E+04  0.00000000000E+00 0. -1.
    9900016    2    1    2    0    0 -0.12361683023E+04  0.34234487235E+03 -0.67909745324E+03  0.26378255625E+04  0.22026434718E+04 0.  0.
         24    2    3    3    0    0  0.51496638751E+03 -0.29740117949E+03  0.11622768730E+03  0.61093390485E+03  0.78060995155E+02 0.  0.
    9900016    2    1    2    0    0  0.12361683023E+04 -0.34234487235E+03 -0.47579628182E+03  0.25887552117E+04  0.21977168519E+04 0.  0.
         23    2    5    5    0    0 -0.41531599807E+03  0.59473229314E+02  0.28196269359E+02  0.43463957492E+03  0.10996402696E+03 0.  0.
        -15    1    4    4    0    0  0.11792814854E+03 -0.40736394082E+02  0.30607075479E+01  0.12480332508E+03  0.00000000000E+00 0.  1.
        -15    1    6    6    0    0 -0.25866618122E+03 -0.13988558037E+02 -0.17355085353E+01  0.25904996633E+03  0.00000000000E+00 0.  1.
         15    1    6    6    0    0 -0.15664981685E+03  0.73461787351E+02  0.29931777894E+02  0.17558960860E+03  0.00000000000E+00 0. -1.
         15    1    3    3    0    0 -0.17511346898E+04  0.63974605184E+03 -0.79532514055E+03  0.20268916577E+04  0.00000000000E+00 0. -1.
        -16    1    5    5    0    0  0.29407204836E+03 -0.62975504667E+03 -0.31028130701E+03  0.76114668620E+03  0.00000000000E+00 0.  1.
         16    1    4    4    0    0  0.39703823898E+03 -0.25666478541E+03  0.11316697975E+03  0.48613057977E+03  0.00000000000E+00 0. -1.
    9900018    1    5    5    0    0  0.13574122520E+04  0.22793694500E+03 -0.19371124417E+03  0.13929689506E+04  0.91187600000E+02 0.  0.
<mgrwt>
<rscale>  0 0.50973883E+04</rscale>
<asrwt>0</asrwt>
<pdfrwt beam="1">  1        1 0.49088266E+00 0.50973883E+04</pdfrwt>
<pdfrwt beam="2">  1       -1 0.31320669E+00 0.50973883E+04</pdfrwt>
<totfact> 0.83839345E-03</totfact>
</mgrwt>
</event>
<event>
13    1  0.1593296E-008  0.5982377E+04  0.7818608E-02  0.7692591E-01
          2   -1    0    0  501    0  0.00000000000E+00  0.00000000000E+00  0.35074751909E+04  0.35074751909E+04  0.00000000000E+00 0. -1.
         -2   -1    0    0    0  501 -0.00000000000E+00 -0.00000000000E+00 -0.25508969083E+04  0.25508969083E+04  0.00000000000E+00 0.  1.
    9900016    2    1    2    0    0  0.10493137513E+04  0.13051193478E+04  0.16397726907E+04  0.32172968621E+04  0.22040301181E+04 0.  0.
         24    2    3    3    0    0 -0.43706812376E+03  0.32378616745E+03 -0.26385157893E+03  0.61035780473E+03  0.83981944847E+02 0.  0.
    9900016    2    1    2    0    0 -0.10493137513E+04 -0.13051193478E+04 -0.68319440804E+03  0.28410752370E+04  0.21910175815E+04 0.  0.
         23    2    5    5    0    0 -0.97473493974E+02 -0.22846412428E+03  0.36903608350E+03  0.44892930685E+03  0.60439668342E+02 0.  0.
        -15    1    6    6    0    0 -0.96702422594E+02 -0.16918046623E+03  0.26136540899E+03  0.32601421089E+03  0.00000000000E+00 0.  1.
        -15    1    4    4    0    0 -0.15546539147E+03  0.16374741333E+03 -0.93458090555E+02  0.24437086162E+03  0.00000000000E+00 0.  1.
         15    1    3    3    0    0  0.14863818750E+04  0.98133318037E+03  0.19036242696E+04  0.26069390574E+04  0.00000000000E+00 0. -1.
         15    1    6    6    0    0 -0.77107138027E+00 -0.59283658049E+02  0.10767067452E+03  0.12291509596E+03  0.00000000000E+00 0. -1.
        -16    1    5    5    0    0  0.24385612503E+03  0.14797590667E+03  0.12643460588E+03  0.31200703235E+03  0.00000000000E+00 0.  1.
         16    1    4    4    0    0 -0.28160273229E+03  0.16003875412E+03 -0.17039348837E+03  0.36598694312E+03  0.00000000000E+00 0. -1.
    9900018    1    5    5    0    0 -0.11956963823E+04 -0.12246311302E+04 -0.11786650974E+04  0.20801388978E+04  0.91187600000E+02 0.  0.
<mgrwt>
<rscale>  0 0.59823767E+04</rscale>
<asrwt>0</asrwt>
<pdfrwt beam="1">  1        2 0.53961157E+00 0.59823767E+04</pdfrwt>
<pdfrwt beam="2">  1       -2 0.39244568E+00 0.59823767E+04</pdfrwt>
<totfact> 0.44963013E-03</totfact>
</mgrwt>
</event>
<event>
12    1  0.1593296E-008  0.5750459E+04  0.7818608E-02  0.7722136E-01
         -1   -1    0    0    0  501 -0.00000000000E+00  0.00000000000E+00  0.32279610511E+04  0.32279610511E+04  0.00000000000E+00 0.  1.
          1   -1    0    0  501    0  0.00000000000E+00 -0.00000000000E+00 -0.25610426836E+04  0.25610426836E+04  0.00000000000E+00 0. -1.
    9900016    2    1    2    0    0 -0.41229829639E+03  0.75490217699E+03 -0.13225387853E+04  0.27036695669E+04  0.21956441211E+04 0.  0.
         24    2    3    3    0    0 -0.94251459170E+03 -0.36309403368E+03 -0.10032255259E+04  0.14257784117E+04  0.78813644694E+02 0.  0.
    9900016    2    1    2    0    0  0.41229829639E+03 -0.75490217699E+03  0.19894571528E+04  0.30853341678E+04  0.21957868709E+04 0.  0.
        -15    1    5    5    0    0 -0.89266324500E+02 -0.46602434806E+03 -0.92254291585E+02  0.48338186146E+03  0.00000000000E+00 0.  1.
        -15    1    4    4    0    0 -0.80062549762E+03 -0.29237843320E+03 -0.87881977280E+03  0.12242591755E+04  0.00000000000E+00 0.  1.
         15    1    5    5    0    0 -0.34388673426E+02 -0.22175995239E+03  0.50800587051E+02  0.23008858509E+03  0.00000000000E+00 0. -1.
         15    1    3    3    0    0  0.53021629530E+03  0.11179962107E+04 -0.31931325941E+03  0.12778911552E+04  0.00000000000E+00 0. -1.
        -16    1    5    5    0    0  0.43037407658E+03  0.42345719560E+03  0.59341044323E+03  0.84656588428E+03  0.00000000000E+00 0.  1.
         16    1    4    4    0    0 -0.14188909408E+03 -0.70715600483E+02 -0.12440575313E+03  0.20151923626E+03  0.00000000000E+00 0. -1.
    9900018    1    5    5    0    0  0.10557921774E+03 -0.49057507214E+03  0.14375004141E+04  0.15252978370E+04  0.91187600000E+02 0.  0.
<mgrwt>
<rscale>  0 0.57504595E+04</rscale>
<asrwt>0</asrwt>
<pdfrwt beam="1">  1        1 0.39400657E+00 0.57504595E+04</pdfrwt>
<pdfrwt beam="2">  1       -1 0.49660939E+00 0.57504595E+04</pdfrwt>
<totfact> 0.13227244E-03</totfact>
</mgrwt>
</event>
<event>
12    1  0.1593296E-008  0.5032856E+04  0.7818608E-02  0.7823459E-01
         -1   -1    0    0    0  501 -0.00000000000E+00  0.00000000000E+00  0.25397789384E+04  0.25397789384E+04  0.00000000000E+00 0.  1.
          1   -1    0    0  501    0  0.00000000000E+00 -0.00000000000E+00 -0.24932914924E+04  0.24932914924E+04  0.00000000000E+00 0. -1.
    9900016    2    1    2    0    0  0.49174759421E+03  0.81351203580E+03  0.84362800321E+03  0.25378473167E+04  0.21966663985E+04 0.  0.
         24    2    3    3    0    0  0.99923431723E+03  0.26715142788E+03  0.13004857986E+04  0.16633350337E+04  0.74706197010E+02 0.  0.
    9900016    2    1    2    0    0 -0.49174759421E+03 -0.81351203580E+03 -0.79714055713E+03  0.24952231140E+04  0.21649683120E+04 0.  0.
        -15    1    5    5    0    0 -0.15328492388E+03  0.31757163557E+03 -0.75039214139E+03  0.82911783087E+03  0.00000000000E+00 0. -1.
        -15    1    4    4    0    0  0.72037885555E+03  0.18020421883E+03  0.88163803278E+03  0.11526946156E+04  0.00000000000E+00 0.  1.
         15    1    3    3    0    0 -0.50748672302E+03  0.54636060792E+03 -0.45685779541E+03  0.87451228302E+03  0.00000000000E+00 0. -1.
         15    1    5    5    0    0  0.29332044890E+02  0.10934467296E+03 -0.29113282717E+03  0.31236989198E+03  0.00000000000E+00 0.  1.
        -16    1    5    5    0    0 -0.26597377879E+03 -0.75513976381E+03  0.17335415745E+02  0.80079874533E+03  0.00000000000E+00 0.  1.
         16    1    4    4    0    0  0.27885546168E+03  0.86947209054E+02  0.41884776583E+03  0.51064041811E+03  0.00000000000E+00 0. -1.
    9900018    1    5    5    0    0 -0.10182093642E+03 -0.48528858052E+03  0.22704899568E+03  0.55293664584E+03  0.91187600000E+02 0.  0.
<mgrwt>
<rscale>  0 0.50328557E+04</rscale>
<asrwt>0</asrwt>
<pdfrwt beam="1">  1        1 0.38358331E+00 0.50328557E+04</pdfrwt>
<pdfrwt beam="2">  1       -1 0.39073522E+00 0.50328557E+04</pdfrwt>
<totfact> 0.81617323E-03</totfact>
</mgrwt>
</event>
<event>
13    1  0.1593296E-008  0.5143968E+04  0.7818608E-02  0.7806675E-01
         -1   -1    0    0    0  501 -0.00000000000E+00  0.00000000000E+00  0.36048433127E+04  0.36048433127E+04  0.00000000000E+00 0.  1.
          1   -1    0    0  501    0  0.00000000000E+00 -0.00000000000E+00 -0.18350597658E+04  0.18350597658E+04  0.00000000000E+00 0. -1.
    9900016    2    1    2    0    0  0.10989730598E+04 -0.55253058502E+03  0.42049532342E+03  0.25738697672E+04  0.22214764073E+04 0.  0.
         24    2    3    3    0    0 -0.62598139583E+03 -0.13034475767E+03 -0.22781578140E+03  0.68336294749E+03  0.79009011983E+02 0.  0.
    9900016    2    1    2    0    0 -0.10989730598E+04  0.55253058502E+03  0.13492882235E+04  0.28660333113E+04  0.22091936081E+04 0.  0.
         23    2    5    5    0    0  0.44053459881E+03  0.59736904407E+03 -0.28567445113E+02  0.75024448815E+03  0.10549969437E+03 0.  0.
        -15    1    4    4    0    0 -0.48739441357E+03 -0.13360299849E+03 -0.17056997736E+03  0.53338278258E+03  0.00000000000E+00 0.  1.
        -15    1    6    6    0    0  0.38775321577E+02  0.15963170428E+02 -0.10831214759E+02  0.43308931950E+02  0.00000000000E+00 0.  1.
         15    1    3    3    0    0  0.17249544556E+04 -0.42218582734E+03  0.64831110482E+03  0.18905068197E+04  0.00000000000E+00 0. -1.
         15    1    6    6    0    0  0.40175927723E+03  0.58140587365E+03 -0.17736230355E+02  0.70693555620E+03  0.00000000000E+00 0. -1.
        -16    1    5    5    0    0 -0.78859516419E+03  0.62743994845E+02  0.43694689321E+03  0.90373764410E+03  0.00000000000E+00 0.  1.
         16    1    4    4    0    0 -0.13858698226E+03  0.32582408135E+01 -0.57245804047E+02  0.14998016491E+03  0.00000000000E+00 0. -1.
    9900018    1    5    5    0    0 -0.75091249440E+03 -0.10758245390E+03  0.94090877544E+03  0.12120511791E+04  0.91187600000E+02 0.  0.
<mgrwt>
<rscale>  0 0.51439685E+04</rscale>
<asrwt>0</asrwt>
<pdfrwt beam="1">  1        1 0.28231689E+00 0.51439685E+04</pdfrwt>
<pdfrwt beam="2">  1       -1 0.55459128E+00 0.51439685E+04</pdfrwt>
<totfact> 0.19771029E-03</totfact>
</mgrwt>
</event>
<event>
12    1  0.1593297E-008  0.5357757E+04  0.7818608E-02  0.7775571E-01
         -2   -1    0    0    0  501 -0.00000000000E+00  0.00000000000E+00  0.23501760734E+04  0.23501760734E+04  0.00000000000E+00 0. -1.
          2   -1    0    0  501    0  0.00000000000E+00 -0.00000000000E+00 -0.30535536361E+04  0.30535536361E+04  0.00000000000E+00 0.  1.
    9900016    2    1    2    0    0  0.62339744695E+03  0.13334537835E+04  0.46083496051E+02  0.26509843002E+04  0.22042846236E+04 0.  0.
         24    2    3    3    0    0 -0.61321719172E+03  0.12303435915E+04 -0.18318744626E+03  0.13890759671E+04  0.78700219840E+02 0.  0.
    9900016    2    1    2    0    0 -0.62339744695E+03 -0.13334537835E+04 -0.74946105877E+03  0.27527454092E+04  0.22020881090E+04 0.  0.
        -15    1    5    5    0    0  0.37782513775E+03 -0.21720681633E+02 -0.19228053716E+03  0.42449431998E+03  0.00000000000E+00 0.  1.
        -15    1    4    4    0    0 -0.44170156542E+03  0.82288960986E+03 -0.14800098199E+03  0.94559604143E+03  0.00000000000E+00 0.  1.
         15    1    5    5    0    0  0.28510327673E+03  0.69614255418E+02 -0.57690566877E+02  0.29909567778E+03  0.00000000000E+00 0. -1.
         15    1    3    3    0    0  0.12366146387E+04  0.10311019206E+03  0.22927094231E+03  0.12619083332E+04  0.00000000000E+00 0. -1.
        -16    1    5    5    0    0 -0.57194901695E+03 -0.45286473882E+03  0.51495699790E+02  0.73134393876E+03  0.00000000000E+00 0.  1.
         16    1    4    4    0    0 -0.17151562630E+03  0.40745398160E+03 -0.35186464267E+02  0.44347992565E+03  0.00000000000E+00 0. -1.
    9900018    1    5    5    0    0 -0.71437684448E+03 -0.92848261849E+03 -0.55098565452E+03  0.12978114727E+04  0.91187600000E+02 0.  0.
<mgrwt>
<rscale>  0 0.53577565E+04</rscale>
<asrwt>0</asrwt>
<pdfrwt beam="1">  1        2 0.46977748E+00 0.53577565E+04</pdfrwt>
<pdfrwt beam="2">  1       -2 0.36156555E+00 0.53577565E+04</pdfrwt>
<totfact> 0.14977771E-02</totfact>
</mgrwt>
</event>
