<event>
13    1  0.4682731E-010  0.4349248E+04  0.7818608E-02  0.7937574E-01
          2   -1    0    0  501    0  0.00000000000E+00  0.00000000000E+00  0.37219578970E+04  0.37219578970E+04  0.00000000000E+00 0.  1.
         -2   -1    0    0    0  501 -0.00000000000E+00 -0.00000000000E+00 -0.12705649704E+04  0.12705649704E+04  0.00000000000E+00 0. -1.
    9900016    2    1    2    0    0 -0.72828727788E+03 -0.27904463478E+03  0.33732163009E+03  0.20282738164E+04  0.18416950141E+04 0.  0.
         23    2    3    3    0    0  0.19369052064E+03 -0.46038040444E+03  0.82389113861E+03  0.97012656348E+03  0.11350245075E+03 0.  0.
    9900016    2    1    2    0    0  0.72828727788E+03  0.27904463478E+03  0.21140712965E+04  0.29642490509E+04  0.19259300926E+04 0.  0.
        -24    2    5    5    0    0  0.80854790683E+03 -0.28757375633E+03  0.38009330818E+03  0.94186600113E+03  0.78690902860E+02 0.  0.
        -15    1    4    4    0    0  0.55850006447E+02 -0.47012288223E+02  0.16186959199E+03  0.17757010805E+03  0.00000000000E+00 0.  1.
        -15    1    5    5    0    0 -0.35285929191E+03  0.59483369357E+03  0.87003699344E+03  0.11114410344E+04  0.00000000000E+00 0.  1.
         15    1    4    4    0    0  0.13784051419E+03 -0.41336811622E+03  0.66202154662E+03  0.79255645543E+03  0.00000000000E+00 0. -1.
         15    1    6    6    0    0  0.22107583243E+02 -0.97187842103E+01 -0.23918391816E+01  0.24267692475E+02  0.00000000000E+00 0. -1.
        -16    1    6    6    0    0  0.78644032359E+03 -0.27785497212E+03  0.38248514736E+03  0.91759830866E+03  0.00000000000E+00 0.  1.
         16    1    3    3    0    0 -0.92197779852E+03  0.18133576965E+03 -0.48656950852E+03  0.10581472530E+04  0.00000000000E+00 0. -1.
    9900018    1    5    5    0    0  0.27259866297E+03 -0.28215302453E+02  0.86394099490E+03  0.91094201540E+03  0.91187600000E+02 0.  0.
<mgrwt>
<rscale>  0 0.43492479E+04</rscale>
<asrwt>0</asrwt>
<pdfrwt beam="1">  1        2 0.57260890E+00 0.43492479E+04</pdfrwt>
<pdfrwt beam="2">  1       -2 0.19547154E+00 0.43492479E+04</pdfrwt>
<totfact> 0.61274420E-02</totfact>
</mgrwt>
</event>
<event>
12    1  0.4682731E-010  0.4629359E+04  0.7818608E-02  0.7888373E-01
         -2   -1    0    0    0  501 -0.00000000000E+00  0.00000000000E+00  0.24805993508E+04  0.24805993508E+04  0.00000000000E+00 0.  1.
          2   -1    0    0  501    0  0.00000000000E+00 -0.00000000000E+00 -0.21598574193E+04  0.21598574193E+04  0.00000000000E+00 0. -1.
    9900016    2    1    2    0    0 -0.29808151303E+03 -0.11877459239E+04 -0.33082281025E+03  0.22545800593E+04  0.18638923102E+04 0.  0.
    9900016    2    1    2    0    0  0.29808151303E+03  0.11877459239E+04  0.65156474170E+03  0.23858767108E+04  0.19412053210E+04 0.  0.
        -24    2    4    4    0    0 -0.60939862562E+03 -0.38922891595E+02  0.37358173190E+03  0.72031725174E+03  0.80074692346E+02 0.  0.
        -15    1    3    3    0    0 -0.92317901536E+02  0.16480315244E+03  0.64315020952E+02  0.19954722729E+03  0.00000000000E+00 0. -1.
        -15    1    4    4    0    0  0.46149283112E+03  0.29400828484E+03  0.30681376591E+03  0.62733658564E+03  0.00000000000E+00 0.  1.
         15    1    3    3    0    0  0.20540270761E+02  0.31495687283E+03  0.36596900331E+02  0.31774056646E+03  0.00000000000E+00 0.  1.
         15    1    5    5    0    0 -0.10465963536E+02 -0.67223631076E+01  0.21442384201E+02  0.24789158894E+02  0.00000000000E+00 0. -1.
        -16    1    5    5    0    0 -0.59893266208E+03 -0.32200528487E+02  0.35213934770E+03  0.69552809285E+03  0.00000000000E+00 0.  1.
         16    1    3    3    0    0 -0.22630388226E+03 -0.16675059492E+04 -0.43173473153E+03  0.17372922656E+04  0.00000000000E+00 0. -1.
    9900018    1    4    4    0    0  0.44598730753E+03  0.93266053065E+03 -0.28830756111E+02  0.10382228734E+04  0.91187600000E+02 0.  0.
<mgrwt>
<rscale>  0 0.46293589E+04</rscale>
<asrwt>0</asrwt>
<pdfrwt beam="1">  1        2 0.33228576E+00 0.46293589E+04</pdfrwt>
<pdfrwt beam="2">  1       -2 0.38163067E+00 0.46293589E+04</pdfrwt>
<totfact> 0.39861604E-02</totfact>
</mgrwt>
</event>
<event>
13    1  0.4682731E-010  0.5369544E+04  0.7818608E-02  0.7773899E-01
          2   -1    0    0  501    0  0.00000000000E+00  0.00000000000E+00  0.25167761985E+04  0.25167761985E+04  0.00000000000E+00 0. -1.
         -2   -1    0    0    0  501 -0.00000000000E+00 -0.00000000000E+00 -0.28639821188E+04  0.28639821188E+04  0.00000000000E+00 0.  1.
    9900016    2    1    2    0    0 -0.85852545706E+03 -0.25546329690E+02 -0.14071680038E+04  0.24696187786E+04  0.18387975814E+04 0.  0.
         23    2    3    3    0    0  0.42762970555E+03  0.35190267632E+02  0.13339724225E+03  0.46182762562E+03  0.10669775791E+03 0.  0.
    9900016    2    1    2    0    0  0.34180830935E+03 -0.14238309409E+03  0.10143394745E+03  0.18055680719E+04  0.17642792723E+04 0.  0.
         24    2    5    5    0    0  0.54907741317E+03 -0.68526905639E+03 -0.46265323529E+03  0.99570388627E+03  0.79363264184E+02 0.  0.
        -15    1    4    4    0    0  0.82265891478E+02  0.27198573136E+02  0.68215048633E+02  0.11027570966E+03  0.00000000000E+00 0.  1.
        -15    1    6    6    0    0  0.52384262567E+03 -0.64613764899E+03 -0.41694494632E+03  0.93045582710E+03  0.00000000000E+00 0.  1.
         15    1    5    5    0    0 -0.20726910382E+03  0.54288596230E+03  0.56408718275E+03  0.80986418565E+03  0.00000000000E+00 0. -1.
         15    1    4    4    0    0  0.34536381407E+03  0.79916944967E+01  0.65182193617E+02  0.35155191596E+03  0.00000000000E+00 0. -1.
        -16    1    3    3    0    0 -0.12861551626E+04 -0.60736597323E+02 -0.15405652461E+04  0.20077911530E+04  0.00000000000E+00 0.  1.
         16    1    6    6    0    0  0.25234787504E+02 -0.39131407400E+02 -0.45708288970E+02  0.65248059174E+02  0.00000000000E+00 0. -1.
    9900018    1    1    2    0    0  0.51671714771E+03  0.16792942378E+03  0.95852813609E+03  0.11055714668E+04  0.91187600000E+02 0.  0.
<mgrwt>
<rscale>  0 0.53695445E+04</rscale>
<asrwt>0</asrwt>
<pdfrwt beam="1">  1        2 0.38719634E+00 0.53695445E+04</pdfrwt>
<pdfrwt beam="2">  1       -2 0.44061263E+00 0.53695445E+04</pdfrwt>
<totfact> 0.96667373E-03</totfact>
</mgrwt>
</event>
<event>
13    1  0.4682731E-010  0.4273872E+04  0.7818608E-02  0.7951467E-01
         -1   -1    0    0    0  501 -0.00000000000E+00  0.00000000000E+00  0.19336346187E+04  0.19336346187E+04  0.00000000000E+00 0.  1.
          1   -1    0    0  501    0  0.00000000000E+00 -0.00000000000E+00 -0.23616120588E+04  0.23616120588E+04  0.00000000000E+00 0. -1.
    9900016    2    1    2    0    0 -0.87144483937E+02 -0.12458189072E+03  0.49414591354E+03  0.19194913143E+04  0.18485540060E+04 0.  0.
         23    2    3    3    0    0 -0.43580339662E+03 -0.65702898388E+03  0.87008600113E+03  0.11803067001E+04  0.12026042877E+03 0.  0.
    9900016    2    1    2    0    0 -0.29090161612E+03  0.30051516489E+02 -0.58473599665E+03  0.18523050290E+04  0.17330870984E+04 0.  0.
        -24    2    5    5    0    0 -0.28568151158E+03  0.26499986099E+03 -0.11624287252E+04  0.12286409666E+04  0.80493672686E+02 0.  0.
        -15    1    4    4    0    0 -0.22766428350E+02 -0.44814621993E+02  0.19665283299E+02  0.53975772078E+02  0.00000000000E+00 0.  1.
        -15    1    5    5    0    0 -0.52201045409E+01 -0.23494834450E+03  0.57769272853E+03  0.62366406235E+03  0.00000000000E+00 0.  1.
         15    1    4    4    0    0 -0.41303696827E+03 -0.61221436189E+03  0.85042071783E+03  0.11263309280E+04  0.00000000000E+00 0. -1.
         15    1    6    6    0    0 -0.16700999047E+03  0.14225758670E+03 -0.53093158604E+03  0.57447185044E+03  0.00000000000E+00 0. -1.
        -16    1    6    6    0    0 -0.11867152111E+03  0.12274227429E+03 -0.63149713914E+03  0.65416911618E+03  0.00000000000E+00 0.  1.
         16    1    3    3    0    0  0.34865891269E+03  0.53244709317E+03 -0.37594008759E+03  0.73918461420E+03  0.00000000000E+00 0. -1.
    9900018    1    1    2    0    0  0.37804610006E+03  0.94530374229E+02 -0.33738735695E+03  0.52345033427E+03  0.91187600000E+02 0.  0.
<mgrwt>
<rscale>  0 0.42738717E+04</rscale>
<asrwt>0</asrwt>
<pdfrwt beam="1">  1        1 0.36332493E+00 0.42738717E+04</pdfrwt>
<pdfrwt beam="2">  1       -1 0.29748225E+00 0.42738717E+04</pdfrwt>
<totfact> 0.44313675E-02</totfact>
</mgrwt>
</event>
<event>
12    1  0.4682731E-010  0.5008757E+04  0.7818608E-02  0.7827158E-01
          2   -1    0    0  501    0  0.00000000000E+00  0.00000000000E+00  0.51896716724E+04  0.51896716724E+04  0.00000000000E+00 0. -1.
         -2   -1    0    0    0  501 -0.00000000000E+00 -0.00000000000E+00 -0.12085370765E+04  0.12085370765E+04  0.00000000000E+00 0.  1.
    9900016    2    1    2    0    0  0.25152926144E+03 -0.65161396642E+03  0.38601317719E+04  0.43422325828E+04  0.18618535860E+04 0.  0.
    9900016    2    1    2    0    0 -0.25152926144E+03  0.65161396642E+03  0.12100282399E+03  0.20559761662E+04  0.19299037753E+04 0.  0.
        -24    2    4    4    0    0  0.27181427560E+03 -0.41389969678E+03 -0.39733175630E+03  0.64030026900E+03  0.83162193951E+02 0.  0.
        -15    1    4    4    0    0 -0.19684520120E+02  0.27403982180E+03  0.37102258287E+03  0.46167419385E+03  0.00000000000E+00 0.  1.
        -15    1    3    3    0    0 -0.14390825491E+03  0.92579202857E+02  0.47037603314E+02  0.17746275880E+03  0.00000000000E+00 0.  1.
         15    1    3    3    0    0 -0.20669312223E+03  0.17113197727E+00 -0.25791661711E+02  0.20829614946E+03  0.00000000000E+00 0. -1.
         15    1    5    5    0    0  0.60847206317E+02 -0.12458759327E+03 -0.15487775599E+03  0.20787392865E+03  0.00000000000E+00 0. -1.
        -16    1    5    5    0    0  0.21096706928E+03 -0.28931210351E+03 -0.24245400031E+03  0.43242634035E+03  0.00000000000E+00 0.  1.
         16    1    3    3    0    0  0.60213063859E+03 -0.74436430126E+03  0.38388858303E+04  0.39564736745E+04  0.00000000000E+00 0. -1.
    9900018    1    4    4    0    0 -0.50365901692E+03  0.79147384140E+03  0.14731199742E+03  0.95400170331E+03  0.91187600000E+02 0.  0.
<mgrwt>
<rscale>  0 0.50087566E+04</rscale>
<asrwt>0</asrwt>
<pdfrwt beam="1">  1        2 0.79841101E+00 0.50087566E+04</pdfrwt>
<pdfrwt beam="2">  1       -2 0.18592878E+00 0.50087566E+04</pdfrwt>
<totfact> 0.22437920E-03</totfact>
</mgrwt>
</event>
<event>
13    1  0.4682731E-010  0.4817115E+04  0.7818608E-02  0.7857355E-01
          2   -1    0    0  501    0  0.00000000000E+00  0.00000000000E+00  0.31667094227E+04  0.31667094227E+04  0.00000000000E+00 0. -1.
         -2   -1    0    0    0  501 -0.00000000000E+00 -0.00000000000E+00 -0.18319171888E+04  0.18319171888E+04  0.00000000000E+00 0.  1.
    9900016    2    1    2    0    0  0.50691247167E+03  0.13109712834E+04  0.12655217608E+03  0.23281726580E+04  0.18516928775E+04 0.  0.
         23    2    3    3    0    0 -0.28811860043E+02 -0.43561129003E+03  0.21689172540E+03  0.49904377262E+03  0.10684262804E+03 0.  0.
    9900016    2    1    2    0    0 -0.50691247167E+03 -0.13109712834E+04  0.12082400578E+04  0.26704539534E+04  0.19224656877E+04 0.  0.
         24    2    5    5    0    0 -0.95022375896E+03 -0.12619100419E+04  0.10428593534E+04  0.18945788877E+04  0.80816982492E+02 0.  0.
        -15    1    6    6    0    0 -0.62856787978E+03 -0.77004587954E+03  0.65917414952E+03  0.11927190765E+04  0.00000000000E+00 0.  1.
        -15    1    4    4    0    0 -0.59000912193E+02 -0.31135495127E+03  0.12099591512E+03  0.33920941141E+03  0.00000000000E+00 0.  1.
         15    1    5    5    0    0  0.42124663876E+03  0.18740033226E+03 -0.19394308109E+02  0.46145829106E+03  0.00000000000E+00 0. -1.
         15    1    4    4    0    0  0.30189052149E+02 -0.12425633876E+03  0.95895810280E+02  0.15983436120E+03  0.00000000000E+00 0. -1.
        -16    1    3    3    0    0  0.53572433171E+03  0.17465825734E+04 -0.90339549311E+02  0.18291288854E+04  0.00000000000E+00 0.  1.
         16    1    6    6    0    0 -0.32165587918E+03 -0.49186416238E+03  0.38368520388E+03  0.70185981116E+03  0.00000000000E+00 0. -1.
    9900018    1    5    5    0    0  0.22064648535E+02 -0.23646157372E+03  0.18477501252E+03  0.31441677469E+03  0.91187600000E+02 0.  0.
<mgrwt>
<rscale>  0 0.48171151E+04</rscale>
<asrwt>0</asrwt>
<pdfrwt beam="1">  1        2 0.48718606E+00 0.48171151E+04</pdfrwt>
<pdfrwt beam="2">  1       -2 0.28183341E+00 0.48171151E+04</pdfrwt>
<totfact> 0.41287331E-02</totfact>
</mgrwt>
</event>
