<event>
11    1  0.1591426E-012  0.2453054E+04  0.7818608E-02  0.8419904E-01
         -1   -1    0    0    0  501 -0.00000000000E+00  0.00000000000E+00  0.73412152621E+03  0.73412152621E+03  0.00000000000E+00 0.  1.
          1   -1    0    0  501    0  0.00000000000E+00 -0.00000000000E+00 -0.20492095966E+04  0.20492095966E+04  0.00000000000E+00 0. -1.
    9900016    2    1    2    0    0  0.27609735990E+03  0.27303189058E+03 -0.85880426391E+03  0.11824334762E+04  0.71402240619E+03 0.  0.
         23    2    3    3    0    0  0.17584765654E+03  0.21305581417E+03 -0.26391796354E+03  0.39722478619E+03  0.10871826445E+03 0.  0.
        -15    1    3    3    0    0  0.12861260876E+03 -0.17459787151E+03 -0.39359061958E+03  0.44937645208E+03  0.00000000000E+00 0.  1.
        -15    1    4    4    0    0  0.12845851107E+03  0.16681469607E+03 -0.25457205252E+03  0.33035687039E+03  0.00000000000E+00 0. -1.
         15    1    3    3    0    0  0.18077161138E+02 -0.88265339663E+01 -0.23034267555E+02  0.30582167001E+02  0.00000000000E+00 0. -1.
         15    1    4    4    0    0  0.47389145462E+02  0.46241118104E+02 -0.93459110263E+01  0.66867915804E+02  0.00000000000E+00 0.  1.
        -16    1    1    2    0    0 -0.30720005310E+03 -0.43091531323E+03  0.43845429446E+03  0.68724235036E+03  0.00000000000E+00 0.  1.
         16    1    3    3    0    0 -0.46440066525E+02  0.24340048188E+03 -0.17826141323E+03  0.30525007093E+03  0.00000000000E+00 0. -1.
    9900018    1    1    2    0    0  0.31102693199E+02  0.15788342266E+03 -0.89473810093E+03  0.91365529623E+03  0.91187600000E+02 0.  0.
<mgrwt>
<rscale>  0 0.24530543E+04</rscale>
<asrwt>0</asrwt>
<pdfrwt beam="1">  1        1 0.31526301E+00 0.24530543E+04</pdfrwt>
<pdfrwt beam="2">  1       -1 0.11294177E+00 0.24530543E+04</pdfrwt>
<totfact> 0.17638105E+00</totfact>
</mgrwt>
</event>
<event>
11    1  0.1591426E-012  0.1773391E+04  0.7818608E-02  0.8720579E-01
         -2   -1    0    0    0  501 -0.00000000000E+00  0.00000000000E+00  0.91177666925E+03  0.91177666925E+03  0.00000000000E+00 0.  1.
          2   -1    0    0  501    0  0.00000000000E+00 -0.00000000000E+00 -0.86230438072E+03  0.86230438072E+03  0.00000000000E+00 0. -1.
    9900016    2    1    2    0    0  0.53790727836E+01 -0.88838483622E+02  0.35003107774E+03  0.77255588123E+03  0.68293456761E+03 0.  0.
         23    2    3    3    0    0 -0.84940833806E+02 -0.14355903013E+03  0.19682183008E+03  0.28022463091E+03  0.10937490843E+03 0.  0.
        -15    1    3    3    0    0  0.46933849318E+02  0.16588009624E+03 -0.44079800863E+02  0.17793825160E+03  0.00000000000E+00 0.  1.
        -15    1    4    4    0    0 -0.63947808453E+02 -0.14789004970E+03  0.12118738104E+03  0.20161143403E+03  0.00000000000E+00 0. -1.
         15    1    3    3    0    0  0.22785250268E+01  0.58256881551E+02  0.11137987074E+02  0.59355797361E+02  0.00000000000E+00 0. -1.
         15    1    4    4    0    0 -0.20993025353E+02  0.43310195659E+01  0.75634449034E+02  0.78613196886E+02  0.00000000000E+00 0.  1.
        -16    1    3    3    0    0  0.41107532244E+02 -0.16941643128E+03  0.18615106145E+03  0.25503720135E+03  0.00000000000E+00 0.  1.
         16    1    1    2    0    0 -0.10037182314E+03  0.63489806928E+01 -0.62963130170E+03  0.63761303980E+03  0.00000000000E+00 0. -1.
    9900018    1    1    2    0    0  0.94992750360E+02  0.82489502929E+02  0.32907251250E+03  0.36391212894E+03  0.91187600000E+02 0.  0.
<mgrwt>
<rscale>  0 0.17733911E+04</rscale>
<asrwt>0</asrwt>
<pdfrwt beam="1">  1        2 0.13266221E+00 0.17733911E+04</pdfrwt>
<pdfrwt beam="2">  1       -2 0.14027333E+00 0.17733911E+04</pdfrwt>
<totfact> 0.10518051E+01</totfact>
</mgrwt>
</event>
<event>
12    1  0.1591426E-012  0.1065548E+04  0.7818608E-02  0.9239438E-01
          2   -1    0    0  501    0  0.00000000000E+00  0.00000000000E+00  0.77635721292E+03  0.77635721292E+03  0.00000000000E+00 0. -1.
         -2   -1    0    0    0  501 -0.00000000000E+00 -0.00000000000E+00 -0.36561510391E+03  0.36561510391E+03  0.00000000000E+00 0.  1.
    9900016    2    1    2    0    0 -0.63896366804E+02  0.19605761421E+03  0.33639028341E+03  0.80591608375E+03  0.70272396963E+03 0.  0.
         23    2    3    3    0    0  0.11287536022E+02  0.28615549726E+03  0.20193764127E+03  0.37087503844E+03  0.12147882983E+03 0.  0.
         23    2    3    3    0    0 -0.55535069808E+02 -0.21849244176E+02  0.26163999397E+03  0.28936820703E+03  0.10824481211E+03 0.  0.
        -15    1    4    4    0    0  0.66438887806E+02  0.15392557044E+03  0.10303525937E+03  0.19678280342E+03  0.00000000000E+00 0. -1.
        -15    1    5    5    0    0 -0.20627261043E+02 -0.64773749115E+02  0.13415042674E+03  0.15039102190E+03  0.00000000000E+00 0. -1.
         15    1    5    5    0    0 -0.34907808764E+02  0.42924504940E+02  0.12748956722E+03  0.13897718513E+03  0.00000000000E+00 0.  1.
         15    1    4    4    0    0 -0.55151351784E+02  0.13222992682E+03  0.98902381897E+02  0.17409223502E+03  0.00000000000E+00 0.  1.
        -16    1    1    2    0    0 -0.76649706050E+02 -0.11028283938E+03  0.60584598022E+02  0.14733626715E+03  0.00000000000E+00 0.  1.
         16    1    3    3    0    0 -0.19648833019E+02 -0.68248638872E+02 -0.12718735182E+03  0.14567283827E+03  0.00000000000E+00 0. -1.
    9900018    1    1    2    0    0  0.14054607285E+03 -0.85774774834E+02  0.13767227572E+02  0.18871996593E+03  0.91187600000E+02 0.  0.
<mgrwt>
<rscale>  0 0.10655476E+04</rscale>
<asrwt>0</asrwt>
<pdfrwt beam="1">  1        2 0.11943957E+00 0.10655476E+04</pdfrwt>
<pdfrwt beam="2">  1       -2 0.56248478E-01 0.10655476E+04</pdfrwt>
<totfact> 0.10581862E+02</totfact>
</mgrwt>
</event>
<event>
12    1  0.1591426E-012  0.1008152E+04  0.7818608E-02  0.9299649E-01
          1   -1    0    0  501    0  0.00000000000E+00  0.00000000000E+00  0.29508645161E+03  0.29508645161E+03  0.00000000000E+00 0. -1.
         -1   -1    0    0    0  501 -0.00000000000E+00 -0.00000000000E+00 -0.86107872903E+03  0.86107872903E+03  0.00000000000E+00 0.  1.
    9900016    2    1    2    0    0  0.12675119538E+03 -0.64568789251E+02 -0.27100867595E+03  0.77814662186E+03  0.71542397821E+03 0.  0.
         23    2    3    3    0    0  0.12063745242E+03 -0.10752424469E+03 -0.92463828751E+02  0.19814295782E+03  0.67795383199E+02 0.  0.
         23    2    3    3    0    0 -0.21729235067E+03  0.91808919307E+02 -0.22534228747E+03  0.34657927796E+03  0.11701797327E+03 0.  0.
        -15    1    4    4    0    0  0.34740135091E+02  0.16167167011E+01 -0.83390540849E+01  0.35763537047E+02  0.00000000000E+00 0. -1.
        -15    1    5    5    0    0 -0.18811696058E+03  0.82433736878E+02 -0.12222021481E+03  0.23900019402E+03  0.00000000000E+00 0.  1.
         15    1    4    4    0    0  0.85897317333E+02 -0.10914096139E+03 -0.84124774666E+02  0.16237942077E+03  0.00000000000E+00 0. -1.
         15    1    5    5    0    0 -0.29175390085E+02  0.93751824290E+01 -0.10312207266E+03  0.10757908394E+03  0.00000000000E+00 0.  1.
        -16    1    3    3    0    0  0.22340609363E+03 -0.48853463870E+02  0.46797440272E+02  0.23342438608E+03  0.00000000000E+00 0.  1.
         16    1    1    2    0    0 -0.61375294013E+02 -0.45000089098E+02 -0.67565243777E+02  0.10176933183E+03  0.00000000000E+00 0. -1.
    9900018    1    1    2    0    0 -0.65375901370E+02  0.10956887835E+03 -0.22741835769E+03  0.27624922695E+03  0.91187600000E+02 0.  0.
<mgrwt>
<rscale>  0 0.10081521E+04</rscale>
<asrwt>0</asrwt>
<pdfrwt beam="1">  1        1 0.45397916E-01 0.10081521E+04</pdfrwt>
<pdfrwt beam="2">  1       -1 0.13247365E+00 0.10081521E+04</pdfrwt>
<totfact> 0.43416574E+01</totfact>
</mgrwt>
</event>
<event>
12    1  0.1591426E-012  0.1262408E+04  0.7818608E-02  0.9059918E-01
         -2   -1    0    0    0  501 -0.00000000000E+00  0.00000000000E+00  0.12489211423E+04  0.12489211423E+04  0.00000000000E+00 0.  1.
          2   -1    0    0  501    0  0.00000000000E+00 -0.00000000000E+00 -0.31901037615E+03  0.31901037615E+03  0.00000000000E+00 0. -1.
    9900016    2    1    2    0    0 -0.28194693710E+03  0.78519224368E+02  0.37469333257E+03  0.84279182474E+03  0.69587615453E+03 0.  0.
         23    2    3    3    0    0 -0.64946921976E+02 -0.13166631850E+03  0.23656471713E+03  0.28693419974E+03  0.69384778501E+02 0.  0.
         23    2    3    3    0    0 -0.15489178244E+03 -0.61987411098E+02  0.19828301399E+03  0.27028083831E+03  0.76822356869E+02 0.  0.
        -15    1    4    4    0    0 -0.30657177875E+01 -0.19633687731E+02  0.90826332314E+02  0.92974743673E+02  0.00000000000E+00 0. -1.
        -15    1    5    5    0    0 -0.83084279450E+02 -0.24433893078E+02  0.46686263479E+02  0.98385058929E+02  0.00000000000E+00 0.  1.
         15    1    5    5    0    0 -0.71807502991E+02 -0.37553518019E+02  0.15159675052E+03  0.17189577938E+03  0.00000000000E+00 0.  1.
         15    1    4    4    0    0 -0.61881204189E+02 -0.11203263076E+03  0.14573838482E+03  0.19395945606E+03  0.00000000000E+00 0. -1.
        -16    1    1    2    0    0  0.27890832979E+03 -0.69123822520E+02  0.56401952655E+03  0.63299761895E+03  0.00000000000E+00 0.  1.
         16    1    3    3    0    0 -0.62108232681E+02  0.27217295396E+03 -0.60154398554E+02  0.28557678670E+03  0.00000000000E+00 0. -1.
    9900018    1    1    2    0    0  0.30386073066E+01 -0.93954018479E+01 -0.88020929486E+01  0.92142074777E+02  0.91187600000E+02 0.  0.
<mgrwt>
<rscale>  0 0.12624085E+04</rscale>
<asrwt>0</asrwt>
<pdfrwt beam="1">  1        2 0.49078520E-01 0.12624085E+04</pdfrwt>
<pdfrwt beam="2">  1       -2 0.19214171E+00 0.12624085E+04</pdfrwt>
<totfact> 0.15091918E+01</totfact>
</mgrwt>
</event>
<event>
12    1  0.1591426E-012  0.2574519E+04  0.7818608E-02  0.8376908E-01
         -1   -1    0    0    0  501 -0.00000000000E+00  0.00000000000E+00  0.97458075970E+03  0.97458075970E+03  0.00000000000E+00 0.  1.
          1   -1    0    0  501    0  0.00000000000E+00 -0.00000000000E+00 -0.17002563548E+04  0.17002563548E+04  0.00000000000E+00 0. -1.
    9900016    2    1    2    0    0 -0.40357592467E+03  0.53172153483E+03 -0.37837104845E+03  0.10354688971E+04  0.69529121167E+03 0.  0.
         23    2    3    3    0    0 -0.74570395691E+02  0.47314138862E+03  0.24170088142E+02  0.49509791113E+03  0.12293994838E+03 0.  0.
         23    2    3    3    0    0 -0.31257626694E+03  0.42178363923E+02 -0.39303533384E+03  0.51528514538E+03  0.10751311717E+03 0.  0.
        -15    1    4    4    0    0 -0.11691712921E+01  0.20814320562E+03  0.62818370321E+02  0.21741920030E+03  0.00000000000E+00 0.  1.
        -15    1    5    5    0    0 -0.12369457821E+01  0.14890364069E+02 -0.45500566034E+02  0.47891068962E+02  0.00000000000E+00 0.  1.
         15    1    4    4    0    0 -0.73401224399E+02  0.26499818300E+03 -0.38648282179E+02  0.27767871084E+03  0.00000000000E+00 0. -1.
         15    1    5    5    0    0 -0.31133932116E+03  0.27287999854E+02 -0.34753476780E+03  0.46739407642E+03  0.00000000000E+00 0. -1.
        -16    1    1    2    0    0  0.72614888334E+03 -0.78644855319E+03  0.34554655065E+02  0.10709750472E+04  0.00000000000E+00 0.  1.
         16    1    3    3    0    0 -0.16429262035E+02  0.16401782284E+02 -0.95058027578E+01  0.25085840611E+02  0.00000000000E+00 0. -1.
    9900018    1    1    2    0    0 -0.32257295867E+03  0.25472701836E+03 -0.38185920168E+03  0.56839317013E+03  0.91187600000E+02 0.  0.
<mgrwt>
<rscale>  0 0.25745191E+04</rscale>
<asrwt>0</asrwt>
<pdfrwt beam="1">  1        1 0.26157790E+00 0.25745191E+04</pdfrwt>
<pdfrwt beam="2">  1       -1 0.14993550E+00 0.25745191E+04</pdfrwt>
<totfact> 0.14688884E+00</totfact>
</mgrwt>
</event>
<event>
11    1  0.1591426E-012  0.1881509E+04  0.7818608E-02  0.8664115E-01
         -2   -1    0    0    0  501 -0.00000000000E+00  0.00000000000E+00  0.43966134662E+03  0.43966134662E+03  0.00000000000E+00 0.  1.
          2   -1    0    0  501    0  0.00000000000E+00 -0.00000000000E+00 -0.20129569676E+04  0.20129569676E+04  0.00000000000E+00 0. -1.
    9900016    2    1    2    0    0  0.18509781367E+03 -0.26567623506E+03 -0.19243033812E+03  0.80317180917E+03  0.70937328503E+03 0.  0.
         23    2    3    3    0    0  0.40477019398E+01  0.97071956396E+01  0.12113161542E+03  0.13525324804E+03  0.59244909599E+02 0.  0.
        -15    1    4    4    0    0 -0.61340567238E+01  0.33147647073E+02  0.80223926345E+02  0.87018799788E+02  0.00000000000E+00 0.  1.
        -15    1    3    3    0    0 -0.73664235539E+02 -0.30497187976E+02 -0.62934750209E+01  0.79975658171E+02  0.00000000000E+00 0.  1.
         15    1    4    4    0    0  0.10181758664E+02 -0.23440451433E+02  0.40907689075E+02  0.48234448253E+02  0.00000000000E+00 0. -1.
         15    1    3    3    0    0  0.15036191048E+03 -0.24291493868E+03 -0.24742952719E+02  0.28675527069E+03  0.00000000000E+00 0. -1.
        -16    1    3    3    0    0  0.10435243679E+03 -0.19713040393E+01 -0.28252552580E+03  0.30118763228E+03  0.00000000000E+00 0.  1.
         16    1    1    2    0    0 -0.50275483472E+02  0.59608655232E+02 -0.13846305149E+04  0.13868246028E+04  0.00000000000E+00 0. -1.
    9900018    1    1    2    0    0 -0.13482233020E+03  0.20606757983E+03  0.37652320812E+01  0.26262190225E+03  0.91187600000E+02 0.  0.
<mgrwt>
<rscale>  0 0.18815094E+04</rscale>
<asrwt>0</asrwt>
<pdfrwt beam="1">  1        2 0.30968568E+00 0.18815094E+04</pdfrwt>
<pdfrwt beam="2">  1       -2 0.67640209E-01 0.18815094E+04</pdfrwt>
<totfact> 0.12345465E+01</totfact>
</mgrwt>
</event>
