<event>
13    1  0.1308285E-007  0.5627200E+04  0.7818608E-02  0.7738425E-01
         -2   -1    0    0    0  501 -0.00000000000E+00  0.00000000000E+00  0.21813583644E+04  0.21813583644E+04  0.00000000000E+00 0.  1.
          2   -1    0    0  501    0  0.00000000000E+00 -0.00000000000E+00 -0.36290897435E+04  0.36290897435E+04  0.00000000000E+00 0. -1.
    9900016    2    1    2    0    0  0.70569054855E+02 -0.13230110674E+04 -0.19103065692E+04  0.31981566723E+04  0.21962687987E+04 0.  0.
         24    2    3    3    0    0 -0.11506156427E+03  0.13202210185E+03  0.41199506791E+03  0.45140128743E+03  0.57915346505E+02 0.  0.
    9900016    2    1    2    0    0 -0.70569054855E+02  0.13230110674E+04  0.46257519013E+03  0.26122914356E+04  0.22033502813E+04 0.  0.
         23    2    5    5    0    0 -0.27846831988E+03  0.24261486386E+03 -0.46636222374E+03  0.60196122599E+03  0.91962038460E+02 0.  0.
        -15    1    6    6    0    0 -0.24770547030E+03  0.18796124731E+03 -0.42587657533E+03  0.52731232483E+03  0.00000000000E+00 0.  1.
        -15    1    4    4    0    0 -0.97166839350E+02  0.11811701333E+03  0.29564577992E+03  0.33286551442E+03  0.00000000000E+00 0.  1.
         15    1    6    6    0    0 -0.30762849589E+02  0.54653616556E+02 -0.40485648418E+02  0.74648901166E+02  0.00000000000E+00 0. -1.
         15    1    3    3    0    0  0.18563061913E+03 -0.14550331693E+04 -0.23223016371E+04  0.27467553849E+04  0.00000000000E+00 0. -1.
        -16    1    5    5    0    0  0.24044104583E+03  0.67797746867E+03 -0.24944347254E+03  0.76137204476E+03  0.00000000000E+00 0.  1.
         16    1    4    4    0    0 -0.17894724923E+02  0.13905088524E+02  0.11634928799E+03  0.11853577301E+03  0.00000000000E+00 0. -1.
    9900018    1    5    5    0    0 -0.32541780804E+02  0.40241873489E+03  0.11783808864E+04  0.12489581649E+04  0.91187600000E+02 0.  0.
<mgrwt>
<rscale>  0 0.56272001E+04</rscale>
<asrwt>0</asrwt>
<pdfrwt beam="1">  1        2 0.55832149E+00 0.56272001E+04</pdfrwt>
<pdfrwt beam="2">  1       -2 0.33559360E+00 0.56272001E+04</pdfrwt>
<totfact> 0.87077400E-03</totfact>
</mgrwt>
</event>
<event>
13    1  0.1308285E-007  0.5085867E+04  0.7818608E-02  0.7815396E-01
         -2   -1    0    0    0  501 -0.00000000000E+00  0.00000000000E+00  0.14774863527E+04  0.14774863527E+04  0.00000000000E+00 0.  1.
          2   -1    0    0  501    0  0.00000000000E+00 -0.00000000000E+00 -0.43766968424E+04  0.43766968424E+04  0.00000000000E+00 0. -1.
    9900016    2    1    2    0    0 -0.56063646205E+03  0.11157897132E+04 -0.16992224381E+04  0.30562229364E+04  0.22122029329E+04 0.  0.
         24    2    3    3    0    0 -0.12768456810E+04  0.11850877143E+04 -0.84285830813E+03  0.19376893512E+04  0.97273380354E+02 0.  0.
    9900016    2    1    2    0    0  0.56063646205E+03 -0.11157897132E+04 -0.11999880515E+04  0.27979602587E+04  0.21975691931E+04 0.  0.
         23    2    5    5    0    0  0.61742011373E+03  0.15792838577E+03  0.29217099975E+03  0.70708266490E+03  0.91940361365E+02 0.  0.
        -15    1    6    6    0    0  0.59821222333E+03  0.14227323172E+03  0.29525713903E+03  0.68211165857E+03  0.00000000000E+00 0. -1.
        -15    1    4    4    0    0 -0.10705552173E+04  0.96902733328E+03 -0.66224833383E+03  0.15886079760E+04  0.00000000000E+00 0.  1.
         15    1    3    3    0    0  0.71620921892E+03 -0.69298001042E+02 -0.85636412997E+03  0.11185335852E+04  0.00000000000E+00 0. -1.
         15    1    6    6    0    0  0.19207890394E+02  0.15655154045E+02 -0.30861392846E+01  0.24971006332E+02  0.00000000000E+00 0.  1.
        -16    1    5    5    0    0  0.30452332481E+03 -0.79411713848E+03 -0.96863331327E+03  0.12890333512E+04  0.00000000000E+00 0.  1.
         16    1    4    4    0    0 -0.20629046369E+03  0.21606038098E+03 -0.18060997430E+03  0.34908137512E+03  0.00000000000E+00 0. -1.
    9900018    1    5    5    0    0 -0.36130697649E+03 -0.47960096051E+03 -0.52352573803E+03  0.80184424257E+03  0.91187600000E+02 0.  0.
<mgrwt>
<rscale>  0 0.50858666E+04</rscale>
<asrwt>0</asrwt>
<pdfrwt beam="1">  1        2 0.67333797E+00 0.50858666E+04</pdfrwt>
<pdfrwt beam="2">  1       -2 0.22730559E+00 0.50858666E+04</pdfrwt>
<totfact> 0.10285187E-02</totfact>
</mgrwt>
</event>
<event>
12    1  0.1308285E-007  0.5023142E+04  0.7818608E-02  0.7824947E-01
         -2   -1    0    0    0  501 -0.00000000000E+00  0.00000000000E+00  0.19011328722E+04  0.19011328722E+04  0.00000000000E+00 0.  1.
          2   -1    0    0  501    0  0.00000000000E+00 -0.00000000000E+00 -0.33180151589E+04  0.33180151589E+04  0.00000000000E+00 0. -1.
    9900016    2    1    2    0    0  0.71505584697E+03  0.88066496921E+03 -0.11334648218E+04  0.27252223469E+04  0.22034560775E+04 0.  0.
    9900016    2    1    2    0    0 -0.71505584697E+03 -0.88066496921E+03 -0.28341746485E+03  0.24939256842E+04  0.22028309528E+04 0.  0.
         23    2    4    4    0    0 -0.15526135114E+03  0.34529304683E+03 -0.77778892681E+03  0.86935044233E+03  0.86493939480E+02 0.  0.
        -15    1    3    3    0    0 -0.47482760393E+03 -0.52395327088E+01 -0.74748237231E+02  0.48070365624E+03  0.00000000000E+00 0.  1.
        -15    1    5    5    0    0 -0.11995592219E+03  0.17706479988E+03 -0.38089429911E+03  0.43683158508E+03  0.00000000000E+00 0. -1.
         15    1    3    3    0    0  0.14552546367E+04  0.90383281256E+03 -0.90995542417E+03  0.19397676883E+04  0.00000000000E+00 0. -1.
         15    1    5    5    0    0 -0.35305428952E+02  0.16822824695E+03 -0.39689462770E+03  0.43251885726E+03  0.00000000000E+00 0.  1.
        -16    1    4    4    0    0 -0.95697337760E+02 -0.29115520043E+03  0.48877730750E+03  0.57691644761E+03  0.00000000000E+00 0.  1.
         16    1    3    3    0    0 -0.26537118580E+03 -0.17928310644E+02 -0.14876116039E+03  0.30475100232E+03  0.00000000000E+00 0. -1.
    9900018    1    4    4    0    0 -0.46409715806E+03 -0.93480281560E+03  0.55941544553E+01  0.10476587942E+04  0.91187600000E+02 0.  0.
<mgrwt>
<rscale>  0 0.50231415E+04</rscale>
<asrwt>0</asrwt>
<pdfrwt beam="1">  1        2 0.51046387E+00 0.50231415E+04</pdfrwt>
<pdfrwt beam="2">  1       -2 0.29248198E+00 0.50231415E+04</pdfrwt>
<totfact> 0.27780686E-02</totfact>
</mgrwt>
</event>
