<event>
12    1  0.1862985E-012  0.4784954E+04  0.7818608E-02  0.7862564E-01
          1   -1    0    0  501    0  0.00000000000E+00  0.00000000000E+00  0.34350717197E+04  0.34350717197E+04  0.00000000000E+00 0. -1.
         -1   -1    0    0    0  501 -0.00000000000E+00 -0.00000000000E+00 -0.16663251949E+04  0.16663251949E+04  0.00000000000E+00 0.  1.
    9900016    2    1    2    0    0  0.93978904683E+02 -0.12271157847E+04  0.67094519309E+03  0.23184863078E+04  0.18467718115E+04 0.  0.
    9900016    2    3    3    0    0  0.95383444083E+02 -0.12185757371E+04  0.64488317504E+03  0.22567201615E+04  0.17840646707E+04 0.  0.
        -24    2    4    4    0    0 -0.21306423243E+03 -0.77425965120E+03  0.12227896127E+04  0.14651820361E+04  0.81667541288E+02 0.  0.
        -15    1    4    4    0    0  0.30844767651E+03 -0.44431608592E+03 -0.57790643764E+03  0.79153812544E+03  0.00000000000E+00 0.  1.
        -15    1    3    3    0    0 -0.14702362970E+02  0.42165751045E+01 -0.12024657654E+02  0.19455882766E+02  0.00000000000E+00 0. -1.
         15    1    5    5    0    0 -0.90493151570E+02 -0.43845909235E+03  0.62820625961E+03  0.77141330735E+03  0.00000000000E+00 0. -1.
         15    1    3    3    0    0  0.13297823570E+02 -0.12756622651E+02  0.38086675710E+02  0.42310263527E+02  0.00000000000E+00 0.  1.
        -16    1    5    5    0    0 -0.12257108086E+03 -0.33580055885E+03  0.59458335307E+03  0.69376872871E+03  0.00000000000E+00 0.  1.
         16    1    1    2    0    0 -0.31092838675E+03  0.13246797665E+04  0.16714293702E+04  0.21552561530E+04  0.00000000000E+00 0. -1.
    9900018    1    1    2    0    0  0.21694948207E+03 -0.97563981810E+02 -0.57362803855E+03  0.62765445376E+03  0.91187600000E+02 0.  0.
<mgrwt>
<rscale>  0 0.47849541E+04</rscale>
<asrwt>0</asrwt>
<pdfrwt beam="1">  1        1 0.52847257E+00 0.47849541E+04</pdfrwt>
<pdfrwt beam="2">  1       -1 0.25635772E+00 0.47849541E+04</pdfrwt>
<totfact> 0.13062041E-02</totfact>
</mgrwt>
</event>
<event>
12    1  0.1862985E-012  0.2889137E+04  0.7818608E-02  0.8276117E-01
         -1   -1    0    0    0  501 -0.00000000000E+00  0.00000000000E+00  0.67959801114E+03  0.67959801114E+03  0.00000000000E+00 0.  1.
          1   -1    0    0  501    0  0.00000000000E+00 -0.00000000000E+00 -0.30706073962E+04  0.30706073962E+04  0.00000000000E+00 0. -1.
    9900016    2    1    2    0    0 -0.63145302426E+03  0.69388691793E+02 -0.14731539174E+04  0.24709165502E+04  0.18792813576E+04 0.  0.
    9900016    2    3    3    0    0 -0.59781842817E+03  0.80867646612E+02 -0.14284476319E+04  0.23922167854E+04  0.18216234688E+04 0.  0.
        -24    2    4    4    0    0 -0.73606494258E+03 -0.15193135661E+03 -0.17885604958E+04  0.19416740578E+04  0.79213400823E+02 0.  0.
        -15    1    3    3    0    0 -0.34453350922E+02 -0.30295829672E+02 -0.30201790411E+02  0.54927395982E+02  0.00000000000E+00 0. -1.
        -15    1    4    4    0    0  0.13824651441E+03  0.23279900323E+03  0.36011286391E+03  0.45054272761E+03  0.00000000000E+00 0.  1.
         15    1    5    5    0    0 -0.29280838787E+03 -0.21053578482E+02 -0.69834662700E+03  0.75754076895E+03  0.00000000000E+00 0. -1.
         15    1    3    3    0    0  0.81875482459E+00  0.18816874853E+02 -0.14504495063E+02  0.23772368744E+02  0.00000000000E+00 0.  1.
        -16    1    5    5    0    0 -0.44325655471E+03 -0.13087777813E+03 -0.10902138688E+04  0.11841332889E+04  0.00000000000E+00 0.  1.
         16    1    1    2    0    0  0.71547725075E+03 -0.12866462726E+02 -0.88682013794E+03  0.11395276211E+04  0.00000000000E+00 0. -1.
    9900018    1    1    2    0    0 -0.84024226485E+02 -0.56522229067E+02 -0.31035329724E+02  0.13976123604E+03  0.91187600000E+02 0.  0.
<mgrwt>
<rscale>  0 0.28891374E+04</rscale>
<asrwt>0</asrwt>
<pdfrwt beam="1">  1        1 0.47240113E+00 0.28891374E+04</pdfrwt>
<pdfrwt beam="2">  1       -1 0.10455354E+00 0.28891374E+04</pdfrwt>
<totfact> 0.39165957E-01</totfact>
</mgrwt>
</event>
<event>
12    1  0.1862985E-012  0.2735185E+04  0.7818608E-02  0.8323678E-01
          1   -1    0    0  501    0  0.00000000000E+00  0.00000000000E+00  0.18402831318E+04  0.18402831318E+04  0.00000000000E+00 0. -1.
         -1   -1    0    0    0  501 -0.00000000000E+00 -0.00000000000E+00 -0.10163157356E+04  0.10163157356E+04  0.00000000000E+00 0.  1.
    9900016    2    1    2    0    0 -0.32958785780E+03 -0.24388307193E+02  0.35799833277E+03  0.19119216435E+04  0.18487992371E+04 0.  0.
    9900016    2    3    3    0    0 -0.32688795843E+03 -0.21135354172E+02  0.33183711721E+03  0.18622931803E+04  0.18029746466E+04 0.  0.
        -24    2    4    4    0    0  0.20721519161E+03  0.39021468786E+03 -0.57675694187E+03  0.73091428875E+03  0.79884224016E+02 0.  0.
        -15    1    4    4    0    0 -0.53410315004E+03 -0.41135004203E+03  0.90859405907E+03  0.11313788915E+04  0.00000000000E+00 0.  1.
        -15    1    3    3    0    0 -0.18313901853E+01 -0.19846901183E+02  0.16280863449E+01  0.19997603400E+02  0.00000000000E+00 0. -1.
         15    1    3    3    0    0 -0.86850918759E+00  0.16593948163E+02  0.24533129216E+02  0.29630859809E+02  0.00000000000E+00 0.  1.
         15    1    5    5    0    0  0.10727515906E+03  0.26424573542E+03 -0.32724827065E+03  0.43407971512E+03  0.00000000000E+00 0. -1.
        -16    1    5    5    0    0  0.99940032558E+02  0.12596895244E+03 -0.24950867122E+03  0.29683457363E+03  0.00000000000E+00 0.  1.
         16    1    1    2    0    0  0.28262130929E+02  0.21629872453E+03  0.52754684447E+03  0.57086737461E+03  0.00000000000E+00 0. -1.
    9900018    1    1    2    0    0  0.30132572687E+03 -0.19191041734E+03 -0.61577781084E+02  0.37380984936E+03  0.91187600000E+02 0.  0.
<mgrwt>
<rscale>  0 0.27351846E+04</rscale>
<asrwt>0</asrwt>
<pdfrwt beam="1">  1        1 0.28312048E+00 0.27351846E+04</pdfrwt>
<pdfrwt beam="2">  1       -1 0.15635627E+00 0.27351846E+04</pdfrwt>
<totfact> 0.10374123E+00</totfact>
</mgrwt>
</event>
<event>
12    1  0.1862985E-012  0.4853166E+04  0.7818608E-02  0.7851566E-01
         -2   -1    0    0    0  501 -0.00000000000E+00  0.00000000000E+00  0.19505390444E+04  0.19505390444E+04  0.00000000000E+00 0.  1.
          2   -1    0    0  501    0  0.00000000000E+00 -0.00000000000E+00 -0.30188096666E+04  0.30188096666E+04  0.00000000000E+00 0. -1.
    9900016    2    1    2    0    0 -0.48736656002E+03  0.10617092954E+04  0.11907368710E+03  0.21914836613E+04  0.18503160009E+04 0.  0.
    9900016    2    3    3    0    0 -0.48891113945E+03  0.10508160168E+04  0.11161183021E+03  0.21310792127E+04  0.17848789893E+04 0.  0.
         24    2    4    4    0    0 -0.47293425377E+03 -0.33925705563E+03 -0.32827289545E+03  0.67297874306E+03  0.79844452112E+02 0.  0.
        -15    1    5    5    0    0 -0.66981222520E+02 -0.51482047638E+02 -0.17419806842E+02  0.86257376900E+02  0.00000000000E+00 0.  1.
        -15    1    3    3    0    0  0.52043775652E+01 -0.19463892146E+02  0.19028341034E+02  0.27712928496E+02  0.00000000000E+00 0. -1.
         15    1    3    3    0    0 -0.36597981371E+01  0.30357170690E+02 -0.11566484146E+02  0.32691520158E+02  0.00000000000E+00 0.  1.
         15    1    4    4    0    0 -0.15976885674E+02  0.13900730725E+04  0.43988472566E+03  0.14581004696E+04  0.00000000000E+00 0. -1.
        -16    1    1    2    0    0 -0.47692317250E+01 -0.23962503137E+03  0.65598322705E+03  0.69839594458E+03  0.00000000000E+00 0.  1.
         16    1    5    5    0    0 -0.40595303125E+03 -0.28777500799E+03 -0.31085308860E+03  0.58672136615E+03  0.00000000000E+00 0. -1.
    9900018    1    1    2    0    0  0.49213579174E+03 -0.82208426401E+03 -0.18433275363E+04  0.20794691051E+04  0.91187600000E+02 0.  0.
<mgrwt>
<rscale>  0 0.48531664E+04</rscale>
<asrwt>0</asrwt>
<pdfrwt beam="1">  1        2 0.46443225E+00 0.48531664E+04</pdfrwt>
<pdfrwt beam="2">  1       -2 0.30008293E+00 0.48531664E+04</pdfrwt>
<totfact> 0.39598587E-02</totfact>
</mgrwt>
</event>
<event>
12    1  0.1862985E-012  0.3233301E+04  0.7818608E-02  0.8180077E-01
         -2   -1    0    0    0  501 -0.00000000000E+00  0.00000000000E+00  0.89599044077E+03  0.89599044077E+03  0.00000000000E+00 0.  1.
          2   -1    0    0  501    0  0.00000000000E+00 -0.00000000000E+00 -0.29169495202E+04  0.29169495202E+04  0.00000000000E+00 0. -1.
    9900016    2    1    2    0    0  0.44230349736E+03 -0.25963565887E+03 -0.15012499592E+04  0.24378357203E+04  0.18510128309E+04 0.  0.
    9900016    2    3    3    0    0  0.42356841775E+03 -0.28944039284E+03 -0.15092092624E+04  0.23935107310E+04  0.17854957508E+04 0.  0.
         24    2    4    4    0    0  0.73692627630E+03  0.53924016623E+03 -0.47719683513E+03  0.10333804922E+04  0.79486656963E+02 0.  0.
        -15    1    5    5    0    0  0.48938016449E+02  0.14093671456E+02 -0.22099074251E+02  0.55515134080E+02  0.00000000000E+00 0.  1.
        -15    1    3    3    0    0  0.32577905276E+01  0.21723724342E+02 -0.50642365413E+01  0.22542845654E+02  0.00000000000E+00 0. -1.
         15    1    4    4    0    0 -0.31335785855E+03 -0.82868055907E+03 -0.10320124273E+04  0.13601302388E+04  0.00000000000E+00 0. -1.
         15    1    3    3    0    0  0.15477289082E+02  0.80810096247E+01  0.13023539758E+02  0.21782143644E+02  0.00000000000E+00 0.  1.
        -16    1    1    2    0    0 -0.76984956611E+03  0.36412150093E+03 -0.15490053154E+03  0.86559054786E+03  0.00000000000E+00 0.  1.
         16    1    5    5    0    0  0.68798825985E+03  0.52514649477E+03 -0.45509776088E+03  0.97786535813E+03  0.00000000000E+00 0. -1.
    9900018    1    1    2    0    0  0.32754606874E+03 -0.10448584206E+03 -0.36480858867E+03  0.50951369275E+03  0.91187600000E+02 0.  0.
<mgrwt>
<rscale>  0 0.32333010E+04</rscale>
<asrwt>0</asrwt>
<pdfrwt beam="1">  1        2 0.44876146E+00 0.32333010E+04</pdfrwt>
<pdfrwt beam="2">  1       -2 0.13784468E+00 0.32333010E+04</pdfrwt>
<totfact> 0.61545350E-01</totfact>
</mgrwt>
</event>
<event>
12    1  0.1862985E-012  0.2268694E+04  0.7818608E-02  0.8490368E-01
          1   -1    0    0  501    0  0.00000000000E+00  0.00000000000E+00  0.99173680078E+03  0.99173680078E+03  0.00000000000E+00 0. -1.
         -1   -1    0    0    0  501 -0.00000000000E+00 -0.00000000000E+00 -0.12974648418E+04  0.12974648418E+04  0.00000000000E+00 0.  1.
    9900016    2    1    2    0    0  0.20667548906E+03 -0.12475893611E+03 -0.34167579541E+03  0.18954399536E+04  0.18486943281E+04 0.  0.
    9900016    2    3    3    0    0  0.16610034943E+03 -0.12055652776E+03 -0.32718677398E+03  0.18436136476E+04  0.18027026638E+04 0.  0.
        -24    2    4    4    0    0 -0.72972976693E+03  0.33356231116E+03 -0.20384820413E+03  0.83171052964E+03  0.80118453633E+02 0.  0.
        -15    1    3    3    0    0  0.18431159615E+02  0.16060072600E+01 -0.21037143069E+02  0.28015143986E+02  0.00000000000E+00 0. -1.
        -15    1    4    4    0    0  0.89583011636E+03 -0.45411883893E+03 -0.12333856985E+03  0.10119031179E+04  0.00000000000E+00 0.  1.
         15    1    5    5    0    0 -0.16506253125E+03  0.51733153788E+02 -0.69847945796E+02  0.18654944105E+03  0.00000000000E+00 0. -1.
         15    1    3    3    0    0  0.22143980018E+02 -0.58084156044E+01  0.65481216322E+01  0.23811162084E+02  0.00000000000E+00 0.  1.
        -16    1    5    5    0    0 -0.56466723568E+03  0.28182915738E+03 -0.13400025833E+03  0.64516108859E+03  0.00000000000E+00 0.  1.
         16    1    1    2    0    0 -0.15236917646E+03  0.92668370192E+02  0.15121964464E+03  0.23381867696E+03  0.00000000000E+00 0. -1.
    9900018    1    1    2    0    0 -0.54306312596E+02  0.32090565916E+02 -0.11527189027E+03  0.15994301200E+03  0.91187600000E+02 0.  0.
<mgrwt>
<rscale>  0 0.22686945E+04</rscale>
<asrwt>0</asrwt>
<pdfrwt beam="1">  1        1 0.15257489E+00 0.22686945E+04</pdfrwt>
<pdfrwt beam="2">  1       -1 0.19960997E+00 0.22686945E+04</pdfrwt>
<totfact> 0.21079659E+00</totfact>
</mgrwt>
</event>
<event>
12    1  0.1862985E-012  0.4050398E+04  0.7818608E-02  0.7994456E-01
         -2   -1    0    0    0  501 -0.00000000000E+00  0.00000000000E+00  0.17658737759E+04  0.17658737759E+04  0.00000000000E+00 0.  1.
          2   -1    0    0  501    0  0.00000000000E+00 -0.00000000000E+00 -0.23226071758E+04  0.23226071758E+04  0.00000000000E+00 0. -1.
    9900016    2    1    2    0    0 -0.45266127333E+03 -0.71011125290E+03 -0.41651681819E+03  0.20711085813E+04  0.18457638733E+04 0.  0.
    9900016    2    3    3    0    0 -0.41507986090E+03 -0.67950725205E+03 -0.42794769849E+03  0.19986638548E+04  0.17825533863E+04 0.  0.
        -24    2    4    4    0    0  0.35701461301E+03  0.33201159111E+03  0.25385989332E+03  0.55500120755E+03  0.76748709487E+02 0.  0.
        -15    1    4    4    0    0 -0.77209447391E+03 -0.10115188432E+04 -0.68180759181E+03  0.14436626472E+04  0.00000000000E+00 0.  1.
        -15    1    3    3    0    0 -0.32602669602E+02 -0.78302849741E+00  0.23177432164E+02  0.40009255935E+02  0.00000000000E+00 0. -1.
         15    1    3    3    0    0 -0.49787428260E+01 -0.29820972351E+02 -0.11746551868E+02  0.32435470597E+02  0.00000000000E+00 0.  1.
         15    1    5    5    0    0  0.24583965361E+02  0.56844834755E+02  0.28866210252E+02  0.68329822812E+02  0.00000000000E+00 0. -1.
        -16    1    5    5    0    0  0.33243064765E+03  0.27516675635E+03  0.22499368307E+03  0.48667138474E+03  0.00000000000E+00 0.  1.
         16    1    1    2    0    0 -0.34625474077E+03  0.20115052851E+03 -0.77576374812E+03  0.87301962952E+03  0.00000000000E+00 0. -1.
    9900018    1    1    2    0    0  0.79891601410E+03  0.50896072439E+03  0.63554716641E+03  0.11443527409E+04  0.91187600000E+02 0.  0.
<mgrwt>
<rscale>  0 0.40503981E+04</rscale>
<asrwt>0</asrwt>
<pdfrwt beam="1">  1        2 0.35732418E+00 0.40503981E+04</pdfrwt>
<pdfrwt beam="2">  1       -2 0.27167289E+00 0.40503981E+04</pdfrwt>
<totfact> 0.16371816E-01</totfact>
</mgrwt>
</event>
<event>
12    1  0.1862985E-012  0.3258257E+04  0.7818608E-02  0.8173599E-01
         -2   -1    0    0    0  501 -0.00000000000E+00  0.00000000000E+00  0.15934902622E+04  0.15934902622E+04  0.00000000000E+00 0. -1.
          2   -1    0    0  501    0  0.00000000000E+00 -0.00000000000E+00 -0.16655642282E+04  0.16655642282E+04  0.00000000000E+00 0.  1.
    9900016    2    1    2    0    0  0.17862954465E+03  0.25730472321E+03  0.65464233368E+02  0.18844041073E+04  0.18570350128E+04 0.  0.
    9900016    2    3    3    0    0  0.15860821415E+03  0.21109905501E+03  0.42351351792E+02  0.18135655005E+04  0.17937410100E+04 0.  0.
         24    2    4    4    0    0  0.91532288350E+03  0.38904922995E+03  0.20699762133E+03  0.10189638710E+04  0.79145883171E+02 0.  0.
        -15    1    5    5    0    0  0.74164458673E+03  0.34759814777E+03  0.16441447854E+03  0.83540007548E+03  0.00000000000E+00 0.  1.
        -15    1    3    3    0    0  0.17232262916E+02  0.52200296261E+01 -0.76027239309E+01  0.19544846013E+02  0.00000000000E+00 0. -1.
         15    1    4    4    0    0 -0.75671466935E+03 -0.17795017493E+03 -0.16464626953E+03  0.79460162952E+03  0.00000000000E+00 0. -1.
         15    1    3    3    0    0  0.27890675883E+01  0.40985638569E+02  0.30715605507E+02  0.51293760718E+02  0.00000000000E+00 0.  1.
        -16    1    1    2    0    0  0.19392107293E+02  0.53731313459E+03  0.90097490337E+01  0.53773844386E+03  0.00000000000E+00 0.  1.
         16    1    5    5    0    0  0.17367829677E+03  0.41451082180E+02  0.42583142788E+02  0.18356379554E+03  0.00000000000E+00 0. -1.
    9900018    1    1    2    0    0 -0.19802165195E+03 -0.79461785780E+03 -0.14654794844E+03  0.83691193931E+03  0.91187600000E+02 0.  0.
<mgrwt>
<rscale>  0 0.32582574E+04</rscale>
<asrwt>0</asrwt>
<pdfrwt beam="1">  1        2 0.25624065E+00 0.32582574E+04</pdfrwt>
<pdfrwt beam="2">  1       -2 0.24515235E+00 0.32582574E+04</pdfrwt>
<totfact> 0.59133572E-01</totfact>
</mgrwt>
</event>
<event>
12    1  0.1862985E-012  0.3018694E+04  0.7818608E-02  0.8238413E-01
          2   -1    0    0  501    0  0.00000000000E+00  0.00000000000E+00  0.14269884926E+04  0.14269884926E+04  0.00000000000E+00 0. -1.
         -2   -1    0    0    0  501 -0.00000000000E+00 -0.00000000000E+00 -0.15964590922E+04  0.15964590922E+04  0.00000000000E+00 0.  1.
    9900016    2    1    2    0    0 -0.63184052711E+03 -0.15117063567E+03 -0.19455213893E+03  0.19766871879E+04  0.18567085639E+04 0.  0.
    9900016    2    3    3    0    0 -0.57230199906E+03 -0.16718995649E+03 -0.18683800926E+03  0.18896424128E+04  0.17833558105E+04 0.  0.
         24    2    4    4    0    0 -0.74462773481E+02 -0.93588066548E+03 -0.23963114747E+03  0.97230037406E+03  0.80793600712E+02 0.  0.
        -15    1    3    3    0    0 -0.47474951967E+02  0.89205599067E+01  0.22842860135E+02  0.53434480558E+02  0.00000000000E+00 0. -1.
        -15    1    5    5    0    0 -0.86559236783E+01 -0.51278777404E+03 -0.15567257613E+03  0.53596658215E+03  0.00000000000E+00 0.  1.
         15    1    4    4    0    0 -0.49783922558E+03  0.76869070899E+03  0.52793138217E+02  0.91734203875E+03  0.00000000000E+00 0. -1.
         15    1    3    3    0    0 -0.12063576085E+02  0.70987609065E+01 -0.30556989811E+02  0.33610294564E+02  0.00000000000E+00 0.  1.
        -16    1    1    2    0    0  0.38887239526E+03 -0.30783933155E+03 -0.97362430361E+02  0.50543667921E+03  0.00000000000E+00 0.  1.
         16    1    5    5    0    0 -0.65806849803E+02 -0.42309289144E+03 -0.83958571339E+02  0.43633379191E+03  0.00000000000E+00 0. -1.
    9900018    1    1    2    0    0  0.24296813185E+03  0.45900996723E+03  0.12244396973E+03  0.54132371759E+03  0.91187600000E+02 0.  0.
<mgrwt>
<rscale>  0 0.30186943E+04</rscale>
<asrwt>0</asrwt>
<pdfrwt beam="1">  1        2 0.21953669E+00 0.30186943E+04</pdfrwt>
<pdfrwt beam="2">  1       -2 0.24560909E+00 0.30186943E+04</pdfrwt>
<totfact> 0.81637688E-01</totfact>
</mgrwt>
</event>
<event>
12    1  0.1862985E-012  0.2735362E+04  0.7818608E-02  0.8323622E-01
          3   -1    0    0  501    0  0.00000000000E+00  0.00000000000E+00  0.18086124851E+04  0.18086124851E+04  0.00000000000E+00 0. -1.
         -3   -1    0    0    0  501 -0.00000000000E+00 -0.00000000000E+00 -0.10342468452E+04  0.10342468452E+04  0.00000000000E+00 0.  1.
    9900016    2    1    2    0    0  0.10177144236E+03 -0.13630739475E+03  0.67834745592E+03  0.19825665600E+04  0.18551220341E+04 0.  0.
    9900016    2    3    3    0    0  0.89508330520E+02 -0.13516558362E+03  0.66591495735E+03  0.19145757408E+04  0.17877013343E+04 0.  0.
         24    2    4    4    0    0 -0.28156189897E+03 -0.79430839598E+03 -0.82509288426E+02  0.85047931005E+03  0.79399894649E+02 0.  0.
        -15    1    5    5    0    0 -0.10888383998E+03 -0.20468082746E+03 -0.13686448005E+02  0.23224394630E+03  0.00000000000E+00 0.  1.
        -15    1    3    3    0    0  0.19934741766E+02  0.20839159458E+02 -0.14592665379E+02  0.32320432841E+02  0.00000000000E+00 0. -1.
         15    1    4    4    0    0  0.37107022949E+03  0.65914281236E+03  0.74842424578E+03  0.10640964308E+04  0.00000000000E+00 0. -1.
         15    1    3    3    0    0 -0.76716299258E+01 -0.21980970594E+02  0.27025163948E+02  0.35670386322E+02  0.00000000000E+00 0.  1.
        -16    1    1    2    0    0 -0.32159648482E+03  0.14031221725E+03 -0.25671912496E+03  0.43476030923E+03  0.00000000000E+00 0.  1.
         16    1    5    5    0    0 -0.17267805899E+03 -0.58962756852E+03 -0.68822840421E+02  0.61823536374E+03  0.00000000000E+00 0. -1.
    9900018    1    1    2    0    0  0.21982504246E+03 -0.40048224981E+01  0.35273730898E+03  0.42553246108E+03  0.91187600000E+02 0.  0.
<mgrwt>
<rscale>  0 0.27353623E+04</rscale>
<asrwt>0</asrwt>
<pdfrwt beam="1">  1        3 0.27824807E+00 0.27353623E+04</pdfrwt>
<pdfrwt beam="2">  1       -3 0.15911490E+00 0.27353623E+04</pdfrwt>
<totfact> 0.32101164E-02</totfact>
</mgrwt>
</event>
<event>
12    1  0.1862985E-012  0.3291762E+04  0.7818608E-02  0.8164995E-01
          2   -1    0    0  501    0  0.00000000000E+00  0.00000000000E+00  0.14228662057E+04  0.14228662057E+04  0.00000000000E+00 0. -1.
         -2   -1    0    0    0  501 -0.00000000000E+00 -0.00000000000E+00 -0.19038506296E+04  0.19038506296E+04  0.00000000000E+00 0.  1.
    9900016    2    1    2    0    0 -0.62487613013E+03  0.15684077369E+03  0.30865447216E+03  0.19835037220E+04  0.18503919114E+04 0.  0.
    9900016    2    3    3    0    0 -0.60888717077E+03  0.14631617277E+03  0.30458211797E+03  0.19442291776E+04  0.18152423583E+04 0.  0.
        -24    2    4    4    0    0 -0.99215430732E+03  0.40246698128E+03 -0.36267595491E+03  0.11332172970E+04  0.79358386283E+02 0.  0.
        -15    1    3    3    0    0  0.19725658225E+01  0.18909194643E+02 -0.12805136962E+00  0.19012234353E+02  0.00000000000E+00 0.  1.
        -15    1    4    4    0    0  0.38326713655E+03 -0.25615080851E+03  0.66725807288E+03  0.81101188060E+03  0.00000000000E+00 0.  1.
         15    1    5    5    0    0 -0.47645318420E+03  0.23579164819E+03 -0.18452829316E+03  0.56272198204E+03  0.00000000000E+00 0. -1.
         15    1    3    3    0    0 -0.17961525188E+02 -0.83845937247E+01  0.42004055589E+01  0.20262309984E+02  0.00000000000E+00 0. -1.
        -16    1    5    5    0    0 -0.51570112311E+03  0.16667533309E+03 -0.17814766175E+03  0.57049531499E+03  0.00000000000E+00 0.  1.
         16    1    1    2    0    0  0.36595725663E+03 -0.39555205355E+03 -0.78678813741E+02  0.54458837344E+03  0.00000000000E+00 0. -1.
    9900018    1    1    2    0    0  0.25891887350E+03  0.23871127986E+03 -0.71096008225E+03  0.79862473988E+03  0.91187600000E+02 0.  0.
<mgrwt>
<rscale>  0 0.32917623E+04</rscale>
<asrwt>0</asrwt>
<pdfrwt beam="1">  1        2 0.21890249E+00 0.32917623E+04</pdfrwt>
<pdfrwt beam="2">  1       -2 0.29290010E+00 0.32917623E+04</pdfrwt>
<totfact> 0.41218458E-01</totfact>
</mgrwt>
</event>
