<event>
12    1  0.2902773E-010  0.3039138E+04  0.7818608E-02  0.8232642E-01
         -2   -1    0    0    0  501 -0.00000000000E+00  0.00000000000E+00  0.17788590121E+04  0.17788590121E+04  0.00000000000E+00 0. -1.
          2   -1    0    0  501    0  0.00000000000E+00 -0.00000000000E+00 -0.12980732359E+04  0.12980732359E+04  0.00000000000E+00 0.  1.
    9900016    2    1    2    0    0 -0.50221210224E+03 -0.45949068839E+03  0.61806035382E+03  0.23825310685E+04  0.21979779350E+04 0.  0.
         23    2    3    3    0    0  0.22826153332E+03 -0.30429384852E+03  0.77654558668E+02  0.40367013364E+03  0.11054986417E+03 0.  0.
         24    2    3    3    0    0 -0.82975864033E+03 -0.55633382173E+03  0.36871570943E+03  0.10684077054E+04  0.86816059331E+02 0.  0.
        -15    1    4    4    0    0  0.12402839668E+03 -0.17304810506E+03 -0.12665656484E+02  0.21328175895E+03  0.00000000000E+00 0. -1.
        -15    1    5    5    0    0 -0.34412318238E+03 -0.18566987354E+03  0.12284984572E+03  0.40986113647E+03  0.00000000000E+00 0.  1.
         15    1    4    4    0    0  0.10423313664E+03 -0.13124574345E+03  0.90320215151E+02  0.19038837468E+03  0.00000000000E+00 0.  1.
         15    1    3    3    0    0 -0.29668863775E+03  0.33761112274E+03 -0.33765202172E+02  0.45071665916E+03  0.00000000000E+00 0. -1.
        -16    1    1    2    0    0  0.50221210224E+03  0.45949068839E+03 -0.13727457764E+03  0.69440117945E+03  0.00000000000E+00 0.  1.
         16    1    5    5    0    0 -0.48563545795E+03 -0.37066394819E+03  0.24586586371E+03  0.65854656892E+03  0.00000000000E+00 0. -1.
    9900018    1    3    3    0    0  0.39597364251E+03  0.63525859110E+02  0.20545528790E+03  0.45973657029E+03  0.91187600000E+02 0.  0.
<mgrwt>
<rscale>  0 0.30391376E+04</rscale>
<asrwt>0</asrwt>
<pdfrwt beam="1">  1        2 0.19970358E+00 0.30391376E+04</pdfrwt>
<pdfrwt beam="2">  1       -2 0.27367062E+00 0.30391376E+04</pdfrwt>
<totfact> 0.65094265E-01</totfact>
</mgrwt>
</event>
<event>
12    1  0.2902773E-010  0.2998306E+04  0.7818608E-02  0.8244215E-01
          2   -1    0    0  501    0  0.00000000000E+00  0.00000000000E+00  0.27529061620E+04  0.27529061620E+04  0.00000000000E+00 0. -1.
         -2   -1    0    0    0  501 -0.00000000000E+00 -0.00000000000E+00 -0.81639546208E+03  0.81639546208E+03  0.00000000000E+00 0.  1.
    9900016    2    1    2    0    0  0.56369492250E+03  0.37370747633E+03  0.13509746307E+04  0.26747281325E+04  0.22071766776E+04 0.  0.
         23    2    3    3    0    0  0.26248326911E+03  0.14849305135E+03  0.12029288958E+04  0.12458493077E+04  0.11897443535E+03 0.  0.
         24    2    3    3    0    0  0.25169946670E+03 -0.39828541760E+02 -0.38989553716E+03  0.47345266702E+03  0.84852600054E+02 0.  0.
        -15    1    4    4    0    0  0.22254983706E+03  0.13676062501E+03  0.11456134488E+04  0.11750157754E+04  0.00000000000E+00 0.  1.
        -15    1    5    5    0    0  0.19285710539E+03 -0.49900975295E+02 -0.23873957901E+03  0.31093497234E+03  0.00000000000E+00 0.  1.
         15    1    4    4    0    0  0.39933432054E+02  0.11732426344E+02  0.57315447033E+02  0.70833532258E+02  0.00000000000E+00 0. -1.
         15    1    3    3    0    0 -0.12743712128E+03  0.56683175890E+02  0.63593732483E+03  0.65105259651E+03  0.00000000000E+00 0. -1.
        -16    1    1    2    0    0 -0.56369492250E+03 -0.37370747633E+03  0.58553606919E+03  0.89457349158E+03  0.00000000000E+00 0.  1.
         16    1    5    5    0    0  0.58842361307E+02  0.10072433534E+02 -0.15115595814E+03  0.16251769468E+03  0.00000000000E+00 0. -1.
    9900018    1    3    3    0    0  0.17694930796E+03  0.20835979085E+03 -0.97996052781E+02  0.30437356125E+03  0.91187600000E+02 0.  0.
<mgrwt>
<rscale>  0 0.29983063E+04</rscale>
<asrwt>0</asrwt>
<pdfrwt beam="1">  1        2 0.42352402E+00 0.29983063E+04</pdfrwt>
<pdfrwt beam="2">  1       -2 0.12559930E+00 0.29983063E+04</pdfrwt>
<totfact> 0.10009043E+00</totfact>
</mgrwt>
</event>
<event>
11    1  0.2902773E-010  0.2674292E+04  0.7818608E-02  0.8343395E-01
         -2   -1    0    0    0  501 -0.00000000000E+00  0.00000000000E+00  0.60222508251E+03  0.60222508251E+03  0.00000000000E+00 0.  1.
          2   -1    0    0  501    0  0.00000000000E+00 -0.00000000000E+00 -0.29689219757E+04  0.29689219757E+04  0.00000000000E+00 0. -1.
    9900016    2    1    2    0    0 -0.11230211236E+03  0.35164435617E+03 -0.22816232573E+04  0.31923291056E+04  0.22020206431E+04 0.  0.
         24    2    3    3    0    0  0.29084731998E+03 -0.35406190717E+03 -0.13378478839E+04  0.14163985242E+04  0.79973879011E+02 0.  0.
        -15    1    4    4    0    0  0.23932823698E+03 -0.24859834146E+03 -0.10606913181E+04  0.11154125751E+04  0.00000000000E+00 0.  1.
        -15    1    3    3    0    0 -0.15335267202E+03  0.10536097391E+02 -0.30118561731E+03  0.33814320552E+03  0.00000000000E+00 0.  1.
         15    1    3    3    0    0  0.22748683544E+02  0.76657542229E+03 -0.11699770305E+03  0.77578595191E+03  0.00000000000E+00 0. -1.
         15    1    3    3    0    0 -0.22771959902E+03 -0.69011620922E+02 -0.17070376984E+03  0.29284568741E+03  0.00000000000E+00 0. -1.
        -16    1    1    2    0    0  0.11230211236E+03 -0.35164435617E+03 -0.85073635810E+02  0.37881795256E+03  0.00000000000E+00 0.  1.
         16    1    4    4    0    0  0.51519082999E+02 -0.10546356571E+03 -0.27715656575E+03  0.30098594908E+03  0.00000000000E+00 0. -1.
    9900018    1    3    3    0    0 -0.44825844847E+02 -0.23936354116E+01 -0.35488828327E+03  0.36915573658E+03  0.91187600000E+02 0.  0.
<mgrwt>
<rscale>  0 0.26742919E+04</rscale>
<asrwt>0</asrwt>
<pdfrwt beam="1">  1        2 0.45675722E+00 0.26742919E+04</pdfrwt>
<pdfrwt beam="2">  1       -2 0.92650014E-01 0.26742919E+04</pdfrwt>
<totfact> 0.15813088E+00</totfact>
</mgrwt>
</event>
<event>
12    1  0.3652620E-010  0.2689995E+04  0.7818608E-02  0.8338259E-01
          2   -1    0    0  501    0  0.00000000000E+00  0.00000000000E+00  0.19610817751E+04  0.19610817751E+04  0.00000000000E+00 0.  1.
         -2   -1    0    0    0  501 -0.00000000000E+00 -0.00000000000E+00 -0.92245935565E+03  0.92245935565E+03  0.00000000000E+00 0. -1.
    9900016    2    1    2    0    0 -0.37874129218E+03 -0.20752864871E+03  0.78988554216E+03  0.23851606129E+04  0.22087459956E+04 0.  0.
         23    2    3    3    0    0  0.48327516199E+03  0.38034094236E+03 -0.19569975021E+02  0.62658219093E+03  0.11835600294E+03 0.  0.
        -24    2    3    3    0    0 -0.79438842014E+03 -0.22534882699E+03  0.71449303406E+03  0.10947647623E+04  0.78578197207E+02 0.  0.
        -15    1    3    3    0    0 -0.82634887913E+02 -0.15604075599E+03 -0.21618079757E+03  0.27912609958E+03  0.00000000000E+00 0.  1.
        -15    1    4    4    0    0  0.12118923387E+03  0.36429790116E+02 -0.12371758284E+02  0.12714959858E+03  0.00000000000E+00 0.  1.
         15    1    4    4    0    0  0.36208592812E+03  0.34391115224E+03 -0.71982167373E+01  0.49943259235E+03  0.00000000000E+00 0. -1.
         15    1    5    5    0    0 -0.25482084295E+03 -0.81934784582E+02  0.18560370242E+03  0.32572335697E+03  0.00000000000E+00 0. -1.
        -16    1    5    5    0    0 -0.53956757719E+03 -0.14341404241E+03  0.52888933164E+03  0.76904140529E+03  0.00000000000E+00 0.  1.
         16    1    1    2    0    0  0.37874129218E+03  0.20752864871E+03  0.24873687728E+03  0.49838051784E+03  0.00000000000E+00 0. -1.
    9900018    1    3    3    0    0  0.15006853881E+02 -0.20648000809E+03  0.31114328069E+03  0.38468756013E+03  0.91187600000E+02 0.  0.
<mgrwt>
<rscale>  0 0.26899950E+04</rscale>
<asrwt>0</asrwt>
<pdfrwt beam="1">  1        2 0.30170489E+00 0.26899950E+04</pdfrwt>
<pdfrwt beam="2">  1       -2 0.14191682E+00 0.26899950E+04</pdfrwt>
<totfact> 0.21376427E+00</totfact>
</mgrwt>
</event>
<event>
12    1  0.2902773E-010  0.2713853E+04  0.7818608E-02  0.8330524E-01
         -2   -1    0    0    0  501 -0.00000000000E+00  0.00000000000E+00  0.99428364521E+03  0.99428364521E+03  0.00000000000E+00 0.  1.
          2   -1    0    0  501    0  0.00000000000E+00 -0.00000000000E+00 -0.18518350021E+04  0.18518350021E+04  0.00000000000E+00 0. -1.
    9900016    2    1    2    0    0 -0.27741172861E+03  0.13931198712E+03 -0.10558267970E+04  0.24777733650E+04  0.22199607037E+04 0.  0.
         23    2    3    3    0    0 -0.38976775020E+03 -0.31806580273E+03 -0.11186475281E+04  0.12314279386E+04  0.10935136893E+03 0.  0.
         24    2    3    3    0    0  0.36322948443E+03  0.46244847101E+03  0.28547132832E+03  0.65853346042E+03  0.79863586832E+02 0.  0.
        -15    1    5    5    0    0  0.20183153835E+03  0.31715249605E+03  0.19178474347E+03  0.42202258642E+03  0.00000000000E+00 0.  1.
        -15    1    4    4    0    0 -0.29296494402E+03 -0.25579989078E+03 -0.95681182612E+03  0.10328363438E+04  0.00000000000E+00 0. -1.
         15    1    3    3    0    0  0.58454111848E+02 -0.17144099169E+03 -0.72845870311E+02  0.19523170246E+03  0.00000000000E+00 0. -1.
         15    1    4    4    0    0 -0.96802806178E+02 -0.62265911951E+02 -0.16183570194E+03  0.19859159473E+03  0.00000000000E+00 0.  1.
        -16    1    1    2    0    0  0.27741172861E+03 -0.13931198712E+03  0.19827544008E+03  0.36834528239E+03  0.00000000000E+00 0.  1.
         16    1    5    5    0    0  0.16139794608E+03  0.14529597497E+03  0.93686584852E+02  0.23651087400E+03  0.00000000000E+00 0. -1.
    9900018    1    3    3    0    0 -0.30932757469E+03  0.16637031052E+03 -0.14980472696E+03  0.39258026351E+03  0.91187600000E+02 0.  0.
<mgrwt>
<rscale>  0 0.27138528E+04</rscale>
<asrwt>0</asrwt>
<pdfrwt beam="1">  1        2 0.28489769E+00 0.27138528E+04</pdfrwt>
<pdfrwt beam="2">  1       -2 0.15296671E+00 0.27138528E+04</pdfrwt>
<totfact> 0.20128618E+00</totfact>
</mgrwt>
</event>
<event>
12    1  0.2902773E-010  0.2542634E+04  0.7818608E-02  0.8387952E-01
         -2   -1    0    0    0  501 -0.00000000000E+00  0.00000000000E+00  0.67632391428E+03  0.67632391428E+03  0.00000000000E+00 0.  1.
          2   -1    0    0  501    0  0.00000000000E+00 -0.00000000000E+00 -0.23897528853E+04  0.23897528853E+04  0.00000000000E+00 0. -1.
    9900016    2    1    2    0    0  0.52036068889E+02 -0.12575622642E+03 -0.18451478316E+04  0.28766771186E+04  0.22027660665E+04 0.  0.
         23    2    3    3    0    0 -0.21960106798E+03 -0.25845128557E+01 -0.31754965236E+03  0.40139485271E+03  0.10976674042E+03 0.  0.
         24    2    3    3    0    0 -0.51624130922E+03  0.47210970346E+03 -0.15492275572E+03  0.72118903811E+03  0.81975038903E+02 0.  0.
        -15    1    4    4    0    0 -0.10409182214E+03 -0.55653029125E+02 -0.14193688116E+03  0.18460348134E+03  0.00000000000E+00 0.  1.
        -15    1    5    5    0    0 -0.27495889106E+03  0.28733164575E+03 -0.56192589284E+02  0.40164595543E+03  0.00000000000E+00 0.  1.
         15    1    3    3    0    0  0.46811404733E+03 -0.51449962484E+03 -0.11558056585E+04  0.13489727000E+04  0.00000000000E+00 0. -1.
         15    1    4    4    0    0 -0.11550924584E+03  0.53068516270E+02 -0.17561277120E+03  0.21679137137E+03  0.00000000000E+00 0. -1.
        -16    1    1    2    0    0 -0.52036068889E+02  0.12575622642E+03  0.13171886049E+03  0.18939968099E+03  0.00000000000E+00 0.  1.
         16    1    5    5    0    0 -0.24128241816E+03  0.18477805771E+03 -0.98730166435E+02  0.31954308268E+03  0.00000000000E+00 0. -1.
    9900018    1    3    3    0    0  0.31976439876E+03 -0.80781792184E+02 -0.21686976499E+03  0.40512052778E+03  0.91187600000E+02 0.  0.
<mgrwt>
<rscale>  0 0.25426341E+04</rscale>
<asrwt>0</asrwt>
<pdfrwt beam="1">  1        2 0.36765430E+00 0.25426341E+04</pdfrwt>
<pdfrwt beam="2">  1       -2 0.10404983E+00 0.25426341E+04</pdfrwt>
<totfact> 0.26901775E+00</totfact>
</mgrwt>
</event>
<event>
11    1  0.2902773E-010  0.2810442E+04  0.7818608E-02  0.8300034E-01
         -2   -1    0    0    0  501 -0.00000000000E+00  0.00000000000E+00  0.10256355188E+04  0.10256355188E+04  0.00000000000E+00 0.  1.
          2   -1    0    0  501    0  0.00000000000E+00 -0.00000000000E+00 -0.19252906626E+04  0.19252906626E+04  0.00000000000E+00 0. -1.
    9900016    2    1    2    0    0  0.47009583228E+03  0.25659492873E+03 -0.60242682103E+03  0.23384102838E+04  0.21950885021E+04 0.  0.
         24    2    3    3    0    0  0.73226225749E+03 -0.18881755844E+03 -0.30091355180E+03  0.81789023145E+03  0.80841702872E+02 0.  0.
        -15    1    3    3    0    0  0.17560199284E+03  0.29801911315E+03  0.25294107637E+03  0.42852145782E+03  0.00000000000E+00 0.  1.
        -15    1    4    4    0    0  0.26605511091E+03 -0.98915481039E+02 -0.14058321337E+03  0.31675421751E+03  0.00000000000E+00 0.  1.
         15    1    3    3    0    0 -0.22744753522E+03 -0.11778721284E+03 -0.48563100171E+03  0.54903886804E+03  0.00000000000E+00 0. -1.
         15    1    3    3    0    0 -0.10775198345E+02  0.15874374028E+03  0.14751956590E+03  0.21697396687E+03  0.00000000000E+00 0. -1.
        -16    1    1    2    0    0 -0.47009583228E+03 -0.25659492873E+03 -0.29722832272E+03  0.61251589760E+03  0.00000000000E+00 0.  1.
         16    1    4    4    0    0  0.46620714658E+03 -0.89902077397E+02 -0.16033033844E+03  0.50113601393E+03  0.00000000000E+00 0. -1.
    9900018    1    3    3    0    0 -0.19954568448E+03  0.10643684659E+03 -0.21634290978E+03  0.32598575968E+03  0.91187600000E+02 0.  0.
<mgrwt>
<rscale>  0 0.28104423E+04</rscale>
<asrwt>0</asrwt>
<pdfrwt beam="1">  1        2 0.29619856E+00 0.28104423E+04</pdfrwt>
<pdfrwt beam="2">  1       -2 0.15779008E+00 0.28104423E+04</pdfrwt>
<totfact> 0.16722618E+00</totfact>
</mgrwt>
</event>
<event>
11    1  0.2902773E-010  0.3267997E+04  0.7818608E-02  0.8171087E-01
          2   -1    0    0  501    0  0.00000000000E+00  0.00000000000E+00  0.98318934074E+03  0.98318934074E+03  0.00000000000E+00 0. -1.
         -2   -1    0    0    0  501 -0.00000000000E+00 -0.00000000000E+00 -0.27156019091E+04  0.27156019091E+04  0.00000000000E+00 0.  1.
    9900016    2    1    2    0    0  0.15687784560E+03  0.81606016120E+03 -0.92152254059E+03  0.25377109416E+04  0.22136413858E+04 0.  0.
         24    2    3    3    0    0  0.73180135483E+03  0.52972277341E+03 -0.98798951515E+03  0.13411085737E+04  0.79432265843E+02 0.  0.
        -15    1    4    4    0    0  0.44605432942E+03  0.32700507577E+03 -0.66103469061E+03  0.86189538029E+03  0.00000000000E+00 0.  1.
        -15    1    3    3    0    0 -0.26536814651E+03  0.30037456938E+03  0.86924907506E+02  0.41012324325E+03  0.00000000000E+00 0.  1.
         15    1    3    3    0    0 -0.26216120135E+03 -0.19692314315E+03  0.25618932556E+03  0.41610117799E+03  0.00000000000E+00 0. -1.
         15    1    3    3    0    0 -0.46233171459E+01  0.10329634929E+03 -0.18739509693E+03  0.21402904755E+03  0.00000000000E+00 0. -1.
        -16    1    1    2    0    0 -0.15687784560E+03 -0.81606016120E+03 -0.81089002779E+03  0.11610803083E+04  0.00000000000E+00 0.  1.
         16    1    4    4    0    0  0.28574702541E+03  0.20271769764E+03 -0.32695482454E+03  0.47921319343E+03  0.00000000000E+00 0. -1.
    9900018    1    3    3    0    0 -0.42770844233E+02  0.79589612266E+02 -0.89252161564E+02  0.15634889905E+03  0.91187600000E+02 0.  0.
<mgrwt>
<rscale>  0 0.32679968E+04</rscale>
<asrwt>0</asrwt>
<pdfrwt beam="1">  1        2 0.15125990E+00 0.32679968E+04</pdfrwt>
<pdfrwt beam="2">  1       -2 0.41778491E+00 0.32679968E+04</pdfrwt>
<totfact> 0.12250624E-01</totfact>
</mgrwt>
</event>
<event>
12    1  0.2902773E-010  0.2515956E+04  0.7818608E-02  0.8397323E-01
         -1   -1    0    0    0  501 -0.00000000000E+00  0.00000000000E+00  0.10152735411E+04  0.10152735411E+04  0.00000000000E+00 0.  1.
          1   -1    0    0  501    0  0.00000000000E+00 -0.00000000000E+00 -0.15587013859E+04  0.15587013859E+04  0.00000000000E+00 0. -1.
    9900016    2    1    2    0    0  0.24416540238E+03 -0.97035362736E+02 -0.62207117029E+03  0.22997170592E+04  0.21983387833E+04 0.  0.
         23    2    3    3    0    0 -0.28360525386E+03 -0.10481568155E+02 -0.34256527945E+03  0.45016598269E+03  0.68968384045E+02 0.  0.
         24    2    3    3    0    0  0.29950483590E+03 -0.34274886663E+03  0.50729502777E+03  0.68626307862E+03  0.80180019826E+02 0.  0.
        -15    1    5    5    0    0  0.26892503763E+03 -0.31918091437E+03  0.42662339690E+03  0.59682883203E+03  0.00000000000E+00 0.  1.
        -15    1    4    4    0    0 -0.19722480972E+03  0.85802735021E+00 -0.28173858985E+03  0.34391131821E+03  0.00000000000E+00 0. -1.
         15    1    3    3    0    0 -0.42914534424E+02  0.48717553750E+03 -0.45694919286E+03  0.66931623801E+03  0.00000000000E+00 0. -1.
         15    1    4    4    0    0 -0.86380444146E+02 -0.11339595505E+02 -0.60826689595E+02  0.10625466448E+03  0.00000000000E+00 0.  1.
        -16    1    1    2    0    0 -0.24416540238E+03  0.97035362736E+02  0.78643325488E+02  0.27425786768E+03  0.00000000000E+00 0.  1.
         16    1    5    5    0    0  0.30579798265E+02 -0.23567952257E+02  0.80671630873E+02  0.89434246591E+02  0.00000000000E+00 0. -1.
    9900018    1    3    3    0    0  0.27118035477E+03 -0.23098046545E+03 -0.32985172575E+03  0.49397175993E+03  0.91187600000E+02 0.  0.
<mgrwt>
<rscale>  0 0.25159557E+04</rscale>
<asrwt>0</asrwt>
<pdfrwt beam="1">  1        1 0.23980021E+00 0.25159557E+04</pdfrwt>
<pdfrwt beam="2">  1       -1 0.15619593E+00 0.25159557E+04</pdfrwt>
<totfact> 0.16514711E+00</totfact>
</mgrwt>
</event>
<event>
11    1  0.2902773E-010  0.2845986E+04  0.7818608E-02  0.8289132E-01
          2   -1    0    0  501    0  0.00000000000E+00  0.00000000000E+00  0.19175136562E+04  0.19175136562E+04  0.00000000000E+00 0.  1.
         -2   -1    0    0    0  501 -0.00000000000E+00 -0.00000000000E+00 -0.10560078018E+04  0.10560078018E+04  0.00000000000E+00 0. -1.
    9900016    2    1    2    0    0 -0.40243750569E+03  0.26459845636E+03  0.10171545431E+04  0.24673645619E+04  0.21957495822E+04 0.  0.
        -24    2    3    3    0    0 -0.27196873670E+03 -0.62827924405E+03  0.85366635897E+03  0.10965457856E+04  0.70459955473E+02 0.  0.
        -15    1    3    3    0    0  0.15213335057E+03  0.47524001859E+03 -0.14722320831E+03  0.52026176555E+03  0.00000000000E+00 0.  1.
        -15    1    3    3    0    0  0.10794234505E+03  0.11571496253E+03  0.28273237102E+03  0.32400477779E+03  0.00000000000E+00 0.  1.
         15    1    3    3    0    0 -0.27943601155E+02  0.63494980498E+02 -0.36593486817E+02  0.78431758054E+02  0.00000000000E+00 0. -1.
         15    1    4    4    0    0 -0.10630375703E+03 -0.18909772298E+03  0.30873549094E+03  0.37732749828E+03  0.00000000000E+00 0. -1.
        -16    1    4    4    0    0 -0.16566497967E+03 -0.43918152107E+03  0.54493086803E+03  0.71921828735E+03  0.00000000000E+00 0.  1.
         16    1    1    2    0    0  0.40243750569E+03 -0.26459845636E+03 -0.15564868868E+03  0.50615689601E+03  0.00000000000E+00 0. -1.
    9900018    1    3    3    0    0 -0.36260086346E+03  0.23842773879E+03  0.64572508194E+02  0.44812047489E+03  0.91187600000E+02 0.  0.
<mgrwt>
<rscale>  0 0.28459862E+04</rscale>
<asrwt>0</asrwt>
<pdfrwt beam="1">  1        2 0.29500210E+00 0.28459862E+04</pdfrwt>
<pdfrwt beam="2">  1       -2 0.16246274E+00 0.28459862E+04</pdfrwt>
<totfact> 0.15552745E+00</totfact>
</mgrwt>
</event>
<event>
12    1  0.2902773E-010  0.2545874E+04  0.7818608E-02  0.8386822E-01
         -2   -1    0    0    0  501 -0.00000000000E+00  0.00000000000E+00  0.79329351460E+03  0.79329351460E+03  0.00000000000E+00 0. -1.
          2   -1    0    0  501    0  0.00000000000E+00 -0.00000000000E+00 -0.20425843824E+04  0.20425843824E+04  0.00000000000E+00 0.  1.
    9900016    2    1    2    0    0  0.15586239901E+03  0.24369623852E+03 -0.92016877354E+03  0.23976972299E+04  0.21951219762E+04 0.  0.
         23    2    3    3    0    0 -0.88722025915E+02 -0.13657015082E+03 -0.22447893370E+03  0.29987131973E+03  0.11405705917E+03 0.  0.
         24    2    3    3    0    0 -0.45665687185E+03 -0.56893669935E+03 -0.11182316145E+03  0.74238025451E+03  0.79997227325E+02 0.  0.
        -15    1    5    5    0    0 -0.20211650747E+03 -0.25154396629E+03 -0.93446930697E+01  0.32282003168E+03  0.00000000000E+00 0.  1.
        -15    1    4    4    0    0 -0.11893476612E+02 -0.11939334300E+03 -0.14054903058E+03  0.18479787643E+03  0.00000000000E+00 0.  1.
         15    1    4    4    0    0 -0.76828549303E+02 -0.17176807820E+02 -0.83929903122E+02  0.11507344330E+03  0.00000000000E+00 0. -1.
         15    1    3    3    0    0  0.35832700115E+03  0.42258467643E+03 -0.43190987580E+03  0.70251134462E+03  0.00000000000E+00 0. -1.
        -16    1    1    2    0    0 -0.15586239901E+03 -0.24369623852E+03 -0.32912209428E+03  0.43818066712E+03  0.00000000000E+00 0.  1.
         16    1    5    5    0    0 -0.25454036438E+03 -0.31739273306E+03 -0.10247846838E+03  0.41956022283E+03  0.00000000000E+00 0. -1.
    9900018    1    3    3    0    0  0.34291429563E+03  0.52661841225E+03 -0.15195680259E+03  0.65293431103E+03  0.91187600000E+02 0.  0.
<mgrwt>
<rscale>  0 0.25458743E+04</rscale>
<asrwt>0</asrwt>
<pdfrwt beam="1">  1        2 0.31424375E+00 0.25458743E+04</pdfrwt>
<pdfrwt beam="2">  1       -2 0.12204516E+00 0.25458743E+04</pdfrwt>
<totfact> 0.28614900E+00</totfact>
</mgrwt>
</event>
<event>
12    1  0.2902773E-010  0.2350631E+04  0.7818608E-02  0.8458221E-01
          2   -1    0    0  501    0  0.00000000000E+00  0.00000000000E+00  0.16876404153E+04  0.16876404153E+04  0.00000000000E+00 0. -1.
         -2   -1    0    0    0  501 -0.00000000000E+00 -0.00000000000E+00 -0.81851939294E+03  0.81851939294E+03  0.00000000000E+00 0.  1.
    9900016    2    1    2    0    0 -0.90753960219E+02  0.12589586533E+03  0.88010472365E+03  0.23505748093E+04  0.21740587755E+04 0.  0.
         23    2    3    3    0    0  0.25777163202E+03  0.72005649561E+02  0.15360876196E+03  0.32999577684E+03  0.11692105518E+03 0.  0.
         24    2    3    3    0    0  0.40517522283E+03 -0.56851335931E+03 -0.93522329021E+02  0.70932823273E+03  0.83819537190E+02 0.  0.
        -15    1    5    5    0    0  0.25351979768E+03 -0.38467803989E+03 -0.25121616074E+02  0.46138983277E+03  0.00000000000E+00 0.  1.
        -15    1    4    4    0    0  0.56861454149E+02  0.18801470416E+02 -0.15715536342E+02  0.61916866363E+02  0.00000000000E+00 0.  1.
         15    1    3    3    0    0 -0.70430880097E+03  0.50645943297E+03  0.70334222543E+03  0.11168000405E+04  0.00000000000E+00 0. -1.
         15    1    4    4    0    0  0.20091017787E+03  0.53204179144E+02  0.16932429830E+03  0.26807891048E+03  0.00000000000E+00 0. -1.
        -16    1    1    2    0    0  0.90753960219E+02 -0.12589586533E+03 -0.10983701326E+02  0.15558499895E+03  0.00000000000E+00 0.  1.
         16    1    5    5    0    0  0.15165542515E+03 -0.18383531942E+03 -0.68400712947E+02  0.24793839997E+03  0.00000000000E+00 0. -1.
    9900018    1    3    3    0    0 -0.49392014095E+02  0.11594414212E+03  0.11667606528E+03  0.19445075919E+03  0.91187600000E+02 0.  0.
<mgrwt>
<rscale>  0 0.23506309E+04</rscale>
<asrwt>0</asrwt>
<pdfrwt beam="1">  1        2 0.25963699E+00 0.23506309E+04</pdfrwt>
<pdfrwt beam="2">  1       -2 0.12592606E+00 0.23506309E+04</pdfrwt>
<totfact> 0.42345778E+00</totfact>
</mgrwt>
</event>
<event>
11    1  0.2902773E-010  0.2891423E+04  0.7818608E-02  0.8275434E-01
          1   -1    0    0  501    0  0.00000000000E+00  0.00000000000E+00  0.20287767167E+04  0.20287767167E+04  0.00000000000E+00 0. -1.
         -1   -1    0    0    0  501 -0.00000000000E+00 -0.00000000000E+00 -0.10302173877E+04  0.10302173877E+04  0.00000000000E+00 0.  1.
    9900016    2    1    2    0    0 -0.40908512720E+03  0.44852684626E+03  0.81200038739E+03  0.24239104785E+04  0.22016971649E+04 0.  0.
         24    2    3    3    0    0 -0.24076624633E+02  0.82390558245E+03  0.10275609818E+03  0.83459967128E+03  0.81226245392E+02 0.  0.
        -15    1    4    4    0    0 -0.32866152272E+02  0.42491349181E+03  0.88390732187E+02  0.43525231880E+03  0.00000000000E+00 0.  1.
        -15    1    3    3    0    0 -0.65168636612E+02  0.26798188542E+03 -0.10914186483E+03  0.29660274572E+03  0.00000000000E+00 0.  1.
         15    1    3    3    0    0 -0.37224788660E+03 -0.70330021565E+03  0.65139025345E+03  0.10283525391E+04  0.00000000000E+00 0. -1.
         15    1    3    3    0    0  0.47238288803E+02  0.39853944610E+02 -0.11481876448E+02  0.62861962400E+02  0.00000000000E+00 0. -1.
        -16    1    1    2    0    0  0.40908512720E+03 -0.44852684626E+03  0.18655894169E+03  0.63508362586E+03  0.00000000000E+00 0.  1.
         16    1    4    4    0    0  0.87895276385E+01  0.39899209064E+03  0.14365365994E+02  0.39934735248E+03  0.00000000000E+00 0. -1.
    9900018    1    3    3    0    0  0.51697318482E+01  0.20085649425E+02  0.17847777703E+03  0.20149356002E+03  0.91187600000E+02 0.  0.
<mgrwt>
<rscale>  0 0.28914225E+04</rscale>
<asrwt>0</asrwt>
<pdfrwt beam="1">  1        1 0.31211950E+00 0.28914225E+04</pdfrwt>
<pdfrwt beam="2">  1       -1 0.15849498E+00 0.28914225E+04</pdfrwt>
<totfact> 0.73419682E-01</totfact>
</mgrwt>
</event>
<event>
11    1  0.2902773E-010  0.3050682E+04  0.7818608E-02  0.8229405E-01
         -2   -1    0    0    0  501 -0.00000000000E+00  0.00000000000E+00  0.30900201335E+04  0.30900201335E+04  0.00000000000E+00 0. -1.
          2   -1    0    0  501    0  0.00000000000E+00 -0.00000000000E+00 -0.75296136979E+03  0.75296136979E+03  0.00000000000E+00 0.  1.
    9900016    2    1    2    0    0 -0.54577209840E+03 -0.88407276935E+02  0.23804903632E+04  0.32883921653E+04  0.22002512660E+04 0.  0.
         24    2    3    3    0    0  0.30435908916E+03 -0.24420687913E+03  0.10251752947E+04  0.10996882565E+04  0.77835864047E+02 0.  0.
        -15    1    3    3    0    0 -0.15676426573E+03 -0.17032833584E+03  0.17388859203E+01  0.23149470992E+03  0.00000000000E+00 0.  1.
        -15    1    4    4    0    0  0.28889782727E+03 -0.23284383754E+03  0.90695921657E+03  0.97992511337E+03  0.00000000000E+00 0.  1.
         15    1    3    3    0    0 -0.56537043319E+02 -0.27742049403E+03 -0.36117976585E+02  0.28541737160E+03  0.00000000000E+00 0. -1.
         15    1    3    3    0    0 -0.42037453507E+03  0.50159397396E+03  0.83551122884E+03  0.10613153527E+04  0.00000000000E+00 0. -1.
        -16    1    1    2    0    0  0.54577209840E+03  0.88407276935E+02 -0.43431599485E+02  0.55458933801E+03  0.00000000000E+00 0.  1.
         16    1    4    4    0    0  0.15461261885E+02 -0.11363041584E+02  0.11821607814E+03  0.11976314317E+03  0.00000000000E+00 0. -1.
    9900018    1    3    3    0    0 -0.21645534344E+03  0.10195445810E+03  0.55418293032E+03  0.61047647447E+03  0.91187600000E+02 0.  0.
<mgrwt>
<rscale>  0 0.30506824E+04</rscale>
<asrwt>0</asrwt>
<pdfrwt beam="1">  1        2 0.11584021E+00 0.30506824E+04</pdfrwt>
<pdfrwt beam="2">  1       -2 0.47538770E+00 0.30506824E+04</pdfrwt>
<totfact> 0.75063574E-02</totfact>
</mgrwt>
</event>
<event>
12    1  0.2902773E-010  0.2636153E+04  0.7818608E-02  0.8356024E-01
         -1   -1    0    0    0  501 -0.00000000000E+00  0.00000000000E+00  0.26208684057E+04  0.26208684057E+04  0.00000000000E+00 0. -1.
          1   -1    0    0  501    0  0.00000000000E+00 -0.00000000000E+00 -0.66288153874E+03  0.66288153874E+03  0.00000000000E+00 0.  1.
    9900016    2    1    2    0    0  0.29258323034E+03  0.21693251911E+03  0.18594977064E+04  0.29064373694E+04  0.22038561200E+04 0.  0.
         23    2    3    3    0    0  0.46886537289E+03  0.15404173180E+02  0.49222863579E+03  0.68892637620E+03  0.11071809017E+03 0.  0.
         24    2    3    3    0    0 -0.62429173997E+03  0.20201543866E+03  0.12249909133E+04  0.13916763961E+04  0.74900199107E+02 0.  0.
        -15    1    5    5    0    0 -0.28352213968E+03  0.11502167405E+03  0.63366249102E+03  0.70366394090E+03  0.00000000000E+00 0.  1.
        -15    1    4    4    0    0  0.25556948713E+03  0.39725619827E+02  0.33299936250E+03  0.42164257736E+03  0.00000000000E+00 0.  1.
         15    1    4    4    0    0  0.21329588576E+03 -0.24321446647E+02  0.15922927329E+03  0.26728379884E+03  0.00000000000E+00 0. -1.
         15    1    3    3    0    0  0.55757252968E+03  0.11555848773E+02 -0.78062324858E+02  0.56312910603E+03  0.00000000000E+00 0. -1.
        -16    1    1    2    0    0 -0.29258323034E+03 -0.21693251911E+03  0.98489160569E+02  0.37731257502E+03  0.00000000000E+00 0.  1.
         16    1    5    5    0    0 -0.34076960029E+03  0.86993764615E+02  0.59132842226E+03  0.68801245522E+03  0.00000000000E+00 0. -1.
    9900018    1    3    3    0    0 -0.10956293225E+03 -0.12042941508E+02  0.22034048220E+03  0.26270549110E+03  0.91187600000E+02 0.  0.
<mgrwt>
<rscale>  0 0.26361527E+04</rscale>
<asrwt>0</asrwt>
<pdfrwt beam="1">  1        1 0.10198178E+00 0.26361527E+04</pdfrwt>
<pdfrwt beam="2">  1       -1 0.40321052E+00 0.26361527E+04</pdfrwt>
<totfact> 0.17656488E-01</totfact>
</mgrwt>
</event>
<event>
12    1  0.2902773E-010  0.2369049E+04  0.7818608E-02  0.8451183E-01
         -1   -1    0    0    0  501 -0.00000000000E+00  0.00000000000E+00  0.74965509507E+03  0.74965509507E+03  0.00000000000E+00 0.  1.
          1   -1    0    0  501    0  0.00000000000E+00 -0.00000000000E+00 -0.18716591168E+04  0.18716591168E+04  0.00000000000E+00 0. -1.
    9900016    2    1    2    0    0  0.11030605680E+03  0.12078028946E+03 -0.10948415876E+04  0.24555037710E+04  0.21918178216E+04 0.  0.
         23    2    3    3    0    0  0.17406277602E+03 -0.15505427235E+03  0.17447288169E+03  0.29752542821E+03  0.61163033098E+02 0.  0.
         24    2    3    3    0    0 -0.66597463839E+03  0.39597316646E+03 -0.25787974136E+03  0.82037577304E+03  0.78724077912E+02 0.  0.
        -15    1    4    4    0    0  0.13339214328E+03 -0.13718880410E+03  0.11483600782E+03  0.22316258771E+03  0.00000000000E+00 0. -1.
        -15    1    5    5    0    0 -0.28424414266E+03  0.18451340623E+03 -0.74202884496E+02  0.34690920683E+03  0.00000000000E+00 0.  1.
         15    1    4    4    0    0  0.40670632736E+02 -0.17865468249E+02  0.59636873870E+02  0.74362840504E+02  0.00000000000E+00 0.  1.
         15    1    3    3    0    0  0.67630469760E+03 -0.15585167457E+02 -0.95538758291E+03  0.11706393018E+04  0.00000000000E+00 0. -1.
        -16    1    1    2    0    0 -0.11030605680E+03 -0.12078028946E+03 -0.27162434188E+02  0.16581044092E+03  0.00000000000E+00 0.  1.
         16    1    5    5    0    0 -0.38173049573E+03  0.21145976022E+03 -0.18367685687E+03  0.47346656620E+03  0.00000000000E+00 0. -1.
    9900018    1    3    3    0    0 -0.74086778418E+02 -0.10455343719E+03 -0.56047144979E+02  0.16696326788E+03  0.91187600000E+02 0.  0.
<mgrwt>
<rscale>  0 0.23690494E+04</rscale>
<asrwt>0</asrwt>
<pdfrwt beam="1">  1        1 0.28794756E+00 0.23690494E+04</pdfrwt>
<pdfrwt beam="2">  1       -1 0.11533155E+00 0.23690494E+04</pdfrwt>
<totfact> 0.22303532E+00</totfact>
</mgrwt>
</event>
<event>
12    1  0.2902773E-010  0.2826547E+04  0.7818608E-02  0.8295074E-01
         -4   -1    0    0    0  501 -0.00000000000E+00  0.00000000000E+00  0.12582332698E+04  0.12582332698E+04  0.00000000000E+00 0.  1.
          4   -1    0    0  501    0  0.00000000000E+00 -0.00000000000E+00 -0.15874177903E+04  0.15874177903E+04  0.00000000000E+00 0. -1.
    9900016    2    1    2    0    0  0.38598002261E+03 -0.14230524736E+03  0.11379647953E+03  0.22411152649E+04  0.22000946867E+04 0.  0.
         23    2    3    3    0    0 -0.17896438318E+03  0.20118918822E+03 -0.17315439115E+03  0.33961419617E+03  0.11335792500E+03 0.  0.
        -24    2    3    3    0    0  0.53194826211E+03 -0.37242824611E+03  0.85332875624E+03  0.10752089641E+04  0.78946805925E+02 0.  0.
        -15    1    3    3    0    0  0.29702765778E+03  0.81592693086E+02 -0.36673423345E+03  0.47893297552E+03  0.00000000000E+00 0.  1.
        -15    1    4    4    0    0  0.43228512195E+01  0.59049209461E+02 -0.24214069200E+02  0.63967314528E+02  0.00000000000E+00 0.  1.
         15    1    5    5    0    0  0.25761088093E+03 -0.15510419010E+03  0.44972663846E+03  0.54099420062E+03  0.00000000000E+00 0. -1.
         15    1    4    4    0    0 -0.18328723440E+03  0.14213997876E+03 -0.14894032195E+03  0.27564688164E+03  0.00000000000E+00 0. -1.
        -16    1    5    5    0    0  0.27433738118E+03 -0.21732405602E+03  0.40360211778E+03  0.53421476347E+03  0.00000000000E+00 0.  1.
         16    1    1    2    0    0 -0.38598002261E+03  0.14230524736E+03 -0.44298100004E+03  0.60453579520E+03  0.00000000000E+00 0. -1.
    9900018    1    3    3    0    0 -0.26403151410E+03 -0.52658882546E+02 -0.19964365210E+03  0.34735912910E+03  0.91187600000E+02 0.  0.
<mgrwt>
<rscale>  0 0.28265469E+04</rscale>
<asrwt>0</asrwt>
<pdfrwt beam="1">  1        4 0.24421812E+00 0.28265469E+04</pdfrwt>
<pdfrwt beam="2">  1       -4 0.19357435E+00 0.28265469E+04</pdfrwt>
<totfact> 0.17203016E-02</totfact>
</mgrwt>
</event>
<event>
12    1  0.2902773E-010  0.2932262E+04  0.7818608E-02  0.8263343E-01
         -2   -1    0    0    0  501 -0.00000000000E+00  0.00000000000E+00  0.75541223496E+03  0.75541223496E+03  0.00000000000E+00 0.  1.
          2   -1    0    0  501    0  0.00000000000E+00 -0.00000000000E+00 -0.28455188559E+04  0.28455188559E+04  0.00000000000E+00 0. -1.
    9900016    2    1    2    0    0 -0.11011792689E+03 -0.62292201712E+02 -0.86812883940E+03  0.23724214349E+04  0.22042525960E+04 0.  0.
         23    2    3    3    0    0  0.27759954633E+03 -0.38785062863E+03 -0.16192268023E+03  0.51700378690E+03  0.11655188990E+03 0.  0.
        -24    2    3    3    0    0 -0.38537680394E+03 -0.38821967415E+03 -0.20822151583E+03  0.59001350199E+03  0.74363542534E+02 0.  0.
        -15    1    4    4    0    0  0.22457392418E+03 -0.36429936373E+03 -0.11710757687E+03  0.44369094920E+03  0.00000000000E+00 0.  1.
        -15    1    3    3    0    0  0.26146001347E+03  0.81869676464E+03 -0.42322872422E+03  0.95799179750E+03  0.00000000000E+00 0.  1.
         15    1    5    5    0    0 -0.13052657713E+03 -0.12929287388E+03 -0.10809189011E+03  0.21316118615E+03  0.00000000000E+00 0. -1.
         15    1    4    4    0    0  0.53025622148E+02 -0.23551264900E+02 -0.44815103360E+02  0.73312837701E+02  0.00000000000E+00 0. -1.
        -16    1    5    5    0    0 -0.25485022681E+03 -0.25892680027E+03 -0.10012962572E+03  0.37685231583E+03  0.00000000000E+00 0.  1.
         16    1    1    2    0    0  0.11011792689E+03  0.62292201712E+02 -0.12219777815E+04  0.12285096560E+04  0.00000000000E+00 0. -1.
    9900018    1    3    3    0    0 -0.26380068275E+03 -0.10491866357E+03 -0.74755919119E+02  0.30741234852E+03  0.91187600000E+02 0.  0.
<mgrwt>
<rscale>  0 0.29322618E+04</rscale>
<asrwt>0</asrwt>
<pdfrwt beam="1">  1        2 0.43777213E+00 0.29322618E+04</pdfrwt>
<pdfrwt beam="2">  1       -2 0.11621727E+00 0.29322618E+04</pdfrwt>
<totfact> 0.10727481E+00</totfact>
</mgrwt>
</event>
<event>
12    1  0.2902773E-010  0.2475415E+04  0.7818608E-02  0.8411797E-01
          1   -1    0    0  501    0  0.00000000000E+00  0.00000000000E+00  0.12593116113E+04  0.12593116113E+04  0.00000000000E+00 0. -1.
         -1   -1    0    0    0  501 -0.00000000000E+00 -0.00000000000E+00 -0.12164739674E+04  0.12164739674E+04  0.00000000000E+00 0.  1.
    9900016    2    1    2    0    0 -0.16892782662E+03  0.16597233884E+03  0.12324184610E+03  0.22256890701E+04  0.22096198443E+04 0.  0.
         23    2    3    3    0    0 -0.14532170004E+03 -0.10602503353E+03 -0.11678795187E+03  0.24128545944E+03  0.11054204176E+03 0.  0.
         24    2    3    3    0    0 -0.33374660456E+02 -0.29036806694E+03 -0.57472828018E+03  0.65002926593E+03  0.82449792424E+02 0.  0.
        -15    1    4    4    0    0 -0.39095755379E+02 -0.54629318688E+02 -0.10231122797E+03  0.12239455836E+03  0.00000000000E+00 0.  1.
        -15    1    5    5    0    0  0.10102680893E+02 -0.92882620135E+02 -0.25651960028E+03  0.27300467141E+03  0.00000000000E+00 0.  1.
         15    1    4    4    0    0 -0.10622594466E+03 -0.51395714844E+02 -0.14476723902E+02  0.11889090108E+03  0.00000000000E+00 0. -1.
         15    1    3    3    0    0  0.28883416464E+03  0.40493659786E+03  0.86467099597E+03  0.99752431260E+03  0.00000000000E+00 0. -1.
        -16    1    1    2    0    0  0.16892782662E+03 -0.16597233884E+03 -0.80404202208E+02  0.25009650858E+03  0.00000000000E+00 0.  1.
         16    1    5    5    0    0 -0.43477341350E+02 -0.19748544680E+03 -0.31820867990E+03  0.37702459452E+03  0.00000000000E+00 0. -1.
    9900018    1    3    3    0    0 -0.27906563077E+03  0.15742884145E+03 -0.49912917822E+02  0.33685003214E+03  0.91187600000E+02 0.  0.
<mgrwt>
<rscale>  0 0.24754149E+04</rscale>
<asrwt>0</asrwt>
<pdfrwt beam="1">  1        1 0.19374025E+00 0.24754149E+04</pdfrwt>
<pdfrwt beam="2">  1       -1 0.18714984E+00 0.24754149E+04</pdfrwt>
<totfact> 0.15942671E+00</totfact>
</mgrwt>
</event>
<event>
12    1  0.2902773E-010  0.2490967E+04  0.7818608E-02  0.8406211E-01
         -2   -1    0    0    0  501 -0.00000000000E+00  0.00000000000E+00  0.14028146391E+04  0.14028146391E+04  0.00000000000E+00 0.  1.
          2   -1    0    0  501    0  0.00000000000E+00 -0.00000000000E+00 -0.11057972452E+04  0.11057972452E+04  0.00000000000E+00 0. -1.
    9900016    2    1    2    0    0 -0.17163978798E+03 -0.22896765186E+03  0.26886735955E+03  0.22210726229E+04  0.21860895537E+04 0.  0.
         23    2    3    3    0    0 -0.25972604979E+03 -0.34126967801E+02 -0.19351130459E+03  0.34677960844E+03  0.11911003717E+03 0.  0.
         24    2    3    3    0    0 -0.24059647882E+03  0.69847836081E+03  0.28776966592E+03  0.79665109583E+03  0.77992959531E+02 0.  0.
        -15    1    4    4    0    0 -0.36068852327E+02  0.11162778877E+02  0.12066562849E+02  0.39638008016E+02  0.00000000000E+00 0.  1.
        -15    1    5    5    0    0 -0.20848185037E+03  0.62541734591E+03  0.28072881449E+03  0.71653346453E+03  0.00000000000E+00 0.  1.
         15    1    3    3    0    0  0.41241904061E+03 -0.64314258658E+03  0.33210958019E+02  0.76473839936E+03  0.00000000000E+00 0. -1.
         15    1    4    4    0    0 -0.22365719746E+03 -0.45289746678E+02 -0.20557786744E+03  0.30714160043E+03  0.00000000000E+00 0. -1.
        -16    1    1    2    0    0  0.17163978798E+03  0.22896765186E+03  0.28150034279E+02  0.28753926140E+03  0.00000000000E+00 0.  1.
         16    1    5    5    0    0 -0.32114628444E+02  0.73061014895E+02  0.70408514319E+01  0.80117631308E+02  0.00000000000E+00 0. -1.
    9900018    1    3    3    0    0 -0.83736299983E+02 -0.25017645829E+03  0.14139804020E+03  0.31290351929E+03  0.91187600000E+02 0.  0.
<mgrwt>
<rscale>  0 0.24909665E+04</rscale>
<asrwt>0</asrwt>
<pdfrwt beam="1">  1        2 0.17012265E+00 0.24909665E+04</pdfrwt>
<pdfrwt beam="2">  1       -2 0.21581764E+00 0.24909665E+04</pdfrwt>
<totfact> 0.20262868E+00</totfact>
</mgrwt>
</event>
<event>
12    1  0.2902773E-010  0.2752038E+04  0.7818608E-02  0.8318315E-01
          2   -1    0    0  501    0  0.00000000000E+00  0.00000000000E+00  0.33579140873E+04  0.33579140873E+04  0.00000000000E+00 0. -1.
         -2   -1    0    0    0  501 -0.00000000000E+00 -0.00000000000E+00 -0.56387031726E+03  0.56387031726E+03  0.00000000000E+00 0.  1.
    9900016    2    1    2    0    0  0.27838199229E+03 -0.40130224977E+03  0.23492671329E+04  0.32612041397E+04  0.22085869578E+04 0.  0.
         23    2    3    3    0    0 -0.10273853865E+03 -0.10281643489E+03 -0.13816769751E+03  0.22808854586E+03  0.10866299052E+03 0.  0.
         24    2    3    3    0    0  0.57970336697E+02 -0.71699546614E+03  0.19560069864E+04  0.20856731702E+04  0.81401372375E+02 0.  0.
        -15    1    4    4    0    0 -0.13112529400E+02 -0.43269515029E+02  0.86782394543E+01  0.46038040772E+02  0.00000000000E+00 0. -1.
        -15    1    5    5    0    0 -0.24744802592E+01 -0.21211382938E+03  0.67035645232E+03  0.70311888955E+03  0.00000000000E+00 0.  1.
         15    1    3    3    0    0  0.18644638117E+03  0.48617424909E+03  0.17526393961E+03  0.54940431566E+03  0.00000000000E+00 0. -1.
         15    1    4    4    0    0 -0.89626009255E+02 -0.59546919859E+02 -0.14684593697E+03  0.18205050509E+03  0.00000000000E+00 0.  1.
        -16    1    1    2    0    0 -0.27838199229E+03  0.40130224977E+03  0.44477663721E+03  0.66058026485E+03  0.00000000000E+00 0.  1.
         16    1    5    5    0    0  0.60444816956E+02 -0.50488163676E+03  0.12856505341E+04  0.13825542806E+04  0.00000000000E+00 0. -1.
    9900018    1    3    3    0    0  0.13670381308E+03 -0.67664597837E+02  0.35616390431E+03  0.39803810802E+03  0.91187600000E+02 0.  0.
<mgrwt>
<rscale>  0 0.27520378E+04</rscale>
<asrwt>0</asrwt>
<pdfrwt beam="1">  1        2 0.51660215E+00 0.27520378E+04</pdfrwt>
<pdfrwt beam="2">  1       -2 0.86749282E-01 0.27520378E+04</pdfrwt>
<totfact> 0.10229907E+00</totfact>
</mgrwt>
</event>
<event>
11    1  0.2902773E-010  0.2767442E+04  0.7818608E-02  0.8313448E-01
          2   -1    0    0  501    0  0.00000000000E+00  0.00000000000E+00  0.21431502724E+04  0.21431502724E+04  0.00000000000E+00 0. -1.
         -2   -1    0    0    0  501 -0.00000000000E+00 -0.00000000000E+00 -0.89339675714E+03  0.89339675714E+03  0.00000000000E+00 0.  1.
    9900016    2    1    2    0    0  0.14278464800E+03  0.12846965815E+03  0.51417992109E+03  0.22763099473E+04  0.22091432901E+04 0.  0.
        -24    2    3    3    0    0  0.34839441104E+02  0.57423342980E+03  0.10250953471E+04  0.11782296962E+04  0.80292763251E+02 0.  0.
        -15    1    3    3    0    0  0.29197700720E+03 -0.14245614402E+03 -0.47792034793E+03  0.57788596165E+03  0.00000000000E+00 0.  1.
        -15    1    3    3    0    0 -0.96468121608E+02 -0.24805072436E+03  0.78495575780E+02  0.27748300085E+03  0.00000000000E+00 0.  1.
         15    1    4    4    0    0  0.46343308703E+01  0.14947523153E+03  0.34212543938E+03  0.37338202707E+03  0.00000000000E+00 0. -1.
         15    1    3    3    0    0 -0.13222224411E+02 -0.29969099411E+02 -0.11773922717E+03  0.12221088230E+03  0.00000000000E+00 0. -1.
        -16    1    4    4    0    0  0.30205110234E+02  0.42475819827E+03  0.68296990775E+03  0.80484766917E+03  0.00000000000E+00 0.  1.
         16    1    1    2    0    0 -0.14278464800E+03 -0.12846965815E+03  0.73557359422E+03  0.76023708229E+03  0.00000000000E+00 0. -1.
    9900018    1    3    3    0    0 -0.74341454283E+02 -0.25287803851E+02  0.62485732892E+01  0.12050040627E+03  0.91187600000E+02 0.  0.
<mgrwt>
<rscale>  0 0.27674418E+04</rscale>
<asrwt>0</asrwt>
<pdfrwt beam="1">  1        2 0.32971543E+00 0.27674418E+04</pdfrwt>
<pdfrwt beam="2">  1       -2 0.13744565E+00 0.27674418E+04</pdfrwt>
<totfact> 0.18267958E+00</totfact>
</mgrwt>
</event>
<event>
12    1  0.2902773E-010  0.3934173E+04  0.7818608E-02  0.8017959E-01
          1   -1    0    0  501    0  0.00000000000E+00  0.00000000000E+00  0.20313779115E+04  0.20313779115E+04  0.00000000000E+00 0. -1.
         -1   -1    0    0    0  501 -0.00000000000E+00 -0.00000000000E+00 -0.19048302335E+04  0.19048302335E+04  0.00000000000E+00 0.  1.
    9900016    2    1    2    0    0  0.78057812620E+03 -0.75152157725E+03  0.89029525935E+03  0.26105395363E+04  0.22018637854E+04 0.  0.
         23    2    3    3    0    0 -0.31471127920E+03 -0.11351585119E+03  0.11912914775E+03  0.37376168461E+03  0.11652040726E+03 0.  0.
         24    2    3    3    0    0  0.31954495381E+03 -0.63109489161E+03 -0.30478823790E+03  0.77452446875E+03  0.81256033680E+02 0.  0.
        -15    1    5    5    0    0  0.93497162897E+02 -0.24510851144E+03 -0.82311128018E+02  0.27494549214E+03  0.00000000000E+00 0.  1.
        -15    1    4    4    0    0 -0.11049732063E+03 -0.42920695858E+02 -0.14935543635E+02  0.11947767350E+03  0.00000000000E+00 0.  1.
         15    1    4    4    0    0 -0.20421395857E+03 -0.70595155334E+02  0.13406469138E+03  0.25428401111E+03  0.00000000000E+00 0. -1.
         15    1    3    3    0    0  0.47709673565E+03  0.22258127876E+03  0.88616543351E+03  0.10307535575E+04  0.00000000000E+00 0. -1.
        -16    1    1    2    0    0 -0.78057812620E+03  0.75152157725E+03 -0.76374758140E+03  0.13256686088E+04  0.00000000000E+00 0.  1.
         16    1    5    5    0    0  0.22604779092E+03 -0.38598638016E+03 -0.22247710988E+03  0.49957897661E+03  0.00000000000E+00 0. -1.
    9900018    1    3    3    0    0  0.29864771593E+03 -0.22949211321E+03  0.18978891599E+03  0.43149982536E+03  0.91187600000E+02 0.  0.
<mgrwt>
<rscale>  0 0.39341734E+04</rscale>
<asrwt>0</asrwt>
<pdfrwt beam="1">  1        1 0.31251968E+00 0.39341734E+04</pdfrwt>
<pdfrwt beam="2">  1       -1 0.29305080E+00 0.39341734E+04</pdfrwt>
<totfact> 0.81790087E-02</totfact>
</mgrwt>
</event>
<event>
11    1  0.2902773E-010  0.2536680E+04  0.7818608E-02  0.8390033E-01
         -2   -1    0    0    0  501 -0.00000000000E+00  0.00000000000E+00  0.10962202126E+04  0.10962202126E+04  0.00000000000E+00 0.  1.
          2   -1    0    0  501    0  0.00000000000E+00 -0.00000000000E+00 -0.14674847708E+04  0.14674847708E+04  0.00000000000E+00 0. -1.
    9900016    2    1    2    0    0 -0.30554647671E+02 -0.14426429614E+03 -0.60100912596E+03  0.22907061921E+04  0.22055332950E+04 0.  0.
         24    2    3    3    0    0 -0.54744912158E+03 -0.19197286127E+03 -0.10895450301E+04  0.12369357627E+04  0.79671753031E+02 0.  0.
        -15    1    3    3    0    0  0.67903638088E+02 -0.76209967577E+02 -0.87471320635E+02  0.13442505405E+03  0.00000000000E+00 0.  1.
        -15    1    4    4    0    0 -0.96219710117E+02 -0.48772174342E+02 -0.26562748324E+03  0.28669655990E+03  0.00000000000E+00 0.  1.
         15    1    3    3    0    0  0.17954567261E+03 -0.48721076296E+02  0.64870872518E+01  0.18615175027E+03  0.00000000000E+00 0. -1.
         15    1    3    3    0    0  0.19642776865E+03  0.14120688056E+03  0.56215216597E+03  0.61199535057E+03  0.00000000000E+00 0. -1.
        -16    1    1    2    0    0  0.30554647671E+02  0.14426429614E+03  0.22974456774E+03  0.27299879128E+03  0.00000000000E+00 0.  1.
         16    1    4    4    0    0 -0.45122941146E+03 -0.14320068693E+03 -0.82391754691E+03  0.95023920284E+03  0.00000000000E+00 0. -1.
    9900018    1    3    3    0    0  0.73017394564E+02  0.31432728442E+02  0.73679716053E+01  0.12119827443E+03  0.91187600000E+02 0.  0.
<mgrwt>
<rscale>  0 0.25366801E+04</rscale>
<asrwt>0</asrwt>
<pdfrwt beam="1">  1        2 0.22576689E+00 0.25366801E+04</pdfrwt>
<pdfrwt beam="2">  1       -2 0.16864926E+00 0.25366801E+04</pdfrwt>
<totfact> 0.25666089E+00</totfact>
</mgrwt>
</event>
<event>
11    1  0.2902773E-010  0.2598387E+04  0.7818608E-02  0.8368749E-01
          2   -1    0    0  501    0  0.00000000000E+00  0.00000000000E+00  0.16312978885E+04  0.16312978885E+04  0.00000000000E+00 0. -1.
         -2   -1    0    0    0  501 -0.00000000000E+00 -0.00000000000E+00 -0.10346998790E+04  0.10346998790E+04  0.00000000000E+00 0.  1.
    9900016    2    1    2    0    0  0.18492321844E+03  0.15589801953E+03  0.79998220980E+03  0.23499820683E+04  0.21963477402E+04 0.  0.
         24    2    3    3    0    0 -0.73490015359E+03  0.58366928678E+03  0.48631901166E+03  0.10600300948E+04  0.80059657743E+02 0.  0.
        -15    1    3    3    0    0  0.65460595792E+02 -0.77226047139E+02  0.20316174760E+03  0.22698821037E+03  0.00000000000E+00 0.  1.
        -15    1    4    4    0    0 -0.25108773202E+03  0.20075769266E+03  0.20990137617E+03  0.38393656775E+03  0.00000000000E+00 0.  1.
         15    1    3    3    0    0  0.47748932895E+03 -0.26422597652E+03  0.26095336104E+03  0.60490336630E+03  0.00000000000E+00 0. -1.
         15    1    3    3    0    0  0.88832800808E+02  0.84533579855E+01  0.29337613424E+02  0.93933068309E+02  0.00000000000E+00 0. -1.
        -16    1    1    2    0    0 -0.18492321844E+03 -0.15589801953E+03 -0.20338420034E+03  0.31601569923E+03  0.00000000000E+00 0.  1.
         16    1    4    4    0    0 -0.48381242156E+03  0.38291159412E+03  0.27641763548E+03  0.67609352709E+03  0.00000000000E+00 0. -1.
    9900018    1    3    3    0    0  0.28804064649E+03 -0.94772601569E+02 -0.17978952391E+03  0.36412732847E+03  0.91187600000E+02 0.  0.
<mgrwt>
<rscale>  0 0.25983870E+04</rscale>
<asrwt>0</asrwt>
<pdfrwt beam="1">  1        2 0.25096891E+00 0.25983870E+04</pdfrwt>
<pdfrwt beam="2">  1       -2 0.15918460E+00 0.25983870E+04</pdfrwt>
<totfact> 0.24208009E+00</totfact>
</mgrwt>
</event>
<event>
11    1  0.2902773E-010  0.2954508E+04  0.7818608E-02  0.8256842E-01
         -2   -1    0    0    0  501 -0.00000000000E+00  0.00000000000E+00  0.70685909920E+03  0.70685909920E+03  0.00000000000E+00 0. -1.
          2   -1    0    0  501    0  0.00000000000E+00 -0.00000000000E+00 -0.30872896442E+04  0.30872896442E+04  0.00000000000E+00 0.  1.
    9900016    2    1    2    0    0 -0.15823357103E+03 -0.52959609165E+03 -0.23092990882E+04  0.32368610552E+04  0.21997493786E+04 0.  0.
        -24    2    3    3    0    0 -0.51546473882E+03 -0.89635523880E+03 -0.79780005154E+03  0.13084713911E+04  0.80348291121E+02 0.  0.
        -15    1    3    3    0    0  0.16798898205E+03  0.72471149998E+02 -0.33290913355E+03  0.37986952612E+03  0.00000000000E+00 0.  1.
        -15    1    3    3    0    0 -0.44641854821E+02  0.32057574655E+03 -0.60019678882E+03  0.68190753757E+03  0.00000000000E+00 0.  1.
         15    1    3    3    0    0  0.17947112764E+03  0.26339741781E+03 -0.39549463984E+03  0.50794103546E+03  0.00000000000E+00 0. -1.
         15    1    4    4    0    0 -0.39935732256E+03 -0.75483351705E+03 -0.65018376308E+03  0.10733120866E+04  0.00000000000E+00 0. -1.
        -16    1    4    4    0    0 -0.11610741626E+03 -0.14152172175E+03 -0.14761628846E+03  0.23515930442E+03  0.00000000000E+00 0.  1.
         16    1    1    2    0    0  0.15823357103E+03  0.52959609165E+03 -0.71131456811E+02  0.55728768822E+03  0.00000000000E+00 0. -1.
    9900018    1    3    3    0    0  0.54412912921E+02 -0.28968516721E+03 -0.18289847447E+03  0.35867156502E+03  0.91187600000E+02 0.  0.
<mgrwt>
<rscale>  0 0.29545076E+04</rscale>
<asrwt>0</asrwt>
<pdfrwt beam="1">  1        2 0.47496764E+00 0.29545076E+04</pdfrwt>
<pdfrwt beam="2">  1       -2 0.10874755E+00 0.29545076E+04</pdfrwt>
<totfact> 0.88934291E-01</totfact>
</mgrwt>
</event>
<event>
12    1  0.2902773E-010  0.2988257E+04  0.7818608E-02  0.8247092E-01
         -2   -1    0    0    0  501 -0.00000000000E+00  0.00000000000E+00  0.14033709100E+04  0.14033709100E+04  0.00000000000E+00 0.  1.
          2   -1    0    0  501    0  0.00000000000E+00 -0.00000000000E+00 -0.15907550560E+04  0.15907550560E+04  0.00000000000E+00 0. -1.
    9900016    2    1    2    0    0  0.42875267227E+03  0.53532769097E+03 -0.12313720083E+03  0.23052629458E+04  0.21974234658E+04 0.  0.
         23    2    3    3    0    0  0.24699283521E+03  0.86659312980E+01 -0.50572424687E+02  0.27294011640E+03  0.10420258150E+03 0.  0.
        -24    2    3    3    0    0 -0.32428327358E+03 -0.59004468385E+03 -0.27584752243E+03  0.73222190201E+03  0.82126047617E+02 0.  0.
        -15    1    3    3    0    0  0.53660558097E+03  0.92606843250E+03  0.15925900303E+03  0.10820867439E+04  0.00000000000E+00 0.  1.
        -15    1    4    4    0    0  0.13253564204E+03  0.13053543345E+02 -0.79104454034E+02  0.15489869609E+03  0.00000000000E+00 0. -1.
         15    1    4    4    0    0  0.11445719318E+03 -0.43876120471E+01  0.28532029347E+02  0.11804142031E+03  0.00000000000E+00 0.  1.
         15    1    5    5    0    0 -0.16850589802E+03 -0.36300298065E+03 -0.19543033692E+03  0.44537446965E+03  0.00000000000E+00 0. -1.
        -16    1    5    5    0    0 -0.15577737556E+03 -0.22704170320E+03 -0.80417185506E+02  0.28684743236E+03  0.00000000000E+00 0.  1.
         16    1    1    2    0    0 -0.42875267227E+03 -0.53532769097E+03 -0.64246945206E+02  0.68886302025E+03  0.00000000000E+00 0. -1.
    9900018    1    3    3    0    0 -0.30562470332E+02  0.19063801102E+03  0.44023743253E+02  0.21801418349E+03  0.91187600000E+02 0.  0.
<mgrwt>
<rscale>  0 0.29882566E+04</rscale>
<asrwt>0</asrwt>
<pdfrwt beam="1">  1        2 0.24473155E+00 0.29882566E+04</pdfrwt>
<pdfrwt beam="2">  1       -2 0.21590322E+00 0.29882566E+04</pdfrwt>
<totfact> 0.10149342E+00</totfact>
</mgrwt>
</event>
<event>
12    1  0.2902773E-010  0.2890041E+04  0.7818608E-02  0.8275847E-01
         -1   -1    0    0    0  501 -0.00000000000E+00  0.00000000000E+00  0.11563746359E+04  0.11563746359E+04  0.00000000000E+00 0.  1.
          1   -1    0    0  501    0  0.00000000000E+00 -0.00000000000E+00 -0.18057165508E+04  0.18057165508E+04  0.00000000000E+00 0. -1.
    9900016    2    1    2    0    0 -0.10103470052E+01  0.23519568673E+03 -0.10929622423E+04  0.24599786229E+04  0.21912577051E+04 0.  0.
         23    2    3    3    0    0  0.19381975272E+03 -0.28569405678E+03  0.78780649596E+02  0.37001535360E+03  0.10732092306E+03 0.  0.
         24    2    3    3    0    0 -0.48902706822E+03  0.56742648256E+03 -0.24567148208E+03  0.79339459849E+03  0.89443978228E+02 0.  0.
        -15    1    5    5    0    0 -0.51539714887E+02  0.32653754762E+02 -0.29805263256E+01  0.61085951313E+02  0.00000000000E+00 0.  1.
        -15    1    4    4    0    0  0.51102183634E+02 -0.15832921830E+03  0.97571467602E+01  0.16665766245E+03  0.00000000000E+00 0.  1.
         15    1    4    4    0    0  0.14271756908E+03 -0.12736483847E+03  0.69023502836E+02  0.20335769115E+03  0.00000000000E+00 0. -1.
         15    1    3    3    0    0  0.25011378247E+03 -0.37111753990E+03 -0.19084373615E+03  0.48652488552E+03  0.00000000000E+00 0. -1.
        -16    1    1    2    0    0  0.10103470052E+01 -0.23519568673E+03  0.44362032743E+03  0.50211256384E+03  0.00000000000E+00 0.  1.
         16    1    5    5    0    0 -0.43748735333E+03  0.53477272779E+03 -0.24269095575E+03  0.73230864717E+03  0.00000000000E+00 0. -1.
    9900018    1    3    3    0    0  0.44083186026E+02  0.32458080085E+03 -0.73522767363E+03  0.81004378526E+03  0.91187600000E+02 0.  0.
<mgrwt>
<rscale>  0 0.28900414E+04</rscale>
<asrwt>0</asrwt>
<pdfrwt beam="1">  1        1 0.27780254E+00 0.28900414E+04</pdfrwt>
<pdfrwt beam="2">  1       -1 0.17790379E+00 0.28900414E+04</pdfrwt>
<totfact> 0.74746664E-01</totfact>
</mgrwt>
</event>
<event>
12    1  0.2902773E-010  0.2333641E+04  0.7818608E-02  0.8464774E-01
         -1   -1    0    0    0  501 -0.00000000000E+00  0.00000000000E+00  0.15113729706E+04  0.15113729706E+04  0.00000000000E+00 0.  1.
          1   -1    0    0  501    0  0.00000000000E+00 -0.00000000000E+00 -0.90081647088E+03  0.90081647088E+03  0.00000000000E+00 0. -1.
    9900016    2    1    2    0    0  0.66310007018E+02  0.62904890461E+02  0.47416381857E+03  0.22480035537E+04  0.21955260436E+04 0.  0.
         23    2    3    3    0    0 -0.47967525791E+02  0.69722164055E+02  0.81714350158E+02  0.16642540047E+03  0.11772049613E+03 0.  0.
         24    2    3    3    0    0  0.15155027407E+03 -0.93671432929E+03 -0.38905501428E+01  0.95223110388E+03  0.79546958100E+02 0.  0.
        -15    1    5    5    0    0  0.37613511438E+02 -0.27291373971E+03  0.34415246343E+02  0.27763482265E+03  0.00000000000E+00 0.  1.
        -15    1    4    4    0    0 -0.36761764916E+02  0.18584610834E+02  0.10221536458E+03  0.11020342951E+03  0.00000000000E+00 0.  1.
         15    1    4    4    0    0 -0.11205760875E+02  0.51137553221E+02 -0.20501014423E+02  0.56221970960E+02  0.00000000000E+00 0. -1.
         15    1    3    3    0    0  0.21467270402E+03  0.56182332182E+03  0.20369951397E+03  0.63499866676E+03  0.00000000000E+00 0. -1.
        -16    1    1    2    0    0 -0.66310007018E+02 -0.62904890461E+02  0.13639268110E+03  0.16418588774E+03  0.00000000000E+00 0.  1.
         16    1    5    5    0    0  0.11393676264E+03 -0.66380058958E+03 -0.38305796485E+02  0.67459628123E+03  0.00000000000E+00 0. -1.
    9900018    1    3    3    0    0 -0.25194544528E+03  0.36807373388E+03  0.19264050459E+03  0.49434838259E+03  0.91187600000E+02 0.  0.
<mgrwt>
<rscale>  0 0.23336406E+04</rscale>
<asrwt>0</asrwt>
<pdfrwt beam="1">  1        1 0.13858715E+00 0.23336406E+04</pdfrwt>
<pdfrwt beam="2">  1       -1 0.23251892E+00 0.23336406E+04</pdfrwt>
<totfact> 0.14872486E+00</totfact>
</mgrwt>
</event>
<event>
12    1  0.2902773E-010  0.2500722E+04  0.7818608E-02  0.8402728E-01
          1   -1    0    0  501    0  0.00000000000E+00  0.00000000000E+00  0.17306338510E+04  0.17306338510E+04  0.00000000000E+00 0. -1.
         -1   -1    0    0    0  501 -0.00000000000E+00 -0.00000000000E+00 -0.90337022733E+03  0.90337022733E+03  0.00000000000E+00 0.  1.
    9900016    2    1    2    0    0  0.16106661492E+03 -0.59926714931E+02  0.96847216464E+03  0.24115776463E+04  0.22018707375E+04 0.  0.
         23    2    3    3    0    0 -0.12870452241E+03 -0.25354600751E+03  0.20644360943E+03  0.36924243756E+03  0.11344858662E+03 0.  0.
         24    2    3    3    0    0 -0.57761966013E+03 -0.44881915040E+03  0.41639402163E+03  0.84557686925E+03  0.80827959434E+02 0.  0.
        -15    1    5    5    0    0 -0.37159578258E+03 -0.26346238831E+03  0.29720767169E+03  0.54390096138E+03  0.00000000000E+00 0.  1.
        -15    1    4    4    0    0 -0.83273066524E+02 -0.24305948938E+03  0.19092737999E+03  0.32010245768E+03  0.00000000000E+00 0.  1.
         15    1    3    3    0    0  0.80449651283E+03  0.50684031809E+03  0.36936352670E+03  0.10200642931E+04  0.00000000000E+00 0. -1.
         15    1    4    4    0    0 -0.45431455886E+02 -0.10486518136E+02  0.15516229444E+02  0.49139979881E+02  0.00000000000E+00 0. -1.
        -16    1    1    2    0    0 -0.16106661492E+03  0.59926714931E+02 -0.14120854100E+03  0.22242643201E+03  0.00000000000E+00 0.  1.
         16    1    5    5    0    0 -0.20602387755E+03 -0.18535676209E+03  0.11918634994E+03  0.30167590786E+03  0.00000000000E+00 0. -1.
    9900018    1    3    3    0    0  0.62894284633E+02  0.13559812489E+03 -0.23728993126E+02  0.17669404637E+03  0.91187600000E+02 0.  0.
<mgrwt>
<rscale>  0 0.25007224E+04</rscale>
<asrwt>0</asrwt>
<pdfrwt beam="1">  1        1 0.26625136E+00 0.25007224E+04</pdfrwt>
<pdfrwt beam="2">  1       -1 0.13898004E+00 0.25007224E+04</pdfrwt>
<totfact> 0.17238702E+00</totfact>
</mgrwt>
</event>
<event>
12    1  0.2939110E-010  0.2729468E+04  0.7818608E-02  0.8325507E-01
         -2   -1    0    0    0  501 -0.00000000000E+00  0.00000000000E+00  0.14612836177E+04  0.14612836177E+04  0.00000000000E+00 0.  1.
          2   -1    0    0  501    0  0.00000000000E+00 -0.00000000000E+00 -0.12745631963E+04  0.12745631963E+04  0.00000000000E+00 0. -1.
    9900016    2    1    2    0    0 -0.35812816934E+03 -0.13441224573E+03  0.41309932534E+03  0.22913585176E+04  0.22211146675E+04 0.  0.
         23    2    3    3    0    0  0.25293804527E+02  0.29145922278E+03 -0.21542985679E+03  0.37845456803E+03  0.10596972102E+03 0.  0.
        -24    2    3    3    0    0 -0.20736685012E+02 -0.84734536572E+03  0.56524536726E+03  0.10218214045E+04  0.78692302696E+02 0.  0.
        -15    1    3    3    0    0 -0.52370163748E+03  0.38185622394E+03 -0.80916000520E+02  0.65316535425E+03  0.00000000000E+00 0.  1.
        -15    1    4    4    0    0  0.65154252892E+02  0.19212801594E+03 -0.12463945553E+03  0.23810343352E+03  0.00000000000E+00 0. -1.
         15    1    5    5    0    0 -0.49436943188E+02 -0.47060300646E+03  0.32575467780E+03  0.57448003547E+03  0.00000000000E+00 0. -1.
         15    1    4    4    0    0 -0.39860448365E+02  0.99331206840E+02 -0.90790401263E+02  0.14035113451E+03  0.00000000000E+00 0.  1.
        -16    1    5    5    0    0  0.28700258177E+02 -0.37674235926E+03  0.23949068946E+03  0.44734136900E+03  0.00000000000E+00 0.  1.
         16    1    1    2    0    0  0.35812816934E+03  0.13441224573E+03 -0.22637890390E+03  0.44448829636E+03  0.00000000000E+00 0. -1.
    9900018    1    3    3    0    0  0.16101634863E+03  0.39617673271E+02  0.14419981539E+03  0.23791719087E+03  0.91187600000E+02 0.  0.
<mgrwt>
<rscale>  0 0.27294676E+04</rscale>
<asrwt>0</asrwt>
<pdfrwt beam="1">  1        2 0.19608665E+00 0.27294676E+04</pdfrwt>
<pdfrwt beam="2">  1       -2 0.22481286E+00 0.27294676E+04</pdfrwt>
<totfact> 0.13798188E+00</totfact>
</mgrwt>
</event>
<event>
12    1  0.2902773E-010  0.2523791E+04  0.7818608E-02  0.8394559E-01
          2   -1    0    0  501    0  0.00000000000E+00  0.00000000000E+00  0.24016093662E+04  0.24016093662E+04  0.00000000000E+00 0. -1.
         -2   -1    0    0    0  501 -0.00000000000E+00 -0.00000000000E+00 -0.66304725923E+03  0.66304725923E+03  0.00000000000E+00 0.  1.
    9900016    2    1    2    0    0  0.19553857789E+03  0.18119732673E+03  0.16563234890E+04  0.27856745526E+04  0.22238496816E+04 0.  0.
         23    2    3    3    0    0  0.28304588879E+03 -0.52755272731E+02 -0.11051160057E+02  0.29473192159E+03  0.62021637387E+02 0.  0.
         24    2    3    3    0    0  0.60050591557E+03 -0.34778263712E+03  0.64673236603E+03  0.95211634492E+03  0.81869797105E+02 0.  0.
        -15    1    4    4    0    0  0.30229588725E+02 -0.21358357819E+02 -0.15013708913E+02  0.39942695685E+02  0.00000000000E+00 0. -1.
        -15    1    5    5    0    0  0.41940648812E+03 -0.20271978868E+03  0.40874106072E+03  0.61973088492E+03  0.00000000000E+00 0.  1.
         15    1    4    4    0    0  0.25281630007E+03 -0.31396914912E+02  0.39625488563E+01  0.25478922591E+03  0.00000000000E+00 0.  1.
         15    1    3    3    0    0 -0.70097214352E+03  0.44342463511E+03  0.44829510908E+03  0.94284455656E+03  0.00000000000E+00 0. -1.
        -16    1    1    2    0    0 -0.19553857789E+03 -0.18119732673E+03  0.82238617919E+02  0.27898207279E+03  0.00000000000E+00 0.  1.
         16    1    5    5    0    0  0.18109942745E+03 -0.14506284844E+03  0.23799130531E+03  0.33238546000E+03  0.00000000000E+00 0. -1.
    9900018    1    3    3    0    0  0.12958917055E+02  0.13831060146E+03  0.57234717399E+03  0.59598172957E+03  0.91187600000E+02 0.  0.
<mgrwt>
<rscale>  0 0.25237912E+04</rscale>
<asrwt>0</asrwt>
<pdfrwt beam="1">  1        2 0.36947836E+00 0.25237912E+04</pdfrwt>
<pdfrwt beam="2">  1       -2 0.10200727E+00 0.25237912E+04</pdfrwt>
<totfact> 0.27814257E+00</totfact>
</mgrwt>
</event>
<event>
12    1  0.2902773E-010  0.2897573E+04  0.7818608E-02  0.8273600E-01
         -2   -1    0    0    0  501 -0.00000000000E+00  0.00000000000E+00  0.81038314430E+03  0.81038314430E+03  0.00000000000E+00 0.  1.
          2   -1    0    0  501    0  0.00000000000E+00 -0.00000000000E+00 -0.25901113831E+04  0.25901113831E+04  0.00000000000E+00 0. -1.
    9900016    2    1    2    0    0  0.25992120781E+03 -0.55258750704E+03 -0.14804040495E+04  0.27204158867E+04  0.21991258399E+04 0.  0.
         23    2    3    3    0    0  0.84324607219E+02 -0.25063961011E+03 -0.45979438005E+02  0.28930365767E+03  0.10794278150E+03 0.  0.
        -24    2    3    3    0    0  0.89013695827E+03  0.18797473228E+03 -0.41597571867E+03  0.10035378585E+04  0.79838151236E+02 0.  0.
        -15    1    4    4    0    0  0.65201642352E+02 -0.25567606173E+03 -0.51357043850E+02  0.26881043257E+03  0.00000000000E+00 0.  1.
        -15    1    3    3    0    0 -0.61460374386E+03 -0.44651986006E+03 -0.10357107766E+04  0.12844510735E+04  0.00000000000E+00 0.  1.
         15    1    5    5    0    0  0.59217246100E+03  0.86291297692E+02 -0.27184683157E+03  0.65727856458E+03  0.00000000000E+00 0. -1.
         15    1    4    4    0    0  0.19122964867E+02  0.50364516129E+01  0.53776058454E+01  0.20493225095E+02  0.00000000000E+00 0. -1.
        -16    1    5    5    0    0  0.29796449727E+03  0.10168343459E+03 -0.14412888710E+03  0.34625929388E+03  0.00000000000E+00 0.  1.
         16    1    1    2    0    0 -0.25992120781E+03  0.55258750704E+03 -0.29932418931E+03  0.68007864068E+03  0.00000000000E+00 0. -1.
    9900018    1    3    3    0    0 -0.99936613813E+02 -0.43402769143E+02  0.17261883794E+02  0.14312329711E+03  0.91187600000E+02 0.  0.
<mgrwt>
<rscale>  0 0.28975732E+04</rscale>
<asrwt>0</asrwt>
<pdfrwt beam="1">  1        2 0.39847868E+00 0.28975732E+04</pdfrwt>
<pdfrwt beam="2">  1       -2 0.12467433E+00 0.28975732E+04</pdfrwt>
<totfact> 0.12845926E+00</totfact>
</mgrwt>
</event>
<event>
12    1  0.2902773E-010  0.2507115E+04  0.7818608E-02  0.8400455E-01
         -1   -1    0    0    0  501 -0.00000000000E+00  0.00000000000E+00  0.75218572758E+03  0.75218572758E+03  0.00000000000E+00 0.  1.
          1   -1    0    0  501    0  0.00000000000E+00 -0.00000000000E+00 -0.20891207357E+04  0.20891207357E+04  0.00000000000E+00 0. -1.
    9900016    2    1    2    0    0 -0.24532476403E+03 -0.11436906532E+03 -0.10617815593E+04  0.24553350351E+04  0.21972768447E+04 0.  0.
         23    2    3    3    0    0  0.22028728838E+03  0.44609216798E+03 -0.65642279260E+03  0.83135719678E+03  0.11286803905E+03 0.  0.
        -24    2    3    3    0    0 -0.27223653144E+03  0.24809310717E+03  0.26129256079E+03  0.45842916844E+03  0.78870661712E+02 0.  0.
        -15    1    4    4    0    0 -0.86101983079E+01  0.63884014586E+02 -0.90726196414E+02  0.11129485860E+03  0.00000000000E+00 0. -1.
        -15    1    3    3    0    0 -0.28768667716E+03 -0.75752832161E+03 -0.60802225582E+03  0.10130665555E+04  0.00000000000E+00 0.  1.
         15    1    4    4    0    0  0.22889748669E+03  0.38220815339E+03 -0.56569659618E+03  0.72006233818E+03  0.00000000000E+00 0.  1.
         15    1    5    5    0    0 -0.34076308616E+02  0.14790840968E+02  0.55015213585E+02  0.66382509077E+02  0.00000000000E+00 0. -1.
        -16    1    5    5    0    0 -0.23816022282E+03  0.23330226620E+03  0.20627734720E+03  0.39204665936E+03  0.00000000000E+00 0.  1.
         16    1    1    2    0    0  0.24532476403E+03  0.11436906532E+03 -0.27515344883E+03  0.38597142816E+03  0.00000000000E+00 0. -1.
    9900018    1    3    3    0    0  0.94311156183E+02 -0.51026018863E+02 -0.58629071655E+02  0.15248211442E+03  0.91187600000E+02 0.  0.
<mgrwt>
<rscale>  0 0.25071153E+04</rscale>
<asrwt>0</asrwt>
<pdfrwt beam="1">  1        1 0.32140319E+00 0.25071153E+04</pdfrwt>
<pdfrwt beam="2">  1       -1 0.11572088E+00 0.25071153E+04</pdfrwt>
<totfact> 0.15558726E+00</totfact>
</mgrwt>
</event>
<event>
12    1  0.2902773E-010  0.4567693E+04  0.7818608E-02  0.7898892E-01
          2   -1    0    0  501    0  0.00000000000E+00  0.00000000000E+00  0.10546730536E+04  0.10546730536E+04  0.00000000000E+00 0. -1.
         -2   -1    0    0    0  501 -0.00000000000E+00 -0.00000000000E+00 -0.49455657201E+04  0.49455657201E+04  0.00000000000E+00 0.  1.
    9900016    2    1    2    0    0  0.15992195569E+03 -0.11991959274E+04 -0.72558258795E+03  0.26116057458E+04  0.21978099499E+04 0.  0.
         23    2    3    3    0    0  0.70372082394E+01 -0.22549087778E+02 -0.94131535619E+01  0.10692910036E+03  0.10386164540E+03 0.  0.
         24    2    3    3    0    0 -0.45273024780E+03 -0.96937452645E+03 -0.10376780872E+04  0.14924705115E+04  0.77722360070E+02 0.  0.
        -15    1    4    4    0    0 -0.38510745783E+02  0.16378552958E+02  0.11613175822E+02  0.43430408592E+02  0.00000000000E+00 0.  1.
        -15    1    5    5    0    0 -0.11785074400E+03 -0.20750702351E+03 -0.19576584483E+03  0.30866199745E+03  0.00000000000E+00 0.  1.
         15    1    3    3    0    0  0.55449445016E+03 -0.41629014256E+03  0.35012933453E+03  0.77675744538E+03  0.00000000000E+00 0. -1.
         15    1    4    4    0    0  0.45547954023E+02 -0.38927640736E+02 -0.21026329383E+02  0.63498691768E+02  0.00000000000E+00 0. -1.
        -16    1    1    2    0    0 -0.15992195569E+03  0.11991959274E+04 -0.31653100786E+04  0.33886330279E+04  0.00000000000E+00 0.  1.
         16    1    5    5    0    0 -0.33487950380E+03 -0.76186750294E+03 -0.84191224234E+03  0.11838085140E+04  0.00000000000E+00 0. -1.
    9900018    1    3    3    0    0  0.51120545092E+02  0.20901782944E+03 -0.28620681751E+02  0.23544868862E+03  0.91187600000E+02 0.  0.
<mgrwt>
<rscale>  0 0.45676930E+04</rscale>
<asrwt>0</asrwt>
<pdfrwt beam="1">  1        2 0.16225739E+00 0.45676930E+04</pdfrwt>
<pdfrwt beam="2">  1       -2 0.76085626E+00 0.45676930E+04</pdfrwt>
<totfact> 0.22416071E-03</totfact>
</mgrwt>
</event>
<event>
12    1  0.2902773E-010  0.2744941E+04  0.7818608E-02  0.8320569E-01
         -4   -1    0    0    0  501 -0.00000000000E+00  0.00000000000E+00  0.21866957228E+04  0.21866957228E+04  0.00000000000E+00 0.  1.
          4   -1    0    0  501    0  0.00000000000E+00 -0.00000000000E+00 -0.86142560608E+03  0.86142560608E+03  0.00000000000E+00 0. -1.
    9900016    2    1    2    0    0  0.25499716437E+03 -0.22620935998E+03  0.68355598999E+03  0.23214912656E+04  0.21922314377E+04 0.  0.
         23    2    3    3    0    0 -0.38845200199E+03 -0.10146100296E+03 -0.45524544963E+02  0.42162236363E+03  0.12043106058E+03 0.  0.
         24    2    3    3    0    0  0.18550376981E+03  0.45058012550E+03 -0.19804819526E+03  0.53203232399E+03  0.80007549765E+02 0.  0.
        -15    1    5    5    0    0  0.75475547767E+02  0.97638505143E+02 -0.37492065642E+02  0.12897864545E+03  0.00000000000E+00 0.  1.
        -15    1    4    4    0    0 -0.25335116442E+03 -0.54912723884E+01 -0.29941924900E+02  0.25517344190E+03  0.00000000000E+00 0. -1.
         15    1    3    3    0    0  0.23906274745E+03 -0.68015288981E+03  0.80691227115E+03  0.10820657855E+04  0.00000000000E+00 0. -1.
         15    1    4    4    0    0 -0.13510083757E+03 -0.95969730572E+02 -0.15582620063E+02  0.16644892173E+03  0.00000000000E+00 0.  1.
        -16    1    1    2    0    0 -0.25499716437E+03  0.22620935998E+03  0.64171412672E+03  0.72663006324E+03  0.00000000000E+00 0.  1.
         16    1    5    5    0    0  0.11002822204E+03  0.35294162035E+03 -0.16055612962E+03  0.40305367854E+03  0.00000000000E+00 0. -1.
    9900018    1    3    3    0    0  0.21888264910E+03  0.10482440729E+03  0.12021645906E+03  0.28577079253E+03  0.91187600000E+02 0.  0.
<mgrwt>
<rscale>  0 0.27449413E+04</rscale>
<asrwt>0</asrwt>
<pdfrwt beam="1">  1        4 0.13252702E+00 0.27449413E+04</pdfrwt>
<pdfrwt beam="2">  1       -4 0.33641472E+00 0.27449413E+04</pdfrwt>
<totfact> 0.13013321E-02</totfact>
</mgrwt>
</event>
<event>
12    1  0.2902773E-010  0.3285337E+04  0.7818608E-02  0.8166637E-01
          2   -1    0    0  501    0  0.00000000000E+00  0.00000000000E+00  0.31993679080E+04  0.31993679080E+04  0.00000000000E+00 0.  1.
         -2   -1    0    0    0  501 -0.00000000000E+00 -0.00000000000E+00 -0.84340382558E+03  0.84340382558E+03  0.00000000000E+00 0. -1.
    9900016    2    1    2    0    0  0.47699818910E+03 -0.48668893806E+03  0.97373159543E+03  0.25016811967E+04  0.22013319139E+04 0.  0.
         23    2    3    3    0    0  0.41583815740E+03  0.19204299416E+03  0.72100210116E+03  0.86167208127E+03  0.11328221837E+03 0.  0.
        -24    2    3    3    0    0 -0.64367825986E+03 -0.40258393639E+03 -0.51136324267E+02  0.76571743363E+03  0.85514539348E+02 0.  0.
        -15    1    4    4    0    0  0.18131847274E+03  0.92968883690E+02  0.42446894747E+03  0.47084338082E+03  0.00000000000E+00 0. -1.
        -15    1    3    3    0    0  0.63515833934E+03 -0.20648281753E+03  0.18019673997E+03  0.69176017164E+03  0.00000000000E+00 0.  1.
         15    1    5    5    0    0 -0.10281843929E+03 -0.95164701789E+02 -0.29774089552E+02  0.14322865751E+03  0.00000000000E+00 0. -1.
         15    1    4    4    0    0  0.23451968465E+03  0.99074110473E+02  0.29653315369E+03  0.39082870045E+03  0.00000000000E+00 0.  1.
        -16    1    5    5    0    0 -0.54085982058E+03 -0.30741923461E+03 -0.21362234715E+02  0.62248877612E+03  0.00000000000E+00 0.  1.
         16    1    1    2    0    0 -0.47699818910E+03  0.48668893806E+03  0.13822324869E+04  0.15410905369E+04  0.00000000000E+00 0. -1.
    9900018    1    3    3    0    0  0.69679952219E+02 -0.69665178300E+02  0.12366907856E+03  0.18253151014E+03  0.91187600000E+02 0.  0.
<mgrwt>
<rscale>  0 0.32853366E+04</rscale>
<asrwt>0</asrwt>
<pdfrwt beam="1">  1        2 0.49221044E+00 0.32853366E+04</pdfrwt>
<pdfrwt beam="2">  1       -2 0.12975444E+00 0.32853366E+04</pdfrwt>
<totfact> 0.47317924E-01</totfact>
</mgrwt>
</event>
<event>
12    1  0.2902773E-010  0.2646172E+04  0.7818608E-02  0.8352685E-01
         -1   -1    0    0    0  501 -0.00000000000E+00  0.00000000000E+00  0.12258287900E+04  0.12258287900E+04  0.00000000000E+00 0.  1.
          1   -1    0    0  501    0  0.00000000000E+00 -0.00000000000E+00 -0.14280592585E+04  0.14280592585E+04  0.00000000000E+00 0. -1.
    9900016    2    1    2    0    0  0.69614843255E+02  0.31974346007E+03  0.89287513498E+02  0.22156360200E+04  0.21895178936E+04 0.  0.
         23    2    3    3    0    0  0.11381800074E+03  0.14316611422E+03 -0.17469077097E+02  0.21187674873E+03  0.10552494703E+03 0.  0.
        -24    2    3    3    0    0  0.71105603621E+03 -0.19440569015E+02 -0.58883771006E+03  0.92671535761E+03  0.78056920820E+02 0.  0.
        -15    1    3    3    0    0 -0.46850162316E+03  0.19640899474E+03  0.34032110672E+03  0.61146440599E+03  0.00000000000E+00 0.  1.
        -15    1    4    4    0    0  0.37416382325E+02  0.39271627707E+02  0.43212675946E+02  0.69351148307E+02  0.00000000000E+00 0.  1.
         15    1    5    5    0    0  0.50229734734E+03 -0.40415640117E+02 -0.44555805417E+03  0.67265000464E+03  0.00000000000E+00 0. -1.
         15    1    4    4    0    0  0.76401618416E+02  0.10389448651E+03 -0.60681753043E+02  0.14252560043E+03  0.00000000000E+00 0. -1.
        -16    1    5    5    0    0  0.20875868887E+03  0.20975071102E+02 -0.14327965590E+03  0.25406535297E+03  0.00000000000E+00 0.  1.
         16    1    1    2    0    0 -0.69614843255E+02 -0.31974346007E+03 -0.29151798204E+03  0.43825202853E+03  0.00000000000E+00 0. -1.
    9900018    1    3    3    0    0 -0.28675757054E+03 -0.39107988025E+00  0.35527319394E+03  0.46557950764E+03  0.91187600000E+02 0.  0.
<mgrwt>
<rscale>  0 0.26461717E+04</rscale>
<asrwt>0</asrwt>
<pdfrwt beam="1">  1        1 0.21970142E+00 0.26461717E+04</pdfrwt>
<pdfrwt beam="2">  1       -1 0.18858905E+00 0.26461717E+04</pdfrwt>
<totfact> 0.11644714E+00</totfact>
</mgrwt>
</event>
<event>
11    1  0.2902773E-010  0.2638035E+04  0.7818608E-02  0.8355395E-01
         -2   -1    0    0    0  501 -0.00000000000E+00  0.00000000000E+00  0.94735226353E+03  0.94735226353E+03  0.00000000000E+00 0.  1.
          2   -1    0    0  501    0  0.00000000000E+00 -0.00000000000E+00 -0.18364940456E+04  0.18364940456E+04  0.00000000000E+00 0. -1.
    9900016    2    1    2    0    0  0.35587023000E+03  0.30515047631E+02 -0.93346891176E+03  0.24239300922E+04  0.22082794420E+04 0.  0.
         24    2    3    3    0    0 -0.47529363263E+03 -0.12948081942E+03 -0.55075470295E+03  0.74334736789E+03  0.81026210064E+02 0.  0.
        -15    1    3    3    0    0  0.13789712918E+02 -0.25647039595E+02 -0.82793804472E+02  0.87765260105E+02  0.00000000000E+00 0.  1.
        -15    1    4    4    0    0 -0.29846156624E+03 -0.94938366475E+02 -0.29315310423E+03  0.42898874399E+03  0.00000000000E+00 0.  1.
         15    1    3    3    0    0  0.84180406101E+03 -0.22252955822E+03 -0.30170635360E+03  0.92150974234E+03  0.00000000000E+00 0. -1.
         15    1    3    3    0    0  0.18521468840E+03  0.48715594902E+02 -0.12275311660E+03  0.22747751015E+03  0.00000000000E+00 0. -1.
        -16    1    1    2    0    0 -0.35587023000E+03 -0.30515047631E+02  0.44327129710E+02  0.35991621687E+03  0.00000000000E+00 0.  1.
         16    1    4    4    0    0 -0.17683206639E+03 -0.34542452945E+02 -0.25760159872E+03  0.31435862391E+03  0.00000000000E+00 0. -1.
    9900018    1    3    3    0    0 -0.20964459970E+03  0.35945686997E+03  0.12453906586E+03  0.44383021176E+03  0.91187600000E+02 0.  0.
<mgrwt>
<rscale>  0 0.26380347E+04</rscale>
<asrwt>0</asrwt>
<pdfrwt beam="1">  1        2 0.28253754E+00 0.26380347E+04</pdfrwt>
<pdfrwt beam="2">  1       -2 0.14574650E+00 0.26380347E+04</pdfrwt>
<totfact> 0.23479615E+00</totfact>
</mgrwt>
</event>
<event>
12    1  0.2902773E-010  0.2823041E+04  0.7818608E-02  0.8296151E-01
         -2   -1    0    0    0  501 -0.00000000000E+00  0.00000000000E+00  0.16309038186E+04  0.16309038186E+04  0.00000000000E+00 0. -1.
          2   -1    0    0  501    0  0.00000000000E+00 -0.00000000000E+00 -0.12216476507E+04  0.12216476507E+04  0.00000000000E+00 0.  1.
    9900016    2    1    2    0    0  0.27008694211E+03  0.47902309892E+03  0.18843777229E+03  0.22599547688E+04  0.21839131570E+04 0.  0.
         23    2    3    3    0    0 -0.43756977116E+01 -0.52685989917E+03 -0.21563126180E+02  0.53199295769E+03  0.70363616543E+02 0.  0.
        -24    2    3    3    0    0  0.65074085722E+03  0.48130002190E+03  0.54121135363E+02  0.81496053213E+03  0.78218906317E+02 0.  0.
        -15    1    4    4    0    0  0.30282839515E+01 -0.51470924757E+03 -0.29749733390E+02  0.51557717819E+03  0.00000000000E+00 0.  1.
        -15    1    3    3    0    0 -0.47730960744E+03  0.51142023936E+03  0.25450476348E+03  0.74441104050E+03  0.00000000000E+00 0.  1.
         15    1    4    4    0    0 -0.74039816631E+01 -0.12150651606E+02  0.81866072098E+01  0.16415779498E+02  0.00000000000E+00 0. -1.
         15    1    5    5    0    0  0.35301813278E+03  0.28430575114E+03 -0.38802762915E+01  0.45328425821E+03  0.00000000000E+00 0. -1.
        -16    1    5    5    0    0  0.29772272444E+03  0.19699427076E+03  0.58001411654E+02  0.36167627392E+03  0.00000000000E+00 0.  1.
         16    1    1    2    0    0 -0.27008694211E+03 -0.47902309892E+03  0.22081839564E+03  0.59259670050E+03  0.00000000000E+00 0. -1.
    9900018    1    3    3    0    0  0.10103139004E+03  0.13162736827E+02 -0.98625000374E+02  0.16859023847E+03  0.91187600000E+02 0.  0.
<mgrwt>
<rscale>  0 0.28230408E+04</rscale>
<asrwt>0</asrwt>
<pdfrwt beam="1">  1        2 0.18794579E+00 0.28230408E+04</pdfrwt>
<pdfrwt beam="2">  1       -2 0.25090828E+00 0.28230408E+04</pdfrwt>
<totfact> 0.10130145E+00</totfact>
</mgrwt>
</event>
<event>
11    1  0.2902773E-010  0.3700565E+04  0.7818608E-02  0.8067837E-01
          2   -1    0    0  501    0  0.00000000000E+00  0.00000000000E+00  0.36755205980E+04  0.36755205980E+04  0.00000000000E+00 0. -1.
         -2   -1    0    0    0  501 -0.00000000000E+00 -0.00000000000E+00 -0.93144491491E+03  0.93144491491E+03  0.00000000000E+00 0.  1.
    9900016    2    1    2    0    0 -0.19879180270E+03  0.89227884447E+03  0.28165488393E+04  0.36899420261E+04  0.22016005711E+04 0.  0.
         24    2    3    3    0    0 -0.28601359782E+03 -0.39204841732E+03  0.11898809936E+03  0.50611288158E+03  0.80537826262E+02 0.  0.
        -15    1    3    3    0    0 -0.14780649117E+03  0.94313484950E+02  0.19703650802E+03  0.26375211425E+03  0.00000000000E+00 0.  1.
        -15    1    4    4    0    0 -0.11563371379E+03 -0.15449177808E+03  0.71351018399E+01  0.19310560566E+03  0.00000000000E+00 0.  1.
         15    1    3    3    0    0  0.20625130328E+03  0.94496745347E+03  0.18490062869E+04  0.20867025033E+04  0.00000000000E+00 0. -1.
         15    1    3    3    0    0 -0.12844684306E+03  0.86645698881E+02  0.55064967939E+03  0.57203246240E+03  0.00000000000E+00 0. -1.
        -16    1    1    2    0    0  0.19879180270E+03 -0.89227884447E+03 -0.72473156163E+02  0.91702348687E+03  0.00000000000E+00 0.  1.
         16    1    4    4    0    0 -0.17037988402E+03 -0.23755663924E+03  0.11185299752E+03  0.31300727592E+03  0.00000000000E+00 0. -1.
    9900018    1    3    3    0    0  0.15722382607E+03  0.15840062448E+03  0.10086826566E+03  0.26134206460E+03  0.91187600000E+02 0.  0.
<mgrwt>
<rscale>  0 0.37005648E+04</rscale>
<asrwt>0</asrwt>
<pdfrwt beam="1">  1        2 0.56546470E+00 0.37005648E+04</pdfrwt>
<pdfrwt beam="2">  1       -2 0.14329922E+00 0.37005648E+04</pdfrwt>
<totfact> 0.16586998E-01</totfact>
</mgrwt>
</event>
<event>
11    1  0.2902773E-010  0.2471629E+04  0.7818608E-02  0.8413163E-01
          1   -1    0    0  501    0  0.00000000000E+00  0.00000000000E+00  0.34116393933E+04  0.34116393933E+04  0.00000000000E+00 0. -1.
         -1   -1    0    0    0  501 -0.00000000000E+00 -0.00000000000E+00 -0.44765502206E+03  0.44765502206E+03  0.00000000000E+00 0.  1.
    9900016    2    1    2    0    0  0.86550280183E+02 -0.17021807536E+03  0.29422972813E+04  0.36671083752E+04  0.21803911116E+04 0.  0.
         24    2    3    3    0    0  0.28571592728E+03 -0.10492183687E+03 -0.15188806169E+03  0.35064543080E+03  0.85088494558E+02 0.  0.
        -15    1    4    4    0    0  0.18829525401E+03 -0.55623796006E+02 -0.53074258232E+02  0.20338629809E+03  0.00000000000E+00 0.  1.
        -15    1    3    3    0    0 -0.74133613221E+01  0.19004752504E+02  0.41871622282E+02  0.46576510135E+02  0.00000000000E+00 0. -1.
         15    1    3    3    0    0 -0.14714355280E+03  0.45189690240E+03  0.18873941302E+04  0.19463089781E+04  0.00000000000E+00 0.  1.
         15    1    3    3    0    0  0.11695057119E+03 -0.28621085239E+03  0.68486509019E+03  0.75142150614E+03  0.00000000000E+00 0. -1.
        -16    1    1    2    0    0 -0.86550280183E+02  0.17021807536E+03  0.21687089935E+02  0.19218604020E+03  0.00000000000E+00 0.  1.
         16    1    4    4    0    0  0.97420673269E+02 -0.49298040867E+02 -0.98813803453E+02  0.14725913271E+03  0.00000000000E+00 0. -1.
    9900018    1    3    3    0    0 -0.16155930417E+03 -0.24998704100E+03  0.48005450031E+03  0.57215594998E+03  0.91187600000E+02 0.  0.
<mgrwt>
<rscale>  0 0.24716290E+04</rscale>
<asrwt>0</asrwt>
<pdfrwt beam="1">  1        1 0.52486758E+00 0.24716290E+04</pdfrwt>
<pdfrwt beam="2">  1       -1 0.68870005E-01 0.24716290E+04</pdfrwt>
<totfact> 0.55721927E-01</totfact>
</mgrwt>
</event>
