<event>
12    1  0.6579860E-012  0.3247156E+04  0.7818608E-02  0.8937088E-01
          2   -1    0    0  501    0  0.00000000000E+00  0.00000000000E+00  0.22887847482E+04  0.22887847482E+04  0.00000000000E+00 0. -1.
         -2   -1    0    0    0  501 -0.00000000000E+00 -0.00000000000E+00 -0.12772929438E+04  0.12772929438E+04  0.00000000000E+00 0.  1.
         23    2    1    2    0    0 -0.56858252191E+02 -0.55281442981E+02  0.17636435280E+03  0.21324868504E+03  0.89898375683E+02 0.  0.
    9900016    2    1    2    0    0  0.36193869628E+03  0.23706054210E+03  0.18885104732E+03  0.22441759219E+04  0.21939606947E+04 0.  0.
        -24    2    4    4    0    0  0.21217785585E+03 -0.46362256150E+02 -0.99345158457E+03  0.10191876341E+04  0.68032942201E+02 0.  0.
        -15    1    4    4    0    0  0.14976084043E+03  0.28342279825E+03  0.11823026319E+04  0.12249882878E+04  0.00000000000E+00 0.  1.
        -15    1    3    3    0    0 -0.17032531164E+02 -0.60723480169E+02  0.15583659523E+03  0.16811452220E+03  0.00000000000E+00 0. -1.
         15    1    5    5    0    0  0.12402840306E+03  0.70574398401E+01 -0.51729731903E+03  0.53200504556E+03  0.00000000000E+00 0. -1.
         15    1    3    3    0    0 -0.39825721027E+02  0.54420371882E+01  0.20527757573E+02  0.45134162837E+02  0.00000000000E+00 0.  1.
        -16    1    5    5    0    0  0.88149452792E+02 -0.53419695990E+02 -0.47615426553E+03  0.48718258849E+03  0.00000000000E+00 0.  1.
         16    1    1    2    0    0  0.25967231763E+03 -0.19022251129E+03  0.29924690081E+03  0.43950315583E+03  0.00000000000E+00 0. -1.
    9900018    1    1    2    0    0 -0.56475276172E+03  0.84434121683E+01  0.34702950345E+03  0.66914992919E+03  0.91187600000E+02 0.  0.
<mgrwt>
<rscale>  0 0.14233504E+04</rscale>
<asrwt>0</asrwt>
<pdfrwt beam="1">  1        2 0.35212073E+00 0.32471564E+04</pdfrwt>
<pdfrwt beam="2">  1       -2 0.19650661E+00 0.32471564E+04</pdfrwt>
<totfact> 0.53781759E-01</totfact>
</mgrwt>
</event>
<event>
12    1  0.6579860E-012  0.4188693E+04  0.7818608E-02  0.8640322E-01
          4   -1    0    0  501    0  0.00000000000E+00  0.00000000000E+00  0.28392127758E+04  0.28392127758E+04  0.00000000000E+00 0. -1.
         -4   -1    0    0    0  501 -0.00000000000E+00 -0.00000000000E+00 -0.16874354117E+04  0.16874354117E+04  0.00000000000E+00 0.  1.
         23    2    1    2    0    0 -0.23629466445E+02  0.16175156184E+03  0.61849467507E+02  0.19847445739E+03  0.94046978484E+02 0.  0.
    9900016    2    1    2    0    0  0.93048151432E+03 -0.36485103618E+02  0.14731734782E+04  0.28105332968E+04  0.22049331745E+04 0.  0.
         24    2    4    4    0    0  0.40964859810E+03 -0.33888743900E+03  0.19619638190E+04  0.20348851186E+04  0.93801645660E+02 0.  0.
        -15    1    3    3    0    0  0.17986811375E+02  0.69062882963E+02  0.65412800285E+02  0.96809305482E+02  0.00000000000E+00 0.  1.
        -15    1    5    5    0    0  0.33792668907E+03 -0.22911767808E+03  0.15204380744E+04  0.15743002559E+04  0.00000000000E+00 0.  1.
         15    1    4    4    0    0  0.52083291622E+03  0.30240233538E+03 -0.48879034075E+03  0.77564817815E+03  0.00000000000E+00 0. -1.
         15    1    3    3    0    0 -0.41616277820E+02  0.92688678875E+02 -0.35633327780E+01  0.10166515190E+03  0.00000000000E+00 0. -1.
        -16    1    1    2    0    0 -0.95936253951E+03 -0.18718811997E+03 -0.68402582110E+03  0.11930243914E+04  0.00000000000E+00 0.  1.
         16    1    5    5    0    0  0.71721909033E+02 -0.10976976092E+03  0.44152574456E+03  0.46058486271E+03  0.00000000000E+00 0. -1.
    9900018    1    1    2    0    0  0.52510491643E+02  0.61921661752E+02  0.30078023938E+03  0.32461604200E+03  0.91187600000E+02 0.  0.
<mgrwt>
<rscale>  0 0.19294760E+04</rscale>
<asrwt>0</asrwt>
<pdfrwt beam="1">  1        4 0.43680197E+00 0.41886925E+04</pdfrwt>
<pdfrwt beam="2">  1       -4 0.25960545E+00 0.41886925E+04</pdfrwt>
<totfact> 0.30634524E-04</totfact>
</mgrwt>
</event>
<event>
12    1  0.6579860E-012  0.3108989E+04  0.7818608E-02  0.9006183E-01
          1   -1    0    0  501    0  0.00000000000E+00  0.00000000000E+00  0.13254736323E+04  0.13254736323E+04  0.00000000000E+00 0. -1.
         -1   -1    0    0    0  501 -0.00000000000E+00 -0.00000000000E+00 -0.19472266294E+04  0.19472266294E+04  0.00000000000E+00 0.  1.
         23    2    1    2    0    0 -0.20216812003E+01  0.46682084411E+02 -0.21897363432E+02  0.10637120599E+03  0.93016314366E+02 0.  0.
    9900016    2    1    2    0    0  0.13118307741E+03  0.19515318367E+03 -0.29815568505E+03  0.22024743187E+04  0.21694936154E+04 0.  0.
         24    2    4    4    0    0 -0.58122163410E+03  0.80585477327E+03 -0.66028355654E+03  0.11966843308E+04  0.94119652472E+02 0.  0.
        -15    1    5    5    0    0 -0.48263565411E+03  0.70735599725E+03 -0.53817424787E+03  0.10113956706E+04  0.00000000000E+00 0.  1.
        -15    1    3    3    0    0  0.42771463099E+02  0.28871907675E+02  0.38027988384E+01  0.51744046879E+02  0.00000000000E+00 0.  1.
         15    1    3    3    0    0 -0.44793144299E+02  0.17810176737E+02 -0.25700162271E+02  0.54627159109E+02  0.00000000000E+00 0. -1.
         15    1    4    4    0    0  0.71240471151E+03 -0.61070158961E+03  0.36212787149E+03  0.10057899879E+04  0.00000000000E+00 0. -1.
        -16    1    1    2    0    0  0.60375008618E+02 -0.43830133411E+03 -0.45761090475E+03  0.63652253793E+03  0.00000000000E+00 0.  1.
         16    1    5    5    0    0 -0.98585979981E+02  0.98498776022E+02 -0.12210930867E+03  0.18528866018E+03  0.00000000000E+00 0. -1.
    9900018    1    1    2    0    0 -0.18953640483E+03  0.19646606603E+03  0.15591095617E+03  0.32733219900E+03  0.91187600000E+02 0.  0.
<mgrwt>
<rscale>  0 0.13299022E+04</rscale>
<asrwt>0</asrwt>
<pdfrwt beam="1">  1        1 0.20391902E+00 0.31089890E+04</pdfrwt>
<pdfrwt beam="2">  1       -1 0.29957333E+00 0.31089890E+04</pdfrwt>
<totfact> 0.24220159E-01</totfact>
</mgrwt>
</event>
<event>
12    1  0.6579860E-012  0.3482718E+04  0.7818608E-02  0.8912962E-01
          1   -1    0    0  501    0  0.00000000000E+00  0.00000000000E+00  0.71216819452E+03  0.71216819452E+03  0.00000000000E+00 0. -1.
         -1   -1    0    0    0  501 -0.00000000000E+00 -0.00000000000E+00 -0.46956370424E+04  0.46956370424E+04  0.00000000000E+00 0.  1.
         23    2    1    2    0    0 -0.35786090256E+02 -0.42241797124E+02  0.11891844560E+02  0.10759461550E+03  0.91488642125E+02 0.  0.
    9900016    2    1    2    0    0 -0.10313923450E+03  0.17357721505E+02 -0.36489648050E+04  0.42390210035E+04  0.21548586792E+04 0.  0.
        -24    2    4    4    0    0  0.69249395600E+03 -0.73352198538E+03 -0.12899448716E+04  0.16386695744E+04  0.60645035962E+02 0.  0.
        -15    1    4    4    0    0 -0.79563319050E+03  0.75087970688E+03 -0.23590199334E+04  0.26003514290E+04  0.00000000000E+00 0.  1.
        -15    1    3    3    0    0  0.17500411437E+02 -0.50009866801E+02  0.82490628180E+01  0.53621807274E+02  0.00000000000E+00 0. -1.
         15    1    5    5    0    0  0.12357890913E+03 -0.16609113465E+03 -0.25814023282E+03  0.33089936777E+03  0.00000000000E+00 0. -1.
         15    1    3    3    0    0 -0.53286501693E+02  0.77680696773E+01  0.36427817419E+01  0.53972808228E+02  0.00000000000E+00 0.  1.
        -16    1    5    5    0    0  0.56891504687E+03 -0.56743085073E+03 -0.10318046388E+04  0.13077702067E+04  0.00000000000E+00 0.  1.
         16    1    1    2    0    0  0.16626557691E+03 -0.13735102609E+02  0.33385842179E+03  0.37322157080E+03  0.00000000000E+00 0. -1.
    9900018    1    1    2    0    0 -0.27340252150E+02  0.38619178228E+02 -0.68025430918E+03  0.68796804712E+03  0.91187600000E+02 0.  0.
<mgrwt>
<rscale>  0 0.14578712E+04</rscale>
<asrwt>0</asrwt>
<pdfrwt beam="1">  1        1 0.10956434E+00 0.34827181E+04</pdfrwt>
<pdfrwt beam="2">  1       -1 0.72240567E+00 0.34827181E+04</pdfrwt>
<totfact> 0.35670681E-03</totfact>
</mgrwt>
</event>
<event>
12    1  0.6579860E-012  0.5074295E+04  0.7818608E-02  0.8241624E-01
          2   -1    0    0  501    0  0.00000000000E+00  0.00000000000E+00  0.39896747767E+04  0.39896747767E+04  0.00000000000E+00 0. -1.
         -2   -1    0    0    0  501 -0.00000000000E+00 -0.00000000000E+00 -0.20779236911E+04  0.20779236911E+04  0.00000000000E+00 0.  1.
         23    2    1    2    0    0  0.61925860370E+03  0.48760671533E+01  0.49814721755E+03  0.80008095101E+03  0.92053699150E+02 0.  0.
    9900016    2    1    2    0    0  0.93947705935E+03 -0.15300540646E+04  0.45702695961E+03  0.28799040136E+04  0.22048335311E+04 0.  0.
         24    2    4    4    0    0 -0.21192893555E+03 -0.46953813280E+03 -0.74387246795E+03  0.90693943158E+03  0.61749106172E+02 0.  0.
        -15    1    3    3    0    0  0.59853823590E+03  0.36108469597E+01  0.45384620672E+03  0.75115739856E+03  0.00000000000E+00 0.  1.
        -15    1    5    5    0    0 -0.82767081521E+01 -0.64550338796E+02 -0.10639414459E+03  0.12471954193E+03  0.00000000000E+00 0.  1.
         15    1    4    4    0    0  0.11514059949E+04 -0.10605159318E+04  0.12008994276E+04  0.19729645820E+04  0.00000000000E+00 0. -1.
         15    1    3    3    0    0  0.20720367795E+02  0.12652201936E+01  0.44301010831E+02  0.48923552450E+02  0.00000000000E+00 0. -1.
        -16    1    1    2    0    0 -0.10672933145E+04  0.10596790377E+04  0.63212642480E+03  0.16314467502E+04  0.00000000000E+00 0.  1.
         16    1    5    5    0    0 -0.20365222740E+03 -0.40498779400E+03 -0.63747832336E+03  0.78221988965E+03  0.00000000000E+00 0. -1.
    9900018    1    1    2    0    0 -0.49144234858E+03  0.46549895975E+03  0.32445048364E+03  0.75616675293E+03  0.91187600000E+02 0.  0.
<mgrwt>
<rscale>  0 0.30073889E+04</rscale>
<asrwt>0</asrwt>
<pdfrwt beam="1">  1        2 0.61379612E+00 0.50742945E+04</pdfrwt>
<pdfrwt beam="2">  1       -2 0.31968057E+00 0.50742945E+04</pdfrwt>
<totfact> 0.58989555E-03</totfact>
</mgrwt>
</event>
<event>
12    1  0.6579860E-012  0.3791247E+04  0.7818608E-02  0.8783444E-01
          1   -1    0    0  501    0  0.00000000000E+00  0.00000000000E+00  0.12675211340E+04  0.12675211340E+04  0.00000000000E+00 0. -1.
         -1   -1    0    0    0  501 -0.00000000000E+00 -0.00000000000E+00 -0.30850006063E+04  0.30850006063E+04  0.00000000000E+00 0.  1.
         23    2    1    2    0    0  0.17442595948E+02  0.10520119566E+03 -0.16618643811E+03  0.21726835045E+03  0.90642529606E+02 0.  0.
    9900016    2    1    2    0    0 -0.52798414763E+03  0.96963158615E+01 -0.86252034731E+03  0.24134046552E+04  0.21912825928E+04 0.  0.
         24    2    4    4    0    0 -0.97406437626E+03 -0.84155713212E+03 -0.54899032266E+03  0.14025035327E+04  0.92768363070E+02 0.  0.
        -15    1    5    5    0    0 -0.55657872076E+03 -0.42477750030E+03 -0.31780757777E+03  0.76890666121E+03  0.00000000000E+00 0.  1.
        -15    1    3    3    0    0  0.54726118233E+02  0.58110490896E+02 -0.98197015657E+02  0.12654813730E+03  0.00000000000E+00 0.  1.
         15    1    3    3    0    0 -0.37283522285E+02  0.47090704760E+02 -0.67989422456E+02  0.90720213154E+02  0.00000000000E+00 0. -1.
         15    1    4    4    0    0  0.44608022863E+03  0.85125344798E+03 -0.31353002464E+03  0.10109011225E+04  0.00000000000E+00 0. -1.
        -16    1    1    2    0    0  0.47700718142E+03 -0.27188740580E+03 -0.11732362452E+04  0.12953539669E+04  0.00000000000E+00 0.  1.
         16    1    5    5    0    0 -0.41748565550E+03 -0.41677963182E+03 -0.23118274489E+03  0.63359687151E+03  0.00000000000E+00 0. -1.
    9900018    1    1    2    0    0  0.33534370268E+02  0.15698989429E+03  0.38446355829E+03  0.42649476778E+03  0.91187600000E+02 0.  0.
<mgrwt>
<rscale>  0 0.16618208E+04</rscale>
<asrwt>0</asrwt>
<pdfrwt beam="1">  1        1 0.19500325E+00 0.37912467E+04</pdfrwt>
<pdfrwt beam="2">  1       -1 0.47461548E+00 0.37912467E+04</pdfrwt>
<totfact> 0.16595814E-02</totfact>
</mgrwt>
</event>
<event>
11    1  0.6579860E-012  0.3725494E+04  0.7818608E-02  0.8745381E-01
         -4   -1    0    0    0  501 -0.00000000000E+00  0.00000000000E+00  0.25203774751E+04  0.25203774751E+04  0.00000000000E+00 0.  1.
          4   -1    0    0  501    0  0.00000000000E+00 -0.00000000000E+00 -0.16636295635E+04  0.16636295635E+04  0.00000000000E+00 0. -1.
         23    2    1    2    0    0 -0.62528428665E+02  0.13149085353E+03 -0.24440719345E+03  0.29918391985E+03  0.92609355526E+02 0.  0.
    9900016    2    1    2    0    0  0.49124094290E+03 -0.87209988296E+03  0.15788688525E+02  0.24110912973E+04  0.21934530064E+04 0.  0.
        -15    1    3    3    0    0 -0.18302800215E+00 -0.11931081613E+02 -0.40439713972E+02  0.42163428156E+02  0.00000000000E+00 0.  1.
        -15    1    4    4    0    0 -0.12264292680E+03  0.14286992699E+00  0.27652783977E+03  0.30250446951E+03  0.00000000000E+00 0.  1.
         15    1    3    3    0    0 -0.62345400663E+02  0.14342193515E+03 -0.20396747948E+03  0.25702049169E+03  0.00000000000E+00 0. -1.
         15    1    4    4    0    0  0.83966049170E+03 -0.70009820780E+03 -0.89552588784E+03  0.14131998647E+04  0.00000000000E+00 0. -1.
        -16    1    1    2    0    0 -0.40461958344E+03  0.76129867307E+03  0.10728945180E+04  0.13763703439E+04  0.00000000000E+00 0.  1.
         16    1    4    4    0    0 -0.22577662200E+03 -0.17214454508E+03  0.63478673659E+03  0.69538696306E+03  0.00000000000E+00 0. -1.
    9900018    1    1    2    0    0 -0.24092930800E+02 -0.20689643643E+02  0.12471898628E+02  0.97361477586E+02  0.91187600000E+02 0.  0.
<mgrwt>
<rscale>  0 0.17283094E+04</rscale>
<asrwt>0</asrwt>
<pdfrwt beam="1">  1        4 0.25594301E+00 0.37254943E+04</pdfrwt>
<pdfrwt beam="2">  1       -4 0.38775038E+00 0.37254943E+04</pdfrwt>
<totfact> 0.74681554E-04</totfact>
</mgrwt>
</event>
<event>
12    1  0.6579860E-012  0.4586250E+04  0.7818608E-02  0.8511134E-01
          2   -1    0    0  501    0  0.00000000000E+00  0.00000000000E+00  0.25284038491E+04  0.25284038491E+04  0.00000000000E+00 0. -1.
         -2   -1    0    0    0  501 -0.00000000000E+00 -0.00000000000E+00 -0.25254513688E+04  0.25254513688E+04  0.00000000000E+00 0.  1.
         23    2    1    2    0    0 -0.11355575923E+03  0.20372877953E+03  0.37659118266E+03  0.45241038195E+03  0.91945140036E+02 0.  0.
    9900016    2    1    2    0    0  0.96268925662E+02 -0.73103265151E+03  0.60783338207E+02  0.23153322271E+04  0.21939444533E+04 0.  0.
        -24    2    4    4    0    0 -0.10384119412E+04 -0.45337271798E+03 -0.84260141986E+02  0.11382029567E+04  0.67527905308E+02 0.  0.
        -15    1    3    3    0    0 -0.17791998715E+02  0.36496212145E+02  0.14779046867E+03  0.15326627597E+03  0.00000000000E+00 0. -1.
        -15    1    4    4    0    0  0.11346808669E+04 -0.27765993352E+03  0.14504348019E+03  0.11771292705E+04  0.00000000000E+00 0.  1.
         15    1    5    5    0    0 -0.81245090268E+03 -0.34893821539E+03 -0.38120091693E+02  0.88503530371E+03  0.00000000000E+00 0. -1.
         15    1    3    3    0    0 -0.95763760516E+02  0.16723256738E+03  0.22880071399E+03  0.29914410598E+03  0.00000000000E+00 0.  1.
        -16    1    5    5    0    0 -0.22596103852E+03 -0.10443450260E+03 -0.46140050292E+02  0.25316765295E+03  0.00000000000E+00 0.  1.
         16    1    1    2    0    0  0.37233424458E+03  0.13181761098E+04 -0.20764596993E+03  0.13854017089E+04  0.00000000000E+00 0. -1.
    9900018    1    1    2    0    0 -0.35504741101E+03 -0.79087223785E+03 -0.22677607061E+03  0.90071089993E+03  0.91187600000E+02 0.  0.
<mgrwt>
<rscale>  0 0.22176097E+04</rscale>
<asrwt>0</asrwt>
<pdfrwt beam="1">  1        2 0.38898520E+00 0.45862500E+04</pdfrwt>
<pdfrwt beam="2">  1       -2 0.38853098E+00 0.45862500E+04</pdfrwt>
<totfact> 0.21858466E-02</totfact>
</mgrwt>
</event>
<event>
12    1  0.6579860E-012  0.3689834E+04  0.7818608E-02  0.8899002E-01
          3   -1    0    0  501    0  0.00000000000E+00  0.00000000000E+00  0.25496193355E+04  0.25496193355E+04  0.00000000000E+00 0. -1.
         -3   -1    0    0    0  501 -0.00000000000E+00 -0.00000000000E+00 -0.14062936238E+04  0.14062936238E+04  0.00000000000E+00 0.  1.
         23    2    1    2    0    0  0.32568265866E+01  0.35907546675E+02  0.50482620978E+02  0.10764311625E+03  0.87969236819E+02 0.  0.
    9900016    2    1    2    0    0  0.18796650736E+03  0.41804954493E+03  0.14125125359E+03  0.22827494176E+04  0.22317921402E+04 0.  0.
        -24    2    4    4    0    0  0.47596215111E+02  0.13404456061E+04  0.13787688265E+03  0.13497276070E+04  0.60784501108E+02 0.  0.
        -15    1    3    3    0    0  0.25542249387E+02 -0.80656070688E+01 -0.10897174976E+02  0.28917277597E+02  0.00000000000E+00 0. -1.
        -15    1    4    4    0    0  0.14037029225E+03 -0.92239606121E+03  0.33743709382E+01  0.93302181061E+03  0.00000000000E+00 0.  1.
         15    1    3    3    0    0 -0.22285422800E+02  0.43973153744E+02  0.61379795954E+02  0.78725838649E+02  0.00000000000E+00 0.  1.
         15    1    5    5    0    0  0.12164369432E+02  0.33417401708E+03  0.80029036197E+01  0.33449109411E+03  0.00000000000E+00 0. -1.
        -16    1    5    5    0    0  0.35431845679E+02  0.10062715891E+04  0.12987397903E+03  0.10152365129E+04  0.00000000000E+00 0.  1.
         16    1    1    2    0    0 -0.47763307703E+02 -0.66007389722E+03  0.10819035552E+04  0.12682642415E+04  0.00000000000E+00 0. -1.
    9900018    1    1    2    0    0 -0.14346002625E+03  0.20611680562E+03 -0.13031171804E+03  0.29725618403E+03  0.91187600000E+02 0.  0.
<mgrwt>
<rscale>  0 0.14783165E+04</rscale>
<asrwt>0</asrwt>
<pdfrwt beam="1">  1        3 0.39224913E+00 0.36898340E+04</pdfrwt>
<pdfrwt beam="2">  1       -3 0.21635286E+00 0.36898340E+04</pdfrwt>
<totfact> 0.29467090E-03</totfact>
</mgrwt>
</event>
<event>
11    1  0.6579860E-012  0.3275957E+04  0.7818608E-02  0.8893447E-01
          2   -1    0    0  501    0  0.00000000000E+00  0.00000000000E+00  0.28815885034E+04  0.28815885034E+04  0.00000000000E+00 0. -1.
         -2   -1    0    0    0  501 -0.00000000000E+00 -0.00000000000E+00 -0.10597802182E+04  0.10597802182E+04  0.00000000000E+00 0.  1.
         23    2    1    2    0    0  0.38852643480E+02  0.98767487745E+02  0.29711486185E+03  0.32797951911E+03  0.89603455763E+02 0.  0.
    9900016    2    1    2    0    0  0.12314889492E+03  0.35570635454E+03  0.13979999779E+04  0.26300952607E+04  0.21957469073E+04 0.  0.
        -15    1    4    4    0    0 -0.90305533737E+02 -0.21148362886E+03  0.11054131296E+03  0.25514661779E+03  0.00000000000E+00 0.  1.
        -15    1    3    3    0    0  0.23610386582E+02  0.31005404011E+02  0.22310543837E+03  0.22648360219E+03  0.00000000000E+00 0. -1.
         15    1    4    4    0    0  0.67835822482E+03  0.10910003705E+04  0.94828414495E+03  0.15967762865E+04  0.00000000000E+00 0. -1.
         15    1    3    3    0    0  0.15242256897E+02  0.67762083734E+02  0.74009423476E+02  0.10149591692E+03  0.00000000000E+00 0.  1.
        -16    1    1    2    0    0 -0.28471001961E+03 -0.16075964673E+03 -0.29962886753E+03  0.44348722365E+03  0.00000000000E+00 0.  1.
         16    1    4    4    0    0 -0.46490379617E+03 -0.52381038705E+03  0.33917452000E+03  0.77817235642E+03  0.00000000000E+00 0. -1.
    9900018    1    1    2    0    0  0.12270848122E+03 -0.29371419556E+03  0.42632231292E+03  0.53980671811E+03  0.91187600000E+02 0.  0.
<mgrwt>
<rscale>  0 0.14865499E+04</rscale>
<asrwt>0</asrwt>
<pdfrwt beam="1">  1        2 0.44332131E+00 0.32759566E+04</pdfrwt>
<pdfrwt beam="2">  1       -2 0.16304311E+00 0.32759566E+04</pdfrwt>
<totfact> 0.40956247E-01</totfact>
</mgrwt>
</event>
<event>
11    1  0.6579860E-012  0.5157690E+04  0.7818608E-02  0.8472844E-01
          2   -1    0    0  501    0  0.00000000000E+00  0.00000000000E+00  0.29966249930E+04  0.29966249930E+04  0.00000000000E+00 0. -1.
         -2   -1    0    0    0  501 -0.00000000000E+00 -0.00000000000E+00 -0.26950178906E+04  0.26950178906E+04  0.00000000000E+00 0.  1.
         23    2    1    2    0    0  0.18627757501E+03 -0.33893230892E+02  0.48787244828E+03  0.53059021108E+03  0.87512057709E+02 0.  0.
    9900016    2    1    2    0    0 -0.22959139328E+03 -0.32083898529E+03 -0.67481076247E+03  0.23443690944E+04  0.22102142482E+04 0.  0.
        -15    1    3    3    0    0  0.99616683585E+02 -0.36063721559E+02  0.16342076119E+03  0.19475733837E+03  0.00000000000E+00 0.  1.
        -15    1    4    4    0    0  0.13158174230E+03 -0.12098860129E+04 -0.65939086556E+03  0.13841727611E+04  0.00000000000E+00 0.  1.
         15    1    3    3    0    0  0.86660891427E+02  0.21704906665E+01  0.32445168710E+03  0.33583287271E+03  0.00000000000E+00 0. -1.
         15    1    4    4    0    0 -0.19662046324E+03  0.46202542091E+03  0.43164290377E+01  0.50214114320E+03  0.00000000000E+00 0. -1.
        -16    1    4    4    0    0 -0.16455267234E+03  0.42702160668E+03 -0.19736325939E+02  0.45805519003E+03  0.00000000000E+00 0.  1.
         16    1    1    2    0    0 -0.43772695731E+03  0.31260751744E+03  0.15534081953E+04  0.16438994404E+04  0.00000000000E+00 0. -1.
    9900018    1    1    2    0    0  0.48104077558E+03  0.42124698742E+02 -0.10648627786E+04  0.11727841377E+04  0.91187600000E+02 0.  0.
<mgrwt>
<rscale>  0 0.23129202E+04</rscale>
<asrwt>0</asrwt>
<pdfrwt beam="1">  1        2 0.46101923E+00 0.51576904E+04</pdfrwt>
<pdfrwt beam="2">  1       -2 0.41461814E+00 0.51576904E+04</pdfrwt>
<totfact> 0.73484461E-03</totfact>
</mgrwt>
</event>
<event>
11    1  0.6579860E-012  0.4498204E+04  0.7818608E-02  0.8278716E-01
         -1   -1    0    0    0  501 -0.00000000000E+00  0.00000000000E+00  0.30655225358E+04  0.30655225358E+04  0.00000000000E+00 0.  1.
          1   -1    0    0  501    0  0.00000000000E+00 -0.00000000000E+00 -0.23682316922E+04  0.23682316922E+04  0.00000000000E+00 0. -1.
         23    2    1    2    0    0  0.69097202910E+03  0.29398077359E+03  0.54629726861E+03  0.93301630025E+03  0.90618268583E+02 0.  0.
    9900016    2    1    2    0    0  0.19891922786E+03  0.10367286539E+04  0.41363095090E+03  0.24764283888E+04  0.22016429865E+04 0.  0.
        -15    1    3    3    0    0  0.61717257465E+02  0.36445577854E+02  0.85960967365E+02  0.11192224053E+03  0.00000000000E+00 0.  1.
        -15    1    4    4    0    0  0.24612170524E+03  0.50526722491E+03  0.32135081826E+03  0.64740807128E+03  0.00000000000E+00 0.  1.
         15    1    4    4    0    0 -0.48155251550E+03 -0.20128956365E+03 -0.55298709445E+03  0.76039794861E+03  0.00000000000E+00 0. -1.
         15    1    3    3    0    0  0.62925477164E+03  0.25753519573E+03  0.46033630124E+03  0.82109405972E+03  0.00000000000E+00 0. -1.
        -16    1    1    2    0    0 -0.54445031452E+03 -0.13349173070E+04 -0.57267137023E+03  0.15512520297E+04  0.00000000000E+00 0.  1.
         16    1    4    4    0    0  0.43435003811E+03  0.73275099268E+03  0.64526722710E+03  0.10686223689E+04  0.00000000000E+00 0. -1.
    9900018    1    1    2    0    0 -0.34544094244E+03  0.42078794722E+01  0.31003399432E+03  0.47305750918E+03  0.91187600000E+02 0.  0.
<mgrwt>
<rscale>  0 0.28804568E+04</rscale>
<asrwt>0</asrwt>
<pdfrwt beam="1">  1        1 0.36434334E+00 0.44982044E+04</pdfrwt>
<pdfrwt beam="2">  1       -1 0.47161885E+00 0.44982044E+04</pdfrwt>
<totfact> 0.28126297E-03</totfact>
</mgrwt>
</event>
<event>
12    1  0.6579860E-012  0.3699993E+04  0.7818608E-02  0.8749776E-01
         -2   -1    0    0    0  501 -0.00000000000E+00  0.00000000000E+00  0.13659945655E+04  0.13659945655E+04  0.00000000000E+00 0.  1.
          2   -1    0    0  501    0  0.00000000000E+00 -0.00000000000E+00 -0.30589565356E+04  0.30589565356E+04  0.00000000000E+00 0. -1.
         23    2    1    2    0    0  0.10374925241E+03  0.10475810299E+03  0.20363430161E+03  0.26718383334E+03  0.90454985973E+02 0.  0.
    9900016    2    1    2    0    0 -0.31750229031E+03  0.64106979154E+03 -0.96599524449E+03  0.25193524355E+04  0.22140938778E+04 0.  0.
        -24    2    4    4    0    0 -0.17987788810E+03  0.11164118904E+04  0.28848068527E+03  0.11707974884E+04  0.93883382101E+02 0.  0.
        -15    1    4    4    0    0 -0.13762440221E+03 -0.47534209882E+03 -0.12544759298E+04  0.13485549471E+04  0.00000000000E+00 0.  1.
        -15    1    3    3    0    0  0.59997963588E+02  0.30016610648E+02  0.15251287347E+03  0.16661611304E+03  0.00000000000E+00 0.  1.
         15    1    3    3    0    0  0.43751288825E+02  0.74741492341E+02  0.51121428134E+02  0.10056772030E+03  0.00000000000E+00 0. -1.
         15    1    5    5    0    0 -0.16852786328E+03  0.82899494141E+03  0.23765878029E+03  0.87870128566E+03  0.00000000000E+00 0. -1.
        -16    1    5    5    0    0 -0.11350024821E+02  0.28741694895E+03  0.50821904979E+02  0.29209620270E+03  0.00000000000E+00 0.  1.
         16    1    1    2    0    0 -0.36631288227E+02 -0.72103897610E+03 -0.56401905059E+02  0.72416864833E+03  0.00000000000E+00 0. -1.
    9900018    1    1    2    0    0  0.25038432612E+03 -0.24788918426E+02 -0.87419912222E+03  0.91424618398E+03  0.91187600000E+02 0.  0.
<mgrwt>
<rscale>  0 0.17204672E+04</rscale>
<asrwt>0</asrwt>
<pdfrwt beam="1">  1        2 0.47060869E+00 0.36999934E+04</pdfrwt>
<pdfrwt beam="2">  1       -2 0.21015301E+00 0.36999934E+04</pdfrwt>
<totfact> 0.14551502E-01</totfact>
</mgrwt>
</event>
<event>
12    1  0.6579860E-012  0.3855980E+04  0.7818608E-02  0.8623066E-01
          2   -1    0    0  501    0  0.00000000000E+00  0.00000000000E+00  0.26317485407E+04  0.26317485407E+04  0.00000000000E+00 0. -1.
         -2   -1    0    0    0  501 -0.00000000000E+00 -0.00000000000E+00 -0.19644937548E+04  0.19644937548E+04  0.00000000000E+00 0.  1.
         23    2    1    2    0    0 -0.13387175703E+03  0.20348350327E+03 -0.50325497627E+03  0.56651869038E+03  0.91382011252E+02 0.  0.
    9900016    2    1    2    0    0  0.18543084129E+03  0.13298787646E+03  0.14940273050E+04  0.26727410202E+04  0.22043948378E+04 0.  0.
         24    2    4    4    0    0 -0.49610299999E+03  0.82098642832E+03  0.92828553770E+02  0.96945351519E+03  0.10529043465E+03 0.  0.
        -15    1    5    5    0    0 -0.76757455055E+02  0.71017780175E+02  0.25103605691E+02  0.10754265678E+03  0.00000000000E+00 0.  1.
        -15    1    3    3    0    0 -0.10164044201E+03  0.80801755056E+02 -0.30052984486E+03  0.32738034566E+03  0.00000000000E+00 0. -1.
         15    1    4    4    0    0  0.68153384128E+03 -0.68799855186E+03  0.14011987513E+04  0.17032875050E+04  0.00000000000E+00 0. -1.
         15    1    3    3    0    0 -0.32231315020E+02  0.12268174821E+03 -0.20272513141E+03  0.23913834473E+03  0.00000000000E+00 0.  1.
        -16    1    1    2    0    0 -0.86553150549E+02 -0.29071929617E+03 -0.80673407233E+03  0.86187529289E+03  0.00000000000E+00 0.  1.
         16    1    5    5    0    0 -0.41934554494E+03  0.74996864815E+03  0.67724948078E+02  0.86191085842E+03  0.00000000000E+00 0. -1.
    9900018    1    1    2    0    0  0.34994066292E+02 -0.45752083562E+02  0.48321652951E+03  0.49510729202E+03  0.91187600000E+02 0.  0.
<mgrwt>
<rscale>  0 0.19652005E+04</rscale>
<asrwt>0</asrwt>
<pdfrwt beam="1">  1        2 0.40488439E+00 0.38559797E+04</pdfrwt>
<pdfrwt beam="2">  1       -2 0.30222981E+00 0.38559797E+04</pdfrwt>
<totfact> 0.69919005E-02</totfact>
</mgrwt>
</event>
<event>
12    1  0.6579860E-012  0.5543134E+04  0.7818608E-02  0.8213219E-01
         -2   -1    0    0    0  501 -0.00000000000E+00  0.00000000000E+00  0.28466821511E+04  0.28466821511E+04  0.00000000000E+00 0.  1.
          2   -1    0    0  501    0  0.00000000000E+00 -0.00000000000E+00 -0.36241576840E+04  0.36241576840E+04  0.00000000000E+00 0. -1.
         23    2    1    2    0    0 -0.46871319435E+03 -0.27334573252E+03  0.54368944346E+03  0.77243547258E+03  0.81537723335E+02 0.  0.
    9900016    2    1    2    0    0  0.77117281815E+03  0.83234216355E+03  0.62878504816E+03  0.25201906592E+04  0.21606687227E+04 0.  0.
        -24    2    4    4    0    0  0.14998413952E+04  0.58071472765E+03  0.15925848073E+03  0.16175670061E+04  0.66377329673E+02 0.  0.
        -15    1    4    4    0    0 -0.72866857703E+03  0.25162743591E+03  0.46952656742E+03  0.90262365312E+03  0.00000000000E+00 0.  1.
        -15    1    3    3    0    0 -0.74501148666E+02 -0.11568200800E+02  0.70210378572E+02  0.10302301530E+03  0.00000000000E+00 0.  1.
         15    1    3    3    0    0 -0.39421204569E+03 -0.26177753172E+03  0.47347906489E+03  0.66941245728E+03  0.00000000000E+00 0. -1.
         15    1    5    5    0    0  0.67205434383E+03  0.23784855445E+03  0.44909644965E+02  0.71431495303E+03  0.00000000000E+00 0. -1.
        -16    1    5    5    0    0  0.82778705134E+03  0.34286617320E+03  0.11434883577E+03  0.90325205305E+03  0.00000000000E+00 0.  1.
         16    1    1    2    0    0 -0.49651515329E+03 -0.65244397515E+03 -0.24729373855E+04  0.26053079954E+04  0.00000000000E+00 0. -1.
    9900018    1    1    2    0    0  0.19405552949E+03  0.93447544114E+02  0.52298736098E+03  0.57290570792E+03  0.91187600000E+02 0.  0.
<mgrwt>
<rscale>  0 0.31091944E+04</rscale>
<asrwt>0</asrwt>
<pdfrwt beam="1">  1        2 0.55756272E+00 0.55431341E+04</pdfrwt>
<pdfrwt beam="2">  1       -2 0.43795110E+00 0.55431341E+04</pdfrwt>
<totfact> 0.18704558E-03</totfact>
</mgrwt>
</event>
