<event>
11    1  0.1469909E-012  0.1079858E+04  0.7818608E-02  0.9225049E-01
          1   -1    0    0  501    0  0.00000000000E+00  0.00000000000E+00  0.13685136187E+04  0.13685136187E+04  0.00000000000E+00 0.  1.
         -1   -1    0    0    0  501 -0.00000000000E+00 -0.00000000000E+00 -0.21302178350E+03  0.21302178350E+03  0.00000000000E+00 0. -1.
    9900016    2    1    2    0    0 -0.14175201603E+02  0.29899452643E+01  0.12761762064E+04  0.14599846163E+04  0.70902714618E+03 0.  0.
         23    2    3    3    0    0  0.12174541967E+03 -0.88979751831E+02  0.17450520332E+03  0.25910986503E+03  0.11809535436E+03 0.  0.
        -15    1    3    3    0    0 -0.12324159253E+03 -0.82342123204E+02  0.46087182359E+03  0.48411935838E+03  0.00000000000E+00 0.  1.
        -15    1    4    4    0    0  0.75431467412E+02 -0.97657614497E+02  0.17231128134E+03  0.21193889124E+03  0.00000000000E+00 0.  1.
         15    1    4    4    0    0  0.46313952259E+02  0.86778626654E+01  0.21939219856E+01  0.47170973786E+02  0.00000000000E+00 0. -1.
         15    1    3    3    0    0 -0.38559825175E+02  0.11180061406E+03  0.10027259985E+03  0.15505106159E+03  0.00000000000E+00 0. -1.
        -16    1    3    3    0    0  0.14405042484E+02  0.56511596710E+02  0.25940485308E+03  0.26587956599E+03  0.00000000000E+00 0.  1.
         16    1    1    2    0    0  0.14175201603E+02 -0.29899452643E+01 -0.12068437116E+03  0.12155078591E+03  0.00000000000E+00 0. -1.
    9900018    1    3    3    0    0  0.11475753945E+02  0.59996095335E+01  0.28112172658E+03  0.29582476534E+03  0.91187600000E+02 0.  0.
<mgrwt>
<rscale>  0 0.10798578E+04</rscale>
<asrwt>0</asrwt>
<pdfrwt beam="1">  1        1 0.21054055E+00 0.10798578E+04</pdfrwt>
<pdfrwt beam="2">  1       -1 0.32772583E-01 0.10798578E+04</pdfrwt>
<totfact> 0.70366174E+01</totfact>
</mgrwt>
</event>
<event>
12    1  0.1469909E-012  0.8303618E+03  0.7818608E-02  0.9517080E-01
         -1   -1    0    0    0  501 -0.00000000000E+00  0.00000000000E+00  0.13729431815E+03  0.13729431815E+03  0.00000000000E+00 0.  1.
          1   -1    0    0  501    0  0.00000000000E+00 -0.00000000000E+00 -0.12555158814E+04  0.12555158814E+04  0.00000000000E+00 0. -1.
    9900016    2    1    2    0    0  0.87792359799E+02  0.78805406585E+02 -0.97717043994E+03  0.12089265137E+04  0.70194263027E+03 0.  0.
    9900016    2    3    3    0    0  0.13522482203E+03  0.10396482136E+03 -0.87429112478E+03  0.10706213718E+04  0.59392820630E+03 0.  0.
         23    2    4    4    0    0  0.63519434227E+02 -0.17893749818E+02 -0.87065813699E+02  0.16105726027E+03  0.11833883709E+03 0.  0.
        -15    1    3    3    0    0  0.18147095880E+01 -0.33687556572E+02 -0.14391365187E+02  0.36677732081E+02  0.00000000000E+00 0. -1.
        -15    1    5    5    0    0  0.29858630749E+02 -0.72893490832E+01  0.27460934561E+02  0.41216202727E+02  0.00000000000E+00 0.  1.
         15    1    3    3    0    0 -0.49247171819E+02  0.85281417919E+01 -0.88487949971E+02  0.10162740981E+03  0.00000000000E+00 0. -1.
         15    1    5    5    0    0  0.33660803478E+02 -0.10604400735E+02 -0.11452674826E+03  0.11984105754E+03  0.00000000000E+00 0.  1.
        -16    1    1    2    0    0 -0.87792359799E+02 -0.78805406585E+02 -0.14105112332E+03  0.18388368589E+03  0.00000000000E+00 0.  1.
         16    1    4    4    0    0  0.18613814729E+03  0.14863354372E+03 -0.22383075392E+03  0.32686319248E+03  0.00000000000E+00 0. -1.
    9900018    1    4    4    0    0 -0.11443275949E+03 -0.26774972536E+02 -0.56339455716E+03  0.58270091902E+03  0.91187600000E+02 0.  0.
<mgrwt>
<rscale>  0 0.83036184E+03</rscale>
<asrwt>0</asrwt>
<pdfrwt beam="1">  1        1 0.19315629E+00 0.83036184E+03</pdfrwt>
<pdfrwt beam="2">  1       -1 0.21122203E-01 0.83036184E+03</pdfrwt>
<totfact> 0.18355598E+02</totfact>
</mgrwt>
</event>
<event>
12    1  0.1469909E-012  0.1005372E+04  0.7818608E-02  0.9302673E-01
         -2   -1    0    0    0  501 -0.00000000000E+00  0.00000000000E+00  0.23843350017E+03  0.23843350017E+03  0.00000000000E+00 0. -1.
          2   -1    0    0  501    0  0.00000000000E+00 -0.00000000000E+00 -0.10598048872E+04  0.10598048872E+04  0.00000000000E+00 0.  1.
    9900016    2    1    2    0    0  0.21546399787E+03  0.10906468057E+03 -0.57878327103E+03  0.95593905499E+03  0.72146348702E+03 0.  0.
    9900016    2    3    3    0    0  0.91071892040E+02  0.74895546504E+02 -0.47366099646E+03  0.76587158962E+03  0.59017041591E+03 0.  0.
         23    2    4    4    0    0 -0.13030469442E+02  0.61864960370E+02  0.27315092045E+02  0.96639714270E+02  0.67794200823E+02 0.  0.
        -15    1    5    5    0    0  0.11764523317E+02  0.63473897428E+02  0.77585636185E+01  0.65019496869E+02  0.00000000000E+00 0.  1.
        -15    1    3    3    0    0  0.10516588257E+03  0.63219562458E+02 -0.73596507446E+02  0.14308396780E+03  0.00000000000E+00 0.  1.
         15    1    5    5    0    0 -0.24794992760E+02 -0.16089370584E+01  0.19556528426E+02  0.31620217401E+02  0.00000000000E+00 0. -1.
         15    1    3    3    0    0  0.19226223260E+02 -0.29050428391E+02 -0.31525767121E+02  0.46983497562E+02  0.00000000000E+00 0. -1.
        -16    1    4    4    0    0 -0.30049797322E+02  0.19500776113E+03 -0.18816373582E+03  0.27264740728E+03  0.00000000000E+00 0.  1.
         16    1    1    2    0    0 -0.21546399787E+03 -0.10906468057E+03 -0.24258811601E+03  0.34229933239E+03  0.00000000000E+00 0. -1.
    9900018    1    4    4    0    0  0.13415215880E+03 -0.18197717499E+03 -0.31281235269E+03  0.39658446808E+03  0.91187600000E+02 0.  0.
<mgrwt>
<rscale>  0 0.10053716E+04</rscale>
<asrwt>0</asrwt>
<pdfrwt beam="1">  1        2 0.16304691E+00 0.10053716E+04</pdfrwt>
<pdfrwt beam="2">  1       -2 0.36682077E-01 0.10053716E+04</pdfrwt>
<totfact> 0.16104745E+02</totfact>
</mgrwt>
</event>
<event>
11    1  0.1469909E-012  0.2445398E+04  0.7818608E-02  0.8422700E-01
          2   -1    0    0  501    0  0.00000000000E+00  0.00000000000E+00  0.23482140566E+04  0.23482140566E+04  0.00000000000E+00 0. -1.
         -2   -1    0    0    0  501 -0.00000000000E+00 -0.00000000000E+00 -0.63665091988E+03  0.63665091988E+03  0.00000000000E+00 0.  1.
    9900016    2    1    2    0    0  0.70539787981E+03  0.76228230293E+02 -0.12629449068E+03  0.10148097563E+04  0.71448697061E+03 0.  0.
         23    2    3    3    0    0  0.40727802044E+03  0.17418686587E+03  0.86903373758E+01  0.45525905953E+03  0.10473222593E+03 0.  0.
        -15    1    4    4    0    0  0.30669091651E+03  0.85437393962E+02  0.28582663956E+02  0.31964955066E+03  0.00000000000E+00 0.  1.
        -15    1    3    3    0    0 -0.30403662072E+02  0.94339166425E+02 -0.45779523448E+02  0.10917887047E+03  0.00000000000E+00 0.  1.
         15    1    4    4    0    0  0.10058710393E+03  0.88749471909E+02 -0.19892326580E+02  0.13560950888E+03  0.00000000000E+00 0. -1.
         15    1    3    3    0    0  0.42344421418E+02 -0.69855083385E+02 -0.18239120169E+02  0.83698555570E+02  0.00000000000E+00 0. -1.
        -16    1    3    3    0    0  0.15457800852E+03 -0.82632033196E+02 -0.95932168242E+02  0.19981339928E+03  0.00000000000E+00 0.  1.
         16    1    1    2    0    0 -0.70539787981E+03 -0.76228230293E+02  0.18378576274E+04  0.19700552202E+04  0.00000000000E+00 0. -1.
    9900018    1    3    3    0    0  0.13160109150E+03 -0.39810685422E+02  0.24965983801E+02  0.16685987145E+03  0.91187600000E+02 0.  0.
<mgrwt>
<rscale>  0 0.24453978E+04</rscale>
<asrwt>0</asrwt>
<pdfrwt beam="1">  1        2 0.36126370E+00 0.24453978E+04</pdfrwt>
<pdfrwt beam="2">  1       -2 0.97946297E-01 0.24453978E+04</pdfrwt>
<totfact> 0.33072965E+00</totfact>
</mgrwt>
</event>
<event>
10    1  0.1469909E-012  0.9365573E+03  0.7818608E-02  0.9381003E-01
          2   -1    0    0  501    0  0.00000000000E+00  0.00000000000E+00  0.43632685843E+03  0.43632685843E+03  0.00000000000E+00 0. -1.
         -2   -1    0    0    0  501 -0.00000000000E+00 -0.00000000000E+00 -0.50257020726E+03  0.50257020726E+03  0.00000000000E+00 0.  1.
    9900016    2    1    2    0    0  0.52709156696E+02  0.17254026862E+03 -0.13442415977E+03  0.74603176949E+03  0.71129821233E+03 0.  0.
        -15    1    3    3    0    0  0.12969542458E+03 -0.34218798307E+02 -0.14581623694E+03  0.19812673790E+03  0.00000000000E+00 0.  1.
        -15    1    3    3    0    0  0.79590606097E+02  0.61486193856E+02 -0.22935215234E+01  0.10060058079E+03  0.00000000000E+00 0.  1.
         15    1    3    3    0    0 -0.16058935210E+01 -0.66215922966E+02 -0.74477440151E+01  0.66652803686E+02  0.00000000000E+00 0. -1.
         15    1    3    3    0    0 -0.89243170516E+02  0.13411323309E+03  0.12646670758E+02  0.16158787409E+03  0.00000000000E+00 0. -1.
        -16    1    3    3    0    0  0.35230095469E+02  0.74327519985E+02  0.10846981559E+02  0.82966239295E+02  0.00000000000E+00 0.  1.
         16    1    1    2    0    0 -0.52709156696E+02 -0.17254026862E+03  0.68180810946E+02  0.19286529619E+03  0.00000000000E+00 0. -1.
    9900018    1    3    3    0    0 -0.10095790542E+03  0.30480429616E+01 -0.23603096061E+01  0.13609753373E+03  0.91187600000E+02 0.  0.
<mgrwt>
<rscale>  0 0.93655727E+03</rscale>
<asrwt>0</asrwt>
<pdfrwt beam="1">  1        2 0.67127209E-01 0.93655727E+03</pdfrwt>
<pdfrwt beam="2">  1       -2 0.77318494E-01 0.93655727E+03</pdfrwt>
<totfact> 0.10775286E+02</totfact>
</mgrwt>
</event>
<event>
11    1  0.1469909E-012  0.1186352E+04  0.7818608E-02  0.9124887E-01
         -2   -1    0    0    0  501 -0.00000000000E+00  0.00000000000E+00  0.62194410627E+03  0.62194410627E+03  0.00000000000E+00 0. -1.
          2   -1    0    0  501    0  0.00000000000E+00 -0.00000000000E+00 -0.56573843787E+03  0.56573843787E+03  0.00000000000E+00 0.  1.
    9900016    2    1    2    0    0  0.21394543413E+03  0.12289997378E+03 -0.24962624730E+03  0.79473189457E+03  0.71302767728E+03 0.  0.
         23    2    3    3    0    0 -0.38876547437E+02 -0.12816229466E+03 -0.46905515972E+02  0.17991972455E+03  0.11060750489E+03 0.  0.
        -15    1    3    3    0    0  0.17905751101E+03  0.61726053702E+02 -0.80981334252E+02  0.20598464615E+03  0.00000000000E+00 0.  1.
        -15    1    4    4    0    0 -0.33566693086E+02 -0.10625189481E+03 -0.81902162888E+02  0.13829010204E+03  0.00000000000E+00 0.  1.
         15    1    4    4    0    0 -0.53098543519E+01 -0.21910399849E+02  0.34996646916E+02  0.41629622508E+02  0.00000000000E+00 0. -1.
         15    1    3    3    0    0  0.42299761136E+02 -0.46625723059E+02  0.27492016461E+02  0.68695260477E+02  0.00000000000E+00 0. -1.
        -16    1    3    3    0    0 -0.14153488056E+02  0.24291013968E+02  0.32594578125E+02  0.43043943905E+02  0.00000000000E+00 0.  1.
         16    1    1    2    0    0 -0.21394543413E+03 -0.12289997378E+03  0.30583191570E+03  0.39295064957E+03  0.00000000000E+00 0. -1.
    9900018    1    3    3    0    0  0.45618197479E+02  0.21167092383E+03 -0.18182599166E+03  0.29708831949E+03  0.91187600000E+02 0.  0.
<mgrwt>
<rscale>  0 0.11863519E+04</rscale>
<asrwt>0</asrwt>
<pdfrwt beam="1">  1        2 0.87036683E-01 0.11863519E+04</pdfrwt>
<pdfrwt beam="2">  1       -2 0.95683708E-01 0.11863519E+04</pdfrwt>
<totfact> 0.48198781E+01</totfact>
</mgrwt>
</event>
<event>
12    1  0.1469910E-012  0.8508330E+03  0.7818608E-02  0.9489220E-01
          1   -1    0    0  501    0  0.00000000000E+00  0.00000000000E+00  0.96242332987E+03  0.96242332987E+03  0.00000000000E+00 0. -1.
         -1   -1    0    0    0  501 -0.00000000000E+00 -0.00000000000E+00 -0.18804530254E+03  0.18804530254E+03  0.00000000000E+00 0.  1.
    9900016    2    1    2    0    0  0.12231846407E+03  0.40890964412E+02  0.67037222579E+03  0.98478494469E+03  0.70976657329E+03 0.  0.
    9900016    2    3    3    0    0  0.18053690430E+03 -0.10782899645E+01  0.64302151974E+03  0.88753453836E+03  0.58450504310E+03 0.  0.
         23    2    4    4    0    0  0.10953383296E+03 -0.11445769651E+01  0.10454216017E+03  0.18475196263E+03  0.10585487152E+03 0.  0.
        -15    1    3    3    0    0 -0.26124844044E+02 -0.13189586157E+02  0.53650896741E+01  0.29753266149E+02  0.00000000000E+00 0. -1.
        -15    1    5    5    0    0  0.11313895895E+03 -0.33002087623E+02  0.94780672983E+02  0.15123801701E+03  0.00000000000E+00 0.  1.
         15    1    3    3    0    0 -0.32093596189E+02  0.55158840534E+02  0.21985616382E+02  0.67497140185E+02  0.00000000000E+00 0. -1.
         15    1    5    5    0    0 -0.36051259919E+01  0.31857510658E+02  0.97614871913E+01  0.33513945619E+02  0.00000000000E+00 0.  1.
        -16    1    1    2    0    0 -0.12231846407E+03 -0.40890964412E+02  0.10400580154E+03  0.16568368772E+03  0.00000000000E+00 0.  1.
         16    1    4    4    0    0  0.20036219188E+03 -0.13644110810E+03  0.29926780888E+03  0.38512647968E+03  0.00000000000E+00 0. -1.
    9900018    1    4    4    0    0 -0.12935912054E+03  0.13650739510E+03  0.23921155068E+03  0.31765609605E+03  0.91187600000E+02 0.  0.
<mgrwt>
<rscale>  0 0.85083297E+03</rscale>
<asrwt>0</asrwt>
<pdfrwt beam="1">  1        1 0.14806512E+00 0.85083297E+03</pdfrwt>
<pdfrwt beam="2">  1       -1 0.28930047E-01 0.85083297E+03</pdfrwt>
<totfact> 0.17760404E+02</totfact>
</mgrwt>
</event>
<event>
11    1  0.1469909E-012  0.1952537E+04  0.7818608E-02  0.8629139E-01
          2   -1    0    0  501    0  0.00000000000E+00  0.00000000000E+00  0.68493351811E+03  0.68493351811E+03  0.00000000000E+00 0. -1.
         -2   -1    0    0    0  501 -0.00000000000E+00 -0.00000000000E+00 -0.13915215271E+04  0.13915215271E+04  0.00000000000E+00 0.  1.
    9900016    2    1    2    0    0  0.19193377934E+03 -0.15256026113E+03  0.46448109720E+03  0.87999524213E+03  0.70607062507E+03 0.  0.
    9900016    2    3    3    0    0  0.18402479563E+03 -0.12804617496E+03  0.36499533367E+03  0.70138010405E+03  0.55538410890E+03 0.  0.
        -15    1    3    3    0    0 -0.46460753930E+02  0.19204421478E+02  0.96469763464E+02  0.10878339360E+03  0.00000000000E+00 0. -1.
        -15    1    4    4    0    0  0.91623903077E+02  0.15348156306E+02  0.33386417871E+02  0.98717568929E+02  0.00000000000E+00 0.  1.
         15    1    3    3    0    0  0.54369737642E+02 -0.43718507640E+02  0.30160000620E+01  0.69831744485E+02  0.00000000000E+00 0. -1.
         15    1    4    4    0    0 -0.69264830635E+02  0.19211715645E+02 -0.26922180548E+01  0.71930207973E+02  0.00000000000E+00 0.  1.
        -16    1    1    2    0    0 -0.19193377934E+03  0.15256026113E+03 -0.11710691062E+04  0.11964598031E+04  0.00000000000E+00 0.  1.
         16    1    4    4    0    0  0.23898408166E+03 -0.16285971048E+03  0.20410265047E+03  0.35396972824E+03  0.00000000000E+00 0. -1.
    9900018    1    4    4    0    0 -0.77318358469E+02  0.25366356079E+00  0.13019848338E+03  0.17676259890E+03  0.91187600000E+02 0.  0.
<mgrwt>
<rscale>  0 0.19525365E+04</rscale>
<asrwt>0</asrwt>
<pdfrwt beam="1">  1        2 0.10537439E+00 0.19525365E+04</pdfrwt>
<pdfrwt beam="2">  1       -2 0.21408023E+00 0.19525365E+04</pdfrwt>
<totfact> 0.42316603E+00</totfact>
</mgrwt>
</event>
