<event>
11    1  0.7042706E-013  0.2942745E+04  0.7818608E-02  0.9037471E-01
         -1   -1    0    0    0  501 -0.00000000000E+00  0.00000000000E+00  0.94109875114E+03  0.94109875114E+03  0.00000000000E+00 0.  1.
          1   -1    0    0  501    0  0.00000000000E+00 -0.00000000000E+00 -0.25206588033E+04  0.25206588033E+04  0.00000000000E+00 0. -1.
    9900016    2    1    2    0    0  0.54298604760E+03  0.10881257919E+03 -0.12897496377E+04  0.23045081862E+04  0.18277389931E+04 0.  0.
         24    2    3    3    0    0  0.32839030880E+03 -0.83540372199E+03 -0.38714659966E+03  0.98076803083E+03  0.79270846047E+02 0.  0.
        -15    1    4    4    0    0  0.24607226521E+03 -0.52213924979E+03 -0.24965355425E+03  0.62889415089E+03  0.00000000000E+00 0.  1.
        -15    1    1    2    0    0 -0.68344097909E+03 -0.12549510795E+03  0.10399241341E+03  0.70260587534E+03  0.00000000000E+00 0.  1.
         15    1    1    2    0    0  0.96558183130E+02 -0.41420025930E+02 -0.16086478168E+03  0.19213687637E+03  0.00000000000E+00 0. -1.
         15    1    3    3    0    0  0.21459573880E+03  0.94421630118E+03 -0.90260303806E+03  0.13237401553E+04  0.00000000000E+00 0. -1.
        -16    1    1    2    0    0 -0.25521436180E+01  0.16337392851E+01 -0.18748531432E+01  0.35633713541E+01  0.00000000000E+00 0.  1.
         16    1    4    4    0    0  0.82318043592E+02 -0.31326447220E+03 -0.13749304541E+03  0.35187387994E+03  0.00000000000E+00 0. -1.
    9900018    1    1    2    0    0  0.46448891979E+02  0.56468815402E+02 -0.23106319303E+03  0.25894324522E+03  0.91187600000E+02 0.  0.
<mgrwt>
<rscale>  0 0.12900780E+04</rscale>
<asrwt>0</asrwt>
<pdfrwt beam="1">  1        1 0.38779367E+00 0.29427454E+04</pdfrwt>
<pdfrwt beam="2">  1       -1 0.14478442E+00 0.29427454E+04</pdfrwt>
<totfact> 0.42792434E-01</totfact>
</mgrwt>
</event>
<event>
12    1  0.7042706E-013  0.4437299E+04  0.7818608E-02  0.7921707E-01
          2   -1    0    0  501    0  0.00000000000E+00  0.00000000000E+00  0.45074867382E+04  0.45074867382E+04  0.00000000000E+00 0. -1.
         -2   -1    0    0    0  501 -0.00000000000E+00 -0.00000000000E+00 -0.10920512031E+04  0.10920512031E+04  0.00000000000E+00 0.  1.
        -24    2    1    2    0    0 -0.30975195455E+02 -0.59182696396E+03  0.61424608875E+03  0.85839806328E+03  0.91270803120E+02 0.  0.
    9900016    2    1    2    0    0  0.16151825418E+02  0.10623531243E+04  0.22057620669E+04  0.30721537322E+04  0.18557713265E+04 0.  0.
         24    2    4    4    0    0 -0.63500618961E+03  0.12740375365E+04  0.12481032622E+04  0.18948995383E+04  0.80486034376E+02 0.  0.
        -15    1    1    2    0    0 -0.30903535061E+03 -0.93525927549E+03  0.35737100272E+03  0.10478200198E+04  0.00000000000E+00 0.  1.
        -15    1    5    5    0    0 -0.22347238846E+03  0.51997896896E+03  0.52644777377E+03  0.77295879261E+03  0.00000000000E+00 0.  1.
         15    1    4    4    0    0  0.65115801502E+03 -0.21168441221E+03  0.95765880473E+03  0.11772541940E+04  0.00000000000E+00 0. -1.
         15    1    3    3    0    0  0.19481762095E+02 -0.18597840525E+03  0.23807600888E+03  0.30273369862E+03  0.00000000000E+00 0. -1.
        -16    1    3    3    0    0 -0.50456957551E+02 -0.40584855871E+03  0.37617007987E+03  0.55566436466E+03  0.00000000000E+00 0.  1.
         16    1    5    5    0    0 -0.41153380115E+03  0.75405856758E+03  0.72165548841E+03  0.11219407457E+04  0.00000000000E+00 0. -1.
    9900018    1    1    2    0    0  0.32385872064E+03  0.46473311511E+03  0.23805637664E+03  0.62116612599E+03  0.91187600000E+02 0.  0.
<mgrwt>
<rscale>  0 0.44372993E+04</rscale>
<asrwt>0</asrwt>
<pdfrwt beam="1">  1        2 0.69345949E+00 0.44372993E+04</pdfrwt>
<pdfrwt beam="2">  1       -2 0.16800788E+00 0.44372993E+04</pdfrwt>
<totfact> 0.20123684E-02</totfact>
</mgrwt>
</event>
<event>
11    1  0.7042706E-013  0.4181015E+04  0.7818608E-02  0.7968993E-01
          1   -1    0    0  501    0  0.00000000000E+00  0.00000000000E+00  0.19604455638E+04  0.19604455638E+04  0.00000000000E+00 0. -1.
         -1   -1    0    0    0  501 -0.00000000000E+00 -0.00000000000E+00 -0.22291980945E+04  0.22291980945E+04  0.00000000000E+00 0.  1.
    9900016    2    1    2    0    0 -0.52540172869E+03  0.84785667136E+03 -0.86553883816E+02  0.20976325940E+04  0.18432750779E+04 0.  0.
        -24    2    3    3    0    0 -0.52559212879E+03  0.21470894677E+03  0.81474418223E+03  0.99617252604E+03  0.78769292815E+02 0.  0.
        -15    1    3    3    0    0  0.19040009740E+00  0.63314772460E+03 -0.90129806604E+03  0.11014600679E+04  0.00000000000E+00 0.  1.
        -15    1    1    2    0    0  0.13354444486E+03 -0.29427480983E+03  0.26667585821E+03  0.41898424291E+03  0.00000000000E+00 0.  1.
         15    1    1    2    0    0 -0.11472346362E+03 -0.14440346710E+02  0.88785238857E+02  0.14578345365E+03  0.00000000000E+00 0. -1.
         15    1    4    4    0    0 -0.31472185339E+03  0.16853640884E+03  0.49148200376E+03  0.60746104906E+03  0.00000000000E+00 0. -1.
        -16    1    4    4    0    0 -0.21087027540E+03  0.46172537925E+02  0.32326217846E+03  0.38871147697E+03  0.00000000000E+00 0.  1.
         16    1    1    2    0    0  0.28406669029E+03 -0.28049261857E+03  0.37556677542E+03  0.54810619081E+03  0.00000000000E+00 0. -1.
    9900018    1    1    2    0    0  0.22251405716E+03 -0.25864889625E+03 -0.91322651938E+03  0.97913717694E+03  0.91187600000E+02 0.  0.
<mgrwt>
<rscale>  0 0.41810150E+04</rscale>
<asrwt>0</asrwt>
<pdfrwt beam="1">  1        1 0.30160701E+00 0.41810150E+04</pdfrwt>
<pdfrwt beam="2">  1       -1 0.34295355E+00 0.41810150E+04</pdfrwt>
<totfact> 0.42282297E-02</totfact>
</mgrwt>
</event>
<event>
12    1  0.7042706E-013  0.2721102E+04  0.7818608E-02  0.8757066E-01
          1   -1    0    0  501    0  0.00000000000E+00  0.00000000000E+00  0.27474823355E+04  0.27474823355E+04  0.00000000000E+00 0. -1.
         -1   -1    0    0    0  501 -0.00000000000E+00 -0.00000000000E+00 -0.15406735521E+04  0.15406735521E+04  0.00000000000E+00 0.  1.
        -24    2    1    2    0    0 -0.69461081701E+02  0.41037412997E+03  0.14935283358E+04  0.15519899531E+04  0.69384121798E+02 0.  0.
    9900016    2    1    2    0    0 -0.68577382519E+02 -0.78671950472E+03  0.19421863972E+03  0.20243609107E+04  0.18538300300E+04 0.  0.
         24    2    4    4    0    0 -0.21273369144E+03 -0.11793939320E+04 -0.42762520430E+03  0.12749184422E+04  0.79549032928E+02 0.  0.
        -15    1    5    5    0    0 -0.23231661305E+02 -0.22274339507E+03 -0.52513547030E+02  0.23002609146E+03  0.00000000000E+00 0.  1.
        -15    1    1    2    0    0  0.20765945724E+03  0.35008149142E+03 -0.37564611244E+03  0.55388582091E+03  0.00000000000E+00 0.  1.
         15    1    3    3    0    0 -0.25045649466E+02  0.39860220137E+02  0.21632552603E+03  0.22138847061E+03  0.00000000000E+00 0. -1.
         15    1    4    4    0    0  0.14415630892E+03  0.39267442725E+03  0.62184384402E+03  0.74944246848E+03  0.00000000000E+00 0. -1.
        -16    1    3    3    0    0 -0.44415432235E+02  0.37051390984E+03  0.12772028098E+04  0.13306014825E+04  0.00000000000E+00 0.  1.
         16    1    5    5    0    0 -0.18950203014E+03 -0.95665053691E+03 -0.37511165727E+03  0.10448923507E+04  0.00000000000E+00 0. -1.
    9900018    1    1    2    0    0 -0.69620993018E+02  0.26263883335E+02 -0.10529207966E+03  0.15791920298E+03  0.91187600000E+02 0.  0.
<mgrwt>
<rscale>  0 0.17075566E+04</rscale>
<asrwt>0</asrwt>
<pdfrwt beam="1">  1        1 0.42268959E+00 0.27211020E+04</pdfrwt>
<pdfrwt beam="2">  1       -1 0.23702670E+00 0.27211020E+04</pdfrwt>
<totfact> 0.64633942E-02</totfact>
</mgrwt>
</event>
<event>
12    1  0.7042706E-013  0.3909744E+04  0.7818608E-02  0.8789080E-01
          2   -1    0    0  501    0  0.00000000000E+00  0.00000000000E+00  0.25904145927E+04  0.25904145927E+04  0.00000000000E+00 0. -1.
         -2   -1    0    0    0  501 -0.00000000000E+00 -0.00000000000E+00 -0.20296195795E+04  0.20296195795E+04  0.00000000000E+00 0.  1.
        -24    2    1    2    0    0 -0.10225502384E+03 -0.48342052041E+02  0.69685512243E+03  0.70792382576E+03  0.52497976403E+02 0.  0.
    9900016    2    1    2    0    0  0.83648910476E+02 -0.12893771424E+04  0.34769209816E+03  0.22807642061E+04  0.18470259915E+04 0.  0.
         24    2    4    4    0    0  0.12790575842E+03 -0.17573580900E+04  0.14783781633E+03  0.17699740635E+04  0.79276894939E+02 0.  0.
        -15    1    1    2    0    0  0.19442405344E+03  0.78946206793E+02  0.96771967831E+02  0.23108013736E+03  0.00000000000E+00 0.  1.
        -15    1    5    5    0    0  0.15675851703E+02 -0.51021239400E+03  0.13854688471E+02  0.51064113790E+03  0.00000000000E+00 0.  1.
         15    1    4    4    0    0 -0.44256847941E+02  0.46798094755E+03  0.19985428183E+03  0.51079014265E+03  0.00000000000E+00 0. -1.
         15    1    3    3    0    0 -0.29926848613E+02 -0.32379730597E+02  0.15928092250E+03  0.16527091545E+03  0.00000000000E+00 0. -1.
        -16    1    3    3    0    0 -0.72328175228E+02 -0.15962321445E+02  0.53757419992E+03  0.54265291030E+03  0.00000000000E+00 0.  1.
         16    1    5    5    0    0  0.11222990671E+03 -0.12471456960E+04  0.13398312786E+03  0.12593329256E+04  0.00000000000E+00 0. -1.
    9900018    1    1    2    0    0 -0.17581794008E+03  0.12587729877E+04 -0.58052417529E+03  0.14002660030E+04  0.91187600000E+02 0.  0.
<mgrwt>
<rscale>  0 0.16522447E+04</rscale>
<asrwt>0</asrwt>
<pdfrwt beam="1">  1        2 0.39852532E+00 0.39097436E+04</pdfrwt>
<pdfrwt beam="2">  1       -2 0.31224917E+00 0.39097436E+04</pdfrwt>
<totfact> 0.63923278E-02</totfact>
</mgrwt>
</event>
<event>
12    1  0.7042706E-013  0.3246254E+04  0.7818608E-02  0.8763504E-01
          2   -1    0    0  501    0  0.00000000000E+00  0.00000000000E+00  0.16897392662E+04  0.16897392662E+04  0.00000000000E+00 0. -1.
         -2   -1    0    0    0  501 -0.00000000000E+00 -0.00000000000E+00 -0.23525220781E+04  0.23525220781E+04  0.00000000000E+00 0.  1.
         24    2    1    2    0    0  0.20972468736E+03  0.66487587757E+02  0.53093480342E+03  0.58348570984E+03  0.10079069550E+03 0.  0.
    9900016    2    1    2    0    0  0.43605278350E+02  0.21935742932E+03 -0.17472068623E+04  0.25511240614E+04  0.18453950945E+04 0.  0.
        -24    2    4    4    0    0 -0.21449758719E+03 -0.25031334083E+03 -0.19491411797E+04  0.19784241486E+04  0.79654190373E+02 0.  0.
        -15    1    4    4    0    0  0.25810286554E+03  0.46967077016E+03  0.20193431736E+03  0.57269991275E+03  0.00000000000E+00 0.  1.
        -15    1    3    3    0    0  0.13239496606E+03  0.61718232827E+02  0.44212404022E+03  0.46562993271E+03  0.00000000000E+00 0.  1.
         15    1    1    2    0    0 -0.31302730668E+03 -0.32423878797E+03  0.62590482143E+03  0.77128057919E+03  0.00000000000E+00 0. -1.
         15    1    5    5    0    0 -0.46904671847E+02 -0.13772039640E+02 -0.25097045820E+03  0.25568709041E+03  0.00000000000E+00 0. -1.
        -16    1    5    5    0    0 -0.16759291534E+03 -0.23654130119E+03 -0.16981707215E+04  0.17227370582E+04  0.00000000000E+00 0.  1.
         16    1    3    3    0    0  0.77329721302E+02  0.47693549306E+01  0.88810763200E+02  0.11785577713E+03  0.00000000000E+00 0. -1.
    9900018    1    1    2    0    0  0.59697340969E+02  0.38393770889E+02 -0.72415574453E+02  0.13637099391E+03  0.91187600000E+02 0.  0.
<mgrwt>
<rscale>  0 0.16962528E+04</rscale>
<asrwt>0</asrwt>
<pdfrwt beam="1">  1        2 0.25995989E+00 0.32462543E+04</pdfrwt>
<pdfrwt beam="2">  1       -2 0.36192647E+00 0.32462543E+04</pdfrwt>
<totfact> 0.10629315E-01</totfact>
</mgrwt>
</event>
<event>
11    1  0.7042707E-013  0.3800517E+04  0.7818608E-02  0.8428269E-01
          1   -1    0    0  501    0  0.00000000000E+00  0.00000000000E+00  0.29074532384E+04  0.29074532384E+04  0.00000000000E+00 0. -1.
         -1   -1    0    0    0  501 -0.00000000000E+00 -0.00000000000E+00 -0.20847882578E+04  0.20847882578E+04  0.00000000000E+00 0.  1.
    9900016    2    1    2    0    0  0.74591475352E+03 -0.17180350698E+03  0.21080076320E+02  0.19945539371E+04  0.18417100135E+04 0.  0.
        -24    2    3    3    0    0 -0.10125498916E+03 -0.87954446003E+03 -0.28278651306E+02  0.88955162332E+03  0.81555983437E+02 0.  0.
        -15    1    1    2    0    0 -0.57196449421E+02  0.11239299988E+03  0.22062249985E+03  0.25412183631E+03  0.00000000000E+00 0.  1.
        -15    1    3    3    0    0  0.84716974267E+03  0.70774095305E+03  0.49358727626E+02  0.11050023138E+04  0.00000000000E+00 0.  1.
         15    1    1    2    0    0 -0.12099675285E+04 -0.29352081871E+03 -0.89009169306E+02  0.12482381677E+04  0.00000000000E+00 0. -1.
         15    1    4    4    0    0 -0.36086208108E+01 -0.34573648665E+03  0.59658380478E+01  0.34580678358E+03  0.00000000000E+00 0. -1.
        -16    1    4    4    0    0 -0.97646368346E+02 -0.53380797338E+03 -0.34244489354E+02  0.54374483974E+03  0.00000000000E+00 0.  1.
         16    1    1    2    0    0  0.10489396093E+01  0.50870769206E+03  0.78249765129E+03  0.93332051863E+03  0.00000000000E+00 0. -1.
    9900018    1    1    2    0    0  0.52020028480E+03 -0.15577636624E+03 -0.11252607755E+03  0.56200703652E+03  0.91187600000E+02 0.  0.
<mgrwt>
<rscale>  0 0.24302377E+04</rscale>
<asrwt>0</asrwt>
<pdfrwt beam="1">  1        1 0.44730050E+00 0.38005174E+04</pdfrwt>
<pdfrwt beam="2">  1       -1 0.32073666E+00 0.38005174E+04</pdfrwt>
<totfact> 0.12964724E-02</totfact>
</mgrwt>
</event>
