<event>
12    1  0.1275235E-010  0.4601848E+04  0.7818608E-02  0.7893045E-01
         -1   -1    0    0    0  501 -0.00000000000E+00  0.00000000000E+00  0.12866408165E+04  0.12866408165E+04  0.00000000000E+00 0.  1.
          1   -1    0    0  501    0  0.00000000000E+00 -0.00000000000E+00 -0.41147848876E+04  0.41147848876E+04  0.00000000000E+00 0. -1.
        -24    2    1    2    0    0 -0.34231646560E+03 -0.14735992734E+04 -0.18355428849E+04  0.23791384127E+04  0.49056327020E+02 0.  0.
    9900016    2    1    2    0    0  0.43573901067E+03  0.84986652846E+03 -0.40152290384E+03  0.20706208532E+04  0.17927934833E+04 0.  0.
         24    2    4    4    0    0  0.40465322789E+03 -0.41592520159E+03 -0.53995375131E+03  0.79690262327E+03  0.82254053129E+02 0.  0.
        -15    1    1    2    0    0 -0.17952645293E+03  0.55800240965E+03 -0.55105207959E+03  0.80452149188E+03  0.00000000000E+00 0.  1.
        -15    1    5    5    0    0  0.33447784700E+03 -0.32325863785E+03 -0.46985468912E+03  0.66116186064E+03  0.00000000000E+00 0.  1.
         15    1    3    3    0    0 -0.14934798439E+03 -0.70399045452E+03 -0.90485055883E+03  0.11561409578E+04  0.00000000000E+00 0. -1.
         15    1    4    4    0    0  0.31085782782E+02  0.12657917301E+04  0.13843084747E+03  0.12737182299E+04  0.00000000000E+00 0. -1.
        -16    1    3    3    0    0 -0.19296848122E+03 -0.76960881891E+03 -0.93069232604E+03  0.12229974549E+04  0.00000000000E+00 0.  1.
         16    1    5    5    0    0  0.70175380896E+02 -0.92666563738E+02 -0.70099062193E+02  0.13574076263E+03  0.00000000000E+00 0. -1.
    9900018    1    1    2    0    0  0.86103907858E+02  0.65730335322E+02 -0.40026202727E+02  0.14714494632E+03  0.91187600000E+02 0.  0.
<mgrwt>
<rscale>  0 0.46018475E+04</rscale>
<asrwt>0</asrwt>
<pdfrwt beam="1">  1        1 0.63304383E+00 0.46018475E+04</pdfrwt>
<pdfrwt beam="2">  1       -1 0.19794474E+00 0.46018475E+04</pdfrwt>
<totfact> 0.87429334E-03</totfact>
</mgrwt>
</event>
<event>
11    1  0.1275235E-010  0.2577425E+04  0.7818608E-02  0.8580947E-01
          1   -1    0    0  501    0  0.00000000000E+00  0.00000000000E+00  0.21340678054E+04  0.21340678054E+04  0.00000000000E+00 0. -1.
         -1   -1    0    0    0  501 -0.00000000000E+00 -0.00000000000E+00 -0.18724930802E+04  0.18724930802E+04  0.00000000000E+00 0.  1.
    9900016    2    1    2    0    0  0.19472789637E+03  0.89249207029E+03  0.72424372071E+03  0.21467746855E+04  0.18026789882E+04 0.  0.
         24    2    3    3    0    0  0.76421066613E+03  0.11381240758E+04  0.65868656993E+03  0.15231213786E+04  0.81770303484E+02 0.  0.
        -15    1    1    2    0    0  0.43193301332E+03 -0.10367488716E+03  0.23899295551E+03  0.50441277046E+03  0.00000000000E+00 0.  1.
        -15    1    4    4    0    0  0.45859595666E+03  0.70654348661E+03  0.44607852117E+03  0.95315266195E+03  0.00000000000E+00 0.  1.
         15    1    3    3    0    0 -0.56948276976E+03 -0.24563200551E+03  0.65557150783E+02  0.62365330690E+03  0.00000000000E+00 0. -1.
         15    1    1    2    0    0 -0.37610928925E+03 -0.45716364902E+03 -0.32628018500E+03  0.67595529332E+03  0.00000000000E+00 0. -1.
        -16    1    1    2    0    0 -0.24446142135E+03 -0.37085221448E+03 -0.37288422476E+03  0.57994430473E+03  0.00000000000E+00 0.  1.
         16    1    4    4    0    0  0.30561470946E+03  0.43158058919E+03  0.21260804876E+03  0.56996871669E+03  0.00000000000E+00 0. -1.
    9900018    1    1    2    0    0 -0.60901990862E+01  0.39198680366E+02 -0.24975412255E+01  0.99473831601E+02  0.91187600000E+02 0.  0.
<mgrwt>
<rscale>  0 0.20558468E+04</rscale>
<asrwt>0</asrwt>
<pdfrwt beam="1">  1        1 0.32831812E+00 0.25774247E+04</pdfrwt>
<pdfrwt beam="2">  1       -1 0.28807586E+00 0.25774247E+04</pdfrwt>
<totfact> 0.80976490E-02</totfact>
</mgrwt>
</event>
<event>
11    1  0.1275235E-010  0.3531030E+04  0.7818608E-02  0.8411360E-01
         -2   -1    0    0    0  501 -0.00000000000E+00  0.00000000000E+00  0.26786408353E+04  0.26786408353E+04  0.00000000000E+00 0.  1.
          2   -1    0    0  501    0  0.00000000000E+00 -0.00000000000E+00 -0.20935065697E+04  0.20935065697E+04  0.00000000000E+00 0. -1.
    9900016    2    1    2    0    0 -0.79685877797E+02  0.50872593729E+02  0.16498605554E+04  0.24370924705E+04  0.17912124380E+04 0.  0.
        -24    2    3    3    0    0  0.28711714335E+03  0.60465530694E+03  0.16395450411E+04  0.17727686341E+04  0.80971563596E+02 0.  0.
        -15    1    3    3    0    0 -0.36680302115E+03 -0.55378271321E+03  0.10315514248E+02  0.66432383640E+03  0.00000000000E+00 0.  1.
        -15    1    1    2    0    0 -0.31059141345E+03  0.22311649706E+03 -0.16005349198E+03  0.41456618008E+03  0.00000000000E+00 0.  1.
         15    1    1    2    0    0  0.87596235048E+03 -0.42756087097E+03 -0.57306206398E+03  0.11307159091E+04  0.00000000000E+00 0. -1.
         15    1    4    4    0    0  0.33900444433E+02  0.14229613582E+03  0.39296693112E+03  0.41930947921E+03  0.00000000000E+00 0. -1.
        -16    1    4    4    0    0  0.25321669892E+03  0.46235917112E+03  0.12465781100E+04  0.13534591549E+04  0.00000000000E+00 0.  1.
         16    1    1    2    0    0 -0.42184864669E+03  0.15580159438E+03 -0.44373130548E+03  0.63176569152E+03  0.00000000000E+00 0. -1.
    9900018    1    1    2    0    0 -0.63836412555E+02 -0.22298142024E+01  0.11212057168E+03  0.15800715372E+03  0.91187600000E+02 0.  0.
<mgrwt>
<rscale>  0 0.24766254E+04</rscale>
<asrwt>0</asrwt>
<pdfrwt beam="1">  1        2 0.32207793E+00 0.35310300E+04</pdfrwt>
<pdfrwt beam="2">  1       -2 0.41209859E+00 0.35310300E+04</pdfrwt>
<totfact> 0.28868514E-02</totfact>
</mgrwt>
</event>
<event>
12    1  0.1275235E-010  0.4417312E+04  0.7818608E-02  0.8360551E-01
          2   -1    0    0  501    0  0.00000000000E+00  0.00000000000E+00  0.26079698795E+04  0.26079698795E+04  0.00000000000E+00 0. -1.
         -2   -1    0    0    0  501 -0.00000000000E+00 -0.00000000000E+00 -0.23749363861E+04  0.23749363861E+04  0.00000000000E+00 0.  1.
        -24    2    1    2    0    0 -0.24522446410E+03 -0.48144374013E+03 -0.79218600666E+02  0.55457204718E+03  0.96702927117E+02 0.  0.
    9900016    2    1    2    0    0  0.25979053352E+03  0.17739463871E+04 -0.80510118386E+03  0.27197518790E+04  0.18800227289E+04 0.  0.
         24    2    4    4    0    0  0.66271526963E+02 -0.34268167741E+03 -0.34402746122E+03  0.49674954365E+03  0.81133024874E+02 0.  0.
        -15    1    5    5    0    0 -0.15448670627E+02 -0.11598149155E+03 -0.10224422118E+03  0.15538419666E+03  0.00000000000E+00 0.  1.
        -15    1    1    2    0    0 -0.14566069419E+02 -0.12925026470E+04  0.11173532779E+04  0.17085823394E+04  0.00000000000E+00 0.  1.
         15    1    3    3    0    0 -0.94389683189E+02 -0.16082973506E+03  0.17456738722E+02  0.18729750052E+03  0.00000000000E+00 0. -1.
         15    1    4    4    0    0  0.18475927369E+03  0.20566805985E+04 -0.44472603206E+03  0.21123097114E+04  0.00000000000E+00 0. -1.
        -16    1    3    3    0    0 -0.15083478091E+03 -0.32061400506E+03 -0.96675339388E+02  0.36727454666E+03  0.00000000000E+00 0.  1.
         16    1    5    5    0    0  0.81720197590E+02 -0.22670018586E+03 -0.24178324004E+03  0.34136534699E+03  0.00000000000E+00 0. -1.
    9900018    1    4    4    0    0  0.87597328644E+01  0.59947466034E+02 -0.16347690588E+02  0.11069262390E+03  0.91187600000E+02 0.  0.
<mgrwt>
<rscale>  0 0.26226410E+04</rscale>
<asrwt>0</asrwt>
<pdfrwt beam="1">  1        2 0.40122614E+00 0.44173117E+04</pdfrwt>
<pdfrwt beam="2">  1       -2 0.36537483E+00 0.44173117E+04</pdfrwt>
<totfact> 0.27962517E-02</totfact>
</mgrwt>
</event>
<event>
12    1  0.1275235E-010  0.3623212E+04  0.7818608E-02  0.8434987E-01
         -2   -1    0    0    0  501 -0.00000000000E+00  0.00000000000E+00  0.17374862306E+04  0.17374862306E+04  0.00000000000E+00 0.  1.
          2   -1    0    0  501    0  0.00000000000E+00 -0.00000000000E+00 -0.28892860602E+04  0.28892860602E+04  0.00000000000E+00 0. -1.
        -24    2    1    2    0    0 -0.54800069613E+03  0.44884253745E+03  0.23159996329E+03  0.74844030959E+03  0.68992518702E+02 0.  0.
    9900016    2    1    2    0    0 -0.77275047858E+03 -0.86220669024E+03 -0.62684213718E+03  0.23011087647E+04  0.18872272792E+04 0.  0.
         24    2    4    4    0    0 -0.24341986558E+03 -0.99990411164E+03  0.37263271094E+03  0.10973173590E+04  0.78668835673E+02 0.  0.
        -15    1    5    5    0    0 -0.13656281791E+03 -0.56449486093E+03  0.16869223651E+03  0.60478171427E+03  0.00000000000E+00 0.  1.
        -15    1    1    2    0    0  0.13207511747E+04  0.41336415279E+03 -0.75655765571E+03  0.15772232165E+04  0.00000000000E+00 0.  1.
         15    1    3    3    0    0 -0.23620237289E+03  0.23540787297E+03  0.12068112809E+03  0.35464399373E+03  0.00000000000E+00 0. -1.
         15    1    4    4    0    0 -0.48091775495E+03  0.16444117519E+03 -0.96678561450E+03  0.10922441172E+04  0.00000000000E+00 0. -1.
        -16    1    3    3    0    0 -0.31179832324E+03  0.21343466448E+03  0.11091883519E+03  0.39379631586E+03  0.00000000000E+00 0.  1.
         16    1    5    5    0    0 -0.10685704767E+03 -0.43540925070E+03  0.20394047443E+03  0.49253564475E+03  0.00000000000E+00 0. -1.
    9900018    1    4    4    0    0 -0.48412858047E+02 -0.26743753791E+02 -0.32689233620E+02  0.11154728853E+03  0.91187600000E+02 0.  0.
<mgrwt>
<rscale>  0 0.24121002E+04</rscale>
<asrwt>0</asrwt>
<pdfrwt beam="1">  1        2 0.44450555E+00 0.36232118E+04</pdfrwt>
<pdfrwt beam="2">  1       -2 0.26730558E+00 0.36232118E+04</pdfrwt>
<totfact> 0.81102157E-02</totfact>
</mgrwt>
</event>
<event>
12    1  0.1275235E-010  0.3043724E+04  0.7818608E-02  0.8648386E-01
          1   -1    0    0  501    0  0.00000000000E+00  0.00000000000E+00  0.30070372453E+04  0.30070372453E+04  0.00000000000E+00 0. -1.
         -1   -1    0    0    0  501 -0.00000000000E+00 -0.00000000000E+00 -0.20391396535E+04  0.20391396535E+04  0.00000000000E+00 0.  1.
         24    2    1    2    0    0 -0.19346931930E+03 -0.42888674184E+03  0.18236067591E+04  0.18844536637E+04  0.65190367274E+02 0.  0.
    9900016    2    1    2    0    0 -0.69733969046E+03  0.37295198604E+03 -0.96136282249E+03  0.22629284400E+04  0.18897753359E+04 0.  0.
        -24    2    4    4    0    0 -0.66419457150E+03 -0.46337420278E+03 -0.10693923121E+04  0.13438670827E+04  0.80676750688E+02 0.  0.
        -15    1    4    4    0    0 -0.25584396973E+02  0.80376895634E+03  0.14110876642E+03  0.81646235707E+03  0.00000000000E+00 0.  1.
        -15    1    3    3    0    0 -0.31981023466E+02 -0.13201688655E+03  0.46390362350E+03  0.48338164642E+03  0.00000000000E+00 0.  1.
         15    1    5    5    0    0 -0.19931849888E+03 -0.10362502149E+03 -0.26121950678E+03  0.34453104330E+03  0.00000000000E+00 0. -1.
         15    1    1    2    0    0  0.89080900976E+03  0.55934755807E+02  0.10565365523E+03  0.89879479506E+03  0.00000000000E+00 0. -1.
        -16    1    5    5    0    0 -0.46487607262E+03 -0.35974918130E+03 -0.80817280531E+03  0.99933603937E+03  0.00000000000E+00 0.  1.
         16    1    3    3    0    0 -0.16148829583E+03 -0.29686985529E+03  0.13597031356E+04  0.14010720173E+04  0.00000000000E+00 0. -1.
    9900018    1    4    4    0    0 -0.75607219871E+01  0.32557232477E+02 -0.33079276804E+02  0.10259900024E+03  0.91187600000E+02 0.  0.
<mgrwt>
<rscale>  0 0.19130537E+04</rscale>
<asrwt>0</asrwt>
<pdfrwt beam="1">  1        1 0.46262111E+00 0.30437240E+04</pdfrwt>
<pdfrwt beam="2">  1       -1 0.31371379E+00 0.30437240E+04</pdfrwt>
<totfact> 0.12793892E-02</totfact>
</mgrwt>
</event>
<event>
12    1  0.1275235E-010  0.3383549E+04  0.7818608E-02  0.8449040E-01
         -2   -1    0    0    0  501 -0.00000000000E+00  0.00000000000E+00  0.19259764708E+04  0.19259764708E+04  0.00000000000E+00 0. -1.
          2   -1    0    0  501    0  0.00000000000E+00 -0.00000000000E+00 -0.24202172516E+04  0.24202172516E+04  0.00000000000E+00 0.  1.
         24    2    1    2    0    0 -0.80880324853E+03 -0.10679588004E+03 -0.50271477702E+03  0.96263439434E+03  0.91513798516E+02 0.  0.
    9900016    2    1    2    0    0  0.17061247262E+03  0.98862554112E+03  0.32339864048E+03  0.20815318827E+04  0.17949092517E+04 0.  0.
        -24    2    4    4    0    0 -0.36319428693E+03 -0.35027327762E+03  0.38370423164E+03  0.63888276821E+03  0.79629109423E+02 0.  0.
        -15    1    3    3    0    0 -0.31520116775E+03 -0.82376101439E+01 -0.15900510585E+03  0.35313206886E+03  0.00000000000E+00 0.  1.
        -15    1    4    4    0    0  0.53380675955E+03  0.13388988187E+04 -0.60305591162E+02  0.14426491145E+04  0.00000000000E+00 0.  1.
         15    1    1    2    0    0  0.58883731090E+03 -0.96436507544E+03 -0.29691123525E+03  0.11682832101E+04  0.00000000000E+00 0. -1.
         15    1    5    5    0    0 -0.51428430548E+02 -0.74349188719E+02  0.10148777149E+03  0.13591340292E+03  0.00000000000E+00 0. -1.
        -16    1    5    5    0    0 -0.31176585638E+03 -0.27592408890E+03  0.28221646015E+03  0.50296936529E+03  0.00000000000E+00 0.  1.
         16    1    3    3    0    0 -0.49360208077E+03 -0.98558269901E+02 -0.34370967117E+03  0.60950232548E+03  0.00000000000E+00 0. -1.
    9900018    1    1    2    0    0  0.49353465004E+02  0.82535414363E+02 -0.18013408967E+02  0.13374423512E+03  0.91187600000E+02 0.  0.
<mgrwt>
<rscale>  0 0.23746916E+04</rscale>
<asrwt>0</asrwt>
<pdfrwt beam="1">  1        2 0.37234112E+00 0.33835487E+04</pdfrwt>
<pdfrwt beam="2">  1       -2 0.29630407E+00 0.33835487E+04</pdfrwt>
<totfact> 0.10418895E-01</totfact>
</mgrwt>
</event>
<event>
12    1  0.1275235E-010  0.3558092E+04  0.7818608E-02  0.8472635E-01
         -1   -1    0    0    0  501 -0.00000000000E+00  0.00000000000E+00  0.15137491206E+04  0.15137491206E+04  0.00000000000E+00 0.  1.
          1   -1    0    0  501    0  0.00000000000E+00 -0.00000000000E+00 -0.31822739095E+04  0.31822739095E+04  0.00000000000E+00 0. -1.
         24    2    1    2    0    0 -0.36208248293E+03  0.51258137519E+03  0.21357650120E+03  0.67081179028E+03  0.10261649713E+03 0.  0.
    9900016    2    1    2    0    0  0.82995221460E+03 -0.19904090328E+03 -0.81041283726E+01  0.20684089823E+04  0.18840944990E+04 0.  0.
        -24    2    4    4    0    0  0.11917889873E+04  0.25933288831E+03  0.31936554464E+03  0.12632821835E+04  0.79202189427E+02 0.  0.
        -15    1    4    4    0    0 -0.42481581482E+03 -0.44011932060E+03 -0.32524374014E+03  0.69278927777E+03  0.00000000000E+00 0.  1.
        -15    1    3    3    0    0 -0.20301437008E+03  0.19976146999E+03  0.88470314411E+02  0.29823895769E+03  0.00000000000E+00 0.  1.
         15    1    1    2    0    0 -0.46786973167E+03 -0.31354047191E+03 -0.18739971617E+04  0.19568022576E+04  0.00000000000E+00 0. -1.
         15    1    5    5    0    0  0.32295190101E+03  0.90519336536E+02  0.11826937983E+03  0.35563932130E+03  0.00000000000E+00 0. -1.
        -16    1    5    5    0    0  0.86883708625E+03  0.16881355178E+03  0.20109616482E+03  0.90764286215E+03  0.00000000000E+00 0.  1.
         16    1    3    3    0    0 -0.15906811285E+03  0.31281990520E+03  0.12510618679E+03  0.37257283259E+03  0.00000000000E+00 0. -1.
    9900018    1    4    4    0    0  0.62979042163E+02 -0.18254470994E+02 -0.22259328751E+01  0.11233752104E+03  0.91187600000E+02 0.  0.
<mgrwt>
<rscale>  0 0.23134533E+04</rscale>
<asrwt>0</asrwt>
<pdfrwt beam="1">  1        1 0.48958060E+00 0.35580922E+04</pdfrwt>
<pdfrwt beam="2">  1       -1 0.23288448E+00 0.35580922E+04</pdfrwt>
<totfact> 0.31292199E-02</totfact>
</mgrwt>
</event>
<event>
12    1  0.1275235E-010  0.2703448E+04  0.7818608E-02  0.8509914E-01
          1   -1    0    0  501    0  0.00000000000E+00  0.00000000000E+00  0.16211986591E+04  0.16211986591E+04  0.00000000000E+00 0. -1.
         -1   -1    0    0    0  501 -0.00000000000E+00 -0.00000000000E+00 -0.24272489167E+04  0.24272489167E+04  0.00000000000E+00 0.  1.
        -24    2    1    2    0    0  0.94099141074E+03 -0.78669486613E+03 -0.49795120454E+03  0.13274998358E+04  0.99733466759E+02 0.  0.
    9900016    2    1    2    0    0 -0.69825212707E+03  0.32150991973E+03 -0.52126011951E+03  0.20317371689E+04  0.18070194105E+04 0.  0.
         24    2    4    4    0    0 -0.12795334836E+04 -0.22482855999E+02 -0.41665733405E+03  0.13482455538E+04  0.80320139337E+02 0.  0.
        -15    1    5    5    0    0 -0.78691744739E+03  0.20209027706E+02 -0.27610105733E+03  0.83419378304E+03  0.00000000000E+00 0.  1.
        -15    1    1    2    0    0 -0.18142837446E+03  0.46119142231E+03  0.27112851662E+03  0.56491101564E+03  0.00000000000E+00 0.  1.
         15    1    4    4    0    0  0.58128135655E+03  0.34399277573E+03 -0.10460278546E+03  0.68349161513E+03  0.00000000000E+00 0. -1.
         15    1    3    3    0    0  0.34498423134E+03 -0.24445489186E+03 -0.13572063025E+03  0.44406351291E+03  0.00000000000E+00 0. -1.
        -16    1    3    3    0    0  0.59600717940E+03 -0.54223997427E+03 -0.36223057429E+03  0.88343632286E+03  0.00000000000E+00 0.  1.
         16    1    5    5    0    0 -0.49261603624E+03 -0.42691883705E+02 -0.14055627672E+03  0.51405177076E+03  0.00000000000E+00 0. -1.
    9900018    1    1    2    0    0 -0.61310909209E+02  0.39935240932E+01 -0.57967450140E+02  0.12429955548E+03  0.91187600000E+02 0.  0.
<mgrwt>
<rscale>  0 0.22205732E+04</rscale>
<asrwt>0</asrwt>
<pdfrwt beam="1">  1        1 0.24941518E+00 0.27034481E+04</pdfrwt>
<pdfrwt beam="2">  1       -1 0.37342291E+00 0.27034481E+04</pdfrwt>
<totfact> 0.49294255E-02</totfact>
</mgrwt>
</event>
<event>
12    1  0.1275235E-010  0.4812432E+04  0.7818608E-02  0.8268509E-01
         -2   -1    0    0    0  501 -0.00000000000E+00  0.00000000000E+00  0.36293881128E+04  0.36293881128E+04  0.00000000000E+00 0. -1.
          2   -1    0    0  501    0  0.00000000000E+00 -0.00000000000E+00 -0.20570492162E+04  0.20570492162E+04  0.00000000000E+00 0.  1.
         24    2    1    2    0    0 -0.37821507212E+03 -0.51519400339E+03  0.11106301993E+03  0.65704042226E+03  0.10438208743E+03 0.  0.
    9900016    2    1    2    0    0 -0.13811785348E+04  0.73117385981E+03 -0.25876106478E+03  0.23951654283E+04  0.17965496881E+04 0.  0.
        -24    2    4    4    0    0 -0.14658813437E+04  0.94366880217E+02  0.34807364868E+03  0.15114539003E+04  0.74996039758E+02 0.  0.
        -15    1    4    4    0    0  0.84702808966E+02  0.63680697959E+03 -0.60683471346E+03  0.88371152791E+03  0.00000000000E+00 0.  1.
        -15    1    3    3    0    0 -0.14493261819E+03 -0.28291766962E+03  0.67528292732E+02  0.32497375574E+03  0.00000000000E+00 0.  1.
         15    1    5    5    0    0 -0.98980714674E+03  0.86187756095E+02  0.20746343073E+03  0.10149815723E+04  0.00000000000E+00 0. -1.
         15    1    1    2    0    0  0.18077802226E+04 -0.28619036636E+03  0.17166302299E+04  0.25093412692E+04  0.00000000000E+00 0. -1.
        -16    1    5    5    0    0 -0.47607419700E+03  0.81791241224E+01  0.14061021795E+03  0.49647232804E+03  0.00000000000E+00 0.  1.
         16    1    3    3    0    0 -0.23328245393E+03 -0.23227633377E+03  0.43534727195E+02  0.33206666652E+03  0.00000000000E+00 0. -1.
    9900018    1    1    2    0    0 -0.48386615728E+02  0.70210509939E+02  0.34067114878E+01  0.12489020924E+03  0.91187600000E+02 0.  0.
<mgrwt>
<rscale>  0 0.29147263E+04</rscale>
<asrwt>0</asrwt>
<pdfrwt beam="1">  1        2 0.31646911E+00 0.48124324E+04</pdfrwt>
<pdfrwt beam="2">  1       -2 0.55836740E+00 0.48124324E+04</pdfrwt>
<totfact> 0.35071144E-03</totfact>
</mgrwt>
</event>
<event>
11    1  0.1275235E-010  0.3521026E+04  0.7818608E-02  0.8596963E-01
          1   -1    0    0  501    0  0.00000000000E+00  0.00000000000E+00  0.22266972545E+04  0.22266972545E+04  0.00000000000E+00 0. -1.
         -1   -1    0    0    0  501 -0.00000000000E+00 -0.00000000000E+00 -0.17214614927E+04  0.17214614927E+04  0.00000000000E+00 0.  1.
    9900016    2    1    2    0    0 -0.13208735730E+04 -0.11451750328E+02  0.67738176485E+03  0.23995069456E+04  0.18851921356E+04 0.  0.
         24    2    3    3    0    0 -0.26172615196E+03  0.16491614450E+03 -0.59455413773E+03  0.67550539978E+03  0.84350513393E+02 0.  0.
        -15    1    4    4    0    0 -0.14825578765E+03  0.14113927135E+03 -0.38267630505E+03  0.43398298001E+03  0.00000000000E+00 0.  1.
        -15    1    1    2    0    0  0.19967052904E+03  0.11154099607E+03  0.16218897987E+03  0.28038362856E+03  0.00000000000E+00 0.  1.
         15    1    1    2    0    0  0.48443559273E+02  0.11777779420E+03 -0.16601755978E+02  0.12842899028E+03  0.00000000000E+00 0. -1.
         15    1    3    3    0    0 -0.97364161884E+03 -0.18490008951E+03  0.12525726276E+04  0.15972176535E+04  0.00000000000E+00 0. -1.
        -16    1    1    2    0    0  0.10727594847E+04 -0.21786703994E+03 -0.31773322691E+03  0.11398391827E+04  0.00000000000E+00 0.  1.
         16    1    4    4    0    0 -0.11347036431E+03  0.23776873143E+02 -0.21187783268E+03  0.24152241978E+03  0.00000000000E+00 0. -1.
    9900018    1    3    3    0    0 -0.85505802179E+02  0.85321946866E+01  0.19363274969E+02  0.12678389237E+03  0.91187600000E+02 0.  0.
<mgrwt>
<rscale>  0 0.20207881E+04</rscale>
<asrwt>0</asrwt>
<pdfrwt beam="1">  1        1 0.34256881E+00 0.35210260E+04</pdfrwt>
<pdfrwt beam="2">  1       -1 0.26484023E+00 0.35210260E+04</pdfrwt>
<totfact> 0.93681903E-02</totfact>
</mgrwt>
</event>
<event>
11    1  0.1275235E-010  0.1990539E+04  0.7818608E-02  0.9252916E-01
         -1   -1    0    0    0  501 -0.00000000000E+00  0.00000000000E+00  0.10353579935E+04  0.10353579935E+04  0.00000000000E+00 0.  1.
          1   -1    0    0  501    0  0.00000000000E+00 -0.00000000000E+00 -0.13291884326E+04  0.13291884326E+04  0.00000000000E+00 0. -1.
    9900016    2    1    2    0    0 -0.56133371598E+02 -0.11570248248E+03 -0.43866340153E+03  0.19456979138E+04  0.18912368366E+04 0.  0.
        -24    2    3    3    0    0  0.52971991227E+03 -0.57239766991E+03 -0.70706365181E+03  0.10556781567E+04  0.79215432451E+02 0.  0.
        -15    1    3    3    0    0 -0.60673597751E+03  0.43975301329E+03  0.26523609517E+03  0.79489712874E+03  0.00000000000E+00 0.  1.
        -15    1    1    2    0    0  0.42861131535E+02  0.15340636695E+02  0.51028558922E+02  0.68383664397E+02  0.00000000000E+00 0. -1.
         15    1    1    2    0    0 -0.30302559522E+02  0.10245479627E+03  0.20491546088E+03  0.23109646579E+03  0.00000000000E+00 0.  1.
         15    1    4    4    0    0  0.11618067713E+03 -0.10235095418E+03 -0.10489236599E+03  0.18701891883E+03  0.00000000000E+00 0. -1.
        -16    1    4    4    0    0  0.41353923515E+03 -0.47004671573E+03 -0.60217128582E+03  0.86865923782E+03  0.00000000000E+00 0.  1.
         16    1    1    2    0    0  0.43574799585E+02 -0.20929504850E+01 -0.11111105735E+03  0.11936838219E+03  0.00000000000E+00 0. -1.
    9900018    1    3    3    0    0  0.20882693635E+02  0.16942174136E+02  0.31641551134E+01  0.95122628376E+02  0.91187600000E+02 0.  0.
<mgrwt>
<rscale>  0 0.10523552E+04</rscale>
<asrwt>0</asrwt>
<pdfrwt beam="1">  1        1 0.20449053E+00 0.19905393E+04</pdfrwt>
<pdfrwt beam="2">  1       -1 0.15928585E+00 0.19905393E+04</pdfrwt>
<totfact> 0.23449949E+00</totfact>
</mgrwt>
</event>
<event>
11    1  0.1275235E-010  0.5968672E+04  0.7818608E-02  0.7694298E-01
         -2   -1    0    0    0  501 -0.00000000000E+00  0.00000000000E+00  0.20472695017E+04  0.20472695017E+04  0.00000000000E+00 0. -1.
          2   -1    0    0  501    0  0.00000000000E+00 -0.00000000000E+00 -0.43503125104E+04  0.43503125104E+04  0.00000000000E+00 0.  1.
    9900016    2    1    2    0    0  0.11846879103E+04 -0.36277821477E+03 -0.67760266200E+03  0.22898166645E+04  0.18025042335E+04 0.  0.
         24    2    3    3    0    0  0.15421015678E+04 -0.42052833824E+03 -0.94298427438E+02  0.16032866729E+04  0.81942867207E+02 0.  0.
        -15    1    4    4    0    0  0.52251193379E+03 -0.10579256121E+03 -0.46879028024E+02  0.53517140267E+03  0.00000000000E+00 0.  1.
        -15    1    1    2    0    0  0.43651932124E+02  0.38366379819E+03 -0.78237036961E+03  0.87247165940E+03  0.00000000000E+00 0.  1.
         15    1    3    3    0    0 -0.35741365752E+03  0.57750123472E+02 -0.58330423456E+03  0.68652999162E+03  0.00000000000E+00 0. -1.
         15    1    1    2    0    0 -0.14835127573E+04  0.56529637610E+02  0.67780787768E+03  0.16320015993E+04  0.00000000000E+00 0. -1.
        -16    1    1    2    0    0  0.20477210465E+03 -0.69396581161E+02 -0.14722370559E+04  0.14880287124E+04  0.00000000000E+00 0.  1.
         16    1    4    4    0    0  0.10195896340E+04 -0.31473577703E+03 -0.47419399414E+02  0.10681152702E+04  0.00000000000E+00 0. -1.
    9900018    1    1    2    0    0  0.50400810253E+02 -0.80186398706E+01 -0.48640798889E+02  0.11526337653E+03  0.91187600000E+02 0.  0.
<mgrwt>
<rscale>  0 0.59686723E+04</rscale>
<asrwt>0</asrwt>
<pdfrwt beam="1">  1        2 0.66927884E+00 0.59686723E+04</pdfrwt>
<pdfrwt beam="2">  1       -2 0.31496454E+00 0.59686723E+04</pdfrwt>
<totfact> 0.29342401E-03</totfact>
</mgrwt>
</event>
<event>
12    1  0.1275235E-010  0.4288750E+04  0.7818608E-02  0.7948702E-01
          1   -1    0    0  501    0  0.00000000000E+00  0.00000000000E+00  0.43877152306E+04  0.43877152306E+04  0.00000000000E+00 0. -1.
         -1   -1    0    0    0  501 -0.00000000000E+00 -0.00000000000E+00 -0.10480041244E+04  0.10480041244E+04  0.00000000000E+00 0.  1.
        -24    2    1    2    0    0 -0.60764336224E+02  0.12263739848E+04  0.48331657732E+03  0.13211238615E+04  0.63936594765E+02 0.  0.
    9900016    2    1    2    0    0 -0.49867605634E+03 -0.63954096277E+03  0.24637529052E+04  0.32137547789E+04  0.18974854278E+04 0.  0.
         24    2    4    4    0    0  0.48845912061E+03  0.27260677196E+03  0.28123534045E+03  0.63110071498E+03  0.79297106503E+02 0.  0.
        -15    1    1    2    0    0  0.55944039257E+03 -0.58683302207E+03  0.39264162365E+03  0.90084071470E+03  0.00000000000E+00 0.  1.
        -15    1    5    5    0    0  0.18454565667E+03  0.14465524105E+03  0.13285652465E+03  0.26950527694E+03  0.00000000000E+00 0.  1.
         15    1    4    4    0    0 -0.90192124630E+03 -0.82598614402E+03  0.20111627427E+04  0.23538246796E+04  0.00000000000E+00 0. -1.
         15    1    3    3    0    0 -0.68788867153E+02  0.81908745824E+03  0.31176477578E+03  0.87910946299E+03  0.00000000000E+00 0. -1.
        -16    1    3    3    0    0  0.80245309294E+01  0.40728652660E+03  0.17155180153E+03  0.44201439847E+03  0.00000000000E+00 0.  1.
         16    1    5    5    0    0  0.30391346395E+03  0.12795153091E+03  0.14837881580E+03  0.36159543804E+03  0.00000000000E+00 0. -1.
    9900018    1    4    4    0    0 -0.85213930662E+02 -0.86161590706E+02  0.17135482207E+03  0.22882938433E+03  0.91187600000E+02 0.  0.
<mgrwt>
<rscale>  0 0.42887498E+04</rscale>
<asrwt>0</asrwt>
<pdfrwt beam="1">  1        1 0.67503310E+00 0.42887498E+04</pdfrwt>
<pdfrwt beam="2">  1       -1 0.16123141E+00 0.42887498E+04</pdfrwt>
<totfact> 0.90867471E-03</totfact>
</mgrwt>
</event>
<event>
12    1  0.1275235E-010  0.3109566E+04  0.7818608E-02  0.8477446E-01
          1   -1    0    0  501    0  0.00000000000E+00  0.00000000000E+00  0.26309102294E+04  0.26309102294E+04  0.00000000000E+00 0. -1.
         -1   -1    0    0    0  501 -0.00000000000E+00 -0.00000000000E+00 -0.15568133010E+04  0.15568133010E+04  0.00000000000E+00 0.  1.
        -24    2    1    2    0    0 -0.58059784192E+03 -0.72666816296E+03  0.15733941952E+03  0.94583420132E+03  0.68601533075E+02 0.  0.
    9900016    2    1    2    0    0 -0.32937522583E+03  0.38849027426E+03  0.11015606584E+04  0.22536750443E+04  0.18990004183E+04 0.  0.
         24    2    4    4    0    0  0.45384975677E+03  0.83329520011E+03  0.47093917352E+03  0.10621971847E+04  0.78221875652E+02 0.  0.
        -15    1    5    5    0    0  0.17037784194E+03  0.39410435736E+03  0.21030483831E+03  0.47809515636E+03  0.00000000000E+00 0.  1.
        -15    1    1    2    0    0  0.90997306775E+03  0.33817788870E+03 -0.18480314945E+03  0.98821428470E+03  0.00000000000E+00 0.  1.
         15    1    3    3    0    0 -0.15472095240E+03 -0.18514807355E+03  0.71048593476E+02  0.25152790081E+03  0.00000000000E+00 0. -1.
         15    1    4    4    0    0 -0.79603479154E+03 -0.43277855831E+03  0.51165404366E+03  0.10405568366E+04  0.00000000000E+00 0. -1.
        -16    1    3    3    0    0 -0.42587688952E+03 -0.54152008941E+03  0.86290826042E+02  0.69430630050E+03  0.00000000000E+00 0.  1.
         16    1    5    5    0    0  0.28347191482E+03  0.43919084275E+03  0.26063433521E+03  0.58410202837E+03  0.00000000000E+00 0. -1.
    9900018    1    4    4    0    0  0.12809808947E+02 -0.12026367534E+02  0.11896744119E+03  0.15092102299E+03  0.91187600000E+02 0.  0.
<mgrwt>
<rscale>  0 0.23012047E+04</rscale>
<asrwt>0</asrwt>
<pdfrwt beam="1">  1        1 0.40475542E+00 0.31095662E+04</pdfrwt>
<pdfrwt beam="2">  1       -1 0.23950974E+00 0.31095662E+04</pdfrwt>
<totfact> 0.73439413E-02</totfact>
</mgrwt>
</event>
