<event>
12    1  0.1438153E-010  0.1355029E+04  0.7818608E-02  0.9599204E-01
          2   -1    0    0  501    0  0.00000000000E+00  0.00000000000E+00  0.98105491070E+03  0.98105491070E+03  0.00000000000E+00 0. -1.
         -2   -1    0    0    0  501 -0.00000000000E+00 -0.00000000000E+00 -0.68046458355E+03  0.68046458355E+03  0.00000000000E+00 0.  1.
         23    2    1    2    0    0  0.33100797985E+02  0.10635966112E+03  0.27024008463E+03  0.30615081728E+03  0.91052617957E+02 0.  0.
    9900016    2    1    2    0    0 -0.30573542562E+03 -0.41676576352E+03  0.83527510002E+02  0.93882406907E+03  0.77925986399E+03 0.  0.
         23    2    4    4    0    0  0.17337288820E+03 -0.32289664633E+03 -0.11092568034E+03  0.39317166927E+03  0.89213521312E+02 0.  0.
        -15    1    3    3    0    0 -0.31776804242E+01  0.82797175027E+02  0.96904653502E+02  0.12749894790E+03  0.00000000000E+00 0.  1.
        -15    1    5    5    0    0  0.54211285400E+02 -0.35643873691E+02 -0.31911147409E+02  0.72302631525E+02  0.00000000000E+00 0.  1.
         15    1    5    5    0    0  0.11916160280E+03 -0.28725277263E+03 -0.79014532934E+02  0.32086903774E+03  0.00000000000E+00 0. -1.
         15    1    3    3    0    0  0.36278478409E+02  0.23562486089E+02  0.17333543113E+03  0.17865186938E+03  0.00000000000E+00 0. -1.
        -16    1    4    4    0    0 -0.25177616056E+03 -0.70718474464E+02  0.74416677518E+02  0.27190104735E+03  0.00000000000E+00 0.  1.
         16    1    1    2    0    0  0.27263462764E+03  0.31040610241E+03 -0.53177267482E+02  0.41654460790E+03  0.00000000000E+00 0. -1.
    9900018    1    4    4    0    0 -0.22733215327E+03 -0.23150642733E+02  0.12003651283E+03  0.27375135246E+03  0.91187600000E+02 0.  0.
<mgrwt>
<rscale>  0 0.77348888E+03</rscale>
<asrwt>0</asrwt>
<pdfrwt beam="1">  1        2 0.15093152E+00 0.13550288E+04</pdfrwt>
<pdfrwt beam="2">  1       -2 0.10468686E+00 0.13550288E+04</pdfrwt>
<totfact> 0.18617191E+01</totfact>
</mgrwt>
</event>
<event>
12    1  0.1438153E-010  0.1329941E+04  0.7818608E-02  0.9299379E-01
          2   -1    0    0  501    0  0.00000000000E+00  0.00000000000E+00  0.21441959234E+04  0.21441959234E+04  0.00000000000E+00 0. -1.
         -2   -1    0    0    0  501 -0.00000000000E+00 -0.00000000000E+00 -0.37375649193E+03  0.37375649193E+03  0.00000000000E+00 0.  1.
         23    2    1    2    0    0 -0.41917092637E+03  0.94589334443E+02  0.28371015883E+03  0.52318259434E+03  0.92612985580E+02 0.  0.
    9900016    2    1    2    0    0  0.13469041063E+03  0.24729708082E+03  0.13822006101E+04  0.15378872036E+04  0.61263461498E+03 0.  0.
         23    2    4    4    0    0  0.13209694734E+03  0.27212242215E+02  0.63081229311E+02  0.17339419374E+03  0.88860538529E+02 0.  0.
        -15    1    5    5    0    0  0.67419143279E+02 -0.14973850774E+02 -0.66081333983E+01  0.69377406369E+02  0.00000000000E+00 0. -1.
        -15    1    3    3    0    0 -0.25254073372E+03  0.12315523940E+02  0.14688034510E+03  0.29240781469E+03  0.00000000000E+00 0.  1.
         15    1    5    5    0    0  0.64677804065E+02  0.42186092989E+02  0.69689362709E+02  0.10401678737E+03  0.00000000000E+00 0.  1.
         15    1    3    3    0    0 -0.16663019265E+03  0.82273810503E+02  0.13682981373E+03  0.23077477965E+03  0.00000000000E+00 0. -1.
        -16    1    4    4    0    0  0.40797458370E+02  0.22117937752E+03  0.64339084970E+03  0.68156917120E+03  0.00000000000E+00 0.  1.
         16    1    1    2    0    0  0.28448051574E+03 -0.34188641526E+03  0.10452866251E+03  0.45688261738E+03  0.00000000000E+00 0. -1.
    9900018    1    4    4    0    0 -0.38203995085E+02 -0.10945389228E+01  0.67572853109E+03  0.68292383863E+03  0.91187600000E+02 0.  0.
<mgrwt>
<rscale>  0 0.10084008E+04</rscale>
<asrwt>0</asrwt>
<pdfrwt beam="1">  1        2 0.32987629E+00 0.13299409E+04</pdfrwt>
<pdfrwt beam="2">  1       -2 0.57501000E-01 0.13299409E+04</pdfrwt>
<totfact> 0.15336484E+01</totfact>
</mgrwt>
</event>
<event>
12    1  0.1438153E-010  0.9070647E+03  0.7818608E-02  0.1014465E+00
          1   -1    0    0  501    0  0.00000000000E+00  0.00000000000E+00  0.73567685944E+03  0.73567685944E+03  0.00000000000E+00 0. -1.
         -1   -1    0    0    0  501 -0.00000000000E+00 -0.00000000000E+00 -0.41565978937E+03  0.41565978937E+03  0.00000000000E+00 0.  1.
         23    2    1    2    0    0  0.93169417463E+01 -0.23740879398E+01 -0.11828168827E+03  0.14392797566E+03  0.81438705182E+02 0.  0.
    9900016    2    1    2    0    0  0.19007091851E+03  0.20173412994E+01  0.21214178848E+03  0.70590805773E+03  0.64588777958E+03 0.  0.
         23    2    4    4    0    0  0.15417497024E+02 -0.10254881470E+03  0.29633509000E+03  0.32732065983E+03  0.92576293798E+02 0.  0.
        -15    1    3    3    0    0 -0.34915072922E+02 -0.45532402655E+01 -0.70349042077E+02  0.78668812341E+02  0.00000000000E+00 0. -1.
        -15    1    5    5    0    0 -0.29334965549E+02 -0.12015641981E+02  0.11997047479E+03  0.12408799570E+03  0.00000000000E+00 0. -1.
         15    1    3    3    0    0  0.44232014669E+02  0.21791523257E+01 -0.47932646193E+02  0.65259163323E+02  0.00000000000E+00 0.  1.
         15    1    5    5    0    0  0.44752462573E+02 -0.90533172720E+02  0.17636461521E+03  0.20323266412E+03  0.00000000000E+00 0.  1.
        -16    1    4    4    0    0  0.20631097849E+03  0.13336651403E+03  0.25150746445E+01  0.24567696780E+03  0.00000000000E+00 0.  1.
         16    1    1    2    0    0 -0.19938786025E+03  0.35674664035E+00  0.22615696986E+03  0.30150061542E+03  0.00000000000E+00 0. -1.
    9900018    1    4    4    0    0 -0.31657557003E+02 -0.28800358033E+02 -0.86708376160E+02  0.13291043010E+03  0.91187600000E+02 0.  0.
<mgrwt>
<rscale>  0 0.49737948E+03</rscale>
<asrwt>0</asrwt>
<pdfrwt beam="1">  1        1 0.11318105E+00 0.90706473E+03</pdfrwt>
<pdfrwt beam="2">  1       -1 0.63947660E-01 0.90706473E+03</pdfrwt>
<totfact> 0.63150207E+01</totfact>
</mgrwt>
</event>
<event>
12    1  0.1438153E-010  0.2983776E+04  0.7818608E-02  0.8876935E-01
          4   -1    0    0  501    0  0.00000000000E+00  0.00000000000E+00  0.17108186931E+04  0.17108186931E+04  0.00000000000E+00 0. -1.
         -4   -1    0    0    0  501 -0.00000000000E+00 -0.00000000000E+00 -0.15192861158E+04  0.15192861158E+04  0.00000000000E+00 0.  1.
         23    2    1    2    0    0  0.16940363074E+03 -0.40880395681E+02  0.14813563700E+03  0.24601296251E+03  0.90605816120E+02 0.  0.
    9900016    2    1    2    0    0  0.53608537503E+03 -0.68770159687E+03 -0.98978170134E+03  0.15363333849E+04  0.78761122245E+03 0.  0.
         23    2    4    4    0    0 -0.71449378685E+02  0.55328973936E+02 -0.32147225115E+03  0.34603640684E+03  0.90721979269E+02 0.  0.
        -15    1    3    3    0    0  0.92817648281E+02 -0.63325899786E+02  0.60999342737E+02  0.12785227894E+03  0.00000000000E+00 0. -1.
        -15    1    5    5    0    0 -0.48511014290E+02 -0.17502454749E+02 -0.13699362113E+03  0.14637932456E+03  0.00000000000E+00 0.  1.
         15    1    5    5    0    0 -0.22938364394E+02  0.72831428685E+02 -0.18447863003E+03  0.19965708227E+03  0.00000000000E+00 0. -1.
         15    1    3    3    0    0  0.76585982464E+02  0.22445504104E+02  0.87136294262E+02  0.11816068357E+03  0.00000000000E+00 0.  1.
        -16    1    4    4    0    0  0.40843287563E+03 -0.41815800343E+03 -0.32177053843E+03  0.66724044326E+03  0.00000000000E+00 0.  1.
         16    1    1    2    0    0 -0.70548900578E+03  0.72858199255E+03  0.10331786416E+04  0.14477584614E+04  0.00000000000E+00 0. -1.
    9900018    1    4    4    0    0  0.19910187809E+03 -0.32487256738E+03 -0.34653891176E+03  0.52305653485E+03  0.91187600000E+02 0.  0.
<mgrwt>
<rscale>  0 0.15113584E+04</rscale>
<asrwt>0</asrwt>
<pdfrwt beam="1">  1        4 0.26320288E+00 0.29837763E+04</pdfrwt>
<pdfrwt beam="2">  1       -4 0.23373633E+00 0.29837763E+04</pdfrwt>
<totfact> 0.70082668E-03</totfact>
</mgrwt>
</event>
<event>
12    1  0.1438153E-010  0.1979999E+04  0.7818608E-02  0.9078683E-01
          4   -1    0    0  501    0  0.00000000000E+00  0.00000000000E+00  0.48220865897E+03  0.48220865897E+03  0.00000000000E+00 0. -1.
         -4   -1    0    0    0  501 -0.00000000000E+00 -0.00000000000E+00 -0.27060476581E+04  0.27060476581E+04  0.00000000000E+00 0.  1.
         23    2    1    2    0    0 -0.42001891495E+02  0.28708639260E+03 -0.31128768464E+03  0.43539420405E+03  0.92115875956E+02 0.  0.
    9900016    2    1    2    0    0  0.41468234358E+03 -0.36580484175E+03 -0.51648453328E+02  0.85337618986E+03  0.64792648530E+03 0.  0.
         23    2    4    4    0    0 -0.51780591964E+02  0.78208196758E+02  0.43616895194E+02  0.13716433515E+03  0.90077020076E+02 0.  0.
        -15    1    5    5    0    0 -0.25863369634E+02  0.39667372744E+02  0.69420268664E+02  0.84033255623E+02  0.00000000000E+00 0. -1.
        -15    1    3    3    0    0 -0.33207452929E+02  0.18960864624E+03 -0.26391730896E+03  0.32665963881E+03  0.00000000000E+00 0.  1.
         15    1    5    5    0    0 -0.25917222330E+02  0.38540824014E+02 -0.25803373470E+02  0.53131079524E+02  0.00000000000E+00 0.  1.
         15    1    3    3    0    0 -0.87944385660E+01  0.97477746360E+02 -0.47370375681E+02  0.10873456524E+03  0.00000000000E+00 0. -1.
        -16    1    1    2    0    0 -0.37268045209E+03  0.78718449152E+02 -0.18609028612E+04  0.18994859232E+04  0.00000000000E+00 0.  1.
         16    1    4    4    0    0  0.10783476271E+03 -0.18958882056E+03 -0.14869986945E+03  0.26397709769E+03  0.00000000000E+00 0. -1.
    9900018    1    4    4    0    0  0.35862817284E+03 -0.25442421795E+03  0.53434520931E+02  0.45223475701E+03  0.91187600000E+02 0.  0.
<mgrwt>
<rscale>  0 0.12398383E+04</rscale>
<asrwt>0</asrwt>
<pdfrwt beam="1">  1        4 0.74185949E-01 0.19799993E+04</pdfrwt>
<pdfrwt beam="2">  1       -4 0.41631502E+00 0.19799993E+04</pdfrwt>
<totfact> 0.15894796E-02</totfact>
</mgrwt>
</event>
<event>
12    1  0.1438153E-010  0.1191893E+04  0.7818608E-02  0.9668585E-01
         -1   -1    0    0    0  501 -0.00000000000E+00  0.00000000000E+00  0.12047355887E+04  0.12047355887E+04  0.00000000000E+00 0.  1.
          1   -1    0    0  501    0  0.00000000000E+00 -0.00000000000E+00 -0.45867545064E+03  0.45867545064E+03  0.00000000000E+00 0. -1.
         23    2    1    2    0    0  0.50365009193E+02 -0.13165313360E+03 -0.10644962015E+03  0.19801626275E+03  0.89497133727E+02 0.  0.
    9900016    2    1    2    0    0  0.28346561416E+03  0.57624255797E+02  0.64475852696E+03  0.10652901229E+04  0.79715505298E+03 0.  0.
         23    2    4    4    0    0  0.35607592578E+03  0.85789565646E+01  0.33409069696E+03  0.49699448665E+03  0.92321517278E+02 0.  0.
        -15    1    3    3    0    0  0.36865066668E+02 -0.49121597007E+02  0.15346570293E+01  0.61435491413E+02  0.00000000000E+00 0. -1.
        -15    1    5    5    0    0  0.95085111115E+02  0.28821212637E+02  0.13740105541E+03  0.16956087603E+03  0.00000000000E+00 0.  1.
         15    1    5    5    0    0  0.26099081466E+03 -0.20242256072E+02  0.19668964155E+03  0.32743361062E+03  0.00000000000E+00 0. -1.
         15    1    3    3    0    0  0.13499942526E+02 -0.82531536593E+02 -0.10798427718E+03  0.13658077134E+03  0.00000000000E+00 0.  1.
        -16    1    4    4    0    0 -0.17826964853E+03  0.11834989000E+03 -0.74010810644E+01  0.21410637555E+03  0.00000000000E+00 0.  1.
         16    1    1    2    0    0 -0.33383062335E+03  0.74028877803E+02  0.20775123120E+03  0.40010465369E+03  0.00000000000E+00 0. -1.
    9900018    1    4    4    0    0  0.10565933692E+03 -0.69304590768E+02  0.31806891107E+03  0.35418926065E+03  0.91187600000E+02 0.  0.
<mgrwt>
<rscale>  0 0.72918453E+03</rscale>
<asrwt>0</asrwt>
<pdfrwt beam="1">  1        1 0.70565455E-01 0.11918930E+04</pdfrwt>
<pdfrwt beam="2">  1       -1 0.18534393E+00 0.11918930E+04</pdfrwt>
<totfact> 0.93943484E+00</totfact>
</mgrwt>
</event>
<event>
11    1  0.1438153E-010  0.1572122E+04  0.7818608E-02  0.9480606E-01
         -2   -1    0    0    0  501 -0.00000000000E+00  0.00000000000E+00  0.37837319511E+03  0.37837319511E+03  0.00000000000E+00 0. -1.
          2   -1    0    0  501    0  0.00000000000E+00 -0.00000000000E+00 -0.19397133633E+04  0.19397133633E+04  0.00000000000E+00 0.  1.
         23    2    1    2    0    0 -0.94454016801E+02 -0.17476601182E+02 -0.16124361060E+03  0.21289366023E+03  0.10048490298E+03 0.  0.
         23    2    1    2    0    0 -0.16578900899E+03 -0.19513929969E+03 -0.24550591770E+02  0.27391214955E+03  0.94126469853E+02 0.  0.
        -15    1    3    3    0    0 -0.39155525306E+02  0.35131674179E+02 -0.10707527011E+03  0.11930005516E+03  0.00000000000E+00 0.  1.
        -15    1    4    4    0    0 -0.12624727346E+03 -0.10663067439E+03  0.21400936977E+02  0.16663275452E+03  0.00000000000E+00 0. -1.
         15    1    3    3    0    0 -0.55298491495E+02 -0.52608275361E+02 -0.54168340490E+02  0.93593605067E+02  0.00000000000E+00 0. -1.
         15    1    4    4    0    0 -0.39541735527E+02 -0.88508625309E+02 -0.45951528747E+02  0.10727939502E+03  0.00000000000E+00 0.  1.
        -16    1    1    2    0    0  0.17507881153E+03  0.21148388380E+02 -0.85958157735E+02  0.19618524272E+03  0.00000000000E+00 0.  1.
         16    1    1    2    0    0 -0.28176121810E+03  0.38469924108E+03 -0.31354519070E+03  0.57069560777E+03  0.00000000000E+00 0. -1.
    9900018    1    1    2    0    0  0.36692543235E+03 -0.19323172859E+03 -0.97604261736E+03  0.10643998981E+04  0.91187600000E+02 0.  0.
<mgrwt>
<rscale>  0 0.85728918E+03</rscale>
<asrwt>0</asrwt>
<pdfrwt beam="1">  1        2 0.29841744E+00 0.15721217E+04</pdfrwt>
<pdfrwt beam="2">  1       -2 0.58211262E-01 0.15721217E+04</pdfrwt>
<totfact> 0.19101865E+01</totfact>
</mgrwt>
</event>
<event>
12    1  0.1438153E-010  0.1870680E+04  0.7818608E-02  0.8669590E-01
          1   -1    0    0  501    0  0.00000000000E+00  0.00000000000E+00  0.40714600653E+03  0.40714600653E+03  0.00000000000E+00 0. -1.
         -1   -1    0    0    0  501 -0.00000000000E+00 -0.00000000000E+00 -0.21487642405E+04  0.21487642405E+04  0.00000000000E+00 0.  1.
         23    2    1    2    0    0 -0.32130380608E+03  0.32882502910E+02 -0.27619023740E+02  0.33669854510E+03  0.91025847991E+02 0.  0.
    9900016    2    1    2    0    0  0.39987056998E+02  0.14617020903E+03 -0.21932752353E+03  0.68779326205E+03  0.63402706094E+03 0.  0.
         23    2    4    4    0    0  0.17800937468E+03  0.10626537226E+03 -0.27621291828E+03  0.35784160925E+03  0.93687642035E+02 0.  0.
        -15    1    3    3    0    0 -0.22707741591E+03  0.41597409969E+01 -0.56513990040E+02  0.23404120862E+03  0.00000000000E+00 0. -1.
        -15    1    5    5    0    0  0.70460187727E+02  0.65567697386E+02 -0.61337884111E+02  0.11413192815E+03  0.00000000000E+00 0. -1.
         15    1    5    5    0    0  0.10754918695E+03  0.40697674872E+02 -0.21487503417E+03  0.24370968111E+03  0.00000000000E+00 0.  1.
         15    1    3    3    0    0 -0.94226390175E+02  0.28722761914E+02  0.28894966300E+02  0.10265733649E+03  0.00000000000E+00 0.  1.
        -16    1    1    2    0    0  0.28131674908E+03 -0.17905271194E+03 -0.14946716867E+04  0.15314184399E+04  0.00000000000E+00 0.  1.
         16    1    4    4    0    0 -0.13483146049E+03  0.52455021771E+02 -0.79729029985E+02  0.16519010342E+03  0.00000000000E+00 0. -1.
    9900018    1    4    4    0    0 -0.31908571921E+01 -0.12550184994E+02  0.13661442474E+03  0.16476154938E+03  0.91187600000E+02 0.  0.
<mgrwt>
<rscale>  0 0.18706799E+04</rscale>
<asrwt>0</asrwt>
<pdfrwt beam="1">  1        1 0.62637847E-01 0.18706799E+04</pdfrwt>
<pdfrwt beam="2">  1       -1 0.33057912E+00 0.18706799E+04</pdfrwt>
<totfact> 0.11487875E+00</totfact>
</mgrwt>
</event>
<event>
12    1  0.1438153E-010  0.8913023E+03  0.7818608E-02  0.1002163E+00
         -2   -1    0    0    0  501 -0.00000000000E+00  0.00000000000E+00  0.16865269063E+03  0.16865269063E+03  0.00000000000E+00 0.  1.
          2   -1    0    0  501    0  0.00000000000E+00 -0.00000000000E+00 -0.16010510054E+04  0.16010510054E+04  0.00000000000E+00 0. -1.
         23    2    1    2    0    0 -0.68001472211E+01 -0.84837374220E+02 -0.79017435614E+02  0.14919153748E+03  0.93652216513E+02 0.  0.
    9900016    2    1    2    0    0 -0.11578588954E+03  0.14388010846E+03 -0.13232802845E+04  0.14811585555E+04  0.63925902221E+03 0.  0.
         23    2    4    4    0    0 -0.22921149989E+03 -0.47738773780E+02 -0.28230905908E+03  0.37840741392E+03  0.93149685289E+02 0.  0.
        -15    1    3    3    0    0  0.23628388265E+02 -0.51757713518E+02  0.15697798155E+01  0.56917711209E+02  0.00000000000E+00 0.  1.
        -15    1    5    5    0    0 -0.96644766779E+02  0.23184934960E+02 -0.13754796557E+03  0.16969736293E+03  0.00000000000E+00 0. -1.
         15    1    5    5    0    0 -0.13256673311E+03 -0.70923708740E+02 -0.14476109351E+03  0.20871005099E+03  0.00000000000E+00 0.  1.
         15    1    3    3    0    0 -0.30428535486E+02 -0.33079660702E+02 -0.80587215429E+02  0.92273826271E+02  0.00000000000E+00 0. -1.
        -16    1    1    2    0    0  0.12258603676E+03 -0.59042734235E+02 -0.30100594670E+02  0.13935360302E+03  0.00000000000E+00 0.  1.
         16    1    4    4    0    0 -0.40690505173E+02  0.17968162654E+03 -0.54647496344E+03  0.57669410417E+03  0.00000000000E+00 0. -1.
    9900018    1    4    4    0    0  0.15411611552E+03  0.11937255699E+02 -0.49449626197E+03  0.52605703743E+03  0.91187600000E+02 0.  0.
<mgrwt>
<rscale>  0 0.54711986E+03</rscale>
<asrwt>0</asrwt>
<pdfrwt beam="1">  1        2 0.24631555E+00 0.89130233E+03</pdfrwt>
<pdfrwt beam="2">  1       -2 0.25946567E-01 0.89130233E+03</pdfrwt>
<totfact> 0.15015792E+02</totfact>
</mgrwt>
</event>
