<event>
12    1  0.5265050E-010  0.3479001E+04  0.7818608E-02  0.8869438E-01
          1   -1    0    0  501    0  0.00000000000E+00  0.00000000000E+00  0.12194426574E+04  0.12194426574E+04  0.00000000000E+00 0. -1.
         -1   -1    0    0    0  501 -0.00000000000E+00 -0.00000000000E+00 -0.30849443042E+04  0.30849443042E+04  0.00000000000E+00 0.  1.
         23    2    1    2    0    0  0.75765331530E+02 -0.47803696861E+02  0.21550187963E+03  0.25049706113E+03  0.91006255920E+02 0.  0.
    9900016    2    1    2    0    0  0.32043024618E+03  0.78095580498E+03 -0.13777349188E+04  0.27331319599E+04  0.22043795707E+04 0.  0.
         24    2    4    4    0    0 -0.41985159801E+03 -0.62183236946E+03 -0.61341517548E+03  0.97244557637E+03  0.80133397686E+02 0.  0.
        -15    1    5    5    0    0 -0.91677358926E+01 -0.48188533062E+02 -0.38328913784E+02  0.62251809065E+02  0.00000000000E+00 0.  1.
        -15    1    3    3    0    0  0.95506518936E+02 -0.28666446759E+02  0.15940315141E+03  0.18802293745E+03  0.00000000000E+00 0.  1.
         15    1    4    4    0    0  0.74028184419E+03  0.14027881744E+04 -0.76431974332E+03  0.17606863836E+04  0.00000000000E+00 0. -1.
         15    1    3    3    0    0 -0.19741187405E+02 -0.19137250102E+02  0.56098728218E+02  0.62474123678E+02  0.00000000000E+00 0. -1.
        -16    1    1    2    0    0 -0.45067428432E+03 -0.84731716120E+03 -0.57452009061E+03  0.11185378924E+04  0.00000000000E+00 0.  1.
         16    1    5    5    0    0 -0.41068386212E+03 -0.57364383640E+03 -0.57508626169E+03  0.91019376730E+03  0.00000000000E+00 0. -1.
    9900018    1    1    2    0    0  0.54478706605E+02  0.11416505309E+03 -0.12874851704E+03  0.20222004810E+03  0.91187600000E+02 0.  0.
<mgrwt>
<rscale>  0 0.15227901E+04</rscale>
<asrwt>0</asrwt>
<pdfrwt beam="1">  1        1 0.18760657E+00 0.34790010E+04</pdfrwt>
<pdfrwt beam="2">  1       -1 0.47460680E+00 0.34790010E+04</pdfrwt>
<totfact> 0.18313483E-02</totfact>
</mgrwt>
</event>
<event>
12    1  0.5265050E-010  0.3658395E+04  0.7818608E-02  0.8077245E-01
         -2   -1    0    0    0  501 -0.00000000000E+00  0.00000000000E+00  0.15081749919E+04  0.15081749919E+04  0.00000000000E+00 0.  1.
          2   -1    0    0  501    0  0.00000000000E+00 -0.00000000000E+00 -0.22185513402E+04  0.22185513402E+04  0.00000000000E+00 0. -1.
         23    2    1    2    0    0 -0.84868580216E+02 -0.15580355745E+03 -0.36993966210E+03  0.42027992729E+03  0.91117722032E+02 0.  0.
    9900016    2    1    2    0    0  0.23653041815E+03 -0.19265655210E+03 -0.60534838363E+03  0.22970743836E+04  0.21947758137E+04 0.  0.
         24    2    4    4    0    0  0.63677229738E+03 -0.95023928646E+03  0.14796016527E+03  0.11561979962E+04  0.80423477607E+02 0.  0.
        -15    1    3    3    0    0 -0.41639577081E+02 -0.14773640565E+03 -0.26083423684E+03  0.30264566583E+03  0.00000000000E+00 0.  1.
        -15    1    5    5    0    0  0.36203345349E+03 -0.59532883928E+03  0.65239510616E+02  0.69981486271E+03  0.00000000000E+00 0.  1.
         15    1    4    4    0    0 -0.40024187924E+03  0.75758273435E+03 -0.75330854890E+03  0.11408763873E+04  0.00000000000E+00 0. -1.
         15    1    3    3    0    0 -0.43229003135E+02 -0.80671517985E+01 -0.10910542525E+03  0.11763426146E+03  0.00000000000E+00 0. -1.
        -16    1    1    2    0    0  0.23712926841E+02 -0.87077790958E+02  0.47750557157E+03  0.48595927345E+03  0.00000000000E+00 0.  1.
         16    1    5    5    0    0  0.27473884390E+03 -0.35491044717E+03  0.82720654657E+02  0.45638313353E+03  0.00000000000E+00 0. -1.
    9900018    1    1    2    0    0 -0.17537476477E+03  0.43553790050E+03 -0.21259387418E+03  0.52341274786E+03  0.91187600000E+02 0.  0.
<mgrwt>
<rscale>  0 0.36583951E+04</rscale>
<asrwt>0</asrwt>
<pdfrwt beam="1">  1        2 0.34131559E+00 0.36583951E+04</pdfrwt>
<pdfrwt beam="2">  1       -2 0.23202692E+00 0.36583951E+04</pdfrwt>
<totfact> 0.33956501E-01</totfact>
</mgrwt>
</event>
<event>
12    1  0.5265050E-010  0.3911034E+04  0.7818608E-02  0.8819288E-01
         -1   -1    0    0    0  501 -0.00000000000E+00  0.00000000000E+00  0.15246976780E+04  0.15246976780E+04  0.00000000000E+00 0.  1.
          1   -1    0    0  501    0  0.00000000000E+00 -0.00000000000E+00 -0.26659893597E+04  0.26659893597E+04  0.00000000000E+00 0. -1.
         23    2    1    2    0    0  0.56722963094E+02 -0.15038168113E+02 -0.86186518409E+02  0.13983069230E+03  0.93171162444E+02 0.  0.
    9900016    2    1    2    0    0 -0.42565013781E+03 -0.49737469437E+01 -0.40027184699E+03  0.22906543337E+04  0.22148762826E+04 0.  0.
        -24    2    4    4    0    0  0.57947193570E+03  0.11737625492E+03  0.61502152975E+03  0.85675735470E+03  0.78846517358E+02 0.  0.
        -15    1    3    3    0    0  0.63275106594E+02  0.65779085935E+01 -0.96031270583E+02  0.11519120160E+03  0.00000000000E+00 0. -1.
        -15    1    4    4    0    0 -0.10051220735E+04 -0.12235000186E+03 -0.10152933767E+04  0.14338969790E+04  0.00000000000E+00 0.  1.
         15    1    3    3    0    0 -0.65521434999E+01 -0.21616076707E+02  0.98447521739E+01  0.24639490701E+02  0.00000000000E+00 0.  1.
         15    1    5    5    0    0  0.42166082597E+03  0.53404550970E+02  0.41443416066E+03  0.59363757608E+03  0.00000000000E+00 0. -1.
        -16    1    5    5    0    0  0.15781110974E+03  0.63971703948E+02  0.20058736909E+03  0.26311977862E+03  0.00000000000E+00 0.  1.
         16    1    1    2    0    0  0.41671749369E+01 -0.69165781482E+03 -0.65894148286E+03  0.95530716316E+03  0.00000000000E+00 0. -1.
    9900018    1    1    2    0    0  0.36475999978E+03  0.71166972987E+03  0.41081665541E+01  0.80489484859E+03  0.91187600000E+02 0.  0.
<mgrwt>
<rscale>  0 0.16020525E+04</rscale>
<asrwt>0</asrwt>
<pdfrwt beam="1">  1        1 0.41015221E+00 0.39110344E+04</pdfrwt>
<pdfrwt beam="2">  1       -1 0.23456888E+00 0.39110344E+04</pdfrwt>
<totfact> 0.71666571E-02</totfact>
</mgrwt>
</event>
<event>
12    1  0.5265050E-010  0.4715881E+04  0.7818608E-02  0.8656260E-01
          2   -1    0    0  501    0  0.00000000000E+00  0.00000000000E+00  0.26992261742E+04  0.26992261742E+04  0.00000000000E+00 0.  1.
         -2   -1    0    0    0  501 -0.00000000000E+00 -0.00000000000E+00 -0.24815855760E+04  0.24815855760E+04  0.00000000000E+00 0. -1.
         23    2    1    2    0    0 -0.58761286465E+02  0.67707500215E+02 -0.40553883087E+03  0.42393352429E+03  0.84974674450E+02 0.  0.
    9900016    2    1    2    0    0  0.90289881334E+03  0.45359769884E+03  0.99103055020E+03  0.26124197936E+04  0.21958184094E+04 0.  0.
        -24    2    4    4    0    0 -0.58218473873E+03  0.58201376777E+02  0.89540565251E+03  0.10726290516E+04  0.80345065579E+02 0.  0.
        -15    1    4    4    0    0  0.14850835521E+04  0.39539632206E+03  0.95624897689E+02  0.15397907420E+04  0.00000000000E+00 0.  1.
        -15    1    3    3    0    0  0.13045018095E+02  0.33519921094E+02 -0.20623274082E+03  0.20934588841E+03  0.00000000000E+00 0.  1.
         15    1    3    3    0    0 -0.71806304560E+02  0.34187579121E+02 -0.19930609005E+03  0.21458763588E+03  0.00000000000E+00 0. -1.
         15    1    5    5    0    0 -0.13355015598E+03 -0.10595927169E+01  0.26329372080E+03  0.29522931818E+03  0.00000000000E+00 0. -1.
        -16    1    5    5    0    0 -0.44863458275E+03  0.59260969494E+02  0.63211193171E+03  0.77739973344E+03  0.00000000000E+00 0.  1.
         16    1    1    2    0    0  0.38025688440E+03  0.21070871570E+03  0.33759447632E+03  0.55042119458E+03  0.00000000000E+00 0. -1.
    9900018    1    1    2    0    0 -0.12243944113E+04 -0.73201391476E+03 -0.70544559744E+03  0.15940372377E+04  0.91187600000E+02 0.  0.
<mgrwt>
<rscale>  0 0.18971819E+04</rscale>
<asrwt>0</asrwt>
<pdfrwt beam="1">  1        2 0.41526557E+00 0.47158815E+04</pdfrwt>
<pdfrwt beam="2">  1       -2 0.38178239E+00 0.47158815E+04</pdfrwt>
<totfact> 0.18977439E-02</totfact>
</mgrwt>
</event>
<event>
12    1  0.5265050E-010  0.3467341E+04  0.7818608E-02  0.8121574E-01
          2   -1    0    0  501    0  0.00000000000E+00  0.00000000000E+00  0.13705276780E+04  0.13705276780E+04  0.00000000000E+00 0. -1.
         -2   -1    0    0    0  501 -0.00000000000E+00 -0.00000000000E+00 -0.21930341229E+04  0.21930341229E+04  0.00000000000E+00 0.  1.
         23    2    1    2    0    0 -0.12668165549E+03  0.37401035442E+03  0.18500077706E+03  0.44590768231E+03  0.93147123330E+02 0.  0.
    9900016    2    1    2    0    0  0.49713333916E+02 -0.38614312068E+03 -0.66639192298E+03  0.23352337363E+04  0.22040100914E+04 0.  0.
         24    2    4    4    0    0  0.44398945498E+03  0.76013294559E+03 -0.69223494626E+03  0.11227691630E+04  0.80576928383E+02 0.  0.
        -15    1    3    3    0    0 -0.44521395576E+02  0.25305586504E+03  0.14162853696E+03  0.29339064058E+03  0.00000000000E+00 0. -1.
        -15    1    5    5    0    0  0.40940600002E+03  0.73402754681E+03 -0.65344279607E+03  0.10646112906E+04  0.00000000000E+00 0.  1.
         15    1    4    4    0    0 -0.39427612106E+03 -0.11462760663E+04  0.25843023287E+02  0.12124645733E+04  0.00000000000E+00 0. -1.
         15    1    3    3    0    0 -0.82160259911E+02  0.12095448937E+03  0.43372240098E+02  0.15251704173E+03  0.00000000000E+00 0.  1.
        -16    1    1    2    0    0  0.18601681029E+03  0.59675236865E+02 -0.51620576043E+03  0.55193457466E+03  0.00000000000E+00 0.  1.
         16    1    5    5    0    0  0.34583454963E+02  0.26105398773E+02 -0.38792150191E+02  0.58157872371E+02  0.00000000000E+00 0. -1.
    9900018    1    1    2    0    0 -0.10904848872E+03 -0.47542470603E+02  0.17509046152E+03  0.23048580761E+03  0.91187600000E+02 0.  0.
<mgrwt>
<rscale>  0 0.34673413E+04</rscale>
<asrwt>0</asrwt>
<pdfrwt beam="1">  1        2 0.21085041E+00 0.34673413E+04</pdfrwt>
<pdfrwt beam="2">  1       -2 0.33738986E+00 0.34673413E+04</pdfrwt>
<totfact> 0.23136017E-01</totfact>
</mgrwt>
</event>
