<event>
10    1  0.4456763E-015  0.2176774E+04  0.7818608E-02  0.9061958E-01
         -1   -1    0    0    0  501 -0.00000000000E+00  0.00000000000E+00  0.84565390433E+03  0.84565390433E+03  0.00000000000E+00 0.  1.
          1   -1    0    0  501    0  0.00000000000E+00 -0.00000000000E+00 -0.19841958261E+04  0.19841958261E+04  0.00000000000E+00 0. -1.
         24    2    1    2    0    0 -0.14082961177E+03  0.17777601937E+03 -0.50783216557E+03  0.56354429137E+03  0.90837037261E+02 0.  0.
        -15    1    1    2    0    0 -0.21268169360E+03  0.67852691239E+01  0.19813107653E+03  0.29074983432E+03  0.00000000000E+00 0. -1.
        -15    1    3    3    0    0 -0.78821139256E+01 -0.62195506717E+01 -0.37680497596E+01  0.10724212301E+02  0.00000000000E+00 0. -1.
         15    1    1    2    0    0 -0.31065934374E+03  0.16626003377E+03  0.19904390095E+03  0.40468518775E+03  0.00000000000E+00 0.  1.
         15    1    1    2    0    0  0.23318358931E+03 -0.12404404681E+03 -0.13317127011E+03  0.29579739528E+03  0.00000000000E+00 0.  1.
        -16    1    1    2    0    0  0.17348647632E+03 -0.21486362613E+03 -0.95580615967E+03  0.99490167864E+03  0.00000000000E+00 0.  1.
         16    1    3    3    0    0 -0.13294749784E+03  0.18399557004E+03 -0.50406411581E+03  0.55282007907E+03  0.00000000000E+00 0. -1.
    9900018    1    1    2    0    0  0.25750058348E+03 -0.11913649325E+02  0.61092696154E+02  0.28017134302E+03  0.91187600000E+02 0.  0.
<mgrwt>
<rscale>  0 0.12599304E+04</rscale>
<asrwt>0</asrwt>
<pdfrwt beam="1">  1        1 0.30526089E+00 0.21767741E+04</pdfrwt>
<pdfrwt beam="2">  1       -1 0.13010060E+00 0.21767741E+04</pdfrwt>
<totfact> 0.13961783E+00</totfact>
</mgrwt>
</event>
<event>
10    1  0.4456763E-015  0.1604979E+04  0.7818608E-02  0.8866515E-01
         -2   -1    0    0    0  501 -0.00000000000E+00  0.00000000000E+00  0.12427760334E+04  0.12427760334E+04  0.00000000000E+00 0.  1.
          2   -1    0    0  501    0  0.00000000000E+00 -0.00000000000E+00 -0.17401952605E+04  0.17401952605E+04  0.00000000000E+00 0. -1.
        -24    2    1    2    0    0  0.36781043842E+02  0.56584654357E+02 -0.86278342491E+02  0.12317651792E+03  0.56336789836E+02 0.  0.
        -15    1    1    2    0    0 -0.13878027388E+02 -0.36115644981E+02 -0.69202809181E+02  0.79284098375E+02  0.00000000000E+00 0. -1.
        -15    1    1    2    0    0 -0.64790929290E+03  0.34298600402E+03 -0.12834888615E+03  0.74424410468E+03  0.00000000000E+00 0.  1.
         15    1    3    3    0    0  0.99092083137E+01  0.59680783897E+02 -0.54303627805E+02  0.81294971362E+02  0.00000000000E+00 0.  1.
         15    1    1    2    0    0  0.46384536320E+03 -0.59310681930E+03  0.20990614668E+03  0.78165773231E+03  0.00000000000E+00 0. -1.
        -16    1    3    3    0    0  0.26871835528E+02 -0.30961295407E+01 -0.31974714686E+02  0.41881546558E+02  0.00000000000E+00 0.  1.
         16    1    1    2    0    0 -0.16709458895E+03  0.54230493877E+03  0.77619141176E+02  0.57274774495E+03  0.00000000000E+00 0. -1.
    9900018    1    1    2    0    0  0.32825550219E+03 -0.31265313286E+03 -0.50111447708E+03  0.68186109563E+03  0.91187600000E+02 0.  0.
<mgrwt>
<rscale>  0 0.15272746E+04</rscale>
<asrwt>0</asrwt>
<pdfrwt beam="1">  1        2 0.26772235E+00 0.16049785E+04</pdfrwt>
<pdfrwt beam="2">  1       -2 0.19119631E+00 0.16049785E+04</pdfrwt>
<totfact> 0.13217745E+00</totfact>
</mgrwt>
</event>
<event>
10    1  0.4456763E-015  0.2690087E+04  0.7818608E-02  0.8338229E-01
          2   -1    0    0  501    0  0.00000000000E+00  0.00000000000E+00  0.10520845727E+04  0.10520845727E+04  0.00000000000E+00 0. -1.
         -2   -1    0    0    0  501 -0.00000000000E+00 -0.00000000000E+00 -0.17195779597E+04  0.17195779597E+04  0.00000000000E+00 0.  1.
    9900016    2    1    2    0    0 -0.12620684163E+03 -0.73287666209E+02 -0.29528602382E+03  0.21337461156E+04  0.21081696803E+04 0.  0.
        -15    1    3    3    0    0  0.13408667750E+02 -0.33879285530E+03 -0.39089193650E+03  0.51745231393E+03  0.00000000000E+00 0. -1.
        -15    1    1    2    0    0  0.41507241123E+02  0.31277665535E+02 -0.90300897734E+02  0.10418922957E+03  0.00000000000E+00 0.  1.
         15    1    1    2    0    0 -0.34813965109E+02 -0.33842982440E+02  0.11095926603E+02  0.49804409586E+02  0.00000000000E+00 0. -1.
         15    1    3    3    0    0  0.19747319011E+03 -0.38685084279E+03 -0.50612174701E+03  0.66693962109E+03  0.00000000000E+00 0.  1.
        -16    1    3    3    0    0 -0.33708869949E+03  0.65235603189E+03  0.60172765970E+03  0.94935418054E+03  0.00000000000E+00 0.  1.
         16    1    1    2    0    0  0.36639568906E+02 -0.10560992134E+03 -0.22997290241E+03  0.25570187590E+03  0.00000000000E+00 0. -1.
    9900018    1    1    2    0    0  0.82873996711E+02  0.18146290446E+03 -0.63029489653E+02  0.22822090172E+03  0.91187600000E+02 0.  0.
<mgrwt>
<rscale>  0 0.26900866E+04</rscale>
<asrwt>0</asrwt>
<pdfrwt beam="1">  1        2 0.16185917E+00 0.26900866E+04</pdfrwt>
<pdfrwt beam="2">  1       -2 0.26455045E+00 0.26900866E+04</pdfrwt>
<totfact> 0.10722296E+00</totfact>
</mgrwt>
</event>
<event>
10    1  0.4456763E-015  0.2942873E+04  0.7818608E-02  0.8260235E-01
         -2   -1    0    0    0  501 -0.00000000000E+00  0.00000000000E+00  0.13843916865E+04  0.13843916865E+04  0.00000000000E+00 0. -1.
          2   -1    0    0  501    0  0.00000000000E+00 -0.00000000000E+00 -0.15639543012E+04  0.15639543012E+04  0.00000000000E+00 0.  1.
         23    2    1    2    0    0  0.72510590164E+02 -0.25273674532E+03 -0.97995211611E+03  0.10176517944E+04  0.78583564791E+02 0.  0.
        -15    1    1    2    0    0  0.34072046530E+03 -0.16103139907E+02  0.89221453453E+03  0.95519449445E+03  0.00000000000E+00 0.  1.
        -15    1    3    3    0    0  0.45601064782E+02 -0.19526772480E+03 -0.60491896389E+03  0.63728792106E+03  0.00000000000E+00 0. -1.
         15    1    1    2    0    0  0.38460713962E+02  0.56436020125E+02  0.18073392683E+01  0.68319231269E+02  0.00000000000E+00 0. -1.
         15    1    3    3    0    0  0.26909525382E+02 -0.57469020518E+02 -0.37503315222E+03  0.38036387334E+03  0.00000000000E+00 0.  1.
        -16    1    1    2    0    0 -0.80101921363E+02  0.10225553693E+03 -0.51445164784E+02  0.13971083572E+03  0.00000000000E+00 0.  1.
         16    1    1    2    0    0 -0.15599801486E+03  0.23314553664E+03  0.24831767757E+03  0.37463834679E+03  0.00000000000E+00 0. -1.
    9900018    1    1    2    0    0 -0.21559183321E+03 -0.12299720847E+03 -0.29050488514E+03  0.39283128506E+03  0.91187600000E+02 0.  0.
<mgrwt>
<rscale>  0 0.29428730E+04</rscale>
<asrwt>0</asrwt>
<pdfrwt beam="1">  1        2 0.24060835E+00 0.29428730E+04</pdfrwt>
<pdfrwt beam="2">  1       -2 0.21298334E+00 0.29428730E+04</pdfrwt>
<totfact> 0.11009664E+00</totfact>
</mgrwt>
</event>
<event>
11    1  0.4456763E-015  0.2713242E+04  0.7818608E-02  0.8330721E-01
          1   -1    0    0  501    0  0.00000000000E+00  0.00000000000E+00  0.12638724399E+04  0.12638724399E+04  0.00000000000E+00 0. -1.
         -1   -1    0    0    0  501 -0.00000000000E+00 -0.00000000000E+00 -0.14561761575E+04  0.14561761575E+04  0.00000000000E+00 0.  1.
         24    2    1    2    0    0  0.13757366195E+03  0.23409000793E+02 -0.32548063151E+03  0.36574895282E+03  0.91433917236E+02 0.  0.
    9900016    2    1    2    0    0 -0.83302443338E+02 -0.75773792392E+02 -0.83938151612E+02  0.21244597259E+04  0.21198119136E+04 0.  0.
        -15    1    3    3    0    0  0.41712609526E+02  0.32642967642E+02 -0.46042781576E+02  0.70181499451E+02  0.00000000000E+00 0.  1.
        -15    1    4    4    0    0 -0.94728028450E+02 -0.31374230287E+03  0.36022788488E+02  0.32970482750E+03  0.00000000000E+00 0. -1.
         15    1    1    2    0    0 -0.54271218610E+02  0.52364791599E+02  0.21711506548E+03  0.22983991870E+03  0.00000000000E+00 0. -1.
         15    1    4    4    0    0 -0.83195125339E+02 -0.16027194192E+03  0.24512653464E+03  0.30445942625E+03  0.00000000000E+00 0.  1.
        -16    1    4    4    0    0 -0.10833049889E+03  0.54096314669E+03  0.39959462783E+03  0.68121398228E+03  0.00000000000E+00 0.  1.
         16    1    3    3    0    0  0.95861052422E+02 -0.92339668492E+01 -0.27943784994E+03  0.29556745337E+03  0.00000000000E+00 0. -1.
    9900018    1    4    4    0    0  0.20295120934E+03 -0.14272269429E+03 -0.76468210257E+03  0.80908148985E+03  0.91187600000E+02 0.  0.
<mgrwt>
<rscale>  0 0.27132423E+04</rscale>
<asrwt>0</asrwt>
<pdfrwt beam="1">  1        1 0.19444192E+00 0.27132423E+04</pdfrwt>
<pdfrwt beam="2">  1       -1 0.22402710E+00 0.27132423E+04</pdfrwt>
<totfact> 0.86627338E-01</totfact>
</mgrwt>
</event>
<event>
10    1  0.4456763E-015  0.2994344E+04  0.7818608E-02  0.8899934E-01
         -1   -1    0    0    0  501 -0.00000000000E+00  0.00000000000E+00  0.14286551625E+04  0.14286551625E+04  0.00000000000E+00 0.  1.
          1   -1    0    0  501    0  0.00000000000E+00 -0.00000000000E+00 -0.17741610473E+04  0.17741610473E+04  0.00000000000E+00 0. -1.
         24    2    1    2    0    0  0.11835808172E+03 -0.87800742981E+02 -0.86713264967E+02  0.19730939633E+03  0.98459136619E+02 0.  0.
        -15    1    1    2    0    0 -0.13147103526E+03  0.83906011635E+03 -0.40404794150E+03  0.94051116474E+03  0.00000000000E+00 0.  1.
        -15    1    3    3    0    0  0.11707721313E+02  0.11253318818E+02 -0.42019050688E+02  0.45047847268E+02  0.00000000000E+00 0.  1.
         15    1    1    2    0    0 -0.37057518808E+03  0.37307064882E+03  0.45753900445E+02  0.52782676934E+03  0.00000000000E+00 0. -1.
         15    1    1    2    0    0  0.55323954740E+03 -0.53237901263E+03  0.75285885397E+02  0.77147221236E+03  0.00000000000E+00 0. -1.
        -16    1    1    2    0    0 -0.19363473152E+03 -0.26455068296E+03  0.19823273664E+03  0.38311576708E+03  0.00000000000E+00 0.  1.
         16    1    3    3    0    0  0.10665036040E+03 -0.99054061799E+02 -0.44694214279E+02  0.15226154906E+03  0.00000000000E+00 0. -1.
    9900018    1    1    2    0    0  0.24083325745E+02 -0.32740032660E+03 -0.17401720075E+03  0.38258089992E+03  0.91187600000E+02 0.  0.
<mgrwt>
<rscale>  0 0.14769404E+04</rscale>
<asrwt>0</asrwt>
<pdfrwt beam="1">  1        1 0.27294785E+00 0.29943443E+04</pdfrwt>
<pdfrwt beam="2">  1       -1 0.21979310E+00 0.29943443E+04</pdfrwt>
<totfact> 0.39622252E-01</totfact>
</mgrwt>
</event>
<event>
11    1  0.4456763E-015  0.2602942E+04  0.7818608E-02  0.8849897E-01
          2   -1    0    0  501    0  0.00000000000E+00  0.00000000000E+00  0.10761805917E+04  0.10761805917E+04  0.00000000000E+00 0. -1.
         -2   -1    0    0    0  501 -0.00000000000E+00 -0.00000000000E+00 -0.20928460740E+04  0.20928460740E+04  0.00000000000E+00 0.  1.
         24    2    1    2    0    0 -0.82313041212E+02  0.30631792980E+03 -0.35226715150E+03  0.48262937257E+03  0.90735077929E+02 0.  0.
    9900016    2    1    2    0    0  0.37706943616E+02 -0.72208353078E+03 -0.44704304597E+03  0.22151287298E+04  0.20455124946E+04 0.  0.
        -15    1    3    3    0    0 -0.86048462817E+02  0.30802952271E+03 -0.35490317206E+03  0.47774761784E+03  0.00000000000E+00 0. -1.
        -15    1    4    4    0    0 -0.95105871065E+02  0.20091316620E+03 -0.39178720137E+02  0.22571264735E+03  0.00000000000E+00 0.  1.
         15    1    4    4    0    0  0.50250981580E+02  0.26868901562E+03 -0.37749111046E+03  0.46606704103E+03  0.00000000000E+00 0.  1.
         15    1    1    2    0    0  0.44606097596E+02  0.41576560097E+03 -0.21735528482E+03  0.47126856328E+03  0.00000000000E+00 0. -1.
        -16    1    4    4    0    0 -0.12758637421E+03  0.12774724826E+03 -0.36315323308E+02  0.18416417955E+03  0.00000000000E+00 0.  1.
         16    1    3    3    0    0  0.37354216051E+01 -0.17115929082E+01  0.26360205571E+01  0.48817547284E+01  0.00000000000E+00 0. -1.
    9900018    1    4    4    0    0  0.21014820731E+03 -0.13194329609E+04  0.59421079316E+01  0.13391848619E+04  0.91187600000E+02 0.  0.
<mgrwt>
<rscale>  0 0.15530893E+04</rscale>
<asrwt>0</asrwt>
<pdfrwt beam="1">  1        2 0.16556624E+00 0.26029417E+04</pdfrwt>
<pdfrwt beam="2">  1       -2 0.32197632E+00 0.26029417E+04</pdfrwt>
<totfact> 0.45833568E-01</totfact>
</mgrwt>
</event>
<event>
 9    1  0.4456763E-015  0.2884105E+04  0.7818608E-02  0.8975079E-01
          1   -1    0    0  501    0  0.00000000000E+00  0.00000000000E+00  0.23116150737E+04  0.23116150737E+04  0.00000000000E+00 0. -1.
         -1   -1    0    0    0  501 -0.00000000000E+00 -0.00000000000E+00 -0.11076557168E+04  0.11076557168E+04  0.00000000000E+00 0.  1.
        -15    1    1    2    0    0 -0.58224577954E+03 -0.77988519661E+02 -0.14676994429E+03  0.60550290961E+03  0.00000000000E+00 0.  1.
        -15    1    1    2    0    0  0.22349660120E+02  0.90291530876E+01 -0.66938143460E+02  0.71145962379E+02  0.00000000000E+00 0. -1.
         15    1    1    2    0    0 -0.55378257630E+02  0.26518306301E+03 -0.18093845306E+03  0.32577220895E+03  0.00000000000E+00 0. -1.
         15    1    1    2    0    0  0.11308085393E+03 -0.15190495050E+02 -0.10280430997E+03  0.15357980601E+03  0.00000000000E+00 0.  1.
        -16    1    1    2    0    0  0.10526551455E+03  0.17912426773E+03  0.43686081671E+02  0.21230827957E+03  0.00000000000E+00 0.  1.
         16    1    1    2    0    0 -0.25464443776E+02 -0.67315530336E+03  0.95220391780E+03  0.11663956453E+04  0.00000000000E+00 0. -1.
    9900018    1    1    2    0    0  0.42239245235E+03  0.31299783424E+03  0.70552020824E+03  0.88456597870E+03  0.91187600000E+02 0.  0.
<mgrwt>
<rscale>  0 0.13710038E+04</rscale>
<asrwt>0</asrwt>
<pdfrwt beam="1">  1        1 0.35563309E+00 0.28841049E+04</pdfrwt>
<pdfrwt beam="2">  1       -1 0.17040857E+00 0.28841049E+04</pdfrwt>
<totfact> 0.37985626E-01</totfact>
</mgrwt>
</event>
