<event>
12    1  0.3540429E-006  0.5281196E+04  0.7818608E-02  0.7786536E-01
          2   -1    0    0  501    0  0.00000000000E+00  0.00000000000E+00  0.25455928147E+04  0.25455928147E+04  0.00000000000E+00 0. -1.
         -2   -1    0    0    0  501 -0.00000000000E+00 -0.00000000000E+00 -0.27391492037E+04  0.27391492037E+04  0.00000000000E+00 0.  1.
         24    2    1    2    0    0 -0.11442800593E+04 -0.65105769266E+03 -0.58766025883E+02  0.13202035231E+04  0.78936198286E+02 0.  0.
    9900016    2    1    2    0    0  0.81827945284E+03  0.21218010874E+03 -0.12900635413E+04  0.26864359778E+04  0.21995619247E+04 0.  0.
         23    2    4    4    0    0 -0.63338230799E+02 -0.21596732128E+03 -0.68915684712E+03  0.73078130220E+03  0.91926798973E+02 0.  0.
        -15    1    3    3    0    0 -0.97202412789E+02 -0.39568511291E+02 -0.21193993807E+02  0.10706615484E+03  0.00000000000E+00 0.  1.
        -15    1    5    5    0    0 -0.67002687823E+02 -0.15774418795E+03 -0.39010188535E+03  0.42608927464E+03  0.00000000000E+00 0.  1.
         15    1    1    2    0    0  0.32600060643E+03  0.43887758392E+03  0.11552731782E+04  0.12781025176E+04  0.00000000000E+00 0. -1.
         15    1    5    5    0    0  0.36644570241E+01 -0.58223133331E+02 -0.29905496177E+03  0.30469202756E+03  0.00000000000E+00 0. -1.
        -16    1    4    4    0    0  0.31286220136E+03 -0.20021545317E+03 -0.96100058842E+03  0.10302869094E+04  0.00000000000E+00 0.  1.
         16    1    3    3    0    0 -0.10470776465E+04 -0.61148918137E+03 -0.37572032076E+02  0.12131373683E+04  0.00000000000E+00 0. -1.
    9900018    1    4    4    0    0  0.56875548228E+03  0.62836288320E+03  0.36009389421E+03  0.92536776616E+03  0.91187600000E+02 0.  0.
<mgrwt>
<rscale>  0 0.52811963E+04</rscale>
<asrwt>0</asrwt>
<pdfrwt beam="1">  1        2 0.39162966E+00 0.52811963E+04</pdfrwt>
<pdfrwt beam="2">  1       -2 0.42140757E+00 0.52811963E+04</pdfrwt>
<totfact> 0.12535445E-02</totfact>
</mgrwt>
</event>
<event>
12    1  0.3540430E-006  0.4630668E+04  0.7818608E-02  0.7888152E-01
          2   -1    0    0  501    0  0.00000000000E+00  0.00000000000E+00  0.27634971439E+04  0.27634971439E+04  0.00000000000E+00 0. -1.
         -2   -1    0    0    0  501 -0.00000000000E+00 -0.00000000000E+00 -0.19398501681E+04  0.19398501681E+04  0.00000000000E+00 0.  1.
        -24    2    1    2    0    0  0.67881029234E+02  0.11298670050E+04  0.47952297534E+03  0.12322758287E+04  0.85756346064E+02 0.  0.
    9900016    2    1    2    0    0 -0.14782241874E+03 -0.11696225981E+03 -0.37708580959E+03  0.22250737953E+04  0.21847718529E+04 0.  0.
         23    2    4    4    0    0  0.48186220159E+03  0.16056193080E+03 -0.10576120918E+04  0.11768089898E+04  0.91458989694E+02 0.  0.
        -15    1    5    5    0    0  0.39790726973E+03  0.99158166905E+02 -0.88274907899E+03  0.97334910172E+03  0.00000000000E+00 0.  1.
        -15    1    1    2    0    0  0.79941389509E+02 -0.10129047452E+04  0.72120981005E+03  0.12459976881E+04  0.00000000000E+00 0.  1.
         15    1    5    5    0    0  0.83954931865E+02  0.61403763897E+02 -0.17486301277E+03  0.20345988804E+03  0.00000000000E+00 0. -1.
         15    1    3    3    0    0  0.66657968546E+02  0.78072092306E+03  0.29402735332E+03  0.83691130293E+03  0.00000000000E+00 0. -1.
        -16    1    3    3    0    0  0.12230606881E+01  0.34914608194E+03  0.18549562202E+03  0.39536452572E+03  0.00000000000E+00 0.  1.
         16    1    4    4    0    0 -0.38842599841E+03 -0.81875508468E+02  0.59178942550E+03  0.71259601406E+03  0.00000000000E+00 0. -1.
    9900018    1    4    4    0    0 -0.24125862193E+03 -0.19564868215E+03  0.88736856663E+02  0.33566879153E+03  0.91187600000E+02 0.  0.
<mgrwt>
<rscale>  0 0.46306675E+04</rscale>
<asrwt>0</asrwt>
<pdfrwt beam="1">  1        2 0.42515341E+00 0.46306675E+04</pdfrwt>
<pdfrwt beam="2">  1       -2 0.29843849E+00 0.46306675E+04</pdfrwt>
<totfact> 0.59254195E-02</totfact>
</mgrwt>
</event>
<event>
12    1  0.3540429E-006  0.3726608E+04  0.7818608E-02  0.8384356E-01
         -2   -1    0    0    0  501 -0.00000000000E+00  0.00000000000E+00  0.12377179747E+04  0.12377179747E+04  0.00000000000E+00 0.  1.
          2   -1    0    0  501    0  0.00000000000E+00 -0.00000000000E+00 -0.43919343836E+04  0.43919343836E+04  0.00000000000E+00 0. -1.
         24    2    1    2    0    0 -0.81129724303E+03  0.93712367530E+02 -0.11058986806E+04  0.13772159725E+04  0.82016576229E+02 0.  0.
    9900016    2    1    2    0    0 -0.58630237064E+03  0.73654143925E+02 -0.95522830206E+03  0.24702633519E+04  0.22001282953E+04 0.  0.
         23    2    4    4    0    0 -0.40291682290E+03  0.28608967447E+02 -0.16229515648E+04  0.16749373635E+04  0.91010717440E+02 0.  0.
        -15    1    3    3    0    0 -0.59842906290E+03  0.83337848962E+02 -0.87094371787E+03  0.10600025944E+04  0.00000000000E+00 0.  1.
        -15    1    5    5    0    0 -0.29609895733E+03  0.13747515743E+02 -0.10111084710E+04  0.10536621503E+04  0.00000000000E+00 0. -1.
         15    1    5    5    0    0 -0.10681786557E+03  0.14861451703E+02 -0.61184309378E+03  0.62127521321E+03  0.00000000000E+00 0.  1.
         15    1    1    2    0    0  0.13975996137E+04 -0.16736651146E+03 -0.10930894262E+04  0.17821730340E+04  0.00000000000E+00 0. -1.
        -16    1    4    4    0    0 -0.20426429950E+03  0.14055568443E+03  0.23203722987E+03  0.33958957658E+03  0.00000000000E+00 0.  1.
         16    1    3    3    0    0 -0.21286818013E+03  0.10374518568E+02 -0.23495496275E+03  0.31721337814E+03  0.00000000000E+00 0. -1.
    9900018    1    4    4    0    0  0.20878751754E+02 -0.95510507954E+02  0.43568603288E+03  0.45573641181E+03  0.91187600000E+02 0.  0.
<mgrwt>
<rscale>  0 0.25529634E+04</rscale>
<asrwt>0</asrwt>
<pdfrwt beam="1">  1        2 0.67568222E+00 0.37266083E+04</pdfrwt>
<pdfrwt beam="2">  1       -2 0.19041815E+00 0.37266083E+04</pdfrwt>
<totfact> 0.18763716E-02</totfact>
</mgrwt>
</event>
