<event>
12    1  0.3039166E-012  0.8552361E+03  0.7818608E-02  0.9483336E-01
          1   -1    0    0  501    0  0.00000000000E+00  0.00000000000E+00  0.27776205738E+03  0.27776205738E+03  0.00000000000E+00 0. -1.
         -1   -1    0    0    0  501 -0.00000000000E+00 -0.00000000000E+00 -0.65832311480E+03  0.65832311480E+03  0.00000000000E+00 0.  1.
    9900016    2    1    2    0    0 -0.17838394131E+03 -0.56819878971E+02 -0.23019480848E+03  0.69596158319E+03  0.62954233080E+03 0.  0.
         23    2    3    3    0    0 -0.85592611314E+02  0.70555800726E+02  0.30939611644E+02  0.14660243678E+03  0.90723749783E+02 0.  0.
         23    2    3    3    0    0  0.36492491728E+02 -0.61671389690E+02 -0.34120754206E+02  0.13300076211E+03  0.10672354284E+03 0.  0.
        -15    1    4    4    0    0 -0.35618884051E+02 -0.19241387088E+02  0.10498959847E+02  0.41823008451E+02  0.00000000000E+00 0.  1.
        -15    1    5    5    0    0  0.72178429851E+02 -0.31254749517E+02 -0.73265897706E+01  0.78995341767E+02  0.00000000000E+00 0. -1.
         15    1    4    4    0    0 -0.49973727264E+02  0.89797187813E+02  0.20440651797E+02  0.10477942833E+03  0.00000000000E+00 0. -1.
         15    1    5    5    0    0 -0.35685938123E+02 -0.30416640173E+02 -0.26794164436E+02  0.54005420348E+02  0.00000000000E+00 0.  1.
        -16    1    3    3    0    0  0.57907711666E+02  0.28629051864E+02 -0.16840850157E+03  0.18037280583E+03  0.00000000000E+00 0.  1.
         16    1    1    2    0    0  0.17838394131E+03  0.56819878971E+02 -0.15036624894E+03  0.24012358898E+03  0.00000000000E+00 0. -1.
    9900018    1    3    3    0    0 -0.18719153339E+03 -0.94333341870E+02 -0.58605164350E+02  0.23598557847E+03  0.91187600000E+02 0.  0.
<mgrwt>
<rscale>  0 0.85523607E+03</rscale>
<asrwt>0</asrwt>
<pdfrwt beam="1">  1        1 0.42732624E-01 0.85523607E+03</pdfrwt>
<pdfrwt beam="2">  1       -1 0.10128048E+00 0.85523607E+03</pdfrwt>
<totfact> 0.90682677E+01</totfact>
</mgrwt>
</event>
<event>
12    1  0.3039166E-012  0.1167612E+04  0.7818608E-02  0.9141687E-01
         -1   -1    0    0    0  501 -0.00000000000E+00  0.00000000000E+00  0.64626374914E+03  0.64626374914E+03  0.00000000000E+00 0.  1.
          1   -1    0    0  501    0  0.00000000000E+00 -0.00000000000E+00 -0.52738476001E+03  0.52738476001E+03  0.00000000000E+00 0. -1.
    9900016    2    1    2    0    0  0.24722989902E+03  0.44248551175E+02 -0.13598636297E+03  0.70096449001E+03  0.64013933490E+03 0.  0.
         23    2    3    3    0    0  0.14957685982E+03  0.11116471062E+03 -0.71320790778E+02  0.22730255502E+03  0.10885295789E+03 0.  0.
         23    2    3    3    0    0 -0.16313686236E+03 -0.50227884719E+02  0.28817464441E+02  0.19612103817E+03  0.92176673257E+02 0.  0.
        -15    1    5    5    0    0 -0.13217173689E+03 -0.26305609617E+02  0.58593309498E+02  0.14695077083E+03  0.00000000000E+00 0. -1.
        -15    1    4    4    0    0  0.11889091716E+03  0.10361348610E+03 -0.96418044717E+01  0.15799926924E+03  0.00000000000E+00 0.  1.
         15    1    4    4    0    0  0.30685942653E+02  0.75512245175E+01 -0.61678986306E+02  0.69303285780E+02  0.00000000000E+00 0. -1.
         15    1    5    5    0    0 -0.30965125464E+02 -0.23922275102E+02 -0.29775845057E+02  0.49170267336E+02  0.00000000000E+00 0.  1.
        -16    1    1    2    0    0 -0.26782870148E+03 -0.10323552310E+03  0.17311648009E+03  0.33520009285E+03  0.00000000000E+00 0.  1.
         16    1    3    3    0    0  0.26078990156E+03 -0.16688274725E+02 -0.93483036638E+02  0.27754089682E+03  0.00000000000E+00 0. -1.
    9900018    1    1    2    0    0  0.20598802459E+02  0.58986971925E+02  0.81748872017E+02  0.13748392630E+03  0.91187600000E+02 0.  0.
<mgrwt>
<rscale>  0 0.11676124E+04</rscale>
<asrwt>0</asrwt>
<pdfrwt beam="1">  1        1 0.81136117E-01 0.11676124E+04</pdfrwt>
<pdfrwt beam="2">  1       -1 0.99425192E-01 0.11676124E+04</pdfrwt>
<totfact> 0.39446915E+01</totfact>
</mgrwt>
</event>
<event>
12    1  0.3039166E-012  0.1188735E+04  0.7818608E-02  0.9122774E-01
         -2   -1    0    0    0  501 -0.00000000000E+00  0.00000000000E+00  0.26472617726E+03  0.26472617726E+03  0.00000000000E+00 0.  1.
          2   -1    0    0  501    0  0.00000000000E+00 -0.00000000000E+00 -0.13344836573E+04  0.13344836573E+04  0.00000000000E+00 0. -1.
    9900016    2    1    2    0    0  0.28544136113E+03 -0.60831915809E+02 -0.86579633530E+03  0.12431516354E+04  0.84299786583E+03 0.  0.
         23    2    3    3    0    0 -0.20495280169E+02 -0.42805809069E+02 -0.45329030607E+02  0.12625563075E+03  0.10785809882E+03 0.  0.
         23    2    3    3    0    0  0.94399799216E+01 -0.31047810629E+02 -0.19338179794E+03  0.21632985115E+03  0.91372889624E+02 0.  0.
        -15    1    5    5    0    0 -0.22666746148E+02  0.90295188763E+01 -0.14055457492E+03  0.14265658808E+03  0.00000000000E+00 0.  1.
        -15    1    4    4    0    0 -0.37653931392E+02 -0.40503619693E+02 -0.74230083431E+02  0.92566014518E+02  0.00000000000E+00 0. -1.
         15    1    4    4    0    0  0.17158651223E+02 -0.23021893766E+01  0.28901052824E+02  0.33689616235E+02  0.00000000000E+00 0.  1.
         15    1    5    5    0    0  0.32106726070E+02 -0.40077329506E+02 -0.52827223021E+02  0.73673263070E+02  0.00000000000E+00 0. -1.
        -16    1    1    2    0    0 -0.28544136113E+03  0.60831915809E+02 -0.20396114479E+03  0.35605819919E+03  0.00000000000E+00 0.  1.
         16    1    3    3    0    0 -0.12182628499E+03 -0.40349217569E+01  0.20950867696E+02  0.12368048822E+03  0.00000000000E+00 0. -1.
    9900018    1    3    3    0    0  0.41832294637E+03  0.17056625647E+02 -0.64803637445E+03  0.77688566530E+03  0.91187600000E+02 0.  0.
<mgrwt>
<rscale>  0 0.11887351E+04</rscale>
<asrwt>0</asrwt>
<pdfrwt beam="1">  1        2 0.20530518E+00 0.11887351E+04</pdfrwt>
<pdfrwt beam="2">  1       -2 0.40727105E-01 0.11887351E+04</pdfrwt>
<totfact> 0.88926703E+01</totfact>
</mgrwt>
</event>
<event>
12    1  0.3039166E-012  0.9148459E+03  0.7818608E-02  0.9407211E-01
          2   -1    0    0  501    0  0.00000000000E+00  0.00000000000E+00  0.14077790665E+04  0.14077790665E+04  0.00000000000E+00 0.  1.
         -2   -1    0    0    0  501 -0.00000000000E+00 -0.00000000000E+00 -0.14862824821E+03  0.14862824821E+03  0.00000000000E+00 0. -1.
    9900016    2    1    2    0    0  0.25923690585E+03  0.51817541581E+02  0.96229849778E+03  0.11589024328E+04  0.58919234456E+03 0.  0.
         23    2    3    3    0    0  0.13011561668E+03 -0.14362166610E+03  0.20105135829E+03  0.28604720675E+03  0.62000799519E+02 0.  0.
         23    2    3    3    0    0 -0.14239132354E+02  0.17960805648E+03  0.39195616046E+03  0.44102709580E+03  0.91724918437E+02 0.  0.
        -15    1    5    5    0    0  0.51110326303E+01  0.13732499765E+03  0.19436389573E+03  0.23803697527E+03  0.00000000000E+00 0.  1.
        -15    1    4    4    0    0  0.18989256257E+01 -0.23642696133E+02  0.78828577539E+01  0.24994448290E+02  0.00000000000E+00 0. -1.
         15    1    4    4    0    0  0.12821669105E+03 -0.11997896996E+03  0.19316850054E+03  0.26105275846E+03  0.00000000000E+00 0.  1.
         15    1    5    5    0    0 -0.19350164985E+02  0.42283058828E+02  0.19759226473E+03  0.20299012052E+03  0.00000000000E+00 0. -1.
        -16    1    3    3    0    0  0.12832023059E+03  0.25042354989E+02  0.22509232690E+03  0.26030704322E+03  0.00000000000E+00 0.  1.
         16    1    1    2    0    0 -0.25923690585E+03 -0.51817541581E+02  0.29685232047E+03  0.39750488190E+03  0.00000000000E+00 0. -1.
    9900018    1    3    3    0    0  0.15040190933E+02 -0.92112037893E+01  0.14419865212E+03  0.17152108700E+03  0.91187600000E+02 0.  0.
<mgrwt>
<rscale>  0 0.91484586E+03</rscale>
<asrwt>0</asrwt>
<pdfrwt beam="1">  1        2 0.21658139E+00 0.91484586E+03</pdfrwt>
<pdfrwt beam="2">  1       -2 0.22865885E-01 0.91484586E+03</pdfrwt>
<totfact> 0.24166727E+02</totfact>
</mgrwt>
</event>
<event>
12    1  0.3039166E-012  0.9138906E+03  0.7818608E-02  0.9408382E-01
         -1   -1    0    0    0  501 -0.00000000000E+00  0.00000000000E+00  0.11225207851E+04  0.11225207851E+04  0.00000000000E+00 0.  1.
          1   -1    0    0  501    0  0.00000000000E+00 -0.00000000000E+00 -0.18600903783E+03  0.18600903783E+03  0.00000000000E+00 0. -1.
    9900016    2    1    2    0    0  0.33878534901E+02 -0.75141429692E+02  0.68437815735E+03  0.10432651688E+04  0.78309307271E+03 0.  0.
         23    2    3    3    0    0  0.13870271155E+03  0.18342370073E+03  0.28998421064E+03  0.38115668914E+03  0.91142103714E+02 0.  0.
         23    2    3    3    0    0 -0.83732826666E+02 -0.94161090481E+02  0.18466543358E+02  0.14797560562E+03  0.75354292595E+02 0.  0.
        -15    1    4    4    0    0  0.64153674787E+02  0.79776561527E+02  0.20089235391E+03  0.22547224135E+03  0.00000000000E+00 0. -1.
        -15    1    5    5    0    0 -0.95769317671E+00 -0.25205372122E+02  0.30491937065E+02  0.39572543335E+02  0.00000000000E+00 0.  1.
         15    1    4    4    0    0  0.74549036763E+02  0.10364713921E+03  0.89091856732E+02  0.15568444779E+03  0.00000000000E+00 0.  1.
         15    1    5    5    0    0 -0.82775133489E+02 -0.68955718359E+02 -0.12025393707E+02  0.10840306228E+03  0.00000000000E+00 0. -1.
        -16    1    1    2    0    0 -0.33878534901E+02  0.75141429692E+02  0.25213358996E+03  0.26526465420E+03  0.00000000000E+00 0.  1.
         16    1    3    3    0    0 -0.41207076178E+02 -0.20825661326E+03  0.13379251180E+03  0.25093679744E+03  0.00000000000E+00 0. -1.
    9900018    1    3    3    0    0  0.20115726195E+02  0.43852573316E+02  0.24213489155E+03  0.26319607658E+03  0.91187600000E+02 0.  0.
<mgrwt>
<rscale>  0 0.91389061E+03</rscale>
<asrwt>0</asrwt>
<pdfrwt beam="1">  1        1 0.28616776E-01 0.91389061E+03</pdfrwt>
<pdfrwt beam="2">  1       -1 0.17269550E+00 0.91389061E+03</pdfrwt>
<totfact> 0.38803828E+01</totfact>
</mgrwt>
</event>
