<event>
12    1  0.6144413E-011  0.1761703E+04  0.7818608E-02  0.9175004E-01
         -1   -1    0    0    0  501 -0.00000000000E+00  0.00000000000E+00  0.69941998672E+03  0.69941998672E+03  0.00000000000E+00 0.  1.
          1   -1    0    0  501    0  0.00000000000E+00 -0.00000000000E+00 -0.15230685086E+04  0.15230685086E+04  0.00000000000E+00 0. -1.
         23    2    1    2    0    0 -0.14358379437E+03  0.24675778533E+03 -0.80309676008E+02  0.31038259790E+03  0.91553276237E+02 0.  0.
    9900016    2    1    2    0    0  0.41266029293E+03  0.35774405574E+02 -0.32556730528E+03  0.81982901736E+03  0.62813790045E+03 0.  0.
         23    2    4    4    0    0 -0.41220419188E+02 -0.19014560194E+03  0.42724006854E+01  0.21498045594E+03  0.91344787119E+02 0.  0.
        -15    1    3    3    0    0 -0.79949396760E+02  0.11011843416E+03 -0.83429873986E+02  0.15961992187E+03  0.00000000000E+00 0.  1.
        -15    1    5    5    0    0 -0.43856709432E+02 -0.13013210134E+03 -0.36850044062E+02  0.14218192751E+03  0.00000000000E+00 0. -1.
         15    1    3    3    0    0 -0.63634397614E+02  0.13663935117E+03  0.31201979785E+01  0.15076267603E+03  0.00000000000E+00 0. -1.
         15    1    5    5    0    0  0.26362902445E+01 -0.60013500592E+02  0.41122444747E+02  0.72798528430E+02  0.00000000000E+00 0.  1.
        -16    1    1    2    0    0 -0.57550498826E+03 -0.35771375505E+03 -0.32156830919E+03  0.75004753152E+03  0.00000000000E+00 0.  1.
         16    1    4    4    0    0  0.45388071211E+03  0.22592000751E+03 -0.32983970597E+03  0.60484856142E+03  0.00000000000E+00 0. -1.
    9900018    1    1    2    0    0  0.30642848970E+03  0.75181564144E+02 -0.96203231421E+02  0.34222934857E+03  0.91187600000E+02 0.  0.
<mgrwt>
<rscale>  0 0.11315194E+04</rscale>
<asrwt>0</asrwt>
<pdfrwt beam="1">  1        1 0.23431823E+00 0.17617027E+04</pdfrwt>
<pdfrwt beam="2">  1       -1 0.10760308E+00 0.17617027E+04</pdfrwt>
<totfact> 0.47635291E+00</totfact>
</mgrwt>
</event>
<event>
11    1  0.6144413E-011  0.1285716E+04  0.7818608E-02  0.9040970E-01
          1   -1    0    0  501    0  0.00000000000E+00  0.00000000000E+00  0.35432784630E+03  0.35432784630E+03  0.00000000000E+00 0. -1.
         -1   -1    0    0    0  501 -0.00000000000E+00 -0.00000000000E+00 -0.11663383784E+04  0.11663383784E+04  0.00000000000E+00 0.  1.
         23    2    1    2    0    0 -0.52412631384E+02 -0.89838587086E+02 -0.12603983726E+03  0.18838451803E+03  0.93726359148E+02 0.  0.
         23    2    1    2    0    0  0.56371175892E+02 -0.43036165353E+03 -0.38970328811E+03  0.59047631535E+03  0.91677499570E+02 0.  0.
        -15    1    3    3    0    0 -0.75353312821E+02 -0.83378249606E+02 -0.11866558902E+03  0.16343676538E+03  0.00000000000E+00 0. -1.
        -15    1    4    4    0    0  0.14070914186E+02 -0.10756921985E+03 -0.15477703384E+03  0.18901073485E+03  0.00000000000E+00 0.  1.
         15    1    4    4    0    0  0.42300261706E+02 -0.32279243368E+03 -0.23492625427E+03  0.40146558050E+03  0.00000000000E+00 0. -1.
         15    1    3    3    0    0  0.22940681437E+02 -0.64603374798E+01 -0.73742482363E+01  0.24947752648E+02  0.00000000000E+00 0.  1.
        -16    1    1    2    0    0 -0.67454135589E+02  0.82782689051E+02 -0.19938080431E+03  0.22617634523E+03  0.00000000000E+00 0.  1.
         16    1    1    2    0    0  0.96560496161E+02  0.20944584042E+03 -0.13147797693E+03  0.26547683121E+03  0.00000000000E+00 0. -1.
    9900018    1    1    2    0    0 -0.33064905080E+02  0.22797171114E+03  0.34591374506E+02  0.25015221489E+03  0.91187600000E+02 0.  0.
<mgrwt>
<rscale>  0 0.12857156E+04</rscale>
<asrwt>0</asrwt>
<pdfrwt beam="1">  1        1 0.54511976E-01 0.12857156E+04</pdfrwt>
<pdfrwt beam="2">  1       -1 0.17943668E+00 0.12857156E+04</pdfrwt>
<totfact> 0.14558339E+01</totfact>
</mgrwt>
</event>
<event>
12    1  0.6144413E-011  0.2216667E+04  0.7818608E-02  0.8946049E-01
         -1   -1    0    0    0  501 -0.00000000000E+00  0.00000000000E+00  0.65751139193E+03  0.65751139193E+03  0.00000000000E+00 0.  1.
          1   -1    0    0  501    0  0.00000000000E+00 -0.00000000000E+00 -0.26420859877E+04  0.26420859877E+04  0.00000000000E+00 0. -1.
         23    2    1    2    0    0 -0.78333798460E+02  0.34365651566E+03 -0.69580739316E+02  0.37029441292E+03  0.89668769507E+02 0.  0.
    9900016    2    1    2    0    0  0.42249847961E+03 -0.22378526015E+03 -0.15181139828E+04  0.17158127938E+04  0.64090457219E+03 0.  0.
         23    2    4    4    0    0 -0.10655904852E+03 -0.35629882717E+02 -0.66965702618E+02  0.15981290781E+03  0.91822877382E+02 0.  0.
        -15    1    3    3    0    0 -0.76473421135E+02  0.26001704697E+03 -0.17169747198E+02  0.27157291668E+03  0.00000000000E+00 0. -1.
        -15    1    5    5    0    0 -0.60940035018E+02  0.23609595213E+02 -0.52102346370E+02  0.83580831244E+02  0.00000000000E+00 0. -1.
         15    1    5    5    0    0 -0.45619013504E+02 -0.59239477929E+02 -0.14863356248E+02  0.76232076565E+02  0.00000000000E+00 0.  1.
         15    1    3    3    0    0 -0.18603773249E+01  0.83639468683E+02 -0.52410992117E+02  0.98721496241E+02  0.00000000000E+00 0.  1.
        -16    1    1    2    0    0 -0.62371706665E+03 -0.13224562888E+03  0.90669162317E+02  0.64399750201E+03  0.00000000000E+00 0.  1.
         16    1    4    4    0    0  0.52905752813E+03 -0.18815537743E+03 -0.14511482802E+04  0.15559998860E+04  0.00000000000E+00 0. -1.
    9900018    1    1    2    0    0  0.27955238551E+03  0.12374373376E+02 -0.48754903604E+03  0.56949267097E+03  0.91187600000E+02 0.  0.
<mgrwt>
<rscale>  0 0.14107847E+04</rscale>
<asrwt>0</asrwt>
<pdfrwt beam="1">  1        1 0.40647477E+00 0.22166674E+04</pdfrwt>
<pdfrwt beam="2">  1       -1 0.10115560E+00 0.22166674E+04</pdfrwt>
<totfact> 0.90159900E-01</totfact>
</mgrwt>
</event>
