<event>
12    1  0.4544937E-009  0.2885565E+04  0.7818608E-02  0.8277185E-01
         -2   -1    0    0    0  501 -0.00000000000E+00  0.00000000000E+00  0.19429286671E+04  0.19429286671E+04  0.00000000000E+00 0.  1.
          2   -1    0    0  501    0  0.00000000000E+00 -0.00000000000E+00 -0.10713836609E+04  0.10713836609E+04  0.00000000000E+00 0. -1.
    9900016    2    1    2    0    0 -0.32444980906E+03 -0.46923706692E+01  0.32958381284E+03  0.22260386192E+04  0.21774601598E+04 0.  0.
         24    2    3    3    0    0 -0.30312587443E+03  0.62175745687E+03  0.10275707617E+04  0.12413466007E+04  0.81068377773E+02 0.  0.
         23    2    3    3    0    0  0.11696447691E+03 -0.28684715347E+03 -0.26842311110E+03  0.41990997934E+03  0.91167131507E+02 0.  0.
        -15    1    4    4    0    0 -0.92008838320E+02  0.17042323921E+03  0.22715678782E+03  0.29851283564E+03  0.00000000000E+00 0.  1.
        -15    1    5    5    0    0  0.19804869231E+02 -0.15528421731E+03 -0.15901063717E+03  0.22313628957E+03  0.00000000000E+00 0. -1.
         15    1    3    3    0    0 -0.13828841153E+03 -0.33960267407E+03 -0.42956383777E+03  0.56478203912E+03  0.00000000000E+00 0. -1.
         15    1    5    5    0    0  0.97159607674E+02 -0.13156293616E+03 -0.10941247393E+03  0.19677368977E+03  0.00000000000E+00 0.  1.
        -16    1    1    2    0    0  0.39089684344E+03  0.61171530612E+01  0.55040822070E+03  0.67511996799E+03  0.00000000000E+00 0.  1.
         16    1    4    4    0    0 -0.21111703611E+03  0.45133421766E+03  0.80041397389E+03  0.94283376507E+03  0.00000000000E+00 0. -1.
    9900018    1    1    2    0    0 -0.66447034381E+02 -0.14247823920E+01 -0.84470273249E+01  0.11315374076E+03  0.91187600000E+02 0.  0.
<mgrwt>
<rscale>  0 0.28855655E+04</rscale>
<asrwt>0</asrwt>
<pdfrwt beam="1">  1        2 0.16482826E+00 0.28855655E+04</pdfrwt>
<pdfrwt beam="2">  1       -2 0.29891210E+00 0.28855655E+04</pdfrwt>
<totfact> 0.63293742E-01</totfact>
</mgrwt>
</event>
<event>
12    1  0.4544937E-009  0.3736229E+04  0.7818608E-02  0.8059980E-01
         -2   -1    0    0    0  501 -0.00000000000E+00  0.00000000000E+00  0.22712636007E+04  0.22712636007E+04  0.00000000000E+00 0.  1.
          2   -1    0    0  501    0  0.00000000000E+00 -0.00000000000E+00 -0.15365246289E+04  0.15365246289E+04  0.00000000000E+00 0. -1.
    9900016    2    1    2    0    0  0.45295971445E+02 -0.93504556959E+03  0.37018471645E+03  0.24160169795E+04  0.21963012950E+04 0.  0.
         24    2    3    3    0    0  0.56450747922E+03  0.21538562815E+02 -0.64062491969E+03  0.85816447362E+03  0.83146691241E+02 0.  0.
         23    2    3    3    0    0 -0.46972005566E+02 -0.12585998130E+03 -0.47878290003E+01  0.16338093071E+03  0.92861730627E+02 0.  0.
        -15    1    5    5    0    0  0.67783749274E+01 -0.98057299428E+02 -0.21469109435E+02  0.10060866264E+03  0.00000000000E+00 0. -1.
        -15    1    4    4    0    0  0.99293166096E+02  0.55755712786E+01 -0.16503782464E+03  0.19268550384E+03  0.00000000000E+00 0.  1.
         15    1    3    3    0    0 -0.47223950221E+03 -0.83072415111E+03  0.10155974651E+04  0.13944715751E+04  0.00000000000E+00 0. -1.
         15    1    5    5    0    0 -0.53750380494E+02 -0.27802681868E+02  0.16681280435E+02  0.62772268074E+02  0.00000000000E+00 0.  1.
        -16    1    1    2    0    0  0.29352233025E+03  0.23679178498E+03  0.47069492408E+03  0.60314129302E+03  0.00000000000E+00 0.  1.
         16    1    4    4    0    0  0.46521431313E+03  0.15962991537E+02 -0.47558709505E+03  0.66547896978E+03  0.00000000000E+00 0. -1.
    9900018    1    1    2    0    0 -0.33881830169E+03  0.69825378461E+03 -0.10614066876E+03  0.78862995710E+03  0.91187600000E+02 0.  0.
<mgrwt>
<rscale>  0 0.37362294E+04</rscale>
<asrwt>0</asrwt>
<pdfrwt beam="1">  1        2 0.23638841E+00 0.37362294E+04</pdfrwt>
<pdfrwt beam="2">  1       -2 0.34942517E+00 0.37362294E+04</pdfrwt>
<totfact> 0.15302083E-01</totfact>
</mgrwt>
</event>
<event>
12    1  0.4544937E-009  0.3356341E+04  0.7818608E-02  0.8148706E-01
         -1   -1    0    0    0  501 -0.00000000000E+00  0.00000000000E+00  0.19642903611E+04  0.19642903611E+04  0.00000000000E+00 0.  1.
          1   -1    0    0  501    0  0.00000000000E+00 -0.00000000000E+00 -0.14337270270E+04  0.14337270270E+04  0.00000000000E+00 0. -1.
    9900016    2    1    2    0    0 -0.25774177413E+03 -0.34793791696E+03  0.35543486282E+03  0.23290083454E+04  0.22606313975E+04 0.  0.
        -24    2    3    3    0    0  0.18684281305E+03 -0.10753314072E+04  0.31588258611E+03  0.11389962084E+04  0.79263374524E+02 0.  0.
         23    2    3    3    0    0 -0.77141807959E+02 -0.16097546576E+03  0.10345422505E+03  0.22653040030E+03  0.93537620597E+02 0.  0.
        -15    1    3    3    0    0 -0.36744277922E+03  0.88836895599E+03 -0.63901948345E+02  0.96348173671E+03  0.00000000000E+00 0.  1.
        -15    1    5    5    0    0 -0.55697380533E+02 -0.92155596640E+02  0.11027118442E+03  0.15412522929E+03  0.00000000000E+00 0. -1.
         15    1    4    4    0    0  0.15132916573E+03 -0.92735655548E+03  0.24451881638E+03  0.97091716895E+03  0.00000000000E+00 0. -1.
         15    1    5    5    0    0 -0.21444427426E+02 -0.68819869123E+02 -0.68169593725E+01  0.72405171008E+02  0.00000000000E+00 0.  1.
        -16    1    4    4    0    0  0.35513647313E+02 -0.14797485171E+03  0.71363769734E+02  0.16807903949E+03  0.00000000000E+00 0.  1.
         16    1    1    2    0    0  0.49539559610E+03  0.53905020456E+03  0.78236134845E+02  0.73628310620E+03  0.00000000000E+00 0. -1.
    9900018    1    1    2    0    0 -0.23765382197E+03 -0.19111228760E+03  0.96892336427E+02  0.33272593650E+03  0.91187600000E+02 0.  0.
<mgrwt>
<rscale>  0 0.33563410E+04</rscale>
<asrwt>0</asrwt>
<pdfrwt beam="1">  1        1 0.22057339E+00 0.33563410E+04</pdfrwt>
<pdfrwt beam="2">  1       -1 0.30219852E+00 0.33563410E+04</pdfrwt>
<totfact> 0.19195905E-01</totfact>
</mgrwt>
</event>
<event>
12    1  0.4544937E-009  0.4143144E+04  0.7818608E-02  0.7976276E-01
          2   -1    0    0  501    0  0.00000000000E+00  0.00000000000E+00  0.12026412014E+04  0.12026412014E+04  0.00000000000E+00 0. -1.
         -2   -1    0    0    0  501 -0.00000000000E+00 -0.00000000000E+00 -0.35683214895E+04  0.35683214895E+04  0.00000000000E+00 0.  1.
    9900016    2    1    2    0    0 -0.19618702081E+03 -0.96064824542E+02 -0.24489341206E+04  0.33007040481E+04  0.22021923369E+04 0.  0.
        -24    2    3    3    0    0  0.93656977172E+03 -0.33424602053E+03 -0.10794417537E+04  0.14699559057E+04  0.81807858192E+02 0.  0.
         23    2    3    3    0    0 -0.13744492089E+03 -0.36652396711E+02 -0.11190489828E+03  0.20357099568E+03  0.93187657772E+02 0.  0.
        -15    1    5    5    0    0 -0.10587536184E+03 -0.55084799451E+02 -0.11643290071E+03  0.16673496257E+03  0.00000000000E+00 0.  1.
        -15    1    3    3    0    0 -0.99531187165E+03  0.27483359270E+03 -0.12575874686E+04  0.16271771467E+04  0.00000000000E+00 0.  1.
         15    1    4    4    0    0  0.53188860810E+03 -0.21841703693E+03 -0.66728578439E+03  0.88084153598E+03  0.00000000000E+00 0. -1.
         15    1    5    5    0    0 -0.31569559051E+02  0.18432402740E+02  0.45280024314E+01  0.36836033112E+02  0.00000000000E+00 0. -1.
        -16    1    4    4    0    0  0.40468116362E+03 -0.11582898360E+03 -0.41215596927E+03  0.58911436974E+03  0.00000000000E+00 0.  1.
         16    1    1    2    0    0  0.63052644053E+03  0.13721845341E+02  0.53840589974E+03  0.82923627159E+03  0.00000000000E+00 0. -1.
    9900018    1    1    2    0    0 -0.43433941972E+03  0.82342979201E+02 -0.45515206726E+03  0.64102237128E+03  0.91187600000E+02 0.  0.
<mgrwt>
<rscale>  0 0.41431439E+04</rscale>
<asrwt>0</asrwt>
<pdfrwt beam="1">  1        2 0.18502172E+00 0.41431439E+04</pdfrwt>
<pdfrwt beam="2">  1       -2 0.54897254E+00 0.41431439E+04</pdfrwt>
<totfact> 0.12746211E-02</totfact>
</mgrwt>
</event>
<event>
12    1  0.4544937E-009  0.3856936E+04  0.7818608E-02  0.8034046E-01
          1   -1    0    0  501    0  0.00000000000E+00  0.00000000000E+00  0.14122194217E+04  0.14122194217E+04  0.00000000000E+00 0. -1.
         -1   -1    0    0    0  501 -0.00000000000E+00 -0.00000000000E+00 -0.26334360135E+04  0.26334360135E+04  0.00000000000E+00 0.  1.
    9900016    2    1    2    0    0 -0.34695438800E+03 -0.30928357839E+02 -0.11343960869E+04  0.25031440389E+04  0.22039831412E+04 0.  0.
        -24    2    3    3    0    0 -0.79329598022E+02 -0.97389510964E+03 -0.99845978927E+03  0.13992688364E+04  0.79160950669E+02 0.  0.
         23    2    3    3    0    0 -0.15010210051E+03  0.77251368388E+02  0.74362615850E+02  0.20526497511E+03  0.90030533010E+02 0.  0.
        -15    1    5    5    0    0 -0.41518081686E+02  0.19122301288E+02  0.68001135513E+02  0.81936365214E+02  0.00000000000E+00 0. -1.
        -15    1    3    3    0    0 -0.11752268947E+03  0.86571538341E+03 -0.21029891350E+03  0.89861022732E+03  0.00000000000E+00 0.  1.
         15    1    5    5    0    0 -0.10858401882E+03  0.58129067100E+02  0.63614803374E+01  0.12332860989E+03  0.00000000000E+00 0.  1.
         15    1    4    4    0    0 -0.71736476019E+02 -0.72465559366E+03 -0.69653732450E+03  0.10076884915E+04  0.00000000000E+00 0. -1.
        -16    1    4    4    0    0 -0.75931220027E+01 -0.24923951598E+03 -0.30192246477E+03  0.39158034496E+03  0.00000000000E+00 0.  1.
         16    1    1    2    0    0 -0.17241089918E+03 -0.24465658177E+03  0.57765263589E+03  0.65058814077E+03  0.00000000000E+00 0. -1.
    9900018    1    1    2    0    0  0.51936528719E+03  0.27558493961E+03 -0.66447314078E+03  0.89192325549E+03  0.91187600000E+02 0.  0.
<mgrwt>
<rscale>  0 0.38569363E+04</rscale>
<asrwt>0</asrwt>
<pdfrwt beam="1">  1        1 0.21726453E+00 0.38569363E+04</pdfrwt>
<pdfrwt beam="2">  1       -1 0.40514400E+00 0.38569363E+04</pdfrwt>
<totfact> 0.39317567E-02</totfact>
</mgrwt>
</event>
<event>
12    1  0.4544937E-009  0.3256947E+04  0.7818608E-02  0.8173937E-01
          1   -1    0    0  501    0  0.00000000000E+00  0.00000000000E+00  0.17517655903E+04  0.17517655903E+04  0.00000000000E+00 0. -1.
         -1   -1    0    0    0  501 -0.00000000000E+00 -0.00000000000E+00 -0.15138590040E+04  0.15138590040E+04  0.00000000000E+00 0.  1.
    9900016    2    1    2    0    0 -0.16188639664E+03  0.42161417104E+03  0.29757104635E+03  0.22605308013E+04  0.21948770492E+04 0.  0.
         24    2    3    3    0    0 -0.68626117004E+03 -0.44812085362E+03 -0.46174160216E+03  0.94411915388E+03  0.79931073996E+02 0.  0.
         23    2    3    3    0    0  0.64734610413E+01  0.10839588833E+03  0.17767336461E+03  0.22730040126E+03  0.91137662980E+02 0.  0.
        -15    1    5    5    0    0 -0.13085888533E+02 -0.98903741938E+01  0.51190013485E+01  0.17183252172E+02  0.00000000000E+00 0.  1.
        -15    1    4    4    0    0 -0.44947314685E+03 -0.32086109762E+03 -0.34415514143E+03  0.65070785693E+03  0.00000000000E+00 0.  1.
         15    1    3    3    0    0  0.51790131237E+03  0.76133913633E+03  0.58163928390E+03  0.10891112461E+04  0.00000000000E+00 0. -1.
         15    1    5    5    0    0  0.19559349574E+02  0.11828626252E+03  0.17255436326E+03  0.21011714908E+03  0.00000000000E+00 0. -1.
        -16    1    1    2    0    0  0.79087951604E+02 -0.65782612941E+03 -0.21517667898E+03  0.69662839721E+03  0.00000000000E+00 0.  1.
         16    1    4    4    0    0 -0.23678802319E+03 -0.12725975600E+03 -0.11758646073E+03  0.29341129694E+03  0.00000000000E+00 0. -1.
    9900018    1    1    2    0    0  0.82798445032E+02  0.23621195837E+03  0.15551221890E+03  0.30846539579E+03  0.91187600000E+02 0.  0.
<mgrwt>
<rscale>  0 0.32569471E+04</rscale>
<asrwt>0</asrwt>
<pdfrwt beam="1">  1        1 0.26950240E+00 0.32569471E+04</pdfrwt>
<pdfrwt beam="2">  1       -1 0.23290138E+00 0.32569471E+04</pdfrwt>
<totfact> 0.33039251E-01</totfact>
</mgrwt>
</event>
<event>
12    1  0.4544937E-009  0.2979202E+04  0.7818608E-02  0.8249695E-01
          2   -1    0    0  501    0  0.00000000000E+00  0.00000000000E+00  0.79411720766E+03  0.79411720766E+03  0.00000000000E+00 0. -1.
         -2   -1    0    0    0  501 -0.00000000000E+00 -0.00000000000E+00 -0.27941865734E+04  0.27941865734E+04  0.00000000000E+00 0.  1.
    9900016    2    1    2    0    0 -0.22127222074E+03 -0.19184999678E+03 -0.14007946026E+04  0.26220148462E+04  0.21970363033E+04 0.  0.
         24    2    3    3    0    0 -0.55753892978E+03  0.24358703735E+03 -0.12780131375E+04  0.14176844150E+04  0.79543812462E+02 0.  0.
         23    2    3    3    0    0 -0.36418474391E+03 -0.30407048093E+03 -0.85004826517E+02  0.49066630593E+03  0.91859774552E+02 0.  0.
        -15    1    5    5    0    0 -0.12450568846E+03 -0.65322033592E+02  0.46848611333E+01  0.14067900503E+03  0.00000000000E+00 0.  1.
        -15    1    4    4    0    0 -0.13046175409E+03  0.40878244743E+02 -0.36026807319E+03  0.38533671605E+03  0.00000000000E+00 0.  1.
         15    1    3    3    0    0  0.70045145295E+03 -0.13136655320E+03 -0.37776638644E+02  0.71366412525E+03  0.00000000000E+00 0. -1.
         15    1    5    5    0    0 -0.23967905545E+03 -0.23874844734E+03 -0.89689687651E+02  0.34998730091E+03  0.00000000000E+00 0. -1.
        -16    1    1    2    0    0  0.32545516350E+03  0.35163785863E+03 -0.58243995480E+03  0.75419264649E+03  0.00000000000E+00 0.  1.
         16    1    4    4    0    0 -0.42707717569E+03  0.20270879261E+03 -0.91774506428E+03  0.10323476990E+04  0.00000000000E+00 0. -1.
    9900018    1    1    2    0    0 -0.10418294277E+03 -0.15978786185E+03 -0.16834808277E+02  0.21209628832E+03  0.91187600000E+02 0.  0.
<mgrwt>
<rscale>  0 0.29792023E+04</rscale>
<asrwt>0</asrwt>
<pdfrwt beam="1">  1        2 0.12217188E+00 0.29792023E+04</pdfrwt>
<pdfrwt beam="2">  1       -2 0.42987487E+00 0.29792023E+04</pdfrwt>
<totfact> 0.14056007E-01</totfact>
</mgrwt>
</event>
<event>
12    1  0.4544937E-009  0.2946637E+04  0.7818608E-02  0.8259135E-01
          1   -1    0    0  501    0  0.00000000000E+00  0.00000000000E+00  0.66629624945E+03  0.66629624945E+03  0.00000000000E+00 0. -1.
         -1   -1    0    0    0  501 -0.00000000000E+00 -0.00000000000E+00 -0.32578121828E+04  0.32578121828E+04  0.00000000000E+00 0.  1.
    9900016    2    1    2    0    0 -0.13849162164E+03  0.18767477631E+03 -0.15607796546E+04  0.27071123849E+04  0.21995505412E+04 0.  0.
         24    2    3    3    0    0  0.64540548953E+03  0.55102993407E+03 -0.15255950429E+04  0.17475005772E+04  0.78331335097E+02 0.  0.
         23    2    3    3    0    0 -0.29514613739E+03  0.37169366602E+02  0.68399036718E+02  0.31927831553E+03  0.93634450470E+02 0.  0.
        -15    1    5    5    0    0 -0.10843420339E+03  0.41556953192E+02 -0.10363137675E+02  0.11658624038E+03  0.00000000000E+00 0.  1.
        -15    1    4    4    0    0  0.14144155924E+02  0.20386281823E+02 -0.73489550732E+02  0.77565273803E+02  0.00000000000E+00 0.  1.
         15    1    5    5    0    0 -0.18671193399E+03 -0.43875865905E+01  0.78762174393E+02  0.20269207514E+03  0.00000000000E+00 0. -1.
         15    1    3    3    0    0 -0.48875097379E+03 -0.40052452436E+03 -0.10358364837E+03  0.64033349218E+03  0.00000000000E+00 0. -1.
        -16    1    1    2    0    0  0.82507244743E+02 -0.58220332703E+02 -0.10436727500E+04  0.10485465472E+04  0.00000000000E+00 0.  1.
         16    1    4    4    0    0  0.63126133361E+03  0.53064365225E+03 -0.14521054922E+04  0.16699353034E+04  0.00000000000E+00 0. -1.
    9900018    1    1    2    0    0  0.55984376896E+02 -0.12945444361E+03  0.12936471212E+02  0.16844950017E+03  0.91187600000E+02 0.  0.
<mgrwt>
<rscale>  0 0.29466374E+04</rscale>
<asrwt>0</asrwt>
<pdfrwt beam="1">  1        1 0.10250711E+00 0.29466374E+04</pdfrwt>
<pdfrwt beam="2">  1       -1 0.50120188E+00 0.29466374E+04</pdfrwt>
<totfact> 0.36622859E-02</totfact>
</mgrwt>
</event>
<event>
12    1  0.4544937E-009  0.3058909E+04  0.7818608E-02  0.8227106E-01
         -2   -1    0    0    0  501 -0.00000000000E+00  0.00000000000E+00  0.10710498843E+04  0.10710498843E+04  0.00000000000E+00 0.  1.
          2   -1    0    0  501    0  0.00000000000E+00 -0.00000000000E+00 -0.21840545231E+04  0.21840545231E+04  0.00000000000E+00 0. -1.
    9900016    2    1    2    0    0 -0.47213378486E+03 -0.69759126042E+02 -0.96570841322E+03  0.24498543263E+04  0.22003219842E+04 0.  0.
         24    2    3    3    0    0 -0.57971225077E+03  0.87481661102E+03 -0.58502284991E+03  0.12040851750E+04  0.78733583828E+02 0.  0.
         23    2    3    3    0    0  0.18384573943E+03 -0.84292238433E+02 -0.30748318484E+03  0.37901487050E+03  0.90564483883E+02 0.  0.
        -15    1    5    5    0    0  0.14362540944E+03 -0.74768972530E+02 -0.16713676554E+03  0.23270873616E+03  0.00000000000E+00 0.  1.
        -15    1    4    4    0    0 -0.55066562021E+02  0.54610799742E+02 -0.28605818248E+02  0.82661711444E+02  0.00000000000E+00 0.  1.
         15    1    5    5    0    0  0.40220329988E+02 -0.95232659022E+01 -0.14034641929E+03  0.14630613434E+03  0.00000000000E+00 0. -1.
         15    1    3    3    0    0 -0.76267273517E+02 -0.86028349863E+03 -0.73202378473E+02  0.86675428077E+03  0.00000000000E+00 0. -1.
        -16    1    1    2    0    0  0.52115382366E+03  0.17913462001E+03  0.54145532061E+02  0.55373482701E+03  0.00000000000E+00 0.  1.
         16    1    4    4    0    0 -0.52464568875E+03  0.82020581128E+03 -0.55641703166E+03  0.11214234636E+04  0.00000000000E+00 0. -1.
    9900018    1    1    2    0    0 -0.49020038803E+02 -0.10937549397E+03 -0.20144175765E+03  0.25151525402E+03  0.91187600000E+02 0.  0.
<mgrwt>
<rscale>  0 0.30589092E+04</rscale>
<asrwt>0</asrwt>
<pdfrwt beam="1">  1        2 0.33600838E+00 0.30589092E+04</pdfrwt>
<pdfrwt beam="2">  1       -2 0.16477691E+00 0.30589092E+04</pdfrwt>
<totfact> 0.10435841E+00</totfact>
</mgrwt>
</event>
<event>
12    1  0.4544937E-009  0.3645881E+04  0.7818608E-02  0.8080062E-01
         -1   -1    0    0    0  501 -0.00000000000E+00  0.00000000000E+00  0.17131804233E+04  0.17131804233E+04  0.00000000000E+00 0.  1.
          1   -1    0    0  501    0  0.00000000000E+00 -0.00000000000E+00 -0.19397329914E+04  0.19397329914E+04  0.00000000000E+00 0. -1.
    9900016    2    1    2    0    0  0.71838619428E+03  0.35787368127E+03 -0.27016110505E+03  0.23518675233E+04  0.21941152041E+04 0.  0.
        -24    2    3    3    0    0  0.81657331681E+03  0.11016988313E+04  0.24397866450E+03  0.13951665306E+04  0.80198271005E+02 0.  0.
         23    2    3    3    0    0  0.72742378837E+02 -0.21113219119E+03 -0.10003379149E+03  0.26066762864E+03  0.89847634071E+02 0.  0.
        -15    1    5    5    0    0  0.37075929616E+02 -0.15814678062E+02 -0.52238562167E+01  0.40645015350E+02  0.00000000000E+00 0. -1.
        -15    1    3    3    0    0 -0.17092950137E+03 -0.53269295887E+03 -0.41410597806E+03  0.69603336409E+03  0.00000000000E+00 0.  1.
         15    1    5    5    0    0  0.35666449221E+02 -0.19531751313E+03 -0.94809935274E+02  0.22002261329E+03  0.00000000000E+00 0.  1.
         15    1    4    4    0    0  0.33668180119E+03  0.48696277751E+03  0.70171774509E+02  0.59616395386E+03  0.00000000000E+00 0. -1.
        -16    1    4    4    0    0  0.47989151562E+03  0.61473605381E+03  0.17380688999E+03  0.79900257674E+03  0.00000000000E+00 0.  1.
         16    1    1    2    0    0 -0.41964522563E+03 -0.47556489885E+03 -0.39702624385E+03  0.74826060081E+03  0.00000000000E+00 0. -1.
    9900018    1    1    2    0    0 -0.29874096865E+03  0.11769121758E+03  0.44063478083E+03  0.55278529061E+03  0.91187600000E+02 0.  0.
<mgrwt>
<rscale>  0 0.36458813E+04</rscale>
<asrwt>0</asrwt>
<pdfrwt beam="1">  1        1 0.29842046E+00 0.36458813E+04</pdfrwt>
<pdfrwt beam="2">  1       -1 0.26356622E+00 0.36458813E+04</pdfrwt>
<totfact> 0.15012420E-01</totfact>
</mgrwt>
</event>
<event>
12    1  0.4544937E-009  0.3719368E+04  0.7818608E-02  0.8063683E-01
         -1   -1    0    0    0  501 -0.00000000000E+00  0.00000000000E+00  0.11435955201E+04  0.11435955201E+04  0.00000000000E+00 0.  1.
          1   -1    0    0  501    0  0.00000000000E+00 -0.00000000000E+00 -0.30241678948E+04  0.30241678948E+04  0.00000000000E+00 0. -1.
    9900016    2    1    2    0    0 -0.11679524762E+03  0.62165840357E+02 -0.17145717656E+03  0.22109132516E+04  0.22002804642E+04 0.  0.
        -24    2    3    3    0    0  0.44881432660E+03  0.29282670492E+03  0.78788956842E+03  0.95618140308E+03  0.79568364877E+02 0.  0.
         23    2    3    3    0    0 -0.29980942592E+03  0.10673923617E+03 -0.63663371438E+03  0.71748679556E+03  0.90586197125E+02 0.  0.
        -15    1    5    5    0    0 -0.23706057368E+03  0.44408062040E+02 -0.43700226451E+03  0.49914003121E+03  0.00000000000E+00 0. -1.
        -15    1    3    3    0    0 -0.26580014829E+03 -0.33740010073E+03 -0.32271303060E+03  0.53724505295E+03  0.00000000000E+00 0.  1.
         15    1    4    4    0    0  0.20948816819E+03  0.11577611673E+03  0.41448389230E+03  0.47862960502E+03  0.00000000000E+00 0. -1.
         15    1    5    5    0    0 -0.62748852239E+02  0.62331174128E+02 -0.19963144987E+03  0.21834676435E+03  0.00000000000E+00 0.  1.
        -16    1    4    4    0    0  0.23932615841E+03  0.17705058818E+03  0.37340567612E+03  0.47755179806E+03  0.00000000000E+00 0.  1.
         16    1    1    2    0    0  0.35415910592E+03  0.69993357381E+02 -0.16155462455E+04  0.16553904113E+04  0.00000000000E+00 0. -1.
    9900018    1    1    2    0    0 -0.23736385830E+03 -0.13215919774E+03 -0.93568952663E+02  0.30145975199E+03  0.91187600000E+02 0.  0.
<mgrwt>
<rscale>  0 0.37193681E+04</rscale>
<asrwt>0</asrwt>
<pdfrwt beam="1">  1        1 0.46525660E+00 0.37193681E+04</pdfrwt>
<pdfrwt beam="2">  1       -1 0.17593777E+00 0.37193681E+04</pdfrwt>
<totfact> 0.10229027E-01</totfact>
</mgrwt>
</event>
<event>
12    1  0.4544937E-009  0.3625904E+04  0.7818608E-02  0.8084584E-01
          2   -1    0    0  501    0  0.00000000000E+00  0.00000000000E+00  0.27053311572E+04  0.27053311572E+04  0.00000000000E+00 0.  1.
         -2   -1    0    0    0  501 -0.00000000000E+00 -0.00000000000E+00 -0.12149326138E+04  0.12149326138E+04  0.00000000000E+00 0. -1.
    9900016    2    1    2    0    0  0.61290272176E+03  0.56900483288E+03  0.17629154306E+04  0.29421390311E+04  0.22020206667E+04 0.  0.
         24    2    3    3    0    0  0.89409913055E+03  0.53221796167E+03  0.17020383615E+04  0.19961739601E+04  0.71461044762E+02 0.  0.
         23    2    3    3    0    0 -0.15590572062E+03  0.24410638349E+03 -0.35335700600E+03  0.46610154285E+03  0.92168076736E+02 0.  0.
        -15    1    5    5    0    0 -0.70925205948E+02  0.44549963270E+02 -0.69328181420E+02  0.10872663338E+03  0.00000000000E+00 0. -1.
        -15    1    4    4    0    0  0.65973478110E+03  0.36779036791E+03  0.12785067422E+04  0.14849576512E+04  0.00000000000E+00 0.  1.
         15    1    3    3    0    0 -0.12529068816E+03 -0.20731951228E+03  0.41423407506E+03  0.47986352815E+03  0.00000000000E+00 0. -1.
         15    1    5    5    0    0 -0.84980514674E+02  0.19955642022E+03 -0.28402882458E+03  0.35737490947E+03  0.00000000000E+00 0.  1.
        -16    1    1    2    0    0 -0.47750814116E+03 -0.57656850517E+03 -0.31031677528E+03  0.81039605567E+03  0.00000000000E+00 0.  1.
         16    1    4    4    0    0  0.23436434945E+03  0.16442759376E+03  0.42353161936E+03  0.51121630889E+03  0.00000000000E+00 0. -1.
    9900018    1    1    2    0    0 -0.13539458060E+03  0.75636722849E+01  0.37799888091E+02  0.16772868428E+03  0.91187600000E+02 0.  0.
<mgrwt>
<rscale>  0 0.36259041E+04</rscale>
<asrwt>0</asrwt>
<pdfrwt beam="1">  1        2 0.41620479E+00 0.36259041E+04</pdfrwt>
<pdfrwt beam="2">  1       -2 0.18691271E+00 0.36259041E+04</pdfrwt>
<totfact> 0.34854878E-01</totfact>
</mgrwt>
</event>
