<event>
10    1  0.3541846E-008  0.4256181E+04  0.7818608E-02  0.7954771E-01
          2   -1    0    0  501    0  0.00000000000E+00  0.00000000000E+00  0.34511333259E+04  0.34511333259E+04  0.00000000000E+00 0. -1.
         -2   -1    0    0    0  501 -0.00000000000E+00 -0.00000000000E+00 -0.13122559360E+04  0.13122559360E+04  0.00000000000E+00 0.  1.
    9900016    2    1    2    0    0 -0.89064446280E+03 -0.12997179336E+04  0.18475382532E+04  0.30634738444E+04  0.18678758342E+04 0.  0.
        -15    1    3    3    0    0 -0.96782479181E+02 -0.47468600289E+03  0.17700917558E+03  0.51577698461E+03  0.00000000000E+00 0.  1.
        -15    1    1    2    0    0  0.39827296562E+03  0.77313409200E+03  0.36313682054E+03  0.94245744190E+03  0.00000000000E+00 0.  1.
         15    1    1    2    0    0  0.49755738948E+03  0.53550900311E+03 -0.90032051707E+02  0.73650459508E+03  0.00000000000E+00 0. -1.
         15    1    3    3    0    0 -0.29590997023E+03 -0.18285913661E+03  0.20628943880E+03  0.40441996351E+03  0.00000000000E+00 0. -1.
        -16    1    1    2    0    0 -0.51858923051E+01 -0.89251614619E+01  0.18234367827E+02  0.20953380543E+02  0.00000000000E+00 0.  1.
         16    1    3    3    0    0 -0.43673483200E+02 -0.74022719143E+03  0.16395016184E+03  0.75942302022E+03  0.00000000000E+00 0. -1.
    9900018    1    3    3    0    0 -0.45427853018E+03  0.98054397284E+02  0.13002894770E+04  0.13838538760E+04  0.91187600000E+02 0.  0.
<mgrwt>
<rscale>  0 0.42561815E+04</rscale>
<asrwt>0</asrwt>
<pdfrwt beam="1">  1        2 0.53094359E+00 0.42561815E+04</pdfrwt>
<pdfrwt beam="2">  1       -2 0.20188553E+00 0.42561815E+04</pdfrwt>
<totfact> 0.87679165E-02</totfact>
</mgrwt>
</event>
<event>
12    1  0.3541846E-008  0.3604946E+04  0.7818608E-02  0.8483088E-01
         -2   -1    0    0    0  501 -0.00000000000E+00  0.00000000000E+00  0.14370162098E+04  0.14370162098E+04  0.00000000000E+00 0.  1.
          2   -1    0    0  501    0  0.00000000000E+00 -0.00000000000E+00 -0.40387689439E+04  0.40387689439E+04  0.00000000000E+00 0. -1.
        -24    2    1    2    0    0 -0.55869209482E+03 -0.13832119369E+03 -0.16457135816E+04  0.17462209992E+04  0.98208838844E+02 0.  0.
    9900016    2    1    2    0    0  0.24395568466E+03  0.13802822303E+04 -0.63804959145E+03  0.24094718906E+04  0.18530391520E+04 0.  0.
         24    2    4    4    0    0 -0.56917646956E+03  0.13529384699E+03  0.21500093590E+03  0.63298355853E+03  0.11034719934E+03 0.  0.
        -15    1    5    5    0    0 -0.34155669044E+03  0.85547225378E+02  0.71340509063E+02  0.35926142124E+03  0.00000000000E+00 0.  1.
        -15    1    1    2    0    0  0.31473641017E+03 -0.12419610366E+04 -0.31798956106E+03  0.13200922639E+04  0.00000000000E+00 0.  1.
         15    1    4    4    0    0  0.62167360990E+03  0.11272199940E+04 -0.83255435644E+03  0.15330524285E+04  0.00000000000E+00 0. -1.
         15    1    3    3    0    0 -0.39038035424E+03 -0.97317970300E+02 -0.10060506079E+04  0.10835153133E+04  0.00000000000E+00 0. -1.
        -16    1    3    3    0    0 -0.16831174059E+03 -0.41003223390E+02 -0.63966297364E+03  0.66270568595E+03  0.00000000000E+00 0.  1.
         16    1    5    5    0    0 -0.22761977911E+03  0.49746621609E+02  0.14366042684E+03  0.27372213729E+03  0.00000000000E+00 0. -1.
    9900018    1    4    4    0    0  0.19145854431E+03  0.11776838928E+03 -0.20496170907E+02  0.24343590351E+03  0.91187600000E+02 0.  0.
<mgrwt>
<rscale>  0 0.22869404E+04</rscale>
<asrwt>0</asrwt>
<pdfrwt beam="1">  1        2 0.62134906E+00 0.36049463E+04</pdfrwt>
<pdfrwt beam="2">  1       -2 0.22107942E+00 0.36049463E+04</pdfrwt>
<totfact> 0.24233646E-02</totfact>
</mgrwt>
</event>
<event>
12    1  0.3541846E-008  0.3946059E+04  0.7818608E-02  0.8552218E-01
          2   -1    0    0  501    0  0.00000000000E+00  0.00000000000E+00  0.29189248465E+04  0.29189248465E+04  0.00000000000E+00 0. -1.
         -2   -1    0    0    0  501 -0.00000000000E+00 -0.00000000000E+00 -0.17090707586E+04  0.17090707586E+04  0.00000000000E+00 0.  1.
        -24    2    1    2    0    0  0.62885447978E+02  0.30920771786E+03  0.52989077553E+03  0.62378142376E+03  0.93568361570E+02 0.  0.
    9900016    2    1    2    0    0  0.31943623047E+03  0.30782860477E+03  0.18313360904E+04  0.26431252924E+04  0.18535159778E+04 0.  0.
         24    2    4    4    0    0  0.17951886120E+03  0.58294748140E+03  0.31425383578E+03  0.69240255528E+03  0.92795676925E+02 0.  0.
        -15    1    1    2    0    0 -0.38232167845E+03 -0.61703632263E+03 -0.11513727781E+04  0.13610888889E+04  0.00000000000E+00 0.  1.
        -15    1    5    5    0    0  0.34029662555E+02  0.10691366072E+03  0.10068129194E+03  0.15074903426E+03  0.00000000000E+00 0.  1.
         15    1    3    3    0    0  0.61078248530E+02  0.22646007798E+03  0.45618987948E+03  0.51295606586E+03  0.00000000000E+00 0. -1.
         15    1    4    4    0    0 -0.44133406193E+03 -0.20718282697E+03  0.11620744844E+04  0.12602053743E+04  0.00000000000E+00 0. -1.
        -16    1    3    3    0    0  0.18071994476E+01  0.82747639879E+02  0.73700896051E+02  0.11082535790E+03  0.00000000000E+00 0.  1.
         16    1    5    5    0    0  0.14548919864E+03  0.47603382068E+03  0.21357254384E+03  0.54165352103E+03  0.00000000000E+00 0. -1.
    9900018    1    4    4    0    0  0.58125143120E+03 -0.67936049655E+02  0.35500777021E+03  0.69051736286E+03  0.91187600000E+02 0.  0.
<mgrwt>
<rscale>  0 0.21206101E+04</rscale>
<asrwt>0</asrwt>
<pdfrwt beam="1">  1        2 0.44906536E+00 0.39460589E+04</pdfrwt>
<pdfrwt beam="2">  1       -2 0.26293396E+00 0.39460589E+04</pdfrwt>
<totfact> 0.81390241E-02</totfact>
</mgrwt>
</event>
<event>
11    1  0.3541846E-008  0.2611950E+04  0.7818608E-02  0.8810140E-01
          1   -1    0    0  501    0  0.00000000000E+00  0.00000000000E+00  0.31862348376E+04  0.31862348376E+04  0.00000000000E+00 0. -1.
         -1   -1    0    0    0  501 -0.00000000000E+00 -0.00000000000E+00 -0.91132324506E+03  0.91132324506E+03  0.00000000000E+00 0.  1.
        -24    2    1    2    0    0 -0.33378493311E+03 -0.18014201981E+03 -0.25542900209E+03  0.46095179433E+03  0.58043541563E+02 0.  0.
    9900016    2    1    2    0    0 -0.41701626713E+02  0.56232754261E+03  0.14244628030E+04  0.24077769184E+04  0.18575101940E+04 0.  0.
        -15    1    4    4    0    0 -0.29751794709E+02  0.31891419461E+02 -0.19120444978E+02  0.47621668805E+02  0.00000000000E+00 0.  1.
        -15    1    1    2    0    0  0.37548655982E+03 -0.38218552280E+03  0.11058777916E+04  0.12288293700E+04  0.00000000000E+00 0.  1.
         15    1    3    3    0    0 -0.16787387881E+03 -0.92431884978E+02 -0.16382899791E+03  0.25212146498E+03  0.00000000000E+00 0. -1.
         15    1    4    4    0    0  0.59210975512E+03  0.21713744685E+03  0.50393068545E+03  0.80727242532E+03  0.00000000000E+00 0. -1.
        -16    1    3    3    0    0 -0.16591105430E+03 -0.87710134829E+02 -0.91600004174E+02  0.20883032935E+03  0.00000000000E+00 0.  1.
         16    1    4    4    0    0 -0.49507724932E+03  0.27471927887E+02 -0.63760649088E+02  0.49992160384E+03  0.00000000000E+00 0. -1.
    9900018    1    4    4    0    0 -0.10898233780E+03  0.28582674841E+03  0.10034132116E+04  0.10529612204E+04  0.91187600000E+02 0.  0.
<mgrwt>
<rscale>  0 0.16170527E+04</rscale>
<asrwt>0</asrwt>
<pdfrwt beam="1">  1        1 0.49018997E+00 0.26119498E+04</pdfrwt>
<pdfrwt beam="2">  1       -1 0.14020358E+00 0.26119498E+04</pdfrwt>
<totfact> 0.15657295E-01</totfact>
</mgrwt>
</event>
<event>
10    1  0.3541846E-008  0.3253265E+04  0.7818608E-02  0.8174890E-01
          2   -1    0    0  501    0  0.00000000000E+00  0.00000000000E+00  0.11361812120E+04  0.11361812120E+04  0.00000000000E+00 0. -1.
         -2   -1    0    0    0  501 -0.00000000000E+00 -0.00000000000E+00 -0.23287953061E+04  0.23287953061E+04  0.00000000000E+00 0.  1.
    9900016    2    1    2    0    0  0.20017801531E+03 -0.87893006999E+03 -0.13832355441E+04  0.24779528475E+04  0.18477879851E+04 0.  0.
        -15    1    1    2    0    0 -0.16799964812E+02  0.78559165415E+02  0.17580302073E+02  0.82236538773E+02  0.00000000000E+00 0. -1.
        -15    1    3    3    0    0 -0.28121338883E+03 -0.44205885892E+03 -0.45175487790E+03  0.69179438745E+03  0.00000000000E+00 0.  1.
         15    1    1    2    0    0  0.95769864502E+02  0.12795264570E+03  0.23744475900E+02  0.16157829874E+03  0.00000000000E+00 0.  1.
         15    1    3    3    0    0  0.12035845450E+03 -0.90684012601E+02 -0.13903530859E+03  0.20503795928E+03  0.00000000000E+00 0. -1.
        -16    1    3    3    0    0  0.41554790603E+03 -0.60232854255E+03 -0.99686540802E+03  0.12366165036E+04  0.00000000000E+00 0.  1.
         16    1    1    2    0    0 -0.27914791500E+03  0.67241825888E+03  0.14929667208E+03  0.74320883311E+03  0.00000000000E+00 0. -1.
    9900018    1    3    3    0    0 -0.54514956385E+02  0.25614134408E+03  0.20442005038E+03  0.34450399709E+03  0.91187600000E+02 0.  0.
<mgrwt>
<rscale>  0 0.32532651E+04</rscale>
<asrwt>0</asrwt>
<pdfrwt beam="1">  1        2 0.17479711E+00 0.32532651E+04</pdfrwt>
<pdfrwt beam="2">  1       -2 0.35827620E+00 0.32532651E+04</pdfrwt>
<totfact> 0.23921616E-01</totfact>
</mgrwt>
</event>
<event>
11    1  0.3541846E-008  0.5076589E+04  0.7818608E-02  0.7816800E-01
         -1   -1    0    0    0  501 -0.00000000000E+00  0.00000000000E+00  0.19612913674E+04  0.19612913674E+04  0.00000000000E+00 0. -1.
          1   -1    0    0  501    0  0.00000000000E+00 -0.00000000000E+00 -0.32850497108E+04  0.32850497108E+04  0.00000000000E+00 0.  1.
    9900016    2    1    2    0    0 -0.50004677279E+03  0.38113827588E+03 -0.35142725823E+03  0.19743225541E+04  0.18382424403E+04 0.  0.
         24    2    3    3    0    0  0.57741017089E+03  0.37667114089E+03 -0.18925885612E+03  0.71807268431E+03  0.67274151816E+02 0.  0.
        -15    1    4    4    0    0  0.25508123806E+03  0.15015761355E+03 -0.11280542911E+03  0.31676302144E+03  0.00000000000E+00 0.  1.
        -15    1    1    2    0    0 -0.51617527150E+03 -0.35928035916E+02 -0.10239788514E+04  0.11472839329E+04  0.00000000000E+00 0.  1.
         15    1    3    3    0    0 -0.28612296362E+03 -0.96403193412E+02  0.21349481639E+03  0.36978367005E+03  0.00000000000E+00 0. -1.
         15    1    1    2    0    0 -0.35181989458E+03  0.23166265874E+03  0.42018870861E+03  0.59498182873E+03  0.00000000000E+00 0. -1.
        -16    1    1    2    0    0  0.13680419389E+04 -0.57687289870E+03 -0.36854094241E+03  0.15297527624E+04  0.00000000000E+00 0.  1.
         16    1    4    4    0    0  0.32232893283E+03  0.22651352734E+03 -0.76453427014E+02  0.40130966287E+03  0.00000000000E+00 0. -1.
    9900018    1    3    3    0    0 -0.79133398006E+03  0.10087032840E+03 -0.37566321850E+03  0.88646619974E+03  0.91187600000E+02 0.  0.
<mgrwt>
<rscale>  0 0.50765893E+04</rscale>
<asrwt>0</asrwt>
<pdfrwt beam="1">  1        1 0.50539226E+00 0.50765893E+04</pdfrwt>
<pdfrwt beam="2">  1       -1 0.30173714E+00 0.50765893E+04</pdfrwt>
<totfact> 0.84612733E-03</totfact>
</mgrwt>
</event>
<event>
11    1  0.3541846E-008  0.2793651E+04  0.7818608E-02  0.8305242E-01
          1   -1    0    0  501    0  0.00000000000E+00  0.00000000000E+00  0.31152153869E+04  0.31152153869E+04  0.00000000000E+00 0. -1.
         -1   -1    0    0    0  501 -0.00000000000E+00 -0.00000000000E+00 -0.62631980143E+03  0.62631980143E+03  0.00000000000E+00 0.  1.
         24    2    1    2    0    0  0.11176786798E+03 -0.54952432209E+03  0.10420222736E+04  0.11872248720E+04  0.96038749065E+02 0.  0.
    9900016    2    1    2    0    0 -0.16474008618E+03  0.37049837213E+03  0.13172895618E+04  0.23270477040E+04  0.18749642363E+04 0.  0.
        -15    1    3    3    0    0  0.66256979716E+02 -0.46390744083E+03  0.81054462379E+03  0.93625994690E+03  0.00000000000E+00 0.  1.
        -15    1    4    4    0    0 -0.33059879700E+03  0.12972909486E+03  0.14570717144E+02  0.35543988019E+03  0.00000000000E+00 0.  1.
         15    1    4    4    0    0 -0.40472045031E+03  0.48057557474E+03  0.45022728559E+03  0.77295286701E+03  0.00000000000E+00 0. -1.
         15    1    1    2    0    0  0.52972218202E+02  0.17902594996E+03  0.12958375016E+03  0.22726261233E+03  0.00000000000E+00 0. -1.
        -16    1    4    4    0    0  0.14856519429E+03  0.62920009448E+02 -0.36150661438E+02  0.16534030019E+03  0.00000000000E+00 0.  1.
         16    1    3    3    0    0  0.45510888260E+02 -0.85616881250E+02  0.23147764978E+03  0.25096492515E+03  0.00000000000E+00 0. -1.
    9900018    1    4    4    0    0  0.42201396685E+03 -0.30272630692E+03  0.88864222047E+03  0.10333146566E+04  0.91187600000E+02 0.  0.
<mgrwt>
<rscale>  0 0.27936507E+04</rscale>
<asrwt>0</asrwt>
<pdfrwt beam="1">  1        1 0.47926390E+00 0.27936507E+04</pdfrwt>
<pdfrwt beam="2">  1       -1 0.96356894E-01 0.27936507E+04</pdfrwt>
<totfact> 0.44147557E-01</totfact>
</mgrwt>
</event>
<event>
11    1  0.3541846E-008  0.4657197E+04  0.7818608E-02  0.7883680E-01
          2   -1    0    0  501    0  0.00000000000E+00  0.00000000000E+00  0.27083726248E+04  0.27083726248E+04  0.00000000000E+00 0. -1.
         -2   -1    0    0    0  501 -0.00000000000E+00 -0.00000000000E+00 -0.20020769502E+04  0.20020769502E+04  0.00000000000E+00 0.  1.
    9900016    2    1    2    0    0  0.12342516034E+04  0.69938621293E+03  0.56583195027E+03  0.23949825440E+04  0.18447919923E+04 0.  0.
         24    2    3    3    0    0  0.43365871875E+03  0.42835836928E+03 -0.55980671006E+03  0.83018598586E+03  0.65379213896E+02 0.  0.
        -15    1    1    2    0    0 -0.18940285625E+03  0.23596374671E+03  0.72105155828E+03  0.78196398984E+03  0.00000000000E+00 0.  1.
        -15    1    4    4    0    0  0.39456944979E+03  0.35990423288E+03 -0.49406764483E+03  0.72754308822E+03  0.00000000000E+00 0.  1.
         15    1    1    2    0    0 -0.73040456091E+03 -0.52899530046E+03 -0.31627972303E+03  0.95569854750E+03  0.00000000000E+00 0. -1.
         15    1    3    3    0    0  0.65189453784E+03 -0.11306907623E+03  0.62535329223E+03  0.91039433465E+03  0.00000000000E+00 0. -1.
        -16    1    1    2    0    0 -0.31444418626E+03 -0.40635465918E+03 -0.26430811090E+03  0.57780449358E+03  0.00000000000E+00 0.  1.
         16    1    4    4    0    0  0.39089268967E+02  0.68454136405E+02 -0.65739065229E+02  0.10264289764E+03  0.00000000000E+00 0. -1.
    9900018    1    3    3    0    0  0.14869834683E+03  0.38409691989E+03  0.50028536811E+03  0.65440222352E+03  0.91187600000E+02 0.  0.
<mgrwt>
<rscale>  0 0.46571968E+04</rscale>
<asrwt>0</asrwt>
<pdfrwt beam="1">  1        2 0.41667271E+00 0.46571968E+04</pdfrwt>
<pdfrwt beam="2">  1       -2 0.30801184E+00 0.46571968E+04</pdfrwt>
<totfact> 0.55738099E-02</totfact>
</mgrwt>
</event>
<event>
12    1  0.3541846E-008  0.3501616E+04  0.7818608E-02  0.8605872E-01
         -2   -1    0    0    0  501 -0.00000000000E+00  0.00000000000E+00  0.12517517158E+04  0.12517517158E+04  0.00000000000E+00 0.  1.
          2   -1    0    0  501    0  0.00000000000E+00 -0.00000000000E+00 -0.38438466639E+04  0.38438466639E+04  0.00000000000E+00 0. -1.
         24    2    1    2    0    0 -0.29823467762E+03 -0.21589353486E+03  0.35746802818E+03  0.51725391249E+03  0.64917466703E+02 0.  0.
    9900016    2    1    2    0    0  0.64234522023E+03 -0.97929002632E+03 -0.14049661066E+04  0.25952521092E+04  0.18411375321E+04 0.  0.
        -24    2    4    4    0    0  0.11616443658E+04 -0.81972123826E+03 -0.14131539652E+04  0.20076059361E+04  0.11007690139E+03 0.  0.
        -15    1    4    4    0    0 -0.90937150612E+02  0.34438017348E+01  0.71940405137E+02  0.11600365090E+03  0.00000000000E+00 0.  1.
        -15    1    3    3    0    0 -0.30126880246E+03 -0.21048813980E+03  0.35323223991E+03  0.50974617570E+03  0.00000000000E+00 0.  1.
         15    1    5    5    0    0  0.61442232016E+03 -0.47590037356E+03 -0.83117620186E+03  0.11379146856E+04  0.00000000000E+00 0. -1.
         15    1    1    2    0    0 -0.34411054262E+03  0.11951835612E+04 -0.15445968697E+04  0.19830923580E+04  0.00000000000E+00 0. -1.
        -16    1    5    5    0    0  0.54722204565E+03 -0.34382086470E+03 -0.58197776339E+03  0.86969125057E+03  0.00000000000E+00 0.  1.
         16    1    3    3    0    0  0.30341248419E+01 -0.54053950650E+01  0.42357882687E+01  0.75077367843E+01  0.00000000000E+00 0. -1.
    9900018    1    4    4    0    0 -0.42836199497E+03 -0.16301258980E+03 -0.63752546463E+02  0.47164252219E+03  0.91187600000E+02 0.  0.
<mgrwt>
<rscale>  0 0.20016010E+04</rscale>
<asrwt>0</asrwt>
<pdfrwt beam="1">  1        2 0.59136102E+00 0.35016162E+04</pdfrwt>
<pdfrwt beam="2">  1       -2 0.19257719E+00 0.35016162E+04</pdfrwt>
<totfact> 0.54018785E-02</totfact>
</mgrwt>
</event>
<event>
11    1  0.3541846E-008  0.2875536E+04  0.7818608E-02  0.8625105E-01
         -2   -1    0    0    0  501 -0.00000000000E+00  0.00000000000E+00  0.19665056288E+04  0.19665056288E+04  0.00000000000E+00 0.  1.
          2   -1    0    0  501    0  0.00000000000E+00 -0.00000000000E+00 -0.15574299229E+04  0.15574299229E+04  0.00000000000E+00 0. -1.
         24    2    1    2    0    0  0.61393997272E+03 -0.37648833927E+02  0.12595728916E+03  0.63449564180E+03  0.91541007070E+02 0.  0.
    9900016    2    1    2    0    0 -0.22618912792E+03 -0.71446744886E+03  0.42989418684E+03  0.20306193540E+04  0.18376563041E+04 0.  0.
        -15    1    4    4    0    0  0.22544168721E+03 -0.71100890112E+03 -0.46818157998E+03  0.88065407717E+03  0.00000000000E+00 0.  1.
        -15    1    3    3    0    0  0.93499804444E+02 -0.39188484996E+02  0.23363576697E+02  0.10403752930E+03  0.00000000000E+00 0.  1.
         15    1    1    2    0    0 -0.38775084480E+03  0.75211628279E+03 -0.14677577013E+03  0.85882055586E+03  0.00000000000E+00 0. -1.
         15    1    4    4    0    0 -0.31363202225E+03 -0.24867176554E+02  0.25146864773E+03  0.40276531957E+03  0.00000000000E+00 0. -1.
        -16    1    4    4    0    0 -0.96870269307E+02  0.14806943939E+03  0.49534399926E+03  0.52599818019E+03  0.00000000000E+00 0.  1.
         16    1    3    3    0    0  0.52044016828E+03  0.15396510694E+01  0.10259371246E+03  0.53045811250E+03  0.00000000000E+00 0. -1.
    9900018    1    4    4    0    0 -0.41128523577E+02 -0.12666081058E+03  0.15126311983E+03  0.22120177712E+03  0.91187600000E+02 0.  0.
<mgrwt>
<rscale>  0 0.19609371E+04</rscale>
<asrwt>0</asrwt>
<pdfrwt beam="1">  1        2 0.23960460E+00 0.28755359E+04</pdfrwt>
<pdfrwt beam="2">  1       -2 0.30253933E+00 0.28755359E+04</pdfrwt>
<totfact> 0.30610134E-01</totfact>
</mgrwt>
</event>
