<event>
11    1  0.2308811E-015  0.1106800E+04  0.7818608E-02  0.9418728E-01
          2   -1    0    0  501    0  0.00000000000E+00  0.00000000000E+00  0.10651630741E+04  0.10651630741E+04  0.00000000000E+00 0. -1.
         -2   -1    0    0    0  501 -0.00000000000E+00 -0.00000000000E+00 -0.71388565536E+03  0.71388565536E+03  0.00000000000E+00 0.  1.
    9900016    2    1    2    0    0  0.26041224947E+03 -0.10885412374E+02  0.18082599779E+03  0.81756034586E+03  0.75350769457E+03 0.  0.
         23    2    3    3    0    0 -0.37652467629E+02  0.25529290158E+03 -0.69490037727E+02  0.28198911731E+03  0.89982348374E+02 0.  0.
        -15    1    1    2    0    0 -0.15704612625E+03  0.27570464361E+03 -0.43588313761E+02  0.32027562720E+03  0.00000000000E+00 0.  1.
        -15    1    4    4    0    0  0.96424888047E+01  0.13682726646E+03 -0.92077069487E+00  0.13716969875E+03  0.00000000000E+00 0. -1.
         15    1    4    4    0    0 -0.47294956434E+02  0.11846563513E+03 -0.68569267032E+02  0.14481941856E+03  0.00000000000E+00 0.  1.
         15    1    1    2    0    0 -0.11734069453E+03 -0.78974970016E+02 -0.16590879203E+03  0.21801745745E+03  0.00000000000E+00 0. -1.
        -16    1    3    3    0    0  0.24660970119E+03 -0.23920929674E+03  0.25419835407E+03  0.42738066824E+03  0.00000000000E+00 0.  1.
         16    1    1    2    0    0  0.13974571311E+02 -0.18584426122E+03  0.37994852673E+03  0.42319529893E+03  0.00000000000E+00 0. -1.
    9900018    1    3    3    0    0  0.51455015904E+02 -0.26969017212E+02 -0.38823185574E+01  0.10819056032E+03  0.91187600000E+02 0.  0.
<mgrwt>
<rscale>  0 0.90550360E+03</rscale>
<asrwt>0</asrwt>
<pdfrwt beam="1">  1        2 0.16387124E+00 0.11068001E+04</pdfrwt>
<pdfrwt beam="2">  1       -2 0.10982856E+00 0.11068001E+04</pdfrwt>
<totfact> 0.14874847E+01</totfact>
</mgrwt>
</event>
<event>
11    1  0.2308811E-015  0.2909707E+04  0.7818608E-02  0.8269995E-01
         -1   -1    0    0    0  501 -0.00000000000E+00  0.00000000000E+00  0.72689045413E+03  0.72689045413E+03  0.00000000000E+00 0.  1.
          1   -1    0    0  501    0  0.00000000000E+00 -0.00000000000E+00 -0.29118539122E+04  0.29118539122E+04  0.00000000000E+00 0. -1.
    9900016    2    1    2    0    0  0.26314974898E+03  0.16411135828E+00 -0.54096338341E+03  0.97276980251E+03  0.76445528919E+03 0.  0.
         23    2    3    3    0    0 -0.13604380931E+02  0.10938070710E+02  0.14515685335E+03  0.17253173252E+03  0.91607674789E+02 0.  0.
        -15    1    1    2    0    0 -0.81200450398E+02  0.31654947105E+03 -0.19129628628E+03  0.37867050309E+03  0.00000000000E+00 0.  1.
        -15    1    4    4    0    0 -0.27180216294E+02 -0.27251905707E+02  0.11703101731E+03  0.12319776595E+03  0.00000000000E+00 0.  1.
         15    1    1    2    0    0  0.27950895798E+03 -0.66521086687E+03 -0.15417303579E+04  0.17022230323E+04  0.00000000000E+00 0. -1.
         15    1    4    4    0    0  0.13575835363E+02  0.38189976417E+02  0.28125836043E+02  0.49333966571E+02  0.00000000000E+00 0. -1.
        -16    1    1    2    0    0 -0.46145825657E+03  0.34849728446E+03  0.89026569514E+02  0.58508102850E+03  0.00000000000E+00 0.  1.
         16    1    3    3    0    0  0.21261143825E+03 -0.68697390372E+02 -0.61836905186E+03  0.65749771058E+03  0.00000000000E+00 0. -1.
    9900018    1    3    3    0    0  0.64142691667E+02  0.57923431020E+02 -0.67751184902E+02  0.14274035941E+03  0.91187600000E+02 0.  0.
<mgrwt>
<rscale>  0 0.29097071E+04</rscale>
<asrwt>0</asrwt>
<pdfrwt beam="1">  1        1 0.44797752E+00 0.29097071E+04</pdfrwt>
<pdfrwt beam="2">  1       -1 0.11182930E+00 0.29097071E+04</pdfrwt>
<totfact> 0.43569514E-01</totfact>
</mgrwt>
</event>
<event>
11    1  0.2308811E-015  0.2351273E+04  0.7818608E-02  0.8457975E-01
          2   -1    0    0  501    0  0.00000000000E+00  0.00000000000E+00  0.27879576318E+04  0.27879576318E+04  0.00000000000E+00 0. -1.
         -2   -1    0    0    0  501 -0.00000000000E+00 -0.00000000000E+00 -0.49574671707E+03  0.49574671707E+03  0.00000000000E+00 0.  1.
    9900016    2    1    2    0    0 -0.20002672552E+01  0.10826688717E+01  0.87421562439E+03  0.11050929251E+04  0.67599722038E+03 0.  0.
         23    2    3    3    0    0 -0.23954315791E+03 -0.21591368004E+03  0.58175351600E+03  0.67029627703E+03  0.82826951442E+02 0.  0.
        -15    1    1    2    0    0  0.10997347090E+03 -0.11634738639E+03  0.18687226844E+03  0.24607341046E+03  0.00000000000E+00 0. -1.
        -15    1    4    4    0    0 -0.12835735959E+01 -0.11144435448E+02  0.27462457824E+01  0.11549366586E+02  0.00000000000E+00 0.  1.
         15    1    4    4    0    0 -0.23825958431E+03 -0.20476924460E+03  0.57900727022E+03  0.65874691044E+03  0.00000000000E+00 0. -1.
         15    1    1    2    0    0 -0.74206040804E+01 -0.53423844046E+03  0.93399395986E+03  0.10760160285E+04  0.00000000000E+00 0.  1.
        -16    1    1    2    0    0 -0.10590644408E+03  0.66576173315E+03  0.16321839139E+03  0.69361019565E+03  0.00000000000E+00 0.  1.
         16    1    3    3    0    0  0.23754289065E+03  0.21699634892E+03  0.29246210839E+03  0.43479664809E+03  0.00000000000E+00 0. -1.
    9900018    1    1    2    0    0  0.53538445127E+01 -0.16258575169E+02  0.13391067062E+03  0.16291178907E+03  0.91187600000E+02 0.  0.
<mgrwt>
<rscale>  0 0.23512727E+04</rscale>
<asrwt>0</asrwt>
<pdfrwt beam="1">  1        2 0.42891655E+00 0.23512727E+04</pdfrwt>
<pdfrwt beam="2">  1       -2 0.76268727E-01 0.23512727E+04</pdfrwt>
<totfact> 0.32666753E+00</totfact>
</mgrwt>
</event>
<event>
11    1  0.2308811E-015  0.1841510E+04  0.7818608E-02  0.8729358E-01
          2   -1    0    0  501    0  0.00000000000E+00  0.00000000000E+00  0.27045331556E+04  0.27045331556E+04  0.00000000000E+00 0.  1.
         -2   -1    0    0    0  501 -0.00000000000E+00 -0.00000000000E+00 -0.10981726228E+04  0.10981726228E+04  0.00000000000E+00 0. -1.
    9900016    2    1    2    0    0  0.60781979864E+03 -0.71148949108E+03  0.11340042211E+04  0.16143252958E+04  0.66664712092E+03 0.  0.
         23    2    3    3    0    0  0.29459641412E+03  0.38635605136E+01  0.58127553564E+03  0.65758715155E+03  0.87963851890E+02 0.  0.
        -15    1    1    2    0    0 -0.83433236723E+03  0.72235395282E+03  0.91394377785E+03  0.14328987966E+04  0.00000000000E+00 0.  1.
        -15    1    4    4    0    0  0.93237159034E+02 -0.13753032463E+02  0.27431894419E+03  0.29005723033E+03  0.00000000000E+00 0. -1.
         15    1    4    4    0    0  0.20135925508E+03  0.17616592977E+02  0.30695659146E+03  0.36752992122E+03  0.00000000000E+00 0.  1.
         15    1    1    2    0    0  0.18544581134E+02 -0.60993854512E+02 -0.10287226634E+03  0.12102419163E+03  0.00000000000E+00 0. -1.
        -16    1    3    3    0    0  0.31322338452E+03 -0.71535305160E+03  0.55272868545E+03  0.95673814430E+03  0.00000000000E+00 0.  1.
         16    1    1    2    0    0  0.12664452957E+03  0.97771567871E+02 -0.44036716262E+03  0.46853106009E+03  0.00000000000E+00 0. -1.
    9900018    1    1    2    0    0  0.81323457886E+02 -0.47642175100E+02  0.10165196283E+03  0.16592643428E+03  0.91187600000E+02 0.  0.
<mgrwt>
<rscale>  0 0.17572705E+04</rscale>
<asrwt>0</asrwt>
<pdfrwt beam="1">  1        2 0.41608202E+00 0.18415104E+04</pdfrwt>
<pdfrwt beam="2">  1       -2 0.16894964E+00 0.18415104E+04</pdfrwt>
<totfact> 0.52191647E-01</totfact>
</mgrwt>
</event>
<event>
11    1  0.2308811E-015  0.1549191E+04  0.7818608E-02  0.8852384E-01
          2   -1    0    0  501    0  0.00000000000E+00  0.00000000000E+00  0.49039968504E+03  0.49039968504E+03  0.00000000000E+00 0.  1.
         -2   -1    0    0    0  501 -0.00000000000E+00 -0.00000000000E+00 -0.12234888615E+04  0.12234888615E+04  0.00000000000E+00 0. -1.
    9900016    2    1    2    0    0 -0.25566235701E+03  0.31818981394E+03 -0.16494604201E+03  0.79138844049E+03  0.65763247219E+03 0.  0.
         23    2    3    3    0    0 -0.10226760690E+03  0.18529747642E+03 -0.41175366047E+03  0.47185076937E+03  0.91149621288E+02 0.  0.
        -15    1    4    4    0    0 -0.18471717391E+02  0.12581143524E+03 -0.21194678428E+03  0.24716626175E+03  0.00000000000E+00 0.  1.
        -15    1    1    2    0    0 -0.35434987387E+02 -0.47368302764E+02  0.44124279810E+02  0.73799366573E+02  0.00000000000E+00 0.  1.
         15    1    1    2    0    0  0.37479778981E+02 -0.12286235678E+03 -0.93482296381E+02  0.15886734178E+03  0.00000000000E+00 0. -1.
         15    1    4    4    0    0 -0.83795889511E+02  0.59486041175E+02 -0.19980687619E+03  0.22468450762E+03  0.00000000000E+00 0. -1.
        -16    1    3    3    0    0 -0.15339475011E+03  0.13289233752E+03  0.24680761846E+03  0.31953767112E+03  0.00000000000E+00 0.  1.
         16    1    1    2    0    0  0.23328942150E+03 -0.21482293803E+03 -0.46532507692E+03  0.56311657417E+03  0.00000000000E+00 0. -1.
    9900018    1    1    2    0    0  0.20328143917E+02  0.66863783637E+02 -0.53460041002E+02  0.12671682357E+03  0.91187600000E+02 0.  0.
<mgrwt>
<rscale>  0 0.15491915E+04</rscale>
<asrwt>0</asrwt>
<pdfrwt beam="1">  1        2 0.75446106E-01 0.15491915E+04</pdfrwt>
<pdfrwt beam="2">  1       -2 0.18822905E+00 0.15491915E+04</pdfrwt>
<totfact> 0.96489652E+00</totfact>
</mgrwt>
</event>
<event>
11    1  0.2308811E-015  0.1495487E+04  0.7818608E-02  0.8887459E-01
          2   -1    0    0  501    0  0.00000000000E+00  0.00000000000E+00  0.17723504202E+04  0.17723504202E+04  0.00000000000E+00 0. -1.
         -2   -1    0    0    0  501 -0.00000000000E+00 -0.00000000000E+00 -0.31546835948E+03  0.31546835948E+03  0.00000000000E+00 0.  1.
    9900016    2    1    2    0    0 -0.12029881135E+02  0.35034188272E+02  0.11177802423E+04  0.13072844994E+04  0.67689584131E+03 0.  0.
         23    2    3    3    0    0 -0.24630610623E+03  0.20188077956E+03  0.85914857698E+03  0.92048549093E+03  0.87947226062E+02 0.  0.
        -15    1    1    2    0    0  0.19422162771E+03 -0.20277309409E+03  0.13285965098E+03  0.31062945001E+03  0.00000000000E+00 0. -1.
        -15    1    4    4    0    0 -0.54043338855E+02  0.76802822496E+02  0.34386639726E+03  0.35645961228E+03  0.00000000000E+00 0.  1.
         15    1    1    2    0    0 -0.67254767267E+01 -0.18910232310E+02 -0.38026127682E+02  0.42997852385E+02  0.00000000000E+00 0.  1.
         15    1    4    4    0    0 -0.19226276737E+03  0.12507795706E+03  0.51528217972E+03  0.56402587866E+03  0.00000000000E+00 0. -1.
        -16    1    3    3    0    0  0.23427622509E+03 -0.16684659129E+03  0.25863166531E+03  0.38679900849E+03  0.00000000000E+00 0.  1.
         16    1    1    2    0    0 -0.17704435234E+03  0.16332854436E+03  0.11479953466E+03  0.26683299882E+03  0.00000000000E+00 0. -1.
    9900018    1    1    2    0    0  0.15780824920E+01  0.23320593767E+02  0.12946876051E+03  0.16007397908E+03  0.91187600000E+02 0.  0.
<mgrwt>
<rscale>  0 0.14954872E+04</rscale>
<asrwt>0</asrwt>
<pdfrwt beam="1">  1        2 0.27266929E+00 0.14954872E+04</pdfrwt>
<pdfrwt beam="2">  1       -2 0.48533595E-01 0.14954872E+04</pdfrwt>
<totfact> 0.34738263E+01</totfact>
</mgrwt>
</event>
<event>
11    1  0.2308811E-015  0.1329347E+04  0.7818608E-02  0.9268263E-01
         -2   -1    0    0    0  501 -0.00000000000E+00  0.00000000000E+00  0.42466832608E+03  0.42466832608E+03  0.00000000000E+00 0. -1.
          2   -1    0    0  501    0  0.00000000000E+00 -0.00000000000E+00 -0.19753630272E+04  0.19753630272E+04  0.00000000000E+00 0.  1.
    9900016    2    1    2    0    0  0.13103146982E+03  0.17247388329E+03 -0.50562519538E+03  0.93252346982E+03  0.75301175095E+03 0.  0.
         23    2    3    3    0    0  0.37871154078E+03  0.19217086425E+03 -0.35894015655E+03  0.56363182373E+03  0.92145127642E+02 0.  0.
        -15    1    1    2    0    0  0.11307074072E+03  0.12583804267E+03 -0.48679146281E+03  0.51535049593E+03  0.00000000000E+00 0.  1.
        -15    1    4    4    0    0  0.47284109375E+02  0.62986162360E+02 -0.60779074579E+02  0.99484368395E+02  0.00000000000E+00 0. -1.
         15    1    4    4    0    0  0.33142743140E+03  0.12918470189E+03 -0.29816108197E+03  0.46414745534E+03  0.00000000000E+00 0.  1.
         15    1    1    2    0    0  0.20391034457E+03 -0.38888857792E+01 -0.42700619163E+02  0.20836961134E+03  0.00000000000E+00 0. -1.
        -16    1    3    3    0    0 -0.24367273764E+03 -0.27476127886E+02 -0.12267636345E+03  0.27419123039E+03  0.00000000000E+00 0.  1.
         16    1    1    2    0    0 -0.44801255511E+03 -0.29442304018E+03 -0.51557742377E+03  0.74378777621E+03  0.00000000000E+00 0. -1.
    9900018    1    3    3    0    0 -0.40073333154E+01  0.77791469208E+01 -0.24008675379E+02  0.94700415703E+02  0.91187600000E+02 0.  0.
<mgrwt>
<rscale>  0 0.10375784E+04</rscale>
<asrwt>0</asrwt>
<pdfrwt beam="1">  1        2 0.30390200E+00 0.13293474E+04</pdfrwt>
<pdfrwt beam="2">  1       -2 0.65333590E-01 0.13293474E+04</pdfrwt>
<totfact> 0.14493424E+01</totfact>
</mgrwt>
</event>
<event>
11    1  0.2308811E-015  0.2031952E+04  0.7818608E-02  0.8780286E-01
          1   -1    0    0  501    0  0.00000000000E+00  0.00000000000E+00  0.24227049389E+04  0.24227049389E+04  0.00000000000E+00 0. -1.
         -1   -1    0    0    0  501 -0.00000000000E+00 -0.00000000000E+00 -0.10931840258E+04  0.10931840258E+04  0.00000000000E+00 0.  1.
    9900016    2    1    2    0    0  0.44759191458E+03  0.22049797533E+03  0.90378172374E+03  0.12859262582E+04  0.76669880543E+03 0.  0.
         23    2    3    3    0    0  0.19046154337E+03 -0.15597973910E+03  0.59891722268E+02  0.26930356393E+03  0.91280406634E+02 0.  0.
        -15    1    4    4    0    0  0.18148579992E+03 -0.14055453647E+03  0.79372297104E+02  0.24288399462E+03  0.00000000000E+00 0.  1.
        -15    1    1    2    0    0 -0.12646047639E+03  0.14720503026E+03 -0.72818272155E+03  0.75359913017E+03  0.00000000000E+00 0.  1.
         15    1    4    4    0    0  0.89757434590E+01 -0.15425202623E+02 -0.19480574836E+02  0.26419569310E+02  0.00000000000E+00 0. -1.
         15    1    1    2    0    0 -0.18784700493E+03  0.19694959361E+03  0.66182417289E+03  0.71560245633E+03  0.00000000000E+00 0. -1.
        -16    1    1    2    0    0 -0.13328443326E+03 -0.56465259921E+03  0.49209773797E+03  0.76076111997E+03  0.00000000000E+00 0.  1.
         16    1    3    3    0    0  0.14409706142E+03  0.34708639328E+03  0.75622499887E+03  0.84445791869E+03  0.00000000000E+00 0. -1.
    9900018    1    3    3    0    0  0.11303330978E+03  0.29391321147E+02  0.87665002603E+02  0.17216477559E+03  0.91187600000E+02 0.  0.
<mgrwt>
<rscale>  0 0.16672159E+04</rscale>
<asrwt>0</asrwt>
<pdfrwt beam="1">  1        1 0.37272384E+00 0.20319520E+04</pdfrwt>
<pdfrwt beam="2">  1       -1 0.16818216E+00 0.20319520E+04</pdfrwt>
<totfact> 0.35008873E-01</totfact>
</mgrwt>
</event>
<event>
11    1  0.2308811E-015  0.1382173E+04  0.7818608E-02  0.9435768E-01
          2   -1    0    0  501    0  0.00000000000E+00  0.00000000000E+00  0.47869859667E+03  0.47869859667E+03  0.00000000000E+00 0. -1.
         -2   -1    0    0    0  501 -0.00000000000E+00 -0.00000000000E+00 -0.13786950525E+04  0.13786950525E+04  0.00000000000E+00 0.  1.
    9900016    2    1    2    0    0  0.19109182043E+03  0.30024649607E+03 -0.16035422936E+03  0.84899824098E+03  0.75393666317E+03 0.  0.
         23    2    3    3    0    0  0.16179862151E+03  0.33412760243E+03 -0.34565948656E+03  0.51567121185E+03  0.92823862534E+02 0.  0.
        -15    1    1    2    0    0  0.11763560740E+03  0.98295489065E+02 -0.13455135263E+03  0.20397109058E+03  0.00000000000E+00 0. -1.
        -15    1    4    4    0    0  0.94767143397E+02  0.17515014760E+03 -0.12329145130E+03  0.23422033993E+03  0.00000000000E+00 0. -1.
         15    1    4    4    0    0  0.67031478116E+02  0.15897745483E+03 -0.22236803526E+03  0.28145087192E+03  0.00000000000E+00 0.  1.
         15    1    1    2    0    0 -0.76326911525E+02 -0.33399643025E+02 -0.39450569935E+02  0.92182867417E+02  0.00000000000E+00 0.  1.
        -16    1    3    3    0    0  0.30966243527E+02 -0.43870615206E+02  0.22648291674E+03  0.23276178958E+03  0.00000000000E+00 0.  1.
         16    1    1    2    0    0 -0.23240051630E+03 -0.36514234211E+03 -0.56564030393E+03  0.71224145022E+03  0.00000000000E+00 0. -1.
    9900018    1    3    3    0    0 -0.16730446113E+01  0.99895088499E+01 -0.41177659535E+02  0.10056523954E+03  0.91187600000E+02 0.  0.
<mgrwt>
<rscale>  0 0.89189669E+03</rscale>
<asrwt>0</asrwt>
<pdfrwt beam="1">  1        2 0.73645939E-01 0.13821727E+04</pdfrwt>
<pdfrwt beam="2">  1       -2 0.21210693E+00 0.13821727E+04</pdfrwt>
<totfact> 0.69693366E+00</totfact>
</mgrwt>
</event>
<event>
11    1  0.2308811E-015  0.4351356E+04  0.7818608E-02  0.7937190E-01
         -2   -1    0    0    0  501 -0.00000000000E+00  0.00000000000E+00  0.23168068672E+04  0.23168068672E+04  0.00000000000E+00 0.  1.
          2   -1    0    0  501    0  0.00000000000E+00 -0.00000000000E+00 -0.20431459592E+04  0.20431459592E+04  0.00000000000E+00 0. -1.
    9900016    2    1    2    0    0 -0.37817030136E+03  0.92524801253E+02 -0.74790440332E+03  0.11282450472E+04  0.74966810953E+03 0.  0.
         23    2    3    3    0    0 -0.52083286600E+02  0.34165698292E+03 -0.35070261374E+03  0.50013998543E+03  0.87781085733E+02 0.  0.
        -15    1    1    2    0    0 -0.35487381621E+03 -0.52447893410E+03  0.39861855947E+03  0.74827156415E+03  0.00000000000E+00 0.  1.
        -15    1    4    4    0    0 -0.51273438609E+02  0.82118152287E+02 -0.10331152542E+03  0.14158258271E+03  0.00000000000E+00 0.  1.
         15    1    1    2    0    0  0.13611812452E+04  0.13673606300E+03  0.99908391487E+03  0.16940129285E+04  0.00000000000E+00 0. -1.
         15    1    4    4    0    0 -0.80984799052E+00  0.25953883064E+03 -0.24739108833E+03  0.35855740272E+03  0.00000000000E+00 0. -1.
        -16    1    1    2    0    0 -0.62813712758E+03  0.29521806985E+03 -0.37613716303E+03  0.78942328647E+03  0.00000000000E+00 0.  1.
         16    1    3    3    0    0 -0.23475535753E+03 -0.26760624396E+03 -0.29878374811E+03  0.46475252321E+03  0.00000000000E+00 0. -1.
    9900018    1    3    3    0    0 -0.91331657225E+02  0.18474062290E+02 -0.98418041462E+02  0.16335253860E+03  0.91187600000E+02 0.  0.
<mgrwt>
<rscale>  0 0.43513559E+04</rscale>
<asrwt>0</asrwt>
<pdfrwt beam="1">  1        2 0.31433015E+00 0.43513559E+04</pdfrwt>
<pdfrwt beam="2">  1       -2 0.35643183E+00 0.43513559E+04</pdfrwt>
<totfact> 0.68672279E-02</totfact>
</mgrwt>
</event>
<event>
11    1  0.2308811E-015  0.4321517E+04  0.7818608E-02  0.7942651E-01
          2   -1    0    0  501    0  0.00000000000E+00  0.00000000000E+00  0.18368209449E+04  0.18368209449E+04  0.00000000000E+00 0. -1.
         -2   -1    0    0    0  501 -0.00000000000E+00 -0.00000000000E+00 -0.25418243797E+04  0.25418243797E+04  0.00000000000E+00 0.  1.
    9900016    2    1    2    0    0 -0.15186731958E+02  0.22253071870E+03 -0.47272209654E+03  0.92128624420E+03  0.75865117518E+03 0.  0.
         23    2    3    3    0    0  0.10969383324E+03  0.25393827316E+03 -0.47833675329E+03  0.55980897859E+03  0.89792312206E+02 0.  0.
        -15    1    4    4    0    0  0.12394456268E+03  0.21980057802E+03 -0.43440614548E+03  0.50237759499E+03  0.00000000000E+00 0.  1.
        -15    1    1    2    0    0 -0.28946830991E+02  0.21581496781E+03 -0.92649854799E+03  0.95174239098E+03  0.00000000000E+00 0.  1.
         15    1    4    4    0    0 -0.14250729445E+02  0.34137695145E+02 -0.43930607813E+02  0.57431383602E+02  0.00000000000E+00 0. -1.
         15    1    1    2    0    0  0.10885997680E+04  0.29910799762E+03  0.32885319869E+03  0.11758654155E+04  0.00000000000E+00 0. -1.
        -16    1    1    2    0    0 -0.10444662051E+04 -0.73745368413E+03  0.36536401103E+03  0.13297512739E+04  0.00000000000E+00 0.  1.
         16    1    3    3    0    0 -0.14964696769E+03 -0.66812212347E+02  0.12430297570E+03  0.20569228577E+03  0.00000000000E+00 0. -1.
    9900018    1    3    3    0    0  0.24766402496E+02  0.35404657883E+02 -0.11868831895E+03  0.15578497984E+03  0.91187600000E+02 0.  0.
<mgrwt>
<rscale>  0 0.43215165E+04</rscale>
<asrwt>0</asrwt>
<pdfrwt beam="1">  1        2 0.28258784E+00 0.43215165E+04</pdfrwt>
<pdfrwt beam="2">  1       -2 0.39104990E+00 0.43215165E+04</pdfrwt>
<totfact> 0.53720002E-02</totfact>
</mgrwt>
</event>
<event>
11    1  0.2308811E-015  0.1026831E+04  0.7818608E-02  0.9538820E-01
         -2   -1    0    0    0  501 -0.00000000000E+00  0.00000000000E+00  0.34144197860E+03  0.34144197860E+03  0.00000000000E+00 0.  1.
          2   -1    0    0  501    0  0.00000000000E+00 -0.00000000000E+00 -0.16355178924E+04  0.16355178924E+04  0.00000000000E+00 0. -1.
    9900016    2    1    2    0    0 -0.42260498347E+02  0.24582881180E+03 -0.59836669197E+03  0.92516048943E+03  0.66004657315E+03 0.  0.
         23    2    3    3    0    0 -0.30466344951E+02 -0.25200730676E+02  0.12071028260E+03  0.15661133011E+03  0.91612561312E+02 0.  0.
        -15    1    4    4    0    0 -0.49510469759E+02  0.11361431740E+02  0.95829125924E+02  0.10846008539E+03  0.00000000000E+00 0.  1.
        -15    1    1    2    0    0 -0.19701551899E+02 -0.20988664450E+03 -0.35672076777E+03  0.41435523508E+03  0.00000000000E+00 0.  1.
         15    1    4    4    0    0  0.19044124808E+02 -0.36562162415E+02  0.24881156678E+02  0.48151244717E+02  0.00000000000E+00 0. -1.
         15    1    1    2    0    0  0.61241646025E+02 -0.18573447031E+03 -0.28646849130E+03  0.34686024445E+03  0.00000000000E+00 0. -1.
        -16    1    1    2    0    0  0.66412498355E+01  0.65673158465E+02  0.83467102302E+02  0.10641347240E+03  0.00000000000E+00 0.  1.
         16    1    3    3    0    0 -0.11794153396E+02  0.27102954247E+03 -0.71907697457E+03  0.76854915933E+03  0.00000000000E+00 0. -1.
    9900018    1    1    2    0    0 -0.59208456141E+01  0.84119144547E+02 -0.13598706507E+03  0.18417042964E+03  0.91187600000E+02 0.  0.
<mgrwt>
<rscale>  0 0.81481297E+03</rscale>
<asrwt>0</asrwt>
<pdfrwt beam="1">  1        2 0.25161814E+00 0.10268306E+04</pdfrwt>
<pdfrwt beam="2">  1       -2 0.52529534E-01 0.10268306E+04</pdfrwt>
<totfact> 0.36346298E+01</totfact>
</mgrwt>
</event>
<event>
11    1  0.2308811E-015  0.2706651E+04  0.7818608E-02  0.8332850E-01
         -2   -1    0    0    0  501 -0.00000000000E+00  0.00000000000E+00  0.18987524272E+04  0.18987524272E+04  0.00000000000E+00 0.  1.
          2   -1    0    0  501    0  0.00000000000E+00 -0.00000000000E+00 -0.96457555112E+03  0.96457555112E+03  0.00000000000E+00 0. -1.
    9900016    2    1    2    0    0 -0.21501752797E+02 -0.49902389154E+03  0.61970274450E+02  0.91149869935E+03  0.75993578302E+03 0.  0.
         23    2    3    3    0    0  0.13969643258E+03 -0.48627276096E+03 -0.97658520496E+02  0.52469231843E+03  0.98937106648E+02 0.  0.
        -15    1    4    4    0    0  0.84145002541E+02 -0.30501038453E+03 -0.11937205485E+02  0.31662945693E+03  0.00000000000E+00 0. -1.
        -15    1    1    2    0    0  0.98033379212E+02  0.20976181324E+03  0.47840998729E+03  0.53149475789E+03  0.00000000000E+00 0.  1.
         15    1    1    2    0    0 -0.50216206759E+03 -0.27718237433E+03 -0.63432820068E+02  0.57707931294E+03  0.00000000000E+00 0. -1.
         15    1    4    4    0    0  0.55551430044E+02 -0.18126237643E+03 -0.85721315012E+02  0.20806286150E+03  0.00000000000E+00 0.  1.
        -16    1    1    2    0    0  0.42563044117E+03  0.56644445262E+03  0.45722943441E+03  0.84325520814E+03  0.00000000000E+00 0.  1.
         16    1    3    3    0    0 -0.19674429144E+03  0.74075613820E+02  0.14450193677E+03  0.25510061251E+03  0.00000000000E+00 0. -1.
    9900018    1    3    3    0    0  0.35546106055E+02 -0.86826744401E+02  0.15126858178E+02  0.13170576840E+03  0.91187600000E+02 0.  0.
<mgrwt>
<rscale>  0 0.27066512E+04</rscale>
<asrwt>0</asrwt>
<pdfrwt beam="1">  1        2 0.14839624E+00 0.27066512E+04</pdfrwt>
<pdfrwt beam="2">  1       -2 0.29211576E+00 0.27066512E+04</pdfrwt>
<totfact> 0.82705733E-01</totfact>
</mgrwt>
</event>
<event>
11    1  0.2308811E-015  0.1598140E+04  0.7818608E-02  0.9410321E-01
         -2   -1    0    0    0  501 -0.00000000000E+00  0.00000000000E+00  0.27733352667E+03  0.27733352667E+03  0.00000000000E+00 0.  1.
          2   -1    0    0  501    0  0.00000000000E+00 -0.00000000000E+00 -0.31370284424E+04  0.31370284424E+04  0.00000000000E+00 0. -1.
    9900016    2    1    2    0    0  0.34342662846E+03 -0.95743590403E+02 -0.20618747702E+04  0.21916717397E+04  0.65191162167E+03 0.  0.
         23    2    3    3    0    0  0.18474443538E+03 -0.27727500163E+03 -0.47972800944E+03  0.59125864797E+03  0.91847116572E+02 0.  0.
        -15    1    4    4    0    0  0.91519860071E+02 -0.11250412104E+03 -0.13587043157E+03  0.19873056185E+03  0.00000000000E+00 0.  1.
        -15    1    1    2    0    0  0.62210461977E+01  0.88744357737E+02 -0.36821816709E+02  0.96281403353E+02  0.00000000000E+00 0.  1.
         15    1    4    4    0    0  0.93224575308E+02 -0.16477088060E+03 -0.34385757788E+03  0.39252808613E+03  0.00000000000E+00 0. -1.
         15    1    1    2    0    0  0.50368385758E+02  0.60001194847E+02 -0.49180601307E+01  0.78493980549E+02  0.00000000000E+00 0. -1.
        -16    1    1    2    0    0 -0.53244156697E+03 -0.30027495404E+02 -0.43541721813E+03  0.68846483320E+03  0.00000000000E+00 0.  1.
         16    1    3    3    0    0  0.15868219308E+03  0.18153141123E+03 -0.15821467608E+04  0.16004130918E+04  0.00000000000E+00 0. -1.
    9900018    1    1    2    0    0  0.13242550655E+03 -0.22974466777E+02 -0.32066305053E+03  0.35945001221E+03  0.91187600000E+02 0.  0.
<mgrwt>
<rscale>  0 0.91231134E+03</rscale>
<asrwt>0</asrwt>
<pdfrwt beam="1">  1        2 0.48261979E+00 0.15981397E+04</pdfrwt>
<pdfrwt beam="2">  1       -2 0.42666694E-01 0.15981397E+04</pdfrwt>
<totfact> 0.71441464E+00</totfact>
</mgrwt>
</event>
<event>
11    1  0.2308811E-015  0.3749970E+04  0.7818608E-02  0.8267187E-01
          1   -1    0    0  501    0  0.00000000000E+00  0.00000000000E+00  0.33714621406E+04  0.33714621406E+04  0.00000000000E+00 0. -1.
         -1   -1    0    0    0  501 -0.00000000000E+00 -0.00000000000E+00 -0.21255081291E+04  0.21255081291E+04  0.00000000000E+00 0.  1.
    9900016    2    1    2    0    0  0.75532296082E+03 -0.52830084928E+03 -0.44726142981E+03  0.12807187114E+04  0.76849402639E+03 0.  0.
         23    2    3    3    0    0  0.20504868068E+03 -0.77888356542E+01  0.13550694963E+03  0.26250755478E+03  0.91882835774E+02 0.  0.
        -15    1    1    2    0    0 -0.10044005364E+03 -0.18841984828E+02  0.96307112832E+02  0.14042181009E+03  0.00000000000E+00 0.  1.
        -15    1    4    4    0    0  0.80546840282E+02  0.41819099620E+02  0.57488904109E+02  0.10743186058E+03  0.00000000000E+00 0. -1.
         15    1    1    2    0    0  0.49910398929E+03  0.18959157314E+04  0.10159238041E+04  0.22080992795E+04  0.00000000000E+00 0. -1.
         15    1    4    4    0    0  0.12450184040E+03 -0.49607935274E+02  0.78018045523E+02  0.15507569420E+03  0.00000000000E+00 0.  1.
        -16    1    1    2    0    0 -0.11539868965E+04 -0.13487728973E+04  0.58098452442E+03  0.18677304686E+04  0.00000000000E+00 0.  1.
         16    1    3    3    0    0  0.51724639657E+03 -0.50682071503E+03 -0.56538669162E+03  0.91873455525E+03  0.00000000000E+00 0. -1.
    9900018    1    3    3    0    0  0.33027883573E+02 -0.13691298593E+02 -0.17381687821E+02  0.99476601348E+02  0.91187600000E+02 0.  0.
<mgrwt>
<rscale>  0 0.29192017E+04</rscale>
<asrwt>0</asrwt>
<pdfrwt beam="1">  1        1 0.51868649E+00 0.37499696E+04</pdfrwt>
<pdfrwt beam="2">  1       -1 0.32700125E+00 0.37499696E+04</pdfrwt>
<totfact> 0.52769957E-03</totfact>
</mgrwt>
</event>
<event>
11    1  0.2308811E-015  0.3663065E+04  0.7818608E-02  0.8076197E-01
         -1   -1    0    0    0  501 -0.00000000000E+00  0.00000000000E+00  0.12300441263E+04  0.12300441263E+04  0.00000000000E+00 0.  1.
          1   -1    0    0  501    0  0.00000000000E+00 -0.00000000000E+00 -0.27271477642E+04  0.27271477642E+04  0.00000000000E+00 0. -1.
    9900016    2    1    2    0    0 -0.10195264762E+03  0.16917178062E+03 -0.95165159241E+02  0.79529996108E+03  0.76448164585E+03 0.  0.
         23    2    3    3    0    0 -0.25058991564E+02  0.36831258995E+03  0.11931496165E+03  0.39716031011E+03  0.84959607305E+02 0.  0.
        -15    1    4    4    0    0 -0.52499082929E+02  0.29059394833E+03  0.10556905338E+03  0.31360137364E+03  0.00000000000E+00 0.  1.
        -15    1    1    2    0    0  0.73306611416E+02 -0.47431353080E+02 -0.18957985386E+03  0.20872017996E+03  0.00000000000E+00 0.  1.
         15    1    1    2    0    0  0.22076298134E+03  0.99150659584E+03 -0.14772888632E+04  0.17928201273E+04  0.00000000000E+00 0. -1.
         15    1    4    4    0    0  0.27440091365E+02  0.77718641623E+02  0.13745908270E+02  0.83558936470E+02  0.00000000000E+00 0. -1.
        -16    1    1    2    0    0 -0.19211694514E+03 -0.11132470234E+04  0.26493023839E+03  0.11603516221E+04  0.00000000000E+00 0.  1.
         16    1    3    3    0    0 -0.10246833861E+03 -0.21577565470E+03 -0.16165464018E+03  0.28842870223E+03  0.00000000000E+00 0. -1.
    9900018    1    3    3    0    0  0.25574682556E+02  0.16634845368E+02 -0.52825480710E+02  0.10971094874E+03  0.91187600000E+02 0.  0.
<mgrwt>
<rscale>  0 0.36630654E+04</rscale>
<asrwt>0</asrwt>
<pdfrwt beam="1">  1        1 0.41956120E+00 0.36630654E+04</pdfrwt>
<pdfrwt beam="2">  1       -1 0.18923756E+00 0.36630654E+04</pdfrwt>
<totfact> 0.13514072E-01</totfact>
</mgrwt>
</event>
<event>
11    1  0.2308811E-015  0.4423409E+04  0.7818608E-02  0.7924184E-01
         -2   -1    0    0    0  501 -0.00000000000E+00  0.00000000000E+00  0.17441230612E+04  0.17441230612E+04  0.00000000000E+00 0.  1.
          2   -1    0    0  501    0  0.00000000000E+00 -0.00000000000E+00 -0.28046399353E+04  0.28046399353E+04  0.00000000000E+00 0. -1.
    9900016    2    1    2    0    0  0.75082596319E+03  0.71763959438E+03 -0.81429772351E+03  0.15279757337E+04  0.76998886082E+03 0.  0.
         23    2    3    3    0    0  0.28157909641E+03  0.28141368555E+03 -0.71705382852E+03  0.82522711789E+03  0.91395586098E+02 0.  0.
        -15    1    4    4    0    0  0.14358867918E+03  0.20537539196E+03 -0.42457992520E+03  0.49301609841E+03  0.00000000000E+00 0.  1.
        -15    1    1    2    0    0 -0.53171097285E+03  0.76119716510E+02  0.18997779947E+03  0.56973882980E+03  0.00000000000E+00 0.  1.
         15    1    1    2    0    0 -0.65686686482E+03 -0.12045173421E+04 -0.94351243281E+03  0.16650981402E+04  0.00000000000E+00 0. -1.
         15    1    4    4    0    0  0.13799041723E+03  0.76038293592E+02 -0.29247390333E+03  0.33221101949E+03  0.00000000000E+00 0. -1.
        -16    1    1    2    0    0  0.43775187448E+03  0.41075803122E+03  0.50731548274E+03  0.78595029286E+03  0.00000000000E+00 0.  1.
         16    1    3    3    0    0  0.29584454965E+03  0.36356995956E+03  0.79744073676E+01  0.46879708215E+03  0.00000000000E+00 0. -1.
    9900018    1    3    3    0    0  0.17340231713E+03  0.72655949266E+02 -0.10521830235E+03  0.23395153364E+03  0.91187600000E+02 0.  0.
<mgrwt>
<rscale>  0 0.44234092E+04</rscale>
<asrwt>0</asrwt>
<pdfrwt beam="1">  1        2 0.43148306E+00 0.44234092E+04</pdfrwt>
<pdfrwt beam="2">  1       -2 0.26832663E+00 0.44234092E+04</pdfrwt>
<totfact> 0.86897764E-02</totfact>
</mgrwt>
</event>
<event>
11    1  0.2640291E-015  0.2404721E+04  0.7818608E-02  0.8663249E-01
          1   -1    0    0  501    0  0.00000000000E+00  0.00000000000E+00  0.15949360755E+04  0.15949360755E+04  0.00000000000E+00 0. -1.
         -1   -1    0    0    0  501 -0.00000000000E+00 -0.00000000000E+00 -0.20797604011E+04  0.20797604011E+04  0.00000000000E+00 0.  1.
    9900016    2    1    2    0    0  0.50444378245E+03 -0.10759790710E+03  0.19988453583E+03  0.85612115291E+03  0.65341316296E+03 0.  0.
         23    2    3    3    0    0  0.38436688172E+03 -0.35720820792E+03  0.22461615187E+03  0.57802869131E+03  0.91264170059E+02 0.  0.
        -15    1    1    2    0    0  0.14808601604E+03  0.59595056175E+03  0.51986590984E+03  0.80457883667E+03  0.00000000000E+00 0.  1.
        -15    1    4    4    0    0  0.32479026185E+03 -0.25739379996E+03  0.19539519694E+03  0.45816979978E+03  0.00000000000E+00 0.  1.
         15    1    1    2    0    0  0.17085235730E+03  0.18444832377E+03  0.28117092142E+02  0.25298672496E+03  0.00000000000E+00 0. -1.
         15    1    4    4    0    0  0.59576619870E+02 -0.99814407959E+02  0.29220954927E+02  0.11985889153E+03  0.00000000000E+00 0. -1.
        -16    1    1    2    0    0 -0.83546979240E+03 -0.61280648977E+03 -0.12753580862E+04  0.16431919595E+04  0.00000000000E+00 0.  1.
         16    1    3    3    0    0  0.12007690074E+03  0.24961030082E+03 -0.24731616042E+02  0.27809246160E+03  0.00000000000E+00 0. -1.
    9900018    1    1    2    0    0  0.12087636612E+02 -0.59994488656E+02  0.42666222726E+02  0.11781780249E+03  0.91187600000E+02 0.  0.
<mgrwt>
<rscale>  0 0.18832296E+04</rscale>
<asrwt>0</asrwt>
<pdfrwt beam="1">  1        1 0.24537478E+00 0.24047210E+04</pdfrwt>
<pdfrwt beam="2">  1       -1 0.31996314E+00 0.24047210E+04</pdfrwt>
<totfact> 0.11947369E-01</totfact>
</mgrwt>
</event>
<event>
11    1  0.2308811E-015  0.1457508E+04  0.7818608E-02  0.8913212E-01
         -2   -1    0    0    0  501 -0.00000000000E+00  0.00000000000E+00  0.57613611613E+03  0.57613611613E+03  0.00000000000E+00 0.  1.
          2   -1    0    0  501    0  0.00000000000E+00 -0.00000000000E+00 -0.92180001540E+03  0.92180001540E+03  0.00000000000E+00 0. -1.
    9900016    2    1    2    0    0  0.23436650961E+03  0.36457354908E+03 -0.12453439395E+03  0.88085847740E+03  0.75667781018E+03 0.  0.
         23    2    3    3    0    0  0.14891744060E+03  0.30294358200E+03  0.22843952564E+03  0.41777341885E+03  0.91644937827E+02 0.  0.
        -15    1    1    2    0    0  0.16980184536E+02 -0.21455742382E+02  0.48754341979E+02  0.55907614954E+02  0.00000000000E+00 0. -1.
        -15    1    4    4    0    0  0.12506229507E+03  0.18537190318E+03  0.18487331913E+03  0.29014042164E+03  0.00000000000E+00 0.  1.
         15    1    4    4    0    0  0.23855145527E+02  0.11757167882E+03  0.43566206510E+02  0.12763299721E+03  0.00000000000E+00 0. -1.
         15    1    1    2    0    0 -0.26109777590E+02  0.34336405798E+02  0.39251474154E+01  0.43314155090E+02  0.00000000000E+00 0.  1.
        -16    1    3    3    0    0  0.91767664346E+02  0.43737310862E+02 -0.35566224863E+03  0.36990524689E+03  0.00000000000E+00 0.  1.
         16    1    1    2    0    0 -0.22523691655E+03 -0.37745421250E+03 -0.27380899471E+03  0.51785588410E+03  0.00000000000E+00 0. -1.
    9900018    1    3    3    0    0 -0.63185953393E+01  0.17892656216E+02  0.26883290304E+01  0.93179811656E+02  0.91187600000E+02 0.  0.
<mgrwt>
<rscale>  0 0.14575078E+04</rscale>
<asrwt>0</asrwt>
<pdfrwt beam="1">  1        2 0.14181539E+00 0.14575078E+04</pdfrwt>
<pdfrwt beam="2">  1       -2 0.88636326E-01 0.14575078E+04</pdfrwt>
<totfact> 0.30084476E+01</totfact>
</mgrwt>
</event>
<event>
11    1  0.2308811E-015  0.2649198E+04  0.7818608E-02  0.8351679E-01
          1   -1    0    0  501    0  0.00000000000E+00  0.00000000000E+00  0.81518671967E+03  0.81518671967E+03  0.00000000000E+00 0.  1.
         -1   -1    0    0    0  501 -0.00000000000E+00 -0.00000000000E+00 -0.21523450029E+04  0.21523450029E+04  0.00000000000E+00 0. -1.
    9900016    2    1    2    0    0  0.60980684701E+03 -0.37926023828E+03 -0.93192341249E+03  0.13535455885E+04  0.66925458122E+03 0.  0.
         23    2    3    3    0    0  0.41822773359E+03 -0.73670326057E+02 -0.88975739442E+03  0.99041238400E+03  0.94375396080E+02 0.  0.
        -15    1    1    2    0    0 -0.43647432883E+03 -0.18105876067E+03  0.27867155366E+03  0.54858905327E+03  0.00000000000E+00 0.  1.
        -15    1    4    4    0    0  0.10380384327E+03 -0.26625570123E+02 -0.32634264141E+03  0.34348752301E+03  0.00000000000E+00 0. -1.
         15    1    4    4    0    0  0.31442389032E+03 -0.47044755934E+02 -0.56341475301E+03  0.64692486099E+03  0.00000000000E+00 0.  1.
         15    1    1    2    0    0 -0.16135167609E+03  0.20614926169E+03 -0.14472520501E+03  0.29912750866E+03  0.00000000000E+00 0. -1.
        -16    1    3    3    0    0  0.19157911342E+03 -0.30558991222E+03 -0.42166018075E+02  0.36313320453E+03  0.00000000000E+00 0.  1.
         16    1    1    2    0    0 -0.63049301673E+02  0.41590669856E+03 -0.38690568377E+03  0.57153268015E+03  0.00000000000E+00 0. -1.
    9900018    1    1    2    0    0  0.51068459589E+02 -0.61736961295E+02 -0.15227553565E+03  0.19473689200E+03  0.91187600000E+02 0.  0.
<mgrwt>
<rscale>  0 0.26491984E+04</rscale>
<asrwt>0</asrwt>
<pdfrwt beam="1">  1        1 0.12541334E+00 0.26491984E+04</pdfrwt>
<pdfrwt beam="2">  1       -1 0.33112999E+00 0.26491984E+04</pdfrwt>
<totfact> 0.38928329E-01</totfact>
</mgrwt>
</event>
<event>
11    1  0.2308811E-015  0.2291878E+04  0.7818608E-02  0.8481131E-01
          2   -1    0    0  501    0  0.00000000000E+00  0.00000000000E+00  0.26893935008E+04  0.26893935008E+04  0.00000000000E+00 0. -1.
         -2   -1    0    0    0  501 -0.00000000000E+00 -0.00000000000E+00 -0.48827949519E+03  0.48827949519E+03  0.00000000000E+00 0.  1.
    9900016    2    1    2    0    0 -0.62588156507E+03 -0.80416922623E+02  0.97051533197E+03  0.13881840709E+04  0.76613340240E+03 0.  0.
         23    2    3    3    0    0 -0.23227305559E+03 -0.31145900506E+03  0.17308071140E+03  0.43537603176E+03  0.92940153784E+02 0.  0.
        -15    1    4    4    0    0 -0.11416301966E+02 -0.66484712355E+02  0.12802180187E+02  0.68661814315E+02  0.00000000000E+00 0. -1.
        -15    1    1    2    0    0  0.12758473552E+03 -0.47395418425E+02 -0.11258093788E+03  0.17663141850E+03  0.00000000000E+00 0.  1.
         15    1    1    2    0    0 -0.11509752706E+03  0.22867218284E+03  0.26602574669E+03  0.36919927660E+03  0.00000000000E+00 0. -1.
         15    1    4    4    0    0 -0.22085675363E+03 -0.24497429271E+03  0.16027853121E+03  0.36671421744E+03  0.00000000000E+00 0.  1.
        -16    1    3    3    0    0 -0.29734154538E+03  0.18711177631E+03  0.69774013724E+03  0.78119402875E+03  0.00000000000E+00 0.  1.
         16    1    1    2    0    0  0.61339435662E+03 -0.10085984179E+03  0.10771538649E+04  0.12436582300E+04  0.00000000000E+00 0. -1.
    9900018    1    3    3    0    0 -0.96266964106E+02  0.43930306131E+02  0.99694483335E+02  0.17161401043E+03  0.91187600000E+02 0.  0.
<mgrwt>
<rscale>  0 0.22918776E+04</rscale>
<asrwt>0</asrwt>
<pdfrwt beam="1">  1        2 0.41375284E+00 0.22918776E+04</pdfrwt>
<pdfrwt beam="2">  1       -2 0.75119924E-01 0.22918776E+04</pdfrwt>
<totfact> 0.38902305E+00</totfact>
</mgrwt>
</event>
<event>
11    1  0.2308811E-015  0.1334034E+04  0.7818608E-02  0.9406479E-01
          1   -1    0    0  501    0  0.00000000000E+00  0.00000000000E+00  0.12754868282E+04  0.12754868282E+04  0.00000000000E+00 0.  1.
         -1   -1    0    0    0  501 -0.00000000000E+00 -0.00000000000E+00 -0.71345726393E+03  0.71345726393E+03  0.00000000000E+00 0. -1.
    9900016    2    1    2    0    0  0.25607497888E+02  0.11103225319E+03  0.12327428152E+03  0.67630397894E+03  0.65513862522E+03 0.  0.
         23    2    3    3    0    0  0.28650953124E+03  0.11889196833E+02  0.22849274273E+03  0.37802534879E+03  0.92006338668E+02 0.  0.
        -15    1    1    2    0    0 -0.10107651974E+03  0.12627597904E+03 -0.87856470961E+02  0.18406750179E+03  0.00000000000E+00 0. -1.
        -15    1    4    4    0    0  0.12896265723E+03  0.20127223232E+02  0.15879351489E+03  0.20555255398E+03  0.00000000000E+00 0.  1.
         15    1    1    2    0    0  0.25672234663E+02  0.10955858675E+03 -0.19547332655E+03  0.22554815219E+03  0.00000000000E+00 0.  1.
         15    1    4    4    0    0  0.15754687401E+03 -0.82380263993E+01  0.69699227836E+02  0.17247279481E+03  0.00000000000E+00 0. -1.
        -16    1    3    3    0    0 -0.26090203335E+03  0.99143056353E+02 -0.10521846121E+03  0.29827863016E+03  0.00000000000E+00 0.  1.
         16    1    1    2    0    0 -0.15444080600E+02 -0.39057822102E+03  0.66134276546E+03  0.76822140024E+03  0.00000000000E+00 0. -1.
    9900018    1    1    2    0    0  0.65240867786E+02  0.43711402040E+02  0.60742314754E+02  0.13480305892E+03  0.91187600000E+02 0.  0.
<mgrwt>
<rscale>  0 0.91544407E+03</rscale>
<asrwt>0</asrwt>
<pdfrwt beam="1">  1        1 0.19622874E+00 0.13340337E+04</pdfrwt>
<pdfrwt beam="2">  1       -1 0.10976266E+00 0.13340337E+04</pdfrwt>
<totfact> 0.70250820E+00</totfact>
</mgrwt>
</event>
<event>
11    1  0.2308811E-015  0.2595735E+04  0.7818608E-02  0.8369651E-01
          2   -1    0    0  501    0  0.00000000000E+00  0.00000000000E+00  0.31144757202E+04  0.31144757202E+04  0.00000000000E+00 0. -1.
         -2   -1    0    0    0  501 -0.00000000000E+00 -0.00000000000E+00 -0.54084870721E+03  0.54084870721E+03  0.00000000000E+00 0.  1.
    9900016    2    1    2    0    0 -0.38328036391E+03  0.29363764595E+01  0.59187894676E+03  0.10351684807E+04  0.75785264806E+03 0.  0.
         23    2    3    3    0    0 -0.26426631041E+03  0.29062423613E+03  0.14469358791E+03  0.42813433530E+03  0.89797801953E+02 0.  0.
        -15    1    4    4    0    0 -0.10816976687E+02  0.30409956980E+02  0.37339840443E+02  0.49356216959E+02  0.00000000000E+00 0.  1.
        -15    1    1    2    0    0  0.15724771997E+03 -0.11127349073E+03  0.21386623317E+03  0.28783224431E+03  0.00000000000E+00 0.  1.
         15    1    1    2    0    0  0.32870779273E+03  0.75727269563E+03  0.12392785119E+04  0.14890674862E+04  0.00000000000E+00 0. -1.
         15    1    4    4    0    0 -0.25344933373E+03  0.26021427915E+03  0.10735374747E+03  0.37877811834E+03  0.00000000000E+00 0. -1.
        -16    1    1    2    0    0 -0.10267514879E+03 -0.64893558136E+03  0.52860332121E+03  0.84325621618E+03  0.00000000000E+00 0.  1.
         16    1    3    3    0    0 -0.11861157434E+03 -0.28143124833E+03  0.40261744755E+03  0.50534449851E+03  0.00000000000E+00 0. -1.
    9900018    1    3    3    0    0 -0.40247915544E+00 -0.62566113413E+01  0.44567911302E+02  0.10168964690E+03  0.91187600000E+02 0.  0.
<mgrwt>
<rscale>  0 0.25957351E+04</rscale>
<asrwt>0</asrwt>
<pdfrwt beam="1">  1        2 0.47915010E+00 0.25957351E+04</pdfrwt>
<pdfrwt beam="2">  1       -2 0.83207495E-01 0.25957351E+04</pdfrwt>
<totfact> 0.16486366E+00</totfact>
</mgrwt>
</event>
