<event>
12    1  0.5043736E-014  0.2800774E+04  0.7818608E-02  0.8957282E-01
          1   -1    0    0  501    0  0.00000000000E+00  0.00000000000E+00  0.13420411417E+04  0.13420411417E+04  0.00000000000E+00 0. -1.
         -1   -1    0    0    0  501 -0.00000000000E+00 -0.00000000000E+00 -0.16621305785E+04  0.16621305785E+04  0.00000000000E+00 0.  1.
         23    2    1    2    0    0  0.54172197670E+02 -0.12398330414E+03 -0.88440764276E+02  0.19383432891E+03  0.10697425659E+03 0.  0.
    9900016    2    1    2    0    0  0.13338292686E+03  0.27575620338E+03 -0.60012114317E+03  0.23699013581E+04  0.22721035565E+04 0.  0.
        -24    2    4    4    0    0 -0.67352591616E+03  0.30563454144E+03 -0.63957969612E+03  0.98283259120E+03  0.99237502891E+02 0.  0.
        -15    1    3    3    0    0 -0.11918187990E+02  0.14657661678E+02 -0.93726403921E+01  0.21088779925E+02  0.00000000000E+00 0. -1.
        -15    1    4    4    0    0  0.90649013093E+03 -0.39342176062E+03 -0.48641536557E+02  0.98937911757E+03  0.00000000000E+00 0.  1.
         15    1    3    3    0    0  0.66090385660E+02 -0.13864096582E+03 -0.79068123884E+02  0.17274554898E+03  0.00000000000E+00 0.  1.
         15    1    5    5    0    0 -0.27434506418E+03  0.10589681013E+03 -0.31499530269E+03  0.43093084056E+03  0.00000000000E+00 0. -1.
        -16    1    5    5    0    0 -0.39918085198E+03  0.19973773130E+03 -0.32458439343E+03  0.55190175063E+03  0.00000000000E+00 0.  1.
         16    1    1    2    0    0 -0.18755512453E+03 -0.15177289925E+03  0.36847247063E+03  0.44043603315E+03  0.00000000000E+00 0. -1.
    9900018    1    4    4    0    0 -0.99581287913E+02  0.36354342257E+03  0.88100089507E+02  0.39768964930E+03  0.91187600000E+02 0.  0.
<mgrwt>
<rscale>  0 0.13952254E+04</rscale>
<asrwt>0</asrwt>
<pdfrwt beam="1">  1        1 0.20646787E+00 0.28007740E+04</pdfrwt>
<pdfrwt beam="2">  1       -1 0.25571239E+00 0.28007740E+04</pdfrwt>
<totfact> 0.46468982E-01</totfact>
</mgrwt>
</event>
<event>
12    1  0.5043737E-014  0.3215227E+04  0.7818608E-02  0.8996473E-01
          2   -1    0    0  501    0  0.00000000000E+00  0.00000000000E+00  0.31122387832E+04  0.31122387832E+04  0.00000000000E+00 0. -1.
         -2   -1    0    0    0  501 -0.00000000000E+00 -0.00000000000E+00 -0.88277138962E+03  0.88277138962E+03  0.00000000000E+00 0.  1.
         23    2    1    2    0    0  0.64143370701E+02 -0.82872664004E+00  0.43046403784E+02  0.10680737585E+03  0.73754754864E+02 0.  0.
    9900016    2    1    2    0    0 -0.14683889267E+03 -0.69936616662E+03  0.83375470935E+03  0.23628118621E+04  0.20921420327E+04 0.  0.
        -24    2    4    4    0    0  0.15057201481E+03 -0.13627611340E+04  0.64467055507E+03  0.15165048850E+04  0.66310645233E+02 0.  0.
        -15    1    3    3    0    0  0.23103019173E+02 -0.13479984426E+02  0.55907681231E+02  0.61976836767E+02  0.00000000000E+00 0. -1.
        -15    1    4    4    0    0 -0.34551531956E+03  0.57804736097E+03  0.89236950423E+02  0.67932526884E+03  0.00000000000E+00 0.  1.
         15    1    3    3    0    0  0.41040351528E+02  0.12651257786E+02 -0.12861277447E+02  0.44830539086E+02  0.00000000000E+00 0.  1.
         15    1    5    5    0    0  0.49300424147E+02 -0.27878187379E+03  0.15487702224E+03  0.32270227300E+03  0.00000000000E+00 0. -1.
        -16    1    5    5    0    0  0.10127159066E+03 -0.10839792602E+04  0.48979353283E+03  0.11938026120E+04  0.00000000000E+00 0.  1.
         16    1    1    2    0    0  0.82695521971E+02  0.70019489326E+03  0.13526662804E+04  0.15253909349E+04  0.00000000000E+00 0. -1.
    9900018    1    4    4    0    0  0.48104412078E+02  0.85347606426E+02  0.99847203855E+02  0.16698170827E+03  0.91187600000E+02 0.  0.
<mgrwt>
<rscale>  0 0.13425688E+04</rscale>
<asrwt>0</asrwt>
<pdfrwt beam="1">  1        2 0.47880596E+00 0.32152269E+04</pdfrwt>
<pdfrwt beam="2">  1       -2 0.13581098E+00 0.32152269E+04</pdfrwt>
<totfact> 0.48092727E-01</totfact>
</mgrwt>
</event>
<event>
12    1  0.5043736E-014  0.3498020E+04  0.7818608E-02  0.8832266E-01
         -1   -1    0    0    0  501 -0.00000000000E+00  0.00000000000E+00  0.17586077486E+04  0.17586077486E+04  0.00000000000E+00 0.  1.
          1   -1    0    0  501    0  0.00000000000E+00 -0.00000000000E+00 -0.19419047397E+04  0.19419047397E+04  0.00000000000E+00 0. -1.
         23    2    1    2    0    0 -0.77122050417E+02 -0.81314923275E+01 -0.13993000404E+03  0.20222349731E+03  0.12369318901E+03 0.  0.
    9900016    2    1    2    0    0 -0.21923316039E+03  0.15461603332E+03 -0.27827161462E+03  0.21005120215E+04  0.20646419458E+04 0.  0.
         24    2    4    4    0    0  0.36425058850E+03  0.95670637511E+03 -0.40035162101E+03  0.11011593662E+04  0.65612117179E+02 0.  0.
        -15    1    3    3    0    0 -0.96095272693E+02  0.46240871511E+01 -0.14922045285E+03  0.17754556363E+03  0.00000000000E+00 0.  1.
        -15    1    5    5    0    0  0.32694650803E+03  0.89241627673E+03 -0.38392870538E+03  0.10250375997E+04  0.00000000000E+00 0.  1.
         15    1    3    3    0    0  0.18973222276E+02 -0.12755579479E+02  0.92904488164E+01  0.24677933678E+02  0.00000000000E+00 0. -1.
         15    1    4    4    0    0 -0.58348374889E+03 -0.80209034179E+03  0.12208000639E+03  0.99935265526E+03  0.00000000000E+00 0. -1.
        -16    1    1    2    0    0 -0.44307652962E+03 -0.17287559711E+03  0.41457409945E+03  0.63093142822E+03  0.00000000000E+00 0.  1.
         16    1    5    5    0    0  0.37304080471E+02  0.64290098387E+02 -0.16422915632E+02  0.76121766455E+02  0.00000000000E+00 0. -1.
    9900018    1    1    2    0    0  0.73943174042E+03  0.26391056117E+02 -0.17966947193E+03  0.76684554124E+03  0.91187600000E+02 0.  0.
<mgrwt>
<rscale>  0 0.15810649E+04</rscale>
<asrwt>0</asrwt>
<pdfrwt beam="1">  1        1 0.29875457E+00 0.34980202E+04</pdfrwt>
<pdfrwt beam="2">  1       -1 0.27055504E+00 0.34980202E+04</pdfrwt>
<totfact> 0.13550331E-01</totfact>
</mgrwt>
</event>
<event>
12    1  0.5043736E-014  0.2719970E+04  0.7818608E-02  0.9103279E-01
         -3   -1    0    0    0  501 -0.00000000000E+00  0.00000000000E+00  0.11820819203E+04  0.11820819203E+04  0.00000000000E+00 0.  1.
          3   -1    0    0  501    0  0.00000000000E+00 -0.00000000000E+00 -0.17409784120E+04  0.17409784120E+04  0.00000000000E+00 0. -1.
         23    2    1    2    0    0  0.68883650204E+02  0.35212024602E+02 -0.13191892032E+03  0.16978087701E+03  0.73743479167E+02 0.  0.
    9900016    2    1    2    0    0 -0.49043861579E+03 -0.91695340159E+02  0.30278005038E+02  0.21287943746E+04  0.20692778113E+04 0.  0.
        -24    2    4    4    0    0  0.57088671809E+02  0.86895654290E+03 -0.21954331751E+03  0.90408605724E+03  0.10405643054E+03 0.  0.
        -15    1    4    4    0    0 -0.47587598406E+03 -0.95962586157E+03  0.27533413136E+03  0.11059605012E+04  0.00000000000E+00 0.  1.
        -15    1    3    3    0    0 -0.74718519569E+01  0.77986452459E+01 -0.61235581014E+02  0.62180735131E+02  0.00000000000E+00 0. -1.
         15    1    3    3    0    0  0.76355502161E+02  0.27413379356E+02 -0.70683339303E+02  0.10760014188E+03  0.00000000000E+00 0.  1.
         15    1    5    5    0    0  0.32672889501E+02  0.13642460461E+03 -0.66913221779E+02  0.15542383891E+03  0.00000000000E+00 0. -1.
        -16    1    5    5    0    0  0.24415782308E+02  0.73253193829E+03 -0.15263009573E+03  0.74866221833E+03  0.00000000000E+00 0.  1.
         16    1    1    2    0    0  0.42155496559E+03  0.56483315557E+02 -0.45725557642E+03  0.62448508078E+03  0.00000000000E+00 0. -1.
    9900018    1    4    4    0    0 -0.71651303544E+02 -0.10260214828E+01 -0.25512808819E+02  0.11874781609E+03  0.91187600000E+02 0.  0.
<mgrwt>
<rscale>  0 0.12110034E+04</rscale>
<asrwt>0</asrwt>
<pdfrwt beam="1">  1        3 0.26784283E+00 0.27199702E+04</pdfrwt>
<pdfrwt beam="2">  1       -3 0.18185876E+00 0.27199702E+04</pdfrwt>
<totfact> 0.25380372E-02</totfact>
</mgrwt>
</event>
