<event>
10    1  0.1005809E-013  0.4680351E+04  0.7818608E-02  0.7879802E-01
          2   -1    0    0  501    0  0.00000000000E+00  0.00000000000E+00  0.28653408378E+04  0.28653408378E+04  0.00000000000E+00 0. -1.
         -2   -1    0    0    0  501 -0.00000000000E+00 -0.00000000000E+00 -0.19112638604E+04  0.19112638604E+04  0.00000000000E+00 0.  1.
    9900016    2    1    2    0    0 -0.88134365885E+03 -0.10029902320E+04  0.81672748871E+03  0.23087766795E+04  0.16972477469E+04 0.  0.
        -15    1    1    2    0    0 -0.12808003439E+03  0.41616952724E+02 -0.81255399425E+02  0.15728606390E+03  0.00000000000E+00 0.  1.
        -15    1    3    3    0    0 -0.10560562706E+04 -0.93002384766E+03  0.99921123525E+03  0.17258685630E+04  0.00000000000E+00 0.  1.
         15    1    3    3    0    0  0.27725992046E+03 -0.43882358054E+02 -0.30900434157E+03  0.41747144567E+03  0.00000000000E+00 0. -1.
         15    1    1    2    0    0  0.98493646245E+03  0.82111479586E+03  0.85175423985E+03  0.15394202247E+04  0.00000000000E+00 0. -1.
        -16    1    1    2    0    0 -0.36774796925E+02  0.26262713274E+03 -0.46892500332E+03  0.53871704565E+03  0.00000000000E+00 0.  1.
         16    1    3    3    0    0 -0.10254730867E+03 -0.29084026325E+02  0.12652059504E+03  0.16543667088E+03  0.00000000000E+00 0. -1.
    9900018    1    1    2    0    0  0.61262027719E+02 -0.12236864929E+03 -0.16422434836E+03  0.23240468446E+03  0.91187600000E+02 0.  0.
<mgrwt>
<rscale>  0 0.46803514E+04</rscale>
<asrwt>0</asrwt>
<pdfrwt beam="1">  1        2 0.44082167E+00 0.46803514E+04</pdfrwt>
<pdfrwt beam="2">  1       -2 0.29404059E+00 0.46803514E+04</pdfrwt>
<totfact> 0.54449763E-02</totfact>
</mgrwt>
</event>
<event>
10    1  0.1005809E-013  0.7969846E+04  0.7818608E-02  0.7484924E-01
          2   -1    0    0  501    0  0.00000000000E+00  0.00000000000E+00  0.46869432018E+04  0.46869432018E+04  0.00000000000E+00 0.  1.
         -2   -1    0    0    0  501 -0.00000000000E+00 -0.00000000000E+00 -0.33880530454E+04  0.33880530454E+04  0.00000000000E+00 0. -1.
        -24    2    1    2    0    0 -0.89327800947E+03 -0.36606641928E+03 -0.97516969484E+03  0.13762366095E+04  0.10545637049E+03 0.  0.
        -15    1    1    2    0    0 -0.66999564949E+03  0.10983433169E+03  0.21152467272E+04  0.22215369607E+04  0.00000000000E+00 0.  1.
        -15    1    1    2    0    0  0.10464400602E+03 -0.46504965915E+02  0.37762862565E+03  0.39460924819E+03  0.00000000000E+00 0.  1.
         15    1    3    3    0    0 -0.49533751046E+03 -0.20938666281E+03 -0.46877488550E+03  0.71340866066E+03  0.00000000000E+00 0. -1.
         15    1    1    2    0    0  0.16816707911E+04  0.40398926674E+03  0.12318575084E+04  0.21233692327E+04  0.00000000000E+00 0. -1.
        -16    1    3    3    0    0 -0.39794049901E+03 -0.15667975647E+03 -0.50639480934E+03  0.66282794884E+03  0.00000000000E+00 0.  1.
         16    1    1    2    0    0 -0.36557757080E+03 -0.55801246959E+03 -0.12794708480E+04  0.14429381579E+04  0.00000000000E+00 0. -1.
    9900018    1    1    2    0    0  0.14253643263E+03  0.45676025636E+03 -0.17120216200E+03  0.51630603820E+03  0.91187600000E+02 0.  0.
<mgrwt>
<rscale>  0 0.79698462E+04</rscale>
<asrwt>0</asrwt>
<pdfrwt beam="1">  1        2 0.72106819E+00 0.79698462E+04</pdfrwt>
<pdfrwt beam="2">  1       -2 0.52123893E+00 0.79698462E+04</pdfrwt>
<totfact> 0.56767772E-05</totfact>
</mgrwt>
</event>
<event>
10    1  0.1005809E-013  0.2730385E+04  0.7818608E-02  0.8610965E-01
         -2   -1    0    0    0  501 -0.00000000000E+00  0.00000000000E+00  0.12721645772E+04  0.12721645772E+04  0.00000000000E+00 0. -1.
          2   -1    0    0  501    0  0.00000000000E+00 -0.00000000000E+00 -0.26582755998E+04  0.26582755998E+04  0.00000000000E+00 0.  1.
    9900016    2    1    2    0    0  0.22759307176E+03 -0.45470884353E+02 -0.11134580386E+04  0.23251671353E+04  0.20279909259E+04 0.  0.
        -15    1    1    2    0    0  0.29875595881E+03  0.31967527480E+03 -0.81487628826E+02  0.44507037409E+03  0.00000000000E+00 0.  1.
        -15    1    3    3    0    0  0.41445445575E+02 -0.73671025493E+03 -0.68885824889E+03  0.10094480728E+04  0.00000000000E+00 0.  1.
         15    1    3    3    0    0 -0.12553043680E+03  0.56314724242E+03 -0.42969420873E+03  0.71939545469E+03  0.00000000000E+00 0. -1.
         15    1    1    2    0    0  0.15487121723E+03 -0.18157243512E+03  0.24818999296E+03  0.34431368798E+03  0.00000000000E+00 0. -1.
        -16    1    1    2    0    0 -0.68122024781E+03 -0.92631955320E+02 -0.43935534808E+03  0.81588897962E+03  0.00000000000E+00 0.  1.
         16    1    3    3    0    0 -0.32102784461E+02 -0.12126965821E+03 -0.86523401478E+02  0.15239165914E+03  0.00000000000E+00 0. -1.
    9900018    1    3    3    0    0  0.34378084745E+03  0.24936178637E+03  0.91617820470E+02  0.44393194861E+03  0.91187600000E+02 0.  0.
<mgrwt>
<rscale>  0 0.19907346E+04</rscale>
<asrwt>0</asrwt>
<pdfrwt beam="1">  1        2 0.40896547E+00 0.27303853E+04</pdfrwt>
<pdfrwt beam="2">  1       -2 0.19571763E+00 0.27303853E+04</pdfrwt>
<totfact> 0.33930580E-01</totfact>
</mgrwt>
</event>
