<event>
11    1  0.8220807E-008  0.4265428E+04  0.7818608E-02  0.8172265E-01
          1   -1    0    0  501    0  0.00000000000E+00  0.00000000000E+00  0.37264121086E+04  0.37264121086E+04  0.00000000000E+00 0. -1.
         -1   -1    0    0    0  501 -0.00000000000E+00 -0.00000000000E+00 -0.33031712070E+04  0.33031712070E+04  0.00000000000E+00 0.  1.
        -24    2    1    2    0    0  0.10858464269E+04 -0.97506109122E+03  0.20042827490E+04  0.24805648695E+04  0.79032521964E+02 0.  0.
    9900016    2    1    2    0    0 -0.10928192028E+03  0.10853293719E+04 -0.22796069916E+04  0.33326215589E+04  0.21725275682E+04 0.  0.
        -15    1    1    2    0    0 -0.61622497912E+03 -0.42925726752E+02  0.41805966227E+03  0.74588854672E+03  0.00000000000E+00 0.  1.
        -15    1    4    4    0    0  0.65340028572E+02  0.42868257174E+03 -0.13220670590E+04  0.13913660105E+04  0.00000000000E+00 0.  1.
         15    1    3    3    0    0  0.71314824191E+03 -0.68474180081E+03  0.13277505752E+04  0.16554073030E+04  0.00000000000E+00 0. -1.
         15    1    4    4    0    0  0.24469979875E+03  0.49570930365E+03 -0.12760411711E+04  0.13906425765E+04  0.00000000000E+00 0. -1.
        -16    1    3    3    0    0  0.37269818497E+03 -0.29031929041E+03  0.67653217381E+03  0.82515756657E+03  0.00000000000E+00 0.  1.
         16    1    4    4    0    0 -0.41932174760E+03  0.16093749652E+03  0.31850123853E+03  0.55061297182E+03  0.00000000000E+00 0. -1.
    9900018    1    1    2    0    0 -0.36033952748E+03 -0.67342553937E+02  0.28050548191E+03  0.47050834042E+03  0.91187600000E+02 0.  0.
<mgrwt>
<rscale>  0 0.32634236E+04</rscale>
<asrwt>0</asrwt>
<pdfrwt beam="1">  1        1 0.57329417E+00 0.42654279E+04</pdfrwt>
<pdfrwt beam="2">  1       -1 0.50818018E+00 0.42654279E+04</pdfrwt>
<totfact> 0.15413466E-04</totfact>
</mgrwt>
</event>
<event>
12    1  0.8220806E-008  0.4012745E+04  0.7818608E-02  0.8383578E-01
          2   -1    0    0  501    0  0.00000000000E+00  0.00000000000E+00  0.24422529498E+04  0.24422529498E+04  0.00000000000E+00 0. -1.
         -2   -1    0    0    0  501 -0.00000000000E+00 -0.00000000000E+00 -0.22945152186E+04  0.22945152186E+04  0.00000000000E+00 0.  1.
        -24    2    1    2    0    0  0.28013121331E+03 -0.59200499755E+03  0.29189068295E+03  0.72143466917E+03  0.79526079306E+02 0.  0.
    9900016    2    1    2    0    0  0.39946594915E+03 -0.76825262333E+03  0.17606360424E+03  0.23624922732E+04  0.21910240096E+04 0.  0.
         23    2    4    4    0    0  0.42719561837E+03 -0.66805911794E+03 -0.94338843522E+03  0.12382233811E+04  0.12006798278E+03 0.  0.
        -15    1    1    2    0    0 -0.67562443575E+03  0.11084132261E+04 -0.92722958505E+02  0.13014014772E+04  0.00000000000E+00 0.  1.
        -15    1    5    5    0    0  0.39966090634E+03 -0.65658589093E+03 -0.92686527828E+03  0.12041233808E+04  0.00000000000E+00 0. -1.
         15    1    5    5    0    0  0.27534712036E+02 -0.11473227001E+02 -0.16523156940E+02  0.34100000293E+02  0.00000000000E+00 0.  1.
         15    1    3    3    0    0  0.24360946780E+03 -0.54234123736E+03  0.24113007148E+03  0.64157875737E+03  0.00000000000E+00 0. -1.
        -16    1    3    3    0    0  0.36521745501E+02 -0.49663760192E+02  0.50760611479E+02  0.79855911795E+02  0.00000000000E+00 0.  1.
         16    1    4    4    0    0 -0.27729669228E+02 -0.10019350540E+03  0.11194520395E+04  0.11242688921E+04  0.00000000000E+00 0. -1.
    9900018    1    1    2    0    0 -0.39727266992E+01  0.25184439481E+03 -0.22749359746E+03  0.35143974879E+03  0.91187600000E+02 0.  0.
<mgrwt>
<rscale>  0 0.25552053E+04</rscale>
<asrwt>0</asrwt>
<pdfrwt beam="1">  1        2 0.37573122E+00 0.40127451E+04</pdfrwt>
<pdfrwt beam="2">  1       -2 0.35300234E+00 0.40127451E+04</pdfrwt>
<totfact> 0.43005615E-02</totfact>
</mgrwt>
</event>
<event>
11    1  0.8220806E-008  0.5342153E+04  0.7818608E-02  0.8123570E-01
          1   -1    0    0  501    0  0.00000000000E+00  0.00000000000E+00  0.39959471953E+04  0.39959471953E+04  0.00000000000E+00 0. -1.
         -1   -1    0    0    0  501 -0.00000000000E+00 -0.00000000000E+00 -0.29788967842E+04  0.29788967842E+04  0.00000000000E+00 0.  1.
        -24    2    1    2    0    0  0.76485999841E+03 -0.53937084916E+03  0.13248091395E+04  0.16238336029E+04  0.76056449388E+02 0.  0.
    9900016    2    1    2    0    0 -0.14850972138E+04  0.12608412716E+04 -0.13521860741E+04  0.32539648699E+04  0.22281485024E+04 0.  0.
        -15    1    4    4    0    0 -0.98936184874E+03 -0.44704647720E+03 -0.26026870936E+03  0.11164350503E+04  0.00000000000E+00 0. -1.
        -15    1    1    2    0    0  0.44536843246E+03  0.42692873910E+03  0.22428970659E+03  0.65645034952E+03  0.00000000000E+00 0.  1.
         15    1    4    4    0    0 -0.10303748204E+03  0.21581402677E+02 -0.78568778036E+02  0.13136031565E+03  0.00000000000E+00 0.  1.
         15    1    3    3    0    0  0.52256625565E+03 -0.36071956107E+03  0.95769872410E+03  0.11490783000E+04  0.00000000000E+00 0. -1.
        -16    1    3    3    0    0  0.24229374276E+03 -0.17865128809E+03  0.36711041543E+03  0.47475530290E+03  0.00000000000E+00 0.  1.
         16    1    4    4    0    0 -0.39269788300E+03  0.16863063461E+04 -0.10133485867E+04  0.20061695039E+04  0.00000000000E+00 0. -1.
    9900018    1    1    2    0    0  0.27486878290E+03 -0.11483991615E+04  0.82013763906E+03  0.14405951573E+04  0.91187600000E+02 0.  0.
<mgrwt>
<rscale>  0 0.34590221E+04</rscale>
<asrwt>0</asrwt>
<pdfrwt beam="1">  1        1 0.61476111E+00 0.53421528E+04</pdfrwt>
<pdfrwt beam="2">  1       -1 0.45829181E+00 0.53421528E+04</pdfrwt>
<totfact> 0.18369265E-04</totfact>
</mgrwt>
</event>
<event>
12    1  0.8220806E-008  0.5996401E+04  0.7818608E-02  0.8078909E-01
          2   -1    0    0  501    0  0.00000000000E+00  0.00000000000E+00  0.23888141021E+04  0.23888141021E+04  0.00000000000E+00 0. -1.
         -2   -1    0    0    0  501 -0.00000000000E+00 -0.00000000000E+00 -0.49201030968E+04  0.49201030968E+04  0.00000000000E+00 0.  1.
        -24    2    1    2    0    0  0.58635750788E+03 -0.57349161417E+03 -0.56178532581E+03  0.99735890730E+03  0.80089194573E+02 0.  0.
    9900016    2    1    2    0    0  0.27318703897E+03 -0.41383320892E+03  0.53239869401E+03  0.23185858564E+04  0.22014774405E+04 0.  0.
         23    2    4    4    0    0  0.98596076406E+03  0.66345301191E+02  0.93893383821E+03  0.13678552909E+04  0.11362665617E+03 0.  0.
        -15    1    1    2    0    0 -0.74607253015E+02  0.12901163507E+04 -0.28095875367E+04  0.30925310939E+04  0.00000000000E+00 0.  1.
        -15    1    5    5    0    0  0.96110288204E+03  0.54807399411E+02  0.88637429304E+03  0.13085801421E+04  0.00000000000E+00 0.  1.
         15    1    5    5    0    0  0.24857882020E+02  0.11537901780E+02  0.52559545172E+02  0.59275148795E+02  0.00000000000E+00 0. -1.
         15    1    3    3    0    0  0.17681118878E+03 -0.20121053478E+03 -0.22217477514E+03  0.34800791154E+03  0.00000000000E+00 0. -1.
        -16    1    3    3    0    0  0.40954631910E+03 -0.37228107939E+03 -0.33961055067E+03  0.64935099575E+03  0.00000000000E+00 0.  1.
         16    1    4    4    0    0 -0.71277372509E+03 -0.48017851011E+03 -0.40653514420E+03  0.95073056553E+03  0.00000000000E+00 0. -1.
    9900018    1    1    2    0    0 -0.78493729384E+03 -0.30279152757E+03  0.30768517382E+03  0.90044134124E+03  0.91187600000E+02 0.  0.
<mgrwt>
<rscale>  0 0.36509970E+04</rscale>
<asrwt>0</asrwt>
<pdfrwt beam="1">  1        2 0.36750986E+00 0.59964009E+04</pdfrwt>
<pdfrwt beam="2">  1       -2 0.75693893E+00 0.59964009E+04</pdfrwt>
<totfact> 0.35582808E-04</totfact>
</mgrwt>
</event>
<event>
12    1  0.8220806E-008  0.3982842E+04  0.7818608E-02  0.8360788E-01
         -1   -1    0    0    0  501 -0.00000000000E+00  0.00000000000E+00  0.23956687357E+04  0.23956687357E+04  0.00000000000E+00 0.  1.
          1   -1    0    0  501    0  0.00000000000E+00 -0.00000000000E+00 -0.24981883954E+04  0.24981883954E+04  0.00000000000E+00 0. -1.
         24    2    1    2    0    0 -0.64511304107E+03  0.37028226564E+03  0.44989779352E+03  0.87288763704E+03  0.79025377443E+02 0.  0.
    9900016    2    1    2    0    0  0.13183712377E+03  0.39402153573E+03 -0.14346629493E+03  0.22177524954E+04  0.21737547137E+04 0.  0.
         23    2    4    4    0    0  0.23714810696E+03  0.35119254453E+03 -0.11365635868E+04  0.12181691038E+04  0.11217731782E+03 0.  0.
        -15    1    3    3    0    0 -0.44302365628E+03  0.21648540385E+03  0.31782180320E+03  0.58664008446E+03  0.00000000000E+00 0.  1.
        -15    1    5    5    0    0  0.15457212391E+03  0.21480678903E+03 -0.55051589665E+03  0.61082096441E+03  0.00000000000E+00 0. -1.
         15    1    1    2    0    0  0.72566744334E+03 -0.11181632522E+04 -0.29071933314E+03  0.13643313482E+04  0.00000000000E+00 0. -1.
         15    1    5    5    0    0  0.82575983052E+02  0.13638575550E+03 -0.58604769015E+03  0.60734813938E+03  0.00000000000E+00 0.  1.
        -16    1    4    4    0    0 -0.10531098319E+03  0.42828991195E+02  0.99309729186E+03  0.99958339161E+03  0.00000000000E+00 0.  1.
         16    1    3    3    0    0 -0.20208938480E+03  0.15379686179E+03  0.13207599032E+03  0.28624755259E+03  0.00000000000E+00 0. -1.
    9900018    1    1    2    0    0 -0.21239152603E+03  0.35385945085E+03 -0.11823182514E+03  0.43888565043E+03  0.91187600000E+02 0.  0.
<mgrwt>
<rscale>  0 0.26219369E+04</rscale>
<asrwt>0</asrwt>
<pdfrwt beam="1">  1        1 0.38433667E+00 0.39828420E+04</pdfrwt>
<pdfrwt beam="2">  1       -1 0.36856442E+00 0.39828420E+04</pdfrwt>
<totfact> 0.12071850E-02</totfact>
</mgrwt>
</event>
<event>
11    1  0.8220806E-008  0.3605660E+04  0.7818608E-02  0.8347021E-01
         -1   -1    0    0    0  501 -0.00000000000E+00  0.00000000000E+00  0.24629371485E+04  0.24629371485E+04  0.00000000000E+00 0.  1.
          1   -1    0    0  501    0  0.00000000000E+00 -0.00000000000E+00 -0.29452360415E+04  0.29452360415E+04  0.00000000000E+00 0. -1.
         24    2    1    2    0    0 -0.21494078998E+03  0.10482936999E+04  0.10398514939E+04  0.14943861490E+04  0.82338377906E+02 0.  0.
    9900016    2    1    2    0    0  0.36048895768E+03 -0.12598944273E+04 -0.10176634220E+04  0.27651577948E+04  0.22120516570E+04 0.  0.
        -15    1    4    4    0    0  0.97485203963E+02 -0.26252626398E+03  0.27044063607E+03  0.38930905706E+03  0.00000000000E+00 0. -1.
        -15    1    3    3    0    0 -0.15466890209E+03  0.61020871344E+03  0.57102070595E+03  0.84990693012E+03  0.00000000000E+00 0.  1.
         15    1    4    4    0    0  0.23225974930E+03 -0.19951757067E+03  0.40276873451E+03  0.50593923119E+03  0.00000000000E+00 0.  1.
         15    1    1    2    0    0  0.40031877448E+03  0.15161076180E+03 -0.51922916811E+02  0.43120405099E+03  0.00000000000E+00 0. -1.
        -16    1    4    4    0    0  0.30744004419E+02 -0.79785059268E+03 -0.16908727926E+04  0.18699095066E+04  0.00000000000E+00 0.  1.
         16    1    3    3    0    0 -0.60271887888E+02  0.43808498650E+03  0.46883078798E+03  0.64447921893E+03  0.00000000000E+00 0. -1.
    9900018    1    1    2    0    0 -0.54586694219E+03  0.59989965582E+02 -0.45256404813E+03  0.71742519512E+03  0.91187600000E+02 0.  0.
<mgrwt>
<rscale>  0 0.26632713E+04</rscale>
<asrwt>0</asrwt>
<pdfrwt beam="1">  1        1 0.45311324E+00 0.36056604E+04</pdfrwt>
<pdfrwt beam="2">  1       -1 0.37891341E+00 0.36056604E+04</pdfrwt>
<totfact> 0.50029359E-03</totfact>
</mgrwt>
</event>
