<event>
12    1  0.3334897E-011  0.8227403E+03  0.7818608E-02  0.9527672E-01
          2   -1    0    0  501    0  0.00000000000E+00  0.00000000000E+00  0.52022857782E+03  0.52022857782E+03  0.00000000000E+00 0. -1.
         -2   -1    0    0    0  501 -0.00000000000E+00 -0.00000000000E+00 -0.32529048472E+03  0.32529048472E+03  0.00000000000E+00 0.  1.
    9900016    2    1    2    0    0 -0.12820711790E+03 -0.25411985310E+02  0.47049436935E+02  0.64815166732E+03  0.63309090995E+03 0.  0.
         23    2    3    3    0    0  0.79425039924E+02 -0.22634570629E+03  0.10562439189E+03  0.27512944841E+03  0.83659939639E+02 0.  0.
         23    2    3    3    0    0 -0.10013135613E+03  0.62306322333E+02 -0.20387000257E+02  0.15044355807E+03  0.91155186920E+02 0.  0.
        -15    1    5    5    0    0  0.12638768317E+02  0.27679964991E+02  0.14913670914E+01  0.30465441114E+02  0.00000000000E+00 0.  1.
        -15    1    4    4    0    0  0.70485523743E+02 -0.82556214260E+02  0.59886086096E+02  0.12397613028E+03  0.00000000000E+00 0.  1.
         15    1    4    4    0    0  0.89395161818E+01 -0.14378949203E+03  0.45738305792E+02  0.15115331814E+03  0.00000000000E+00 0. -1.
         15    1    5    5    0    0 -0.11277012445E+03  0.34626357342E+02 -0.21878367348E+02  0.11997811696E+03  0.00000000000E+00 0. -1.
        -16    1    1    2    0    0  0.12820711790E+03  0.25411985310E+02  0.14788865616E+03  0.19736739522E+03  0.00000000000E+00 0.  1.
         16    1    3    3    0    0 -0.50751737982E+02  0.64913784772E+02 -0.41522764046E+02  0.92269595727E+02  0.00000000000E+00 0. -1.
    9900018    1    3    3    0    0 -0.56749063709E+02  0.73713613874E+02  0.33348093493E+01  0.13030906511E+03  0.91187600000E+02 0.  0.
<mgrwt>
<rscale>  0 0.82274031E+03</rscale>
<asrwt>0</asrwt>
<pdfrwt beam="1">  1        2 0.80035166E-01 0.82274031E+03</pdfrwt>
<pdfrwt beam="2">  1       -2 0.50044690E-01 0.82274031E+03</pdfrwt>
<totfact> 0.22347721E+02</totfact>
</mgrwt>
</event>
<event>
11    1  0.3334897E-011  0.2175334E+04  0.7818608E-02  0.9109411E-01
          2   -1    0    0  501    0  0.00000000000E+00  0.00000000000E+00  0.34677639887E+04  0.34677639887E+04  0.00000000000E+00 0. -1.
         -2   -1    0    0    0  501 -0.00000000000E+00 -0.00000000000E+00 -0.41668772492E+03  0.41668772492E+03  0.00000000000E+00 0.  1.
         23    2    1    2    0    0 -0.12173041866E+02 -0.27644641735E+03  0.17990048534E+02  0.29154094371E+03  0.90009307291E+02 0.  0.
         23    2    1    2    0    0 -0.14101690446E+03 -0.11617180222E+03  0.12856859338E+03  0.24122133055E+03  0.90973579310E+02 0.  0.
        -15    1    3    3    0    0 -0.50415961880E+02 -0.15454602659E+03  0.19849972616E+02  0.16376893771E+03  0.00000000000E+00 0.  1.
        -15    1    4    4    0    0  0.70834113467E+01 -0.22528300624E+02  0.35988358203E+02  0.43044871605E+02  0.00000000000E+00 0. -1.
         15    1    4    4    0    0 -0.14810031581E+03 -0.93643501600E+02  0.92580235173E+02  0.19817645894E+03  0.00000000000E+00 0.  1.
         15    1    3    3    0    0  0.38242920014E+02 -0.12190039076E+03 -0.18599240826E+01  0.12777200599E+03  0.00000000000E+00 0. -1.
        -16    1    1    2    0    0 -0.21215397855E+03  0.42444786539E+03  0.66705132787E+02  0.47918146436E+03  0.00000000000E+00 0.  1.
         16    1    1    2    0    0  0.10315403718E+03 -0.83064484168E+02  0.14649721756E+04  0.14709466133E+04  0.00000000000E+00 0. -1.
    9900018    1    1    2    0    0  0.26218988769E+03  0.51234838347E+02  0.13728403134E+04  0.14015613616E+04  0.91187600000E+02 0.  0.
<mgrwt>
<rscale>  0 0.12039446E+04</rscale>
<asrwt>0</asrwt>
<pdfrwt beam="1">  1        2 0.53350213E+00 0.21753337E+04</pdfrwt>
<pdfrwt beam="2">  1       -2 0.64105806E-01 0.21753337E+04</pdfrwt>
<totfact> 0.17611890E+00</totfact>
</mgrwt>
</event>
<event>
12    1  0.3334897E-011  0.1769942E+04  0.7818608E-02  0.8722449E-01
          2   -1    0    0  501    0  0.00000000000E+00  0.00000000000E+00  0.13965418791E+04  0.13965418791E+04  0.00000000000E+00 0. -1.
         -2   -1    0    0    0  501 -0.00000000000E+00 -0.00000000000E+00 -0.56079505420E+03  0.56079505420E+03  0.00000000000E+00 0.  1.
    9900016    2    1    2    0    0 -0.29182010393E+03 -0.22554247249E+03  0.20973362558E+03  0.92997662008E+03  0.82755056658E+03 0.  0.
         23    2    3    3    0    0 -0.25359255652E+03 -0.17625447637E+03  0.81578829612E+02  0.33244897475E+03  0.92154165452E+02 0.  0.
         23    2    3    3    0    0 -0.19092625445E+03  0.14091341315E+03  0.21981382574E+03  0.33696124503E+03  0.94421067671E+02 0.  0.
        -15    1    5    5    0    0 -0.10010148688E+03  0.12304520197E+03  0.16727760906E+03  0.23052598096E+03  0.00000000000E+00 0. -1.
        -15    1    4    4    0    0 -0.99285632939E+02 -0.64370881082E+02  0.78173544758E+02  0.14181801839E+03  0.00000000000E+00 0. -1.
         15    1    5    5    0    0 -0.90824767571E+02  0.17868211181E+02  0.52536216685E+02  0.10643526407E+03  0.00000000000E+00 0.  1.
         15    1    4    4    0    0 -0.15430692358E+03 -0.11188359528E+03  0.34052848540E+01  0.19063095636E+03  0.00000000000E+00 0.  1.
        -16    1    3    3    0    0  0.15269870705E+03 -0.19020140928E+03 -0.91659029771E+02  0.26056640030E+03  0.00000000000E+00 0.  1.
         16    1    1    2    0    0  0.37179067888E+03  0.40313994810E+03  0.59649680923E+03  0.81028301850E+03  0.00000000000E+00 0. -1.
    9900018    1    1    2    0    0 -0.79970574959E+02 -0.17759747560E+03  0.29516390090E+02  0.21707729471E+03  0.91187600000E+02 0.  0.
<mgrwt>
<rscale>  0 0.17699421E+04</rscale>
<asrwt>0</asrwt>
<pdfrwt beam="1">  1        2 0.21485260E+00 0.17699421E+04</pdfrwt>
<pdfrwt beam="2">  1       -2 0.86276163E-01 0.17699421E+04</pdfrwt>
<totfact> 0.16021973E+01</totfact>
</mgrwt>
</event>
<event>
12    1  0.3334897E-011  0.2448679E+04  0.7818608E-02  0.8421501E-01
         -1   -1    0    0    0  501 -0.00000000000E+00  0.00000000000E+00  0.69194976965E+03  0.69194976965E+03  0.00000000000E+00 0.  1.
          1   -1    0    0  501    0  0.00000000000E+00 -0.00000000000E+00 -0.21663522085E+04  0.21663522085E+04  0.00000000000E+00 0. -1.
    9900016    2    1    2    0    0 -0.74774898698E+03  0.48084368630E+02 -0.17494976163E+04  0.20601052539E+04  0.78857535698E+03 0.  0.
         23    2    3    3    0    0 -0.21016727065E+03 -0.29622626773E+02 -0.47172970270E+03  0.52530938742E+03  0.91505510361E+02 0.  0.
         23    2    3    3    0    0 -0.28146158187E+03  0.26705252129E+03 -0.59196478922E+03  0.71377204344E+03  0.92252626648E+02 0.  0.
        -15    1    4    4    0    0 -0.14981030992E+03  0.12727955867E+02 -0.37239201477E+03  0.40159798615E+03  0.00000000000E+00 0. -1.
        -15    1    5    5    0    0 -0.18835752697E+03  0.11862522421E+03 -0.30601454109E+03  0.37841168209E+03  0.00000000000E+00 0.  1.
         15    1    5    5    0    0 -0.93104054899E+02  0.14842729708E+03 -0.28595024813E+03  0.33536036135E+03  0.00000000000E+00 0. -1.
         15    1    4    4    0    0 -0.60356960725E+02 -0.42350582641E+02 -0.99337687934E+02  0.12371140126E+03  0.00000000000E+00 0.  1.
        -16    1    1    2    0    0  0.74774898698E+03 -0.48084368630E+02  0.27509517741E+03  0.79819672429E+03  0.00000000000E+00 0.  1.
         16    1    3    3    0    0 -0.26998708032E+02 -0.33505555550E+02 -0.43263626206E+03  0.43477084508E+03  0.00000000000E+00 0. -1.
    9900018    1    3    3    0    0 -0.22912142643E+03 -0.15583997033E+03 -0.25316686229E+03  0.38625297793E+03  0.91187600000E+02 0.  0.
<mgrwt>
<rscale>  0 0.24486788E+04</rscale>
<asrwt>0</asrwt>
<pdfrwt beam="1">  1        1 0.33328495E+00 0.24486788E+04</pdfrwt>
<pdfrwt beam="2">  1       -1 0.10645381E+00 0.24486788E+04</pdfrwt>
<totfact> 0.16892313E+00</totfact>
</mgrwt>
</event>
<event>
12    1  0.3334897E-011  0.1810899E+04  0.7818608E-02  0.8700525E-01
         -1   -1    0    0    0  501 -0.00000000000E+00  0.00000000000E+00  0.74459377563E+03  0.74459377563E+03  0.00000000000E+00 0.  1.
          1   -1    0    0  501    0  0.00000000000E+00 -0.00000000000E+00 -0.11010555007E+04  0.11010555007E+04  0.00000000000E+00 0. -1.
    9900016    2    1    2    0    0 -0.40657033045E+03  0.69392404450E+02 -0.19517275403E+03  0.76125063524E+03  0.60934012369E+03 0.  0.
         23    2    3    3    0    0 -0.42973748016E+03  0.18598637035E+03 -0.25955492605E+03  0.54321905796E+03  0.91939944952E+02 0.  0.
         23    2    3    3    0    0 -0.26911717066E+01 -0.81788861302E+02 -0.19619876028E+02  0.12349908462E+03  0.90390398430E+02 0.  0.
        -15    1    5    5    0    0 -0.42437717349E+02 -0.66927358037E+02 -0.16523363813E+02  0.80952162783E+02  0.00000000000E+00 0. -1.
        -15    1    4    4    0    0 -0.40513158497E+03  0.18920793323E+03 -0.22466913905E+03  0.50040729929E+03  0.00000000000E+00 0.  1.
         15    1    4    4    0    0 -0.24605895190E+02 -0.32215628840E+01 -0.34885787000E+02  0.42811758667E+02  0.00000000000E+00 0. -1.
         15    1    5    5    0    0  0.39746545643E+02 -0.14861503265E+02 -0.30965122153E+01  0.42546921836E+02  0.00000000000E+00 0.  1.
        -16    1    3    3    0    0  0.25858321422E+02 -0.34805104594E+02  0.84002048046E+02  0.94532492660E+02  0.00000000000E+00 0.  1.
         16    1    1    2    0    0  0.65672361076E+03  0.11911291157E+03 -0.29767005910E+03  0.73080862797E+03  0.00000000000E+00 0. -1.
    9900018    1    1    2    0    0 -0.25015328031E+03 -0.18850531602E+03  0.13638108805E+03  0.35359001314E+03  0.91187600000E+02 0.  0.
<mgrwt>
<rscale>  0 0.18108993E+04</rscale>
<asrwt>0</asrwt>
<pdfrwt beam="1">  1        1 0.16939315E+00 0.18108993E+04</pdfrwt>
<pdfrwt beam="2">  1       -1 0.11455289E+00 0.18108993E+04</pdfrwt>
<totfact> 0.82675066E+00</totfact>
</mgrwt>
</event>
<event>
12    1  0.3334897E-011  0.1713388E+04  0.7818608E-02  0.8753765E-01
          1   -1    0    0  501    0  0.00000000000E+00  0.00000000000E+00  0.10584205673E+04  0.10584205673E+04  0.00000000000E+00 0. -1.
         -1   -1    0    0    0  501 -0.00000000000E+00 -0.00000000000E+00 -0.69341510331E+03  0.69341510331E+03  0.00000000000E+00 0.  1.
    9900016    2    1    2    0    0 -0.26376149852E+03  0.90917499502E+02  0.13949360509E+03  0.88836452560E+03  0.83180342910E+03 0.  0.
         23    2    3    3    0    0  0.12955928815E+03 -0.11706624010E+02 -0.20029348346E+03  0.25502191051E+03  0.89420585624E+02 0.  0.
         23    2    3    3    0    0 -0.16997534179E+03  0.73941090543E+02 -0.21152193485E+02  0.20792156547E+03  0.91788127850E+02 0.  0.
        -15    1    5    5    0    0 -0.92243365311E+02 -0.17142102844E+01  0.15237588110E+02  0.93509149564E+02  0.00000000000E+00 0.  1.
        -15    1    4    4    0    0  0.39863734812E+02 -0.44137401552E+02 -0.53695515428E+02  0.80127622865E+02  0.00000000000E+00 0. -1.
         15    1    5    5    0    0 -0.77731976475E+02  0.75655300827E+02 -0.36389781595E+02  0.11441241591E+03  0.00000000000E+00 0. -1.
         15    1    4    4    0    0  0.89695553340E+02  0.32430777542E+02 -0.14659796803E+03  0.17489428765E+03  0.00000000000E+00 0.  1.
        -16    1    3    3    0    0 -0.22334544488E+03  0.28683032969E+02  0.36093928204E+03  0.42542104961E+03  0.00000000000E+00 0.  1.
         16    1    1    2    0    0  0.75766018492E+01 -0.41228450909E+03  0.10285959603E+03  0.42498943261E+03  0.00000000000E+00 0. -1.
    9900018    1    1    2    0    0  0.25618489667E+03  0.32136700959E+03  0.12265226288E+03  0.43848171241E+03  0.91187600000E+02 0.  0.
<mgrwt>
<rscale>  0 0.17133882E+04</rscale>
<asrwt>0</asrwt>
<pdfrwt beam="1">  1        1 0.16283393E+00 0.17133882E+04</pdfrwt>
<pdfrwt beam="2">  1       -1 0.10667925E+00 0.17133882E+04</pdfrwt>
<totfact> 0.10634283E+01</totfact>
</mgrwt>
</event>
<event>
12    1  0.3334898E-011  0.1243472E+04  0.7818608E-02  0.9075634E-01
         -1   -1    0    0    0  501 -0.00000000000E+00  0.00000000000E+00  0.36586633627E+03  0.36586633627E+03  0.00000000000E+00 0.  1.
          1   -1    0    0  501    0  0.00000000000E+00 -0.00000000000E+00 -0.10565484124E+04  0.10565484124E+04  0.00000000000E+00 0. -1.
    9900016    2    1    2    0    0  0.12097935791E+03 -0.50604768684E+02 -0.38330624184E+03  0.70933852595E+03  0.58227194824E+03 0.  0.
         23    2    3    3    0    0 -0.10602333808E+03  0.13828342611E+03 -0.31866150216E+03  0.37291774980E+03  0.84612298188E+02 0.  0.
         23    2    3    3    0    0  0.77019202031E+02 -0.83458506468E+02 -0.14256256485E+02  0.14629064473E+03  0.91106707228E+02 0.  0.
        -15    1    5    5    0    0 -0.13130763599E+02  0.57535155351E+01 -0.13153615222E+02  0.19456039862E+02  0.00000000000E+00 0.  1.
        -15    1    4    4    0    0  0.30773362794E+01  0.45446567143E+02 -0.11699511638E+03  0.12554966236E+03  0.00000000000E+00 0.  1.
         15    1    4    4    0    0 -0.10910067435E+03  0.92836858962E+02 -0.20166638578E+03  0.24736808743E+03  0.00000000000E+00 0. -1.
         15    1    5    5    0    0  0.90149965631E+02 -0.89212022003E+02 -0.11026412634E+01  0.12683460486E+03  0.00000000000E+00 0. -1.
        -16    1    1    2    0    0  0.24040425274E+03  0.67180075548E+02 -0.37036707169E+02  0.25234715169E+03  0.00000000000E+00 0.  1.
         16    1    3    3    0    0  0.14998349395E+03 -0.10542968832E+03 -0.50388483196E+02  0.19013013143E+03  0.00000000000E+00 0. -1.
    9900018    1    1    2    0    0 -0.36138361065E+03 -0.16575306864E+02 -0.27033912709E+03  0.46072907101E+03  0.91187600000E+02 0.  0.
<mgrwt>
<rscale>  0 0.12434717E+04</rscale>
<asrwt>0</asrwt>
<pdfrwt beam="1">  1        1 0.16254591E+00 0.12434717E+04</pdfrwt>
<pdfrwt beam="2">  1       -1 0.56287130E-01 0.12434717E+04</pdfrwt>
<totfact> 0.43103776E+01</totfact>
</mgrwt>
</event>
