<event>
12    1  0.2328095E-012  0.1827953E+04  0.7818608E-02  0.8691574E-01
         -2   -1    0    0    0  501 -0.00000000000E+00  0.00000000000E+00  0.31582449789E+03  0.31582449789E+03  0.00000000000E+00 0.  1.
          2   -1    0    0  501    0  0.00000000000E+00 -0.00000000000E+00 -0.26449911273E+04  0.26449911273E+04  0.00000000000E+00 0. -1.
         23    2    1    2    0    0  0.20523703893E+02  0.15099587701E+03  0.72872175499E+02  0.18304635684E+03  0.70531110120E+02 0.  0.
    9900016    2    1    2    0    0 -0.42921638018E+02 -0.42571998521E+02 -0.11562873222E+04  0.13951981287E+04  0.77841043465E+03 0.  0.
         23    2    4    4    0    0  0.15698724407E+03 -0.22850018831E+03 -0.10705135768E+03  0.31102611185E+03  0.91760112322E+02 0.  0.
        -15    1    5    5    0    0  0.13584653305E+03 -0.23220448948E+03 -0.10711514780E+03  0.28956322343E+03  0.00000000000E+00 0. -1.
        -15    1    3    3    0    0  0.36630836561E+02  0.14660396931E+03  0.63605174015E+02  0.16395170072E+03  0.00000000000E+00 0. -1.
         15    1    5    5    0    0  0.21140711028E+02  0.37043011783E+01  0.63790118659E-01  0.21462888416E+02  0.00000000000E+00 0.  1.
         15    1    3    3    0    0 -0.16107132667E+02  0.43919076936E+01  0.92670014835E+01  0.19094656123E+02  0.00000000000E+00 0.  1.
        -16    1    1    2    0    0  0.15501803995E+02 -0.10629071587E+02  0.63637168350E+02  0.66354896469E+02  0.00000000000E+00 0.  1.
         16    1    4    4    0    0 -0.19990888209E+03  0.18592818979E+03 -0.10492359645E+04  0.10841720168E+04  0.00000000000E+00 0. -1.
    9900018    1    1    2    0    0  0.68961301294E+01 -0.97794806900E+02 -0.13093886511E+04  0.13162162432E+04  0.91187600000E+02 0.  0.
<mgrwt>
<rscale>  0 0.18279529E+04</rscale>
<asrwt>0</asrwt>
<pdfrwt beam="1">  1        2 0.40692172E+00 0.18279529E+04</pdfrwt>
<pdfrwt beam="2">  1       -2 0.48588384E-01 0.18279529E+04</pdfrwt>
<totfact> 0.10836354E+01</totfact>
</mgrwt>
</event>
<event>
11    1  0.2328095E-012  0.2105338E+04  0.7818608E-02  0.8558896E-01
          1   -1    0    0  501    0  0.00000000000E+00  0.00000000000E+00  0.17296448518E+04  0.17296448518E+04  0.00000000000E+00 0. -1.
         -1   -1    0    0    0  501 -0.00000000000E+00 -0.00000000000E+00 -0.64065843927E+03  0.64065843927E+03  0.00000000000E+00 0.  1.
    9900016    2    1    2    0    0 -0.32636078948E+02  0.78299621323E+02  0.28192212997E+03  0.61365448308E+03  0.53841971815E+03 0.  0.
         23    2    3    3    0    0 -0.88724200382E+02  0.29342420467E+03  0.13682399571E+03  0.34817768129E+03  0.92396668358E+02 0.  0.
        -15    1    1    2    0    0  0.29370396178E+03  0.34809073804E+02 -0.32986350733E+03  0.44303907531E+03  0.00000000000E+00 0.  1.
        -15    1    4    4    0    0 -0.83597987275E+02  0.15292541024E+03  0.44148606796E+02  0.17978849812E+03  0.00000000000E+00 0.  1.
         15    1    1    2    0    0  0.48181892113E+02  0.11016213614E+02  0.45871980072E+02  0.67432115833E+02  0.00000000000E+00 0. -1.
         15    1    4    4    0    0 -0.51262131064E+01  0.14049879443E+03  0.92675388919E+02  0.16838918317E+03  0.00000000000E+00 0. -1.
        -16    1    1    2    0    0 -0.68939646326E+02  0.37371203168E+02 -0.30596853118E+02  0.84175109637E+02  0.00000000000E+00 0.  1.
         16    1    3    3    0    0  0.56088121434E+02 -0.21512458335E+03  0.14509813426E+03  0.26547680180E+03  0.00000000000E+00 0. -1.
    9900018    1    1    2    0    0 -0.24031012862E+03 -0.16149611191E+03  0.11216526629E+04  0.11620025072E+04  0.91187600000E+02 0.  0.
<mgrwt>
<rscale>  0 0.21053376E+04</rscale>
<asrwt>0</asrwt>
<pdfrwt beam="1">  1        1 0.26609921E+00 0.21053376E+04</pdfrwt>
<pdfrwt beam="2">  1       -1 0.98562837E-01 0.21053376E+04</pdfrwt>
<totfact> 0.41192571E+00</totfact>
</mgrwt>
</event>
<event>
12    1  0.2328095E-012  0.1736759E+04  0.7818608E-02  0.9356409E-01
         -1   -1    0    0    0  501 -0.00000000000E+00  0.00000000000E+00  0.59506402794E+03  0.59506402794E+03  0.00000000000E+00 0.  1.
          1   -1    0    0  501    0  0.00000000000E+00 -0.00000000000E+00 -0.16601508720E+04  0.16601508720E+04  0.00000000000E+00 0. -1.
         23    2    1    2    0    0  0.10678717069E+03 -0.92775947565E+02 -0.33460118894E+03  0.37108644471E+03  0.75738481212E+02 0.  0.
    9900016    2    1    2    0    0  0.66309479445E+02  0.20417075673E+03  0.24802549065E+01  0.62857850810E+03  0.59078096128E+03 0.  0.
         23    2    4    4    0    0 -0.17572508067E+03  0.71409403969E+02 -0.19706907752E+03  0.28795225962E+03  0.90009308146E+02 0.  0.
        -15    1    5    5    0    0 -0.74000839089E+02 -0.10030970491E+02 -0.43025024022E+02  0.86185249591E+02  0.00000000000E+00 0.  1.
        -15    1    3    3    0    0 -0.10975948671E+02 -0.79492162158E+00 -0.21283415122E+02  0.23960114960E+02  0.00000000000E+00 0. -1.
         15    1    5    5    0    0 -0.10172424158E+03  0.81440374461E+02 -0.15404405350E+03  0.20176701003E+03  0.00000000000E+00 0. -1.
         15    1    3    3    0    0  0.11776311936E+03 -0.91981025943E+02 -0.31331777382E+03  0.34712632975E+03  0.00000000000E+00 0.  1.
        -16    1    4    4    0    0  0.24203456012E+03  0.13276135276E+03  0.19954933243E+03  0.34062624848E+03  0.00000000000E+00 0.  1.
         16    1    1    2    0    0  0.29147707304E+03 -0.31973595572E+03 -0.56516700448E+03  0.71176099110E+03  0.00000000000E+00 0. -1.
    9900018    1    1    2    0    0 -0.46457372318E+03  0.20834114656E+03 -0.16779890555E+03  0.54378895604E+03  0.91187600000E+02 0.  0.
<mgrwt>
<rscale>  0 0.95751558E+03</rscale>
<asrwt>0</asrwt>
<pdfrwt beam="1">  1        1 0.25540783E+00 0.17367587E+04</pdfrwt>
<pdfrwt beam="2">  1       -1 0.91548311E-01 0.17367587E+04</pdfrwt>
<totfact> 0.55673177E+00</totfact>
</mgrwt>
</event>
