<event>
11    1  0.6259894E-010  0.4502861E+04  0.7818608E-02  0.7910136E-01
          1   -1    0    0  501    0  0.00000000000E+00  0.00000000000E+00  0.19867322843E+04  0.19867322843E+04  0.00000000000E+00 0. -1.
         -1   -1    0    0    0  501 -0.00000000000E+00 -0.00000000000E+00 -0.25513951622E+04  0.25513951622E+04  0.00000000000E+00 0.  1.
    9900016    2    1    2    0    0  0.74733404679E+03  0.42020462431E+03 -0.26046801978E+03  0.23715220862E+04  0.21957215926E+04 0.  0.
         23    2    3    3    0    0 -0.30566202163E+03 -0.19957190474E+03 -0.34485051807E+03  0.51026026933E+03  0.90473454758E+02 0.  0.
        -15    1    4    4    0    0 -0.10038909552E+03 -0.75254087661E+02 -0.64003678514E+02  0.14084608291E+03  0.00000000000E+00 0. -1.
        -15    1    3    3    0    0  0.28925102389E+03 -0.14347825414E+03  0.21277668656E+02  0.32358137062E+03  0.00000000000E+00 0.  1.
         15    1    3    3    0    0 -0.63574968429E+02  0.50590909619E+03  0.35736669217E+03  0.62265298754E+03  0.00000000000E+00 0. -1.
         15    1    4    4    0    0 -0.20527292611E+03 -0.12431781708E+03 -0.28084683955E+03  0.36941418641E+03  0.00000000000E+00 0.  1.
        -16    1    3    3    0    0  0.82732001296E+03  0.25734568699E+03 -0.29426186254E+03  0.91502745871E+03  0.00000000000E+00 0.  1.
         16    1    1    2    0    0 -0.11388285764E+04 -0.13845787138E+03  0.47826300670E+03  0.12429145635E+04  0.00000000000E+00 0. -1.
    9900018    1    1    2    0    0  0.39149452960E+03 -0.28174675293E+03 -0.78245786480E+03  0.92369079679E+03  0.91187600000E+02 0.  0.
<mgrwt>
<rscale>  0 0.45028609E+04</rscale>
<asrwt>0</asrwt>
<pdfrwt beam="1">  1        1 0.30565112E+00 0.45028609E+04</pdfrwt>
<pdfrwt beam="2">  1       -1 0.39252233E+00 0.45028609E+04</pdfrwt>
<totfact> 0.18386504E-02</totfact>
</mgrwt>
</event>
<event>
11    1  0.9051131E-010  0.5074637E+04  0.7818608E-02  0.7817096E-01
         -2   -1    0    0    0  501 -0.00000000000E+00  0.00000000000E+00  0.18464505405E+04  0.18464505405E+04  0.00000000000E+00 0.  1.
          2   -1    0    0  501    0  0.00000000000E+00 -0.00000000000E+00 -0.34866821064E+04  0.34866821064E+04  0.00000000000E+00 0. -1.
    9900016    2    1    2    0    0 -0.20144597583E+03  0.51538698726E+02 -0.11585013969E+04  0.24964374391E+04  0.22015534702E+04 0.  0.
         23    2    3    3    0    0 -0.20988808551E+03 -0.35395096135E+03  0.47868365125E+02  0.42448913792E+03  0.92549210435E+02 0.  0.
        -15    1    4    4    0    0 -0.80420660100E+02 -0.10007525058E+03  0.54395583806E+02  0.13943248505E+03  0.00000000000E+00 0.  1.
        -15    1    3    3    0    0  0.60660562723E+02 -0.26406762210E+03  0.20587687974E+03  0.34028914547E+03  0.00000000000E+00 0.  1.
         15    1    3    3    0    0 -0.37730385305E+03  0.49290524145E+03 -0.75482832276E+03  0.97728172571E+03  0.00000000000E+00 0. -1.
         15    1    4    4    0    0 -0.12946742541E+03 -0.25387571077E+03 -0.65272186808E+01  0.28505665287E+03  0.00000000000E+00 0. -1.
        -16    1    1    2    0    0  0.46290446745E+03 -0.66111803663E+03  0.95575987050E+03  0.12509334652E+04  0.00000000000E+00 0.  1.
         16    1    3    3    0    0  0.32508540000E+03  0.17665204073E+03 -0.65741831897E+03  0.75437743001E+03  0.00000000000E+00 0. -1.
    9900018    1    1    2    0    0 -0.26145849162E+03  0.60957933791E+03 -0.14374900395E+04  0.15857617425E+04  0.91187600000E+02 0.  0.
<mgrwt>
<rscale>  0 0.50746374E+04</rscale>
<asrwt>0</asrwt>
<pdfrwt beam="1">  1        2 0.53641262E+00 0.50746374E+04</pdfrwt>
<pdfrwt beam="2">  1       -2 0.28406932E+00 0.50746374E+04</pdfrwt>
<totfact> 0.23862384E-02</totfact>
</mgrwt>
</event>
<event>
11    1  0.6259894E-010  0.4865206E+04  0.7818608E-02  0.7849644E-01
         -1   -1    0    0    0  501 -0.00000000000E+00  0.00000000000E+00  0.27776326617E+04  0.27776326617E+04  0.00000000000E+00 0.  1.
          1   -1    0    0  501    0  0.00000000000E+00 -0.00000000000E+00 -0.21304317963E+04  0.21304317963E+04  0.00000000000E+00 0. -1.
    9900016    2    1    2    0    0 -0.59899622666E+03  0.75457872668E+03  0.43774286954E+03  0.24453265502E+04  0.22044993951E+04 0.  0.
         23    2    3    3    0    0 -0.32227332963E+03 -0.24489663188E+03 -0.15963455438E+03  0.44445301228E+03  0.90668792186E+02 0.  0.
        -15    1    3    3    0    0  0.18201995062E+03 -0.22773855572E+03  0.44239449366E+03  0.52981978088E+03  0.00000000000E+00 0.  1.
        -15    1    4    4    0    0 -0.24487088058E+03 -0.13282634221E+03 -0.10914812780E+03  0.29919541966E+03  0.00000000000E+00 0.  1.
         15    1    3    3    0    0 -0.52335931079E+03  0.66188228680E+03 -0.95819968473E+02  0.84921999277E+03  0.00000000000E+00 0. -1.
         15    1    4    4    0    0 -0.77402449041E+02 -0.11207028967E+03 -0.50486426577E+02  0.14525759262E+03  0.00000000000E+00 0. -1.
        -16    1    3    3    0    0  0.64616463130E+02  0.56533162748E+03  0.25080289873E+03  0.62183376424E+03  0.00000000000E+00 0.  1.
         16    1    1    2    0    0  0.56717273530E+03  0.14250877243E+03 -0.87473686904E+03  0.10522158771E+04  0.00000000000E+00 0. -1.
    9900018    1    1    2    0    0  0.31823491357E+02 -0.89708749911E+03  0.10841948650E+04  0.14105220308E+04  0.91187600000E+02 0.  0.
<mgrwt>
<rscale>  0 0.48652058E+04</rscale>
<asrwt>0</asrwt>
<pdfrwt beam="1">  1        1 0.32775874E+00 0.48652058E+04</pdfrwt>
<pdfrwt beam="2">  1       -1 0.42732810E+00 0.48652058E+04</pdfrwt>
<totfact> 0.82358347E-03</totfact>
</mgrwt>
</event>
<event>
11    1  0.6259894E-010  0.3800958E+04  0.7818608E-02  0.8045949E-01
         -2   -1    0    0    0  501 -0.00000000000E+00  0.00000000000E+00  0.18207804261E+04  0.18207804261E+04  0.00000000000E+00 0. -1.
          2   -1    0    0  501    0  0.00000000000E+00 -0.00000000000E+00 -0.19836663927E+04  0.19836663927E+04  0.00000000000E+00 0.  1.
    9900016    2    1    2    0    0 -0.36463646368E+03  0.54601771188E+03  0.30717818530E+03  0.23212910959E+04  0.22052072061E+04 0.  0.
         23    2    3    3    0    0  0.16261675547E+03  0.95771011022E+02  0.95590198589E+02  0.22975295342E+03  0.89624984388E+02 0.  0.
        -15    1    4    4    0    0  0.14347103069E+03  0.11094448716E+03  0.70079890743E+02  0.19443201117E+03  0.00000000000E+00 0. -1.
        -15    1    3    3    0    0  0.17147256770E+00  0.40437047221E+03  0.10287703274E+04  0.11053885718E+04  0.00000000000E+00 0.  1.
         15    1    3    3    0    0 -0.27770939416E+03  0.87751378088E+02 -0.35526171831E+03  0.45938404463E+03  0.00000000000E+00 0. -1.
         15    1    4    4    0    0  0.19145724777E+02 -0.15173476137E+02  0.25510307846E+02  0.35320942254E+02  0.00000000000E+00 0.  1.
        -16    1    3    3    0    0 -0.24971529756E+03 -0.41875149440E+02 -0.46192062239E+03  0.52676552598E+03  0.00000000000E+00 0.  1.
         16    1    1    2    0    0 -0.35454337378E+03 -0.45970718728E+03  0.56099851861E+02  0.58324857078E+03  0.00000000000E+00 0. -1.
    9900018    1    1    2    0    0  0.71917983747E+03 -0.86310524594E+02 -0.52616400377E+03  0.89990715217E+03  0.91187600000E+02 0.  0.
<mgrwt>
<rscale>  0 0.38009583E+04</rscale>
<asrwt>0</asrwt>
<pdfrwt beam="1">  1        2 0.30517944E+00 0.38009583E+04</pdfrwt>
<pdfrwt beam="2">  1       -2 0.28012007E+00 0.38009583E+04</pdfrwt>
<totfact> 0.22997666E-01</totfact>
</mgrwt>
</event>
<event>
11    1  0.6259894E-010  0.3741106E+04  0.7818608E-02  0.8058913E-01
          2   -1    0    0  501    0  0.00000000000E+00  0.00000000000E+00  0.26539837321E+04  0.26539837321E+04  0.00000000000E+00 0. -1.
         -2   -1    0    0    0  501 -0.00000000000E+00 -0.00000000000E+00 -0.13183833242E+04  0.13183833242E+04  0.00000000000E+00 0.  1.
    9900016    2    1    2    0    0  0.55446040822E+03  0.30825190890E+03  0.60390999060E+03  0.23745437603E+04  0.22071033527E+04 0.  0.
         23    2    3    3    0    0  0.22222381455E+03 -0.24690567370E+03 -0.92123648168E+02  0.35405877263E+03  0.80777549256E+02 0.  0.
        -15    1    3    3    0    0  0.90740186913E+02 -0.18894966305E+03 -0.29081930907E+03  0.35848518409E+03  0.00000000000E+00 0.  1.
        -15    1    4    4    0    0  0.95330943454E+02 -0.50182542420E+02 -0.31341201916E+02  0.11219869554E+03  0.00000000000E+00 0. -1.
         15    1    4    4    0    0  0.12689287110E+03 -0.19672313128E+03 -0.60782446252E+02  0.24186007709E+03  0.00000000000E+00 0.  1.
         15    1    3    3    0    0  0.41854168937E+03  0.84328893918E+03  0.36814828045E+03  0.10108642525E+04  0.00000000000E+00 0. -1.
        -16    1    3    3    0    0 -0.17704528262E+03 -0.99181693523E+02  0.61870466738E+03  0.65113555107E+03  0.00000000000E+00 0.  1.
         16    1    1    2    0    0  0.14538935240E+03  0.18047837182E+03  0.70153956555E+03  0.73882898463E+03  0.00000000000E+00 0. -1.
    9900018    1    1    2    0    0 -0.69984976062E+03 -0.48873028072E+03  0.30150851732E+02  0.85899431138E+03  0.91187600000E+02 0.  0.
<mgrwt>
<rscale>  0 0.37411057E+04</rscale>
<asrwt>0</asrwt>
<pdfrwt beam="1">  1        2 0.40830519E+00 0.37411057E+04</pdfrwt>
<pdfrwt beam="2">  1       -2 0.20282820E+00 0.37411057E+04</pdfrwt>
<totfact> 0.29033538E-01</totfact>
</mgrwt>
</event>
<event>
11    1  0.6259894E-010  0.2971423E+04  0.7818608E-02  0.8251939E-01
         -2   -1    0    0    0  501 -0.00000000000E+00  0.00000000000E+00  0.10168453135E+04  0.10168453135E+04  0.00000000000E+00 0.  1.
          2   -1    0    0  501    0  0.00000000000E+00 -0.00000000000E+00 -0.21707707899E+04  0.21707707899E+04  0.00000000000E+00 0. -1.
    9900016    2    1    2    0    0  0.14568694525E+03 -0.43885740938E+03 -0.69174205559E+03  0.23536396313E+04  0.22016566332E+04 0.  0.
         23    2    3    3    0    0  0.18355093783E+03  0.28002899497E+02 -0.93711608747E+02  0.22390838280E+03  0.82933642850E+02 0.  0.
        -15    1    3    3    0    0 -0.34387138917E+03 -0.96019112595E+03 -0.12450150764E+03  0.10274800027E+04  0.00000000000E+00 0.  1.
        -15    1    4    4    0    0  0.77744943630E+02 -0.17219716693E+02 -0.72093462437E+01  0.79954797081E+02  0.00000000000E+00 0.  1.
         15    1    4    4    0    0  0.10580599420E+03  0.45222616190E+02 -0.86502262503E+02  0.14395358572E+03  0.00000000000E+00 0. -1.
         15    1    3    3    0    0  0.32729800241E+03  0.70421160239E+03 -0.42328206553E+03  0.88442392003E+03  0.00000000000E+00 0. -1.
        -16    1    1    2    0    0 -0.31411959287E+03  0.36312532250E+03 -0.26296730960E+03  0.54743303187E+03  0.00000000000E+00 0.  1.
         16    1    3    3    0    0 -0.21290605826E+02 -0.21088078532E+03 -0.50246873665E+02  0.21782732571E+03  0.00000000000E+00 0. -1.
    9900018    1    1    2    0    0  0.16843264762E+03  0.75732086879E+02 -0.19921611118E+03  0.28654344019E+03  0.91187600000E+02 0.  0.
<mgrwt>
<rscale>  0 0.29714226E+04</rscale>
<asrwt>0</asrwt>
<pdfrwt beam="1">  1        2 0.33396473E+00 0.29714226E+04</pdfrwt>
<pdfrwt beam="2">  1       -2 0.15643774E+00 0.29714226E+04</pdfrwt>
<totfact> 0.12321635E+00</totfact>
</mgrwt>
</event>
<event>
11    1  0.6259894E-010  0.2592440E+04  0.7818608E-02  0.8370774E-01
          2   -1    0    0  501    0  0.00000000000E+00  0.00000000000E+00  0.10209983180E+04  0.10209983180E+04  0.00000000000E+00 0. -1.
         -2   -1    0    0    0  501 -0.00000000000E+00 -0.00000000000E+00 -0.16456309271E+04  0.16456309271E+04  0.00000000000E+00 0.  1.
    9900016    2    1    2    0    0  0.27330655263E+03 -0.13774896228E+03 -0.41699183779E+03  0.22542826008E+04  0.21941368697E+04 0.  0.
         23    2    3    3    0    0 -0.23385689953E+03 -0.25760009263E+03  0.23406913574E+03  0.42898864547E+03  0.90531985801E+02 0.  0.
        -15    1    3    3    0    0  0.11763647222E+03 -0.17733914941E+03 -0.96220295255E+02  0.23355054855E+03  0.00000000000E+00 0.  1.
        -15    1    4    4    0    0 -0.13402184424E+03 -0.12056541844E+03  0.70997626303E+02  0.19374864593E+03  0.00000000000E+00 0. -1.
         15    1    3    3    0    0  0.19946585210E+03  0.86485933554E+03 -0.39916806826E+03  0.97319239780E+03  0.00000000000E+00 0. -1.
         15    1    4    4    0    0 -0.99835055294E+02 -0.13703467419E+03  0.16307150943E+03  0.23523999954E+03  0.00000000000E+00 0.  1.
        -16    1    1    2    0    0 -0.12512102636E+03  0.98468841095E+02 -0.32780891899E+02  0.16256066799E+03  0.00000000000E+00 0.  1.
         16    1    3    3    0    0  0.19006112784E+03 -0.56766905578E+03 -0.15567261001E+03  0.61855100898E+03  0.00000000000E+00 0. -1.
    9900018    1    1    2    0    0 -0.14818552627E+03  0.39280121180E+02 -0.17485987943E+03  0.24978597628E+03  0.91187600000E+02 0.  0.
<mgrwt>
<rscale>  0 0.25924401E+04</rscale>
<asrwt>0</asrwt>
<pdfrwt beam="1">  1        2 0.15707666E+00 0.25924401E+04</pdfrwt>
<pdfrwt beam="2">  1       -2 0.25317399E+00 0.25924401E+04</pdfrwt>
<totfact> 0.13278396E+00</totfact>
</mgrwt>
</event>
<event>
12    1  0.6259894E-010  0.3244333E+04  0.7818608E-02  0.8177206E-01
         -1   -1    0    0    0  501 -0.00000000000E+00  0.00000000000E+00  0.97084000406E+03  0.97084000406E+03  0.00000000000E+00 0.  1.
          1   -1    0    0  501    0  0.00000000000E+00 -0.00000000000E+00 -0.27104607307E+04  0.27104607307E+04  0.00000000000E+00 0. -1.
    9900016    2    1    2    0    0 -0.53361266511E+02 -0.19719977843E+03 -0.15593315641E+04  0.27051358980E+04  0.22010247892E+04 0.  0.
        -24    2    3    3    0    0  0.54525645992E+03 -0.45713037752E+03 -0.18111164301E+04  0.19483394658E+04  0.98036531780E+02 0.  0.
         23    2    3    3    0    0 -0.91402201329E+02  0.11374492295E+03  0.36702846737E+01  0.17353089553E+03  0.93846847624E+02 0.  0.
        -15    1    5    5    0    0 -0.42262711148E+02  0.10803352446E+03  0.26581944450E+02  0.11901251586E+03  0.00000000000E+00 0.  1.
        -15    1    3    3    0    0 -0.50721552511E+03  0.14618567614E+03  0.24811458132E+03  0.58326553668E+03  0.00000000000E+00 0.  1.
         15    1    5    5    0    0 -0.49139490181E+02  0.57113984882E+01 -0.22911659776E+02  0.54518379668E+02  0.00000000000E+00 0. -1.
         15    1    4    4    0    0  0.39526584621E+03 -0.37111136138E+03 -0.14474357721E+04  0.15456484226E+04  0.00000000000E+00 0. -1.
        -16    1    4    4    0    0  0.14999061371E+03 -0.86019016133E+02 -0.36368065792E+03  0.40269104321E+03  0.00000000000E+00 0.  1.
         16    1    1    2    0    0 -0.32414439226E+03  0.18828683455E+03 -0.38475488598E+03  0.53717580119E+03  0.00000000000E+00 0. -1.
    9900018    1    1    2    0    0  0.37750565877E+03  0.89129438846E+01  0.20446572336E+03  0.43898903562E+03  0.91187600000E+02 0.  0.
<mgrwt>
<rscale>  0 0.32443327E+04</rscale>
<asrwt>0</asrwt>
<pdfrwt beam="1">  1        1 0.41699395E+00 0.32443327E+04</pdfrwt>
<pdfrwt beam="2">  1       -1 0.14936000E+00 0.32443327E+04</pdfrwt>
<totfact> 0.28368434E-01</totfact>
</mgrwt>
</event>
<event>
11    1  0.6259894E-010  0.2898457E+04  0.7818608E-02  0.8273337E-01
          1   -1    0    0  501    0  0.00000000000E+00  0.00000000000E+00  0.13029676619E+04  0.13029676619E+04  0.00000000000E+00 0. -1.
         -1   -1    0    0    0  501 -0.00000000000E+00 -0.00000000000E+00 -0.16119075607E+04  0.16119075607E+04  0.00000000000E+00 0.  1.
    9900016    2    1    2    0    0  0.68613324670E+02 -0.29210387652E+03 -0.23117702000E+03  0.22215723413E+04  0.21890428023E+04 0.  0.
         23    2    3    3    0    0 -0.17462798976E+03  0.30300052381E+03 -0.41971708026E+03  0.55410986416E+03  0.92580029538E+02 0.  0.
        -15    1    3    3    0    0  0.13306196484E+02  0.91445219866E+02 -0.18190189161E+03  0.20402838350E+03  0.00000000000E+00 0.  1.
        -15    1    4    4    0    0 -0.12300341938E+03  0.24776923792E+03 -0.27083176377E+03  0.38712953995E+03  0.00000000000E+00 0. -1.
         15    1    3    3    0    0  0.68804577880E+03 -0.66396368380E+03  0.27520782744E+03  0.99498447998E+03  0.00000000000E+00 0. -1.
         15    1    4    4    0    0 -0.51624570381E+02  0.55231285889E+02 -0.14888531649E+03  0.16698032421E+03  0.00000000000E+00 0.  1.
        -16    1    3    3    0    0 -0.45811066086E+03 -0.22585936394E+02  0.95234124429E+02  0.46844961369E+03  0.00000000000E+00 0.  1.
         16    1    1    2    0    0  0.12348725655E+03  0.33653434454E+03  0.14080863649E+03  0.38513833839E+03  0.00000000000E+00 0. -1.
    9900018    1    1    2    0    0 -0.19210058122E+03 -0.44430468026E+02 -0.21857151531E+03  0.30816454289E+03  0.91187600000E+02 0.  0.
<mgrwt>
<rscale>  0 0.28984571E+04</rscale>
<asrwt>0</asrwt>
<pdfrwt beam="1">  1        1 0.20045656E+00 0.28984571E+04</pdfrwt>
<pdfrwt beam="2">  1       -1 0.24798578E+00 0.28984571E+04</pdfrwt>
<totfact> 0.55534058E-01</totfact>
</mgrwt>
</event>
<event>
11    1  0.6259894E-010  0.2999514E+04  0.7818608E-02  0.8243870E-01
          1   -1    0    0  501    0  0.00000000000E+00  0.00000000000E+00  0.30618339654E+04  0.30618339654E+04  0.00000000000E+00 0. -1.
         -1   -1    0    0    0  501 -0.00000000000E+00 -0.00000000000E+00 -0.73461556408E+03  0.73461556408E+03  0.00000000000E+00 0.  1.
    9900016    2    1    2    0    0  0.20550187914E+03  0.17182388920E+03  0.16986520133E+04  0.27953104564E+04  0.22037666423E+04 0.  0.
         23    2    3    3    0    0 -0.42209961028E+02  0.19877734519E+03 -0.71273985833E+02  0.23402391207E+03  0.91613844992E+02 0.  0.
        -15    1    4    4    0    0 -0.47157322227E+02  0.71424386652E+02 -0.63060866707E+02  0.10631053080E+03  0.00000000000E+00 0.  1.
        -15    1    3    3    0    0  0.92642920532E+03 -0.35234236189E+03  0.13749917356E+04  0.16949980783E+04  0.00000000000E+00 0.  1.
         15    1    4    4    0    0  0.49473611986E+01  0.12735295854E+03 -0.82131191257E+01  0.12771338128E+03  0.00000000000E+00 0. -1.
         15    1    3    3    0    0 -0.44547320300E+03  0.22892984036E+03  0.34715585371E+03  0.60940334194E+03  0.00000000000E+00 0. -1.
        -16    1    3    3    0    0 -0.23324416215E+03  0.96459065543E+02  0.47778409821E+02  0.25688512403E+03  0.00000000000E+00 0.  1.
         16    1    1    2    0    0 -0.18877822552E+03 -0.30075639553E+03  0.73064111817E+03  0.81235957029E+03  0.00000000000E+00 0. -1.
    9900018    1    1    2    0    0 -0.16723653621E+02  0.12893250633E+03 -0.10207473013E+03  0.18877950287E+03  0.91187600000E+02 0.  0.
<mgrwt>
<rscale>  0 0.29995139E+04</rscale>
<asrwt>0</asrwt>
<pdfrwt beam="1">  1        1 0.47105137E+00 0.29995139E+04</pdfrwt>
<pdfrwt beam="2">  1       -1 0.11301778E+00 0.29995139E+04</pdfrwt>
<totfact> 0.32770071E-01</totfact>
</mgrwt>
</event>
<event>
12    1  0.6259894E-010  0.3648714E+04  0.7818608E-02  0.8079424E-01
          1   -1    0    0  501    0  0.00000000000E+00  0.00000000000E+00  0.18425739862E+04  0.18425739862E+04  0.00000000000E+00 0. -1.
         -1   -1    0    0    0  501 -0.00000000000E+00 -0.00000000000E+00 -0.18063197443E+04  0.18063197443E+04  0.00000000000E+00 0.  1.
    9900016    2    1    2    0    0 -0.23224409714E+03  0.10670417055E+04  0.24996487870E+03  0.24692557319E+04  0.22005058752E+04 0.  0.
        -24    2    3    3    0    0 -0.45270680089E+03 -0.15825093938E+03 -0.49961020857E+03  0.69526540378E+03  0.61618291111E+02 0.  0.
         23    2    3    3    0    0  0.29208557798E+03  0.32833458107E+03 -0.17708540983E+03  0.48233895050E+03  0.90410391041E+02 0.  0.
        -15    1    5    5    0    0  0.15350067456E+03  0.21757993662E+03 -0.14098867006E+03  0.30129933786E+03  0.00000000000E+00 0.  1.
        -15    1    3    3    0    0 -0.71622874224E+02  0.89695806382E+03  0.92666049710E+03  0.12916513776E+04  0.00000000000E+00 0.  1.
         15    1    4    4    0    0 -0.14023968443E+03 -0.24243888835E+02 -0.12558241121E+03  0.18980483988E+03  0.00000000000E+00 0. -1.
         15    1    5    5    0    0  0.13858490342E+03  0.11075464445E+03 -0.36096739765E+02  0.18103961264E+03  0.00000000000E+00 0. -1.
        -16    1    4    4    0    0 -0.31246711646E+03 -0.13400705055E+03 -0.37402779736E+03  0.50546056390E+03  0.00000000000E+00 0.  1.
         16    1    1    2    0    0  0.22601498695E+03 -0.89558971312E+03 -0.29411624259E+03  0.96936477795E+03  0.00000000000E+00 0. -1.
    9900018    1    1    2    0    0  0.62291101830E+01 -0.17145199238E+03  0.80405605785E+02  0.21027322069E+03  0.91187600000E+02 0.  0.
<mgrwt>
<rscale>  0 0.36487136E+04</rscale>
<asrwt>0</asrwt>
<pdfrwt beam="1">  1        1 0.28347292E+00 0.36487136E+04</pdfrwt>
<pdfrwt beam="2">  1       -1 0.27789535E+00 0.36487136E+04</pdfrwt>
<totfact> 0.14104378E-01</totfact>
</mgrwt>
</event>
<event>
12    1  0.6259894E-010  0.4674569E+04  0.7818608E-02  0.7880768E-01
         -2   -1    0    0    0  501 -0.00000000000E+00  0.00000000000E+00  0.18816256580E+04  0.18816256580E+04  0.00000000000E+00 0.  1.
          2   -1    0    0  501    0  0.00000000000E+00 -0.00000000000E+00 -0.29032870715E+04  0.29032870715E+04  0.00000000000E+00 0. -1.
    9900016    2    1    2    0    0  0.41401699425E+03  0.45019221446E+02  0.93735623105E+03  0.24160767686E+04  0.21875450730E+04 0.  0.
        -24    2    3    3    0    0 -0.11374105204E+03  0.24864822288E+03  0.15084833780E+02  0.28083888778E+03  0.62289349176E+02 0.  0.
         23    2    3    3    0    0  0.74987249189E+03  0.31008694793E+03  0.12451327679E+04  0.14891122211E+04  0.92935073777E+02 0.  0.
        -15    1    3    3    0    0 -0.22211444560E+03 -0.51371594937E+03 -0.32286137062E+03  0.64612565977E+03  0.00000000000E+00 0.  1.
        -15    1    5    5    0    0  0.71181738949E+03  0.28256618640E+03  0.12025838395E+04  0.14257403469E+04  0.00000000000E+00 0.  1.
         15    1    4    4    0    0 -0.42389669258E+01  0.74718738730E+02  0.13416679642E+01  0.74850910689E+02  0.00000000000E+00 0. -1.
         15    1    5    5    0    0  0.38055102398E+02  0.27520761534E+02  0.42548928399E+02  0.63371874217E+02  0.00000000000E+00 0. -1.
        -16    1    4    4    0    0 -0.10950208511E+03  0.17392948415E+03  0.13743165816E+02  0.20598797709E+03  0.00000000000E+00 0.  1.
         16    1    1    2    0    0 -0.24334548986E+03  0.25834511744E+03 -0.19769599522E+04  0.20085641339E+04  0.00000000000E+00 0. -1.
    9900018    1    1    2    0    0 -0.17067150438E+03 -0.30336433889E+03  0.17942307722E+02  0.36027182698E+03  0.91187600000E+02 0.  0.
<mgrwt>
<rscale>  0 0.46745693E+04</rscale>
<asrwt>0</asrwt>
<pdfrwt beam="1">  1        2 0.44665955E+00 0.46745693E+04</pdfrwt>
<pdfrwt beam="2">  1       -2 0.28948087E+00 0.46745693E+04</pdfrwt>
<totfact> 0.55046685E-02</totfact>
</mgrwt>
</event>
<event>
11    1  0.6259894E-010  0.3885110E+04  0.7818608E-02  0.8028133E-01
         -2   -1    0    0    0  501 -0.00000000000E+00  0.00000000000E+00  0.12688962957E+04  0.12688962957E+04  0.00000000000E+00 0.  1.
          2   -1    0    0  501    0  0.00000000000E+00 -0.00000000000E+00 -0.29738604892E+04  0.29738604892E+04  0.00000000000E+00 0. -1.
    9900016    2    1    2    0    0  0.59672183578E+03  0.96511934181E+01 -0.33551801918E+03  0.23092019916E+04  0.22053733022E+04 0.  0.
         23    2    3    3    0    0 -0.77264244879E+02 -0.20612916203E+03 -0.28260798499E+03  0.36977769061E+03  0.91702084604E+02 0.  0.
        -15    1    3    3    0    0  0.14630228347E+03  0.62378195622E+03 -0.10254832834E+03  0.64886396625E+03  0.00000000000E+00 0.  1.
        -15    1    4    4    0    0 -0.23760528293E+02 -0.24973745560E+02 -0.10495162330E+03  0.11046761473E+03  0.00000000000E+00 0. -1.
         15    1    3    3    0    0  0.32348968687E+03 -0.75001598088E+03 -0.17199992437E+03  0.83471763074E+03  0.00000000000E+00 0. -1.
         15    1    4    4    0    0 -0.53503716586E+02 -0.18115541647E+03 -0.17765636170E+03  0.25931007588E+03  0.00000000000E+00 0.  1.
        -16    1    1    2    0    0 -0.83916443451E+03 -0.23103462727E+03 -0.50946129645E+03  0.10085260332E+04  0.00000000000E+00 0.  1.
         16    1    3    3    0    0  0.20419411032E+03  0.34201438010E+03  0.22163821852E+03  0.45584270401E+03  0.00000000000E+00 0. -1.
    9900018    1    1    2    0    0  0.24244259873E+03  0.22138343385E+03 -0.85998487788E+03  0.92502876012E+03  0.91187600000E+02 0.  0.
<mgrwt>
<rscale>  0 0.38851103E+04</rscale>
<asrwt>0</asrwt>
<pdfrwt beam="1">  1        2 0.45751699E+00 0.38851103E+04</pdfrwt>
<pdfrwt beam="2">  1       -2 0.19521482E+00 0.38851103E+04</pdfrwt>
<totfact> 0.20581112E-01</totfact>
</mgrwt>
</event>
<event>
11    1  0.6259894E-010  0.4291439E+04  0.7818608E-02  0.7948203E-01
         -1   -1    0    0    0  501 -0.00000000000E+00  0.00000000000E+00  0.13702496477E+04  0.13702496477E+04  0.00000000000E+00 0.  1.
          1   -1    0    0  501    0  0.00000000000E+00 -0.00000000000E+00 -0.33600542254E+04  0.33600542254E+04  0.00000000000E+00 0. -1.
    9900016    2    1    2    0    0  0.31141603611E+03  0.13521630181E+04 -0.16216605238E+04  0.30650724909E+04  0.21999003943E+04 0.  0.
         23    2    3    3    0    0  0.22402454502E+03 -0.16985504450E+03 -0.82585691672E+02  0.30729241780E+03  0.92576998528E+02 0.  0.
        -15    1    3    3    0    0  0.63364052209E+03  0.37516921072E+03  0.23074288539E+02  0.73673921485E+03  0.00000000000E+00 0.  1.
        -15    1    4    4    0    0  0.20899494890E+03 -0.11860344714E+03 -0.81905296450E+02  0.25387820688E+03  0.00000000000E+00 0. -1.
         15    1    3    3    0    0 -0.28891106588E+03  0.71248584033E+03 -0.82646689768E+03  0.11287839517E+04  0.00000000000E+00 0. -1.
         15    1    4    4    0    0  0.15029596112E+02 -0.51251597351E+02 -0.68039522228E+00  0.53414210918E+02  0.00000000000E+00 0.  1.
        -16    1    3    3    0    0 -0.25733796511E+03  0.43436301157E+03 -0.73568222295E+03  0.89225690654E+03  0.00000000000E+00 0.  1.
         16    1    1    2    0    0 -0.23282080765E+03 -0.14490949043E+04 -0.35574068144E+03  0.15101764806E+04  0.00000000000E+00 0. -1.
    9900018    1    1    2    0    0 -0.78595228464E+02  0.96931886134E+02 -0.12403372488E+02  0.15505490166E+03  0.91187600000E+02 0.  0.
<mgrwt>
<rscale>  0 0.42914394E+04</rscale>
<asrwt>0</asrwt>
<pdfrwt beam="1">  1        1 0.51693141E+00 0.42914394E+04</pdfrwt>
<pdfrwt beam="2">  1       -1 0.21080764E+00 0.42914394E+04</pdfrwt>
<totfact> 0.31132726E-02</totfact>
</mgrwt>
</event>
<event>
11    1  0.6259894E-010  0.3488187E+04  0.7818608E-02  0.8116595E-01
         -2   -1    0    0    0  501 -0.00000000000E+00  0.00000000000E+00  0.12283974087E+04  0.12283974087E+04  0.00000000000E+00 0.  1.
          2   -1    0    0  501    0  0.00000000000E+00 -0.00000000000E+00 -0.24762852821E+04  0.24762852821E+04  0.00000000000E+00 0. -1.
    9900016    2    1    2    0    0 -0.16704906604E+03  0.39642872380E+03 -0.30363700489E+03  0.22570848882E+04  0.21948065150E+04 0.  0.
         23    2    3    3    0    0  0.32179920012E+03 -0.43462784251E+03 -0.15247646672E+03  0.56936415131E+03  0.92034652238E+02 0.  0.
        -15    1    4    4    0    0  0.16393185280E+02 -0.23693485800E+02 -0.32627842353E+02  0.43528081621E+02  0.00000000000E+00 0.  1.
        -15    1    3    3    0    0  0.35533904362E+03  0.20214842215E+03  0.20609130326E+03  0.45782468891E+03  0.00000000000E+00 0.  1.
         15    1    4    4    0    0  0.30540601484E+03 -0.41093435671E+03 -0.11984862437E+03  0.52583606969E+03  0.00000000000E+00 0. -1.
         15    1    3    3    0    0 -0.36404640286E+02  0.30354368709E+03 -0.80680712722E+02  0.31618577643E+03  0.00000000000E+00 0. -1.
        -16    1    3    3    0    0 -0.80778266948E+03  0.32536445707E+03 -0.27657112871E+03  0.91371027152E+03  0.00000000000E+00 0.  1.
         16    1    1    2    0    0 -0.40972266566E+03 -0.39381449559E+02 -0.32231816764E+03  0.52279303985E+03  0.00000000000E+00 0. -1.
    9900018    1    1    2    0    0  0.57677173169E+03 -0.35704727424E+03 -0.62193270088E+03  0.92480476283E+03  0.91187600000E+02 0.  0.
<mgrwt>
<rscale>  0 0.34881872E+04</rscale>
<asrwt>0</asrwt>
<pdfrwt beam="1">  1        2 0.38096697E+00 0.34881872E+04</pdfrwt>
<pdfrwt beam="2">  1       -2 0.18898421E+00 0.34881872E+04</pdfrwt>
<totfact> 0.46528167E-01</totfact>
</mgrwt>
</event>
<event>
11    1  0.6259894E-010  0.3083876E+04  0.7818608E-02  0.8220177E-01
          2   -1    0    0  501    0  0.00000000000E+00  0.00000000000E+00  0.35194786576E+04  0.35194786576E+04  0.00000000000E+00 0. -1.
         -2   -1    0    0    0  501 -0.00000000000E+00 -0.00000000000E+00 -0.67554708239E+03  0.67554708239E+03  0.00000000000E+00 0.  1.
    9900016    2    1    2    0    0 -0.13752406493E+03 -0.27352348168E+03  0.25034744502E+04  0.33542146092E+04  0.22112537978E+04 0.  0.
         23    2    3    3    0    0  0.70988285952E+02 -0.30542247561E+03  0.34163749319E+03  0.47254647894E+03  0.90894293871E+02 0.  0.
        -15    1    4    4    0    0  0.65243527002E+01 -0.93085418071E+02  0.49331065668E+02  0.10555101267E+03  0.00000000000E+00 0. -1.
        -15    1    3    3    0    0  0.88640380235E+02  0.17489884000E+02  0.56152453986E+02  0.10637721156E+03  0.00000000000E+00 0.  1.
         15    1    4    4    0    0  0.64463933252E+02 -0.21233705754E+03  0.29230642752E+03  0.36699546627E+03  0.00000000000E+00 0.  1.
         15    1    3    3    0    0 -0.96796763796E+03 -0.83209634640E+02  0.17694052946E+04  0.20185837332E+04  0.00000000000E+00 0. -1.
        -16    1    1    2    0    0  0.14083340993E+03  0.18050942836E+03 -0.18817529638E+03  0.29635729322E+03  0.00000000000E+00 0.  1.
         16    1    3    3    0    0  0.67081490684E+03  0.97618744566E+02  0.33627920837E+03  0.75670718545E+03  0.00000000000E+00 0. -1.
    9900018    1    1    2    0    0 -0.33093449968E+01  0.93014053325E+02  0.52863242147E+03  0.54445383762E+03  0.91187600000E+02 0.  0.
<mgrwt>
<rscale>  0 0.30838765E+04</rscale>
<asrwt>0</asrwt>
<pdfrwt beam="1">  1        2 0.54145824E+00 0.30838765E+04</pdfrwt>
<pdfrwt beam="2">  1       -2 0.10393032E+00 0.30838765E+04</pdfrwt>
<totfact> 0.50402572E-01</totfact>
</mgrwt>
</event>
<event>
12    1  0.6259894E-010  0.3441397E+04  0.7818608E-02  0.8127820E-01
          2   -1    0    0  501    0  0.00000000000E+00  0.00000000000E+00  0.46778996575E+04  0.46778996575E+04  0.00000000000E+00 0. -1.
         -2   -1    0    0    0  501 -0.00000000000E+00 -0.00000000000E+00 -0.63293442486E+03  0.63293442486E+03  0.00000000000E+00 0.  1.
    9900016    2    1    2    0    0 -0.21774695574E+03  0.51114187744E+03  0.24181261070E+04  0.33148682930E+04  0.21982579864E+04 0.  0.
         24    2    3    3    0    0 -0.56130467234E+03 -0.51648099016E+03  0.37309687909E+03  0.85621380063E+03  0.10993290138E+03 0.  0.
         23    2    3    3    0    0  0.25175348932E+03 -0.58290549321E+02  0.44535295291E+03  0.52304085577E+03  0.91950403033E+02 0.  0.
        -15    1    4    4    0    0 -0.26730037052E+03 -0.24195670119E+03  0.11566467356E+03  0.37864343390E+03  0.00000000000E+00 0.  1.
        -15    1    5    5    0    0  0.21383825695E+03 -0.81272280189E+02  0.35376259891E+03  0.42128370495E+03  0.00000000000E+00 0.  1.
         15    1    5    5    0    0  0.37915232365E+02  0.22981730868E+02  0.91590353997E+02  0.10175715083E+03  0.00000000000E+00 0. -1.
         15    1    3    3    0    0  0.91804227283E+02  0.10859134169E+04  0.15996762750E+04  0.19356136366E+04  0.00000000000E+00 0. -1.
        -16    1    1    2    0    0  0.23141230776E+03 -0.80936551799E+03  0.11274089611E+04  0.14070092976E+04  0.00000000000E+00 0.  1.
         16    1    4    4    0    0 -0.29400430182E+03 -0.27452428898E+03  0.25743220553E+03  0.47757036672E+03  0.00000000000E+00 0. -1.
    9900018    1    1    2    0    0 -0.13665352019E+02  0.29822364055E+03  0.49943016451E+03  0.58895649181E+03  0.91187600000E+02 0.  0.
<mgrwt>
<rscale>  0 0.34413972E+04</rscale>
<asrwt>0</asrwt>
<pdfrwt beam="1">  1        2 0.71967685E+00 0.34413972E+04</pdfrwt>
<pdfrwt beam="2">  1       -2 0.97374530E-01 0.34413972E+04</pdfrwt>
<totfact> 0.58539644E-02</totfact>
</mgrwt>
</event>
<event>
11    1  0.6259894E-010  0.4406982E+04  0.7818608E-02  0.7927127E-01
          2   -1    0    0  501    0  0.00000000000E+00  0.00000000000E+00  0.33751542906E+04  0.33751542906E+04  0.00000000000E+00 0. -1.
         -2   -1    0    0    0  501 -0.00000000000E+00 -0.00000000000E+00 -0.14385632974E+04  0.14385632974E+04  0.00000000000E+00 0.  1.
    9900016    2    1    2    0    0 -0.31753799610E+03 -0.31829300903E+01  0.12278456284E+04  0.25276258981E+04  0.21864233999E+04 0.  0.
         23    2    3    3    0    0  0.11002838599E+03  0.34738039324E+03 -0.18501259728E+03  0.41872207599E+03  0.91209278257E+02 0.  0.
        -15    1    4    4    0    0  0.62445824576E+02  0.13617951169E+03 -0.12210857566E+03  0.19327401445E+03  0.00000000000E+00 0. -1.
        -15    1    3    3    0    0  0.33919517991E+03  0.53599036981E+01  0.87468503957E+02  0.35033246756E+03  0.00000000000E+00 0.  1.
         15    1    4    4    0    0  0.47582561418E+02  0.21120088155E+03 -0.62904021617E+02  0.22544806154E+03  0.00000000000E+00 0.  1.
         15    1    3    3    0    0 -0.28594084802E+03 -0.53789235719E+03  0.92215008987E+03  0.11051928088E+04  0.00000000000E+00 0. -1.
        -16    1    3    3    0    0 -0.48082071399E+03  0.18196913016E+03  0.40323963183E+03  0.65337854572E+03  0.00000000000E+00 0.  1.
         16    1    1    2    0    0 -0.21871691432E+03 -0.98189538403E+03  0.55913074034E+03  0.11509052170E+04  0.00000000000E+00 0. -1.
    9900018    1    1    2    0    0  0.53625491041E+03  0.98507831412E+03  0.14961462454E+03  0.11351864729E+04  0.91187600000E+02 0.  0.
<mgrwt>
<rscale>  0 0.44069822E+04</rscale>
<asrwt>0</asrwt>
<pdfrwt beam="1">  1        2 0.51925450E+00 0.44069822E+04</pdfrwt>
<pdfrwt beam="2">  1       -2 0.22131743E+00 0.44069822E+04</pdfrwt>
<totfact> 0.73264991E-02</totfact>
</mgrwt>
</event>
<event>
11    1  0.6259894E-010  0.3680997E+04  0.7818608E-02  0.8072186E-01
         -2   -1    0    0    0  501 -0.00000000000E+00  0.00000000000E+00  0.84625123701E+03  0.84625123701E+03  0.00000000000E+00 0.  1.
          2   -1    0    0  501    0  0.00000000000E+00 -0.00000000000E+00 -0.40028701644E+04  0.40028701644E+04  0.00000000000E+00 0. -1.
    9900016    2    1    2    0    0  0.25047800527E+03 -0.24628617367E+03 -0.15560657001E+04  0.27150800378E+04  0.21970259530E+04 0.  0.
         23    2    3    3    0    0  0.15973993284E+03  0.33318210158E+03 -0.20454997328E+03  0.43224114989E+03  0.92003049582E+02 0.  0.
        -15    1    3    3    0    0 -0.19015964186E+03  0.20354906905E+03  0.56124064425E+02  0.28415281718E+03  0.00000000000E+00 0.  1.
        -15    1    4    4    0    0  0.16132479339E+03  0.25579520353E+03 -0.17490974546E+03  0.34935697241E+03  0.00000000000E+00 0.  1.
         15    1    3    3    0    0 -0.26384463211E+03 -0.24318661540E+03 -0.11258342145E+04  0.11816329373E+04  0.00000000000E+00 0. -1.
         15    1    4    4    0    0 -0.15848605428E+01  0.77386898046E+02 -0.29640227821E+02  0.82884177485E+02  0.00000000000E+00 0. -1.
        -16    1    3    3    0    0  0.54474234640E+03 -0.53983072889E+03 -0.28180557669E+03  0.81705313344E+03  0.00000000000E+00 0.  1.
         16    1    1    2    0    0 -0.77881947673E+03 -0.80970923232E+02 -0.91186475599E+03  0.12019207133E+04  0.00000000000E+00 0. -1.
    9900018    1    1    2    0    0  0.52834147146E+03  0.32725709690E+03 -0.68868847131E+03  0.93212065036E+03  0.91187600000E+02 0.  0.
<mgrwt>
<rscale>  0 0.36809965E+04</rscale>
<asrwt>0</asrwt>
<pdfrwt beam="1">  1        2 0.61582617E+00 0.36809965E+04</pdfrwt>
<pdfrwt beam="2">  1       -2 0.13019250E+00 0.36809965E+04</pdfrwt>
<totfact> 0.11883844E-01</totfact>
</mgrwt>
</event>
<event>
11    1  0.6259894E-010  0.4248187E+04  0.7818608E-02  0.7956269E-01
          2   -1    0    0  501    0  0.00000000000E+00  0.00000000000E+00  0.51158049971E+04  0.51158049971E+04  0.00000000000E+00 0. -1.
         -2   -1    0    0    0  501 -0.00000000000E+00 -0.00000000000E+00 -0.88192819594E+03  0.88192819594E+03  0.00000000000E+00 0.  1.
    9900016    2    1    2    0    0  0.11721812770E+04  0.59463211841E+03  0.17157125618E+04  0.30886990581E+04  0.22065348341E+04 0.  0.
         23    2    3    3    0    0 -0.40042666982E+03  0.16667406001E+03  0.13962833469E+03  0.46472834872E+03  0.91403534267E+02 0.  0.
        -15    1    3    3    0    0  0.41912538438E+03  0.34424701214E+03  0.21341767744E+03  0.58285435423E+03  0.00000000000E+00 0.  1.
        -15    1    4    4    0    0 -0.35500730385E+03  0.11283106025E+03  0.12370320630E+03  0.39250925746E+03  0.00000000000E+00 0. -1.
         15    1    4    4    0    0 -0.45419365964E+02  0.53842999761E+02  0.15925128385E+02  0.72219091256E+02  0.00000000000E+00 0.  1.
         15    1    3    3    0    0 -0.42481557478E+02  0.28587185374E+03  0.14862192014E+03  0.32498596067E+03  0.00000000000E+00 0. -1.
        -16    1    1    2    0    0 -0.11102456403E+04 -0.50234332513E+03  0.17811031596E+04  0.21580830993E+04  0.00000000000E+00 0.  1.
         16    1    3    3    0    0  0.11959641199E+04 -0.20216080748E+03  0.12140446296E+04  0.17161303944E+04  0.00000000000E+00 0. -1.
    9900018    1    1    2    0    0 -0.61935636643E+02 -0.92288793279E+02  0.73706107969E+03  0.75095103572E+03  0.91187600000E+02 0.  0.
<mgrwt>
<rscale>  0 0.42481868E+04</rscale>
<asrwt>0</asrwt>
<pdfrwt beam="1">  1        2 0.78704691E+00 0.42481868E+04</pdfrwt>
<pdfrwt beam="2">  1       -2 0.13568126E+00 0.42481868E+04</pdfrwt>
<totfact> 0.71776249E-03</totfact>
</mgrwt>
</event>
<event>
11    1  0.6259894E-010  0.3245491E+04  0.7818608E-02  0.8176905E-01
         -2   -1    0    0    0  501 -0.00000000000E+00  0.00000000000E+00  0.14878343733E+04  0.14878343733E+04  0.00000000000E+00 0. -1.
          2   -1    0    0  501    0  0.00000000000E+00 -0.00000000000E+00 -0.17698896589E+04  0.17698896589E+04  0.00000000000E+00 0.  1.
    9900016    2    1    2    0    0 -0.48623877043E+03 -0.75707337743E+01  0.23489890972E+03  0.22625997625E+04  0.21972015678E+04 0.  0.
         23    2    3    3    0    0 -0.27193089471E+03 -0.42048081163E+03 -0.26909725668E+02  0.50956823406E+03  0.90471693808E+02 0.  0.
        -15    1    4    4    0    0 -0.31877897793E+02 -0.10207638653E+03 -0.29020560455E+02  0.11080605572E+03  0.00000000000E+00 0.  1.
        -15    1    3    3    0    0  0.21110139793E+03 -0.54215828680E+03  0.19329395799E+03  0.61307582105E+03  0.00000000000E+00 0.  1.
         15    1    4    4    0    0 -0.24005299692E+03 -0.31840442510E+03  0.21108347873E+01  0.39876217835E+03  0.00000000000E+00 0. -1.
         15    1    3    3    0    0 -0.95780084560E+02 -0.75425937130E+01 -0.61685311322E+02  0.11417439709E+03  0.00000000000E+00 0. -1.
        -16    1    1    2    0    0  0.50607496885E+03 -0.17731805212E+03 -0.56870498879E+03  0.78165141206E+03  0.00000000000E+00 0.  1.
         16    1    3    3    0    0 -0.32962918909E+03  0.96261095837E+03  0.13019998872E+03  0.10257813103E+04  0.00000000000E+00 0. -1.
    9900018    1    1    2    0    0 -0.19836198414E+02  0.18488878589E+03  0.51750793465E+02  0.21347285760E+03  0.91187600000E+02 0.  0.
<mgrwt>
<rscale>  0 0.32454908E+04</rscale>
<asrwt>0</asrwt>
<pdfrwt beam="1">  1        2 0.27229072E+00 0.32454908E+04</pdfrwt>
<pdfrwt beam="2">  1       -2 0.22889760E+00 0.32454908E+04</pdfrwt>
<totfact> 0.65357324E-01</totfact>
</mgrwt>
</event>
<event>
12    1  0.6259894E-010  0.3889424E+04  0.7818608E-02  0.8027232E-01
          2   -1    0    0  501    0  0.00000000000E+00  0.00000000000E+00  0.12219769371E+04  0.12219769371E+04  0.00000000000E+00 0. -1.
         -2   -1    0    0    0  501 -0.00000000000E+00 -0.00000000000E+00 -0.30949072456E+04  0.30949072456E+04  0.00000000000E+00 0.  1.
    9900016    2    1    2    0    0 -0.58834426273E+03 -0.11642262552E+03 -0.11603533376E+04  0.25534963899E+04  0.21941332562E+04 0.  0.
        -24    2    3    3    0    0 -0.23013053828E+03  0.56683682289E+03 -0.13644624305E+04  0.14981071942E+04  0.91122952851E+02 0.  0.
         23    2    3    3    0    0 -0.14411051544E+03  0.94085160997E+02  0.15070107329E+03  0.24733149820E+03  0.94032964078E+02 0.  0.
        -15    1    3    3    0    0 -0.21410320902E+03 -0.77734460941E+03  0.53408019621E+02  0.80805769748E+03  0.00000000000E+00 0.  1.
        -15    1    5    5    0    0 -0.15586511227E+03  0.82230763640E+02  0.12271205456E+03  0.21474189169E+03  0.00000000000E+00 0. -1.
         15    1    4    4    0    0 -0.14741067344E+03  0.43172657706E+03 -0.10822184292E+04  0.11744421963E+04  0.00000000000E+00 0. -1.
         15    1    5    5    0    0  0.11754596833E+02  0.11854397357E+02  0.27989018726E+02  0.32589606512E+02  0.00000000000E+00 0.  1.
        -16    1    4    4    0    0 -0.82719864832E+02  0.13511024583E+03 -0.28224400136E+03  0.32366499791E+03  0.00000000000E+00 0.  1.
         16    1    1    2    0    0  0.27954362432E+03  0.61324670871E+03  0.17515781064E+03  0.69634504541E+03  0.00000000000E+00 0. -1.
    9900018    1    1    2    0    0  0.30880063841E+03 -0.49682408319E+03 -0.88773478159E+03  0.10670427474E+04  0.91187600000E+02 0.  0.
<mgrwt>
<rscale>  0 0.38894243E+04</rscale>
<asrwt>0</asrwt>
<pdfrwt beam="1">  1        2 0.18799645E+00 0.38894243E+04</pdfrwt>
<pdfrwt beam="2">  1       -2 0.47613957E+00 0.38894243E+04</pdfrwt>
<totfact> 0.34216961E-02</totfact>
</mgrwt>
</event>
<event>
11    1  0.6259894E-010  0.2748071E+04  0.7818608E-02  0.8319574E-01
         -2   -1    0    0    0  501 -0.00000000000E+00  0.00000000000E+00  0.61395920130E+03  0.61395920130E+03  0.00000000000E+00 0.  1.
          2   -1    0    0  501    0  0.00000000000E+00 -0.00000000000E+00 -0.30750809122E+04  0.30750809122E+04  0.00000000000E+00 0. -1.
    9900016    2    1    2    0    0  0.10062760105E+03  0.13762710925E+03 -0.15955074875E+04  0.27041006773E+04  0.21765682151E+04 0.  0.
         23    2    3    3    0    0 -0.21169023736E+03 -0.11413858663E+03  0.29661213639E+03  0.39263414147E+03  0.91336936902E+02 0.  0.
        -15    1    3    3    0    0 -0.89067599768E+02  0.77797143014E+02  0.90461694383E+02  0.14889174235E+03  0.00000000000E+00 0.  1.
        -15    1    4    4    0    0 -0.83878067626E+02 -0.83947794251E+02  0.18746747867E+03  0.22187117422E+03  0.00000000000E+00 0.  1.
         15    1    3    3    0    0  0.26397964999E+03 -0.25245245265E+03 -0.12644858228E+04  0.13161845967E+04  0.00000000000E+00 0. -1.
         15    1    4    4    0    0 -0.12781216974E+03 -0.30190792379E+02  0.10914465771E+03  0.17076296725E+03  0.00000000000E+00 0. -1.
        -16    1    3    3    0    0  0.13740578818E+03  0.42642100551E+03 -0.71809549550E+03  0.84639019679E+03  0.00000000000E+00 0.  1.
         16    1    1    2    0    0 -0.23367440861E+02 -0.17292331415E+03 -0.83971888767E+03  0.85765746087E+03  0.00000000000E+00 0. -1.
    9900018    1    1    2    0    0 -0.77260160186E+02  0.35296204904E+02 -0.25895335635E+02  0.12728197529E+03  0.91187600000E+02 0.  0.
<mgrwt>
<rscale>  0 0.27480715E+04</rscale>
<asrwt>0</asrwt>
<pdfrwt beam="1">  1        2 0.47308938E+00 0.27480715E+04</pdfrwt>
<pdfrwt beam="2">  1       -2 0.94455260E-01 0.27480715E+04</pdfrwt>
<totfact> 0.12881016E+00</totfact>
</mgrwt>
</event>
<event>
11    1  0.6259894E-010  0.3345803E+04  0.7818608E-02  0.8151338E-01
         -1   -1    0    0    0  501 -0.00000000000E+00  0.00000000000E+00  0.94695613199E+03  0.94695613199E+03  0.00000000000E+00 0.  1.
          1   -1    0    0  501    0  0.00000000000E+00 -0.00000000000E+00 -0.29553627679E+04  0.29553627679E+04  0.00000000000E+00 0. -1.
    9900016    2    1    2    0    0 -0.44275448907E+03 -0.13659957315E+03 -0.78060807254E+03  0.23706765238E+04  0.21899925198E+04 0.  0.
         23    2    3    3    0    0  0.19698859537E+02  0.89767324479E+02 -0.41715547673E+03  0.43703098467E+03  0.92364344732E+02 0.  0.
        -15    1    4    4    0    0  0.55673022611E+02  0.62485324583E+02 -0.23843334111E+03  0.25269420133E+03  0.00000000000E+00 0. -1.
        -15    1    3    3    0    0 -0.64102966188E+03  0.51654757026E+03 -0.68474838383E+03  0.10708037957E+04  0.00000000000E+00 0.  1.
         15    1    4    4    0    0 -0.35974163074E+02  0.27281999895E+02 -0.17872213562E+03  0.18433678333E+03  0.00000000000E+00 0.  1.
         15    1    3    3    0    0  0.13578522272E+03 -0.16506058809E+03  0.35163580788E+02  0.21660817589E+03  0.00000000000E+00 0. -1.
        -16    1    3    3    0    0  0.42791090552E+02 -0.57785387979E+03  0.28613220724E+03  0.64623356756E+03  0.00000000000E+00 0.  1.
         16    1    1    2    0    0  0.54685633250E+03 -0.15601297074E+02 -0.12066114701E+04  0.13248420617E+04  0.00000000000E+00 0. -1.
    9900018    1    1    2    0    0 -0.10410184342E+03  0.15220087022E+03 -0.21187093335E+02  0.20680031435E+03  0.91187600000E+02 0.  0.
<mgrwt>
<rscale>  0 0.33458027E+04</rscale>
<asrwt>0</asrwt>
<pdfrwt beam="1">  1        1 0.45467120E+00 0.33458027E+04</pdfrwt>
<pdfrwt beam="2">  1       -1 0.14568556E+00 0.33458027E+04</pdfrwt>
<totfact> 0.20072724E-01</totfact>
</mgrwt>
</event>
<event>
11    1  0.6259894E-010  0.4418679E+04  0.7818608E-02  0.7925030E-01
         -2   -1    0    0    0  501 -0.00000000000E+00  0.00000000000E+00  0.21554594365E+04  0.21554594365E+04  0.00000000000E+00 0.  1.
          2   -1    0    0  501    0  0.00000000000E+00 -0.00000000000E+00 -0.22645661766E+04  0.22645661766E+04  0.00000000000E+00 0. -1.
    9900016    2    1    2    0    0  0.14530884297E+04 -0.26347496121E+01 -0.30458738053E+03  0.26569024913E+04  0.22033802326E+04 0.  0.
         23    2    3    3    0    0 -0.12521905959E+03  0.29464544099E+03 -0.54534266940E+02  0.33714502867E+03  0.90537480122E+02 0.  0.
        -15    1    4    4    0    0 -0.73667765100E+02  0.94737401396E+02 -0.51716365942E+02  0.13067783800E+03  0.00000000000E+00 0.  1.
        -15    1    3    3    0    0  0.11519247163E+04  0.17879885808E+03  0.51539785660E+03  0.12745722946E+04  0.00000000000E+00 0.  1.
         15    1    4    4    0    0 -0.51551294489E+02  0.19990803960E+03 -0.28179009988E+01  0.20646719067E+03  0.00000000000E+00 0. -1.
         15    1    3    3    0    0  0.35031628725E+03 -0.24658624368E+03 -0.30751176801E+03  0.52734216990E+03  0.00000000000E+00 0. -1.
        -16    1    3    3    0    0  0.76066485774E+02 -0.22949280501E+03 -0.45793920217E+03  0.51784299811E+03  0.00000000000E+00 0.  1.
         16    1    1    2    0    0 -0.14914903508E+04  0.16986780345E+03  0.19944476991E+02  0.15012649065E+04  0.00000000000E+00 0. -1.
    9900018    1    1    2    0    0  0.38401921060E+02 -0.16723305384E+03  0.17553616350E+03  0.26185821532E+03  0.91187600000E+02 0.  0.
<mgrwt>
<rscale>  0 0.44186788E+04</rscale>
<asrwt>0</asrwt>
<pdfrwt beam="1">  1        2 0.34839479E+00 0.44186788E+04</pdfrwt>
<pdfrwt beam="2">  1       -2 0.33160915E+00 0.44186788E+04</pdfrwt>
<totfact> 0.73462025E-02</totfact>
</mgrwt>
</event>
<event>
11    1  0.6259894E-010  0.3465626E+04  0.7818608E-02  0.8121985E-01
         -2   -1    0    0    0  501 -0.00000000000E+00  0.00000000000E+00  0.15077515608E+04  0.15077515608E+04  0.00000000000E+00 0. -1.
          2   -1    0    0  501    0  0.00000000000E+00 -0.00000000000E+00 -0.19914688294E+04  0.19914688294E+04  0.00000000000E+00 0.  1.
    9900016    2    1    2    0    0 -0.71120881686E+02 -0.57797688927E+03 -0.80897227515E+03  0.24190768873E+04  0.22041736276E+04 0.  0.
         23    2    3    3    0    0  0.41029693678E+03  0.10515549989E+01 -0.22746537749E+02  0.42273892847E+03  0.99227589735E+02 0.  0.
        -15    1    3    3    0    0  0.20962588943E+03 -0.76939457430E+02 -0.21390615832E+03  0.30922247363E+03  0.00000000000E+00 0.  1.
        -15    1    4    4    0    0  0.23547750962E+03 -0.48119578093E+02 -0.19062868905E+02  0.24109861946E+03  0.00000000000E+00 0.  1.
         15    1    3    3    0    0 -0.42941720563E+03  0.28477702085E+02  0.37462879470E+03  0.57057589314E+03  0.00000000000E+00 0. -1.
         15    1    4    4    0    0  0.17481942716E+03  0.49171133092E+02 -0.36836688436E+01  0.18164030901E+03  0.00000000000E+00 0. -1.
        -16    1    3    3    0    0 -0.26162650226E+03 -0.53056668892E+03 -0.94694837378E+03  0.11165395921E+04  0.00000000000E+00 0.  1.
         16    1    1    2    0    0  0.18910133206E+03  0.37056180115E+03  0.58368181862E+03  0.71677041488E+03  0.00000000000E+00 0. -1.
    9900018    1    1    2    0    0 -0.11798045038E+03  0.20741508812E+03 -0.25842681207E+03  0.36337308794E+03  0.91187600000E+02 0.  0.
<mgrwt>
<rscale>  0 0.34656256E+04</rscale>
<asrwt>0</asrwt>
<pdfrwt beam="1">  1        2 0.30637982E+00 0.34656256E+04</pdfrwt>
<pdfrwt beam="2">  1       -2 0.23196178E+00 0.34656256E+04</pdfrwt>
<totfact> 0.46265397E-01</totfact>
</mgrwt>
</event>
<event>
11    1  0.6259894E-010  0.4460673E+04  0.7818608E-02  0.7917558E-01
          2   -1    0    0  501    0  0.00000000000E+00  0.00000000000E+00  0.94592807205E+03  0.94592807205E+03  0.00000000000E+00 0. -1.
         -2   -1    0    0    0  501 -0.00000000000E+00 -0.00000000000E+00 -0.52587517674E+04  0.52587517674E+04  0.00000000000E+00 0.  1.
    9900016    2    1    2    0    0 -0.14096708167E+04  0.44495780401E+02 -0.21685444056E+04  0.33999815490E+04  0.22063857343E+04 0.  0.
         23    2    3    3    0    0  0.34064541388E+03 -0.30736999982E+03 -0.66467786732E+03  0.81300395625E+03  0.93076048436E+02 0.  0.
        -15    1    3    3    0    0 -0.69223225794E+03 -0.14378107494E+03 -0.41244582366E+03  0.81851698449E+03  0.00000000000E+00 0.  1.
        -15    1    4    4    0    0  0.19219370226E+03 -0.23219415842E+03 -0.41313641543E+03  0.51140418863E+03  0.00000000000E+00 0.  1.
         15    1    4    4    0    0  0.14845171161E+03 -0.75175841400E+02 -0.25154145188E+03  0.30159976762E+03  0.00000000000E+00 0. -1.
         15    1    3    3    0    0 -0.58345142856E+02 -0.59078566858E+02  0.91334154490E+02  0.12343565341E+03  0.00000000000E+00 0. -1.
        -16    1    1    2    0    0 -0.19336459289E+03 -0.40443733335E+02 -0.30257321860E+03  0.36135317068E+03  0.00000000000E+00 0.  1.
         16    1    3    3    0    0 -0.99973882977E+03  0.55472542201E+03 -0.11827548691E+04  0.16450249548E+04  0.00000000000E+00 0. -1.
    9900018    1    1    2    0    0  0.16030354096E+04 -0.40520470652E+01 -0.18417060712E+04  0.24433451198E+04  0.91187600000E+02 0.  0.
<mgrwt>
<rscale>  0 0.44606730E+04</rscale>
<asrwt>0</asrwt>
<pdfrwt beam="1">  1        2 0.14552739E+00 0.44606730E+04</pdfrwt>
<pdfrwt beam="2">  1       -2 0.80903874E+00 0.44606730E+04</pdfrwt>
<totfact> 0.14181179E-03</totfact>
</mgrwt>
</event>
<event>
11    1  0.6259894E-010  0.3253722E+04  0.7818608E-02  0.8174772E-01
         -1   -1    0    0    0  501 -0.00000000000E+00  0.00000000000E+00  0.20209124912E+04  0.20209124912E+04  0.00000000000E+00 0.  1.
          1   -1    0    0  501    0  0.00000000000E+00 -0.00000000000E+00 -0.13096444133E+04  0.13096444133E+04  0.00000000000E+00 0. -1.
    9900016    2    1    2    0    0  0.45660934015E+03 -0.57279372618E+02 -0.20559699702E+03  0.22586945513E+04  0.22017397519E+04 0.  0.
         23    2    3    3    0    0  0.56541424836E+03  0.35354932693E+03  0.46144356570E+03  0.81596341909E+03  0.90419788470E+02 0.  0.
        -15    1    3    3    0    0 -0.58753470340E+02  0.29977585770E+03 -0.42319892091E+03  0.52193377146E+03  0.00000000000E+00 0.  1.
        -15    1    4    4    0    0  0.70525358409E+02  0.24868981446E+02  0.25228825412E+02  0.78922658651E+02  0.00000000000E+00 0.  1.
         15    1    3    3    0    0  0.93724486503E+02 -0.94615880120E+02  0.12994154437E+03  0.18606786153E+03  0.00000000000E+00 0. -1.
         15    1    4    4    0    0  0.49488888995E+03  0.32868034549E+03  0.43621474029E+03  0.73704076044E+03  0.00000000000E+00 0. -1.
        -16    1    3    3    0    0 -0.14377592438E+03 -0.61598867713E+03 -0.37378318618E+03  0.73472949924E+03  0.00000000000E+00 0.  1.
         16    1    1    2    0    0 -0.35029976348E+03  0.19150023091E+00  0.39234031604E+03  0.52596661924E+03  0.00000000000E+00 0. -1.
    9900018    1    1    2    0    0 -0.10630957667E+03  0.57087872387E+02  0.52452475884E+03  0.54589573390E+03  0.91187600000E+02 0.  0.
<mgrwt>
<rscale>  0 0.32537220E+04</rscale>
<asrwt>0</asrwt>
<pdfrwt beam="1">  1        1 0.20148376E+00 0.32537220E+04</pdfrwt>
<pdfrwt beam="2">  1       -1 0.31090961E+00 0.32537220E+04</pdfrwt>
<totfact> 0.20796087E-01</totfact>
</mgrwt>
</event>
<event>
11    1  0.6259894E-010  0.2875576E+04  0.7818608E-02  0.8280182E-01
         -1   -1    0    0    0  501 -0.00000000000E+00  0.00000000000E+00  0.16392249151E+04  0.16392249151E+04  0.00000000000E+00 0. -1.
          1   -1    0    0  501    0  0.00000000000E+00 -0.00000000000E+00 -0.12611050419E+04  0.12611050419E+04  0.00000000000E+00 0.  1.
    9900016    2    1    2    0    0 -0.97560436401E+02  0.27058902608E+03  0.72426694472E+02  0.22288907147E+04  0.22090658053E+04 0.  0.
         23    2    3    3    0    0 -0.25955274976E+03  0.20868846830E+03 -0.38411623265E+03  0.51690023719E+03  0.93392014188E+02 0.  0.
        -15    1    3    3    0    0 -0.44468296434E+03 -0.49625569967E+03 -0.96257539970E+02  0.67325936476E+03  0.00000000000E+00 0.  1.
        -15    1    4    4    0    0 -0.91606741364E+02  0.31707371103E+02 -0.15108957301E+03  0.17951381986E+03  0.00000000000E+00 0. -1.
         15    1    3    3    0    0  0.45022543862E+03  0.21079774146E+03  0.28464664327E+03  0.57285455825E+03  0.00000000000E+00 0. -1.
         15    1    4    4    0    0 -0.16794600839E+03  0.17698109720E+03 -0.23302665964E+03  0.33738641734E+03  0.00000000000E+00 0.  1.
        -16    1    1    2    0    0  0.12146658262E+03 -0.14516158146E+03  0.43094103896E+03  0.47067631605E+03  0.00000000000E+00 0.  1.
         16    1    3    3    0    0  0.15644983908E+03  0.34735851598E+03  0.26815382383E+03  0.46587655447E+03  0.00000000000E+00 0. -1.
    9900018    1    1    2    0    0 -0.23906146217E+02 -0.12542744461E+03 -0.12524786028E+03  0.20076292633E+03  0.91187600000E+02 0.  0.
<mgrwt>
<rscale>  0 0.28755763E+04</rscale>
<asrwt>0</asrwt>
<pdfrwt beam="1">  1        1 0.19401616E+00 0.28755763E+04</pdfrwt>
<pdfrwt beam="2">  1       -1 0.25218845E+00 0.28755763E+04</pdfrwt>
<totfact> 0.55976391E-01</totfact>
</mgrwt>
</event>
<event>
11    1  0.6259894E-010  0.2772389E+04  0.7818608E-02  0.8311892E-01
          2   -1    0    0  501    0  0.00000000000E+00  0.00000000000E+00  0.21825681064E+04  0.21825681064E+04  0.00000000000E+00 0. -1.
         -2   -1    0    0    0  501 -0.00000000000E+00 -0.00000000000E+00 -0.88040130281E+03  0.88040130281E+03  0.00000000000E+00 0.  1.
    9900016    2    1    2    0    0  0.19735652387E+03  0.80600980414E+02  0.11711033135E+04  0.25079534088E+04  0.22074648841E+04 0.  0.
         23    2    3    3    0    0 -0.50913730135E+02 -0.33016850257E+02 -0.17889085597E+03  0.20982633882E+03  0.91339114273E+02 0.  0.
        -15    1    4    4    0    0  0.26336435361E+02 -0.12462566059E+02 -0.38637727629E+02  0.48392121018E+02  0.00000000000E+00 0.  1.
        -15    1    3    3    0    0 -0.32935670485E+03  0.43960000163E+03  0.77297239511E+03  0.94826701095E+03  0.00000000000E+00 0.  1.
         15    1    4    4    0    0 -0.77250165496E+02 -0.20554284198E+02 -0.14025312834E+03  0.16143421780E+03  0.00000000000E+00 0. -1.
         15    1    3    3    0    0  0.57839309145E+03 -0.59515883540E+03  0.14743285625E+03  0.84290512793E+03  0.00000000000E+00 0. -1.
        -16    1    1    2    0    0 -0.20073889519E+02  0.13674127697E+03 -0.10797359840E+03  0.17538368174E+03  0.00000000000E+00 0.  1.
         16    1    3    3    0    0 -0.76613259587E+00  0.26917666445E+03  0.42958891808E+03  0.50695493111E+03  0.00000000000E+00 0. -1.
    9900018    1    1    2    0    0 -0.17728263435E+03 -0.21734225738E+03  0.23903708854E+03  0.37963231866E+03  0.91187600000E+02 0.  0.
<mgrwt>
<rscale>  0 0.27723894E+04</rscale>
<asrwt>0</asrwt>
<pdfrwt beam="1">  1        2 0.33577971E+00 0.27723894E+04</pdfrwt>
<pdfrwt beam="2">  1       -2 0.13544635E+00 0.27723894E+04</pdfrwt>
<totfact> 0.18019050E+00</totfact>
</mgrwt>
</event>
<event>
11    1  0.6259894E-010  0.3352455E+04  0.7818608E-02  0.8149675E-01
         -1   -1    0    0    0  501 -0.00000000000E+00  0.00000000000E+00  0.11412179486E+04  0.11412179486E+04  0.00000000000E+00 0.  1.
          1   -1    0    0  501    0  0.00000000000E+00 -0.00000000000E+00 -0.24620527126E+04  0.24620527126E+04  0.00000000000E+00 0. -1.
    9900016    2    1    2    0    0  0.33766112985E+02 -0.29570289058E+03 -0.16209318446E+04  0.27554538279E+04  0.22082856254E+04 0.  0.
         23    2    3    3    0    0 -0.21517307018E+02 -0.55336276121E+02  0.26351784593E+03  0.28465092684E+03  0.89774144776E+02 0.  0.
        -15    1    4    4    0    0 -0.20867521996E+02 -0.75976979858E+02  0.15168886359E+03  0.17093117410E+03  0.00000000000E+00 0. -1.
        -15    1    3    3    0    0  0.30447868444E+03 -0.22137925932E+02 -0.14396937531E+04  0.14717049500E+04  0.00000000000E+00 0.  1.
         15    1    4    4    0    0 -0.64978502124E+00  0.20640703737E+02  0.11182898234E+03  0.11371975274E+03  0.00000000000E+00 0.  1.
         15    1    3    3    0    0 -0.50085103650E+03 -0.33054275477E+03 -0.20596900420E+03  0.63445528146E+03  0.00000000000E+00 0. -1.
        -16    1    1    2    0    0  0.17567783973E+03  0.34309179959E+03  0.43268538496E+03  0.57947504578E+03  0.00000000000E+00 0.  1.
         16    1    3    3    0    0  0.25165577206E+03  0.11231406624E+03 -0.23878693319E+03  0.36464266967E+03  0.00000000000E+00 0. -1.
    9900018    1    1    2    0    0 -0.20944395272E+03 -0.47388909014E+02 -0.13258830440E+03  0.26834178743E+03  0.91187600000E+02 0.  0.
<mgrwt>
<rscale>  0 0.33524551E+04</rscale>
<asrwt>0</asrwt>
<pdfrwt beam="1">  1        1 0.37877734E+00 0.33524551E+04</pdfrwt>
<pdfrwt beam="2">  1       -1 0.17557199E+00 0.33524551E+04</pdfrwt>
<totfact> 0.26629023E-01</totfact>
</mgrwt>
</event>
<event>
11    1  0.6259894E-010  0.3846962E+04  0.7818608E-02  0.8036151E-01
         -2   -1    0    0    0  501 -0.00000000000E+00  0.00000000000E+00  0.14931632244E+04  0.14931632244E+04  0.00000000000E+00 0.  1.
          2   -1    0    0  501    0  0.00000000000E+00 -0.00000000000E+00 -0.24778133733E+04  0.24778133733E+04  0.00000000000E+00 0. -1.
    9900016    2    1    2    0    0  0.98011152911E+03  0.10591563532E+03 -0.25331759997E+03  0.24286404777E+04  0.22050596437E+04 0.  0.
         23    2    3    3    0    0 -0.31763187098E+03  0.12360511459E+03  0.45877257246E+03  0.57894663154E+03  0.92405081663E+02 0.  0.
        -15    1    3    3    0    0  0.26116748595E+03  0.71333103766E+02  0.65628783244E+02  0.27857495329E+03  0.00000000000E+00 0.  1.
        -15    1    4    4    0    0 -0.18456314604E+03  0.25571770761E+02  0.26987854541E+03  0.32795106283E+03  0.00000000000E+00 0.  1.
         15    1    4    4    0    0 -0.13306872494E+03  0.98033343834E+02  0.18889402705E+03  0.25099556872E+03  0.00000000000E+00 0. -1.
         15    1    3    3    0    0  0.15211632551E+03  0.23473832645E+03 -0.52673248283E+03  0.59639631694E+03  0.00000000000E+00 0. -1.
        -16    1    3    3    0    0  0.88445958863E+03 -0.32376090949E+03 -0.25098647284E+03  0.97472257591E+03  0.00000000000E+00 0.  1.
         16    1    1    2    0    0 -0.78593779106E+03 -0.32499467439E+03 -0.86027669183E+03  0.12097089469E+04  0.00000000000E+00 0. -1.
    9900018    1    1    2    0    0 -0.19417373805E+03  0.21907903907E+03  0.12894414292E+03  0.33262717311E+03  0.91187600000E+02 0.  0.
<mgrwt>
<rscale>  0 0.38469623E+04</rscale>
<asrwt>0</asrwt>
<pdfrwt beam="1">  1        2 0.38120205E+00 0.38469623E+04</pdfrwt>
<pdfrwt beam="2">  1       -2 0.22971742E+00 0.38469623E+04</pdfrwt>
<totfact> 0.24586822E-01</totfact>
</mgrwt>
</event>
<event>
11    1  0.6259894E-010  0.3482138E+04  0.7818608E-02  0.8118036E-01
          1   -1    0    0  501    0  0.00000000000E+00  0.00000000000E+00  0.18153109647E+04  0.18153109647E+04  0.00000000000E+00 0. -1.
         -1   -1    0    0    0  501 -0.00000000000E+00 -0.00000000000E+00 -0.16698632166E+04  0.16698632166E+04  0.00000000000E+00 0.  1.
    9900016    2    1    2    0    0 -0.47279834513E+02  0.54689003155E+03 -0.22104406230E+03  0.22774245737E+04  0.21991994276E+04 0.  0.
         23    2    3    3    0    0  0.37328726366E+03  0.26352579437E+02 -0.69627641416E+03  0.79578283329E+03  0.91823924862E+02 0.  0.
        -15    1    3    3    0    0 -0.49920258540E+03 -0.84180428407E+02  0.92519424819E+02  0.51463522010E+03  0.00000000000E+00 0.  1.
        -15    1    4    4    0    0  0.14454522670E+03 -0.20653847927E+02 -0.20338301316E+03  0.25036883600E+03  0.00000000000E+00 0. -1.
         15    1    4    4    0    0  0.22874203696E+03  0.47006427364E+02 -0.49289340100E+03  0.54541399729E+03  0.00000000000E+00 0.  1.
         15    1    3    3    0    0  0.86900047292E+02 -0.92939693793E+00  0.34977326224E+03  0.36040784811E+03  0.00000000000E+00 0. -1.
        -16    1    3    3    0    0 -0.82645600730E+01  0.60564727745E+03  0.32939664804E+02  0.60659867224E+03  0.00000000000E+00 0.  1.
         16    1    1    2    0    0  0.19523838848E+01 -0.77471118452E+03  0.50263429021E+03  0.92348387150E+03  0.00000000000E+00 0. -1.
    9900018    1    1    2    0    0  0.45327450628E+02  0.22782115297E+03 -0.13614247983E+03  0.28426573612E+03  0.91187600000E+02 0.  0.
<mgrwt>
<rscale>  0 0.34821379E+04</rscale>
<asrwt>0</asrwt>
<pdfrwt beam="1">  1        1 0.27927861E+00 0.34821379E+04</pdfrwt>
<pdfrwt beam="2">  1       -1 0.25690203E+00 0.34821379E+04</pdfrwt>
<totfact> 0.20427035E-01</totfact>
</mgrwt>
</event>
<event>
12    1  0.6259894E-010  0.3196497E+04  0.7818608E-02  0.8189743E-01
         -2   -1    0    0    0  501 -0.00000000000E+00  0.00000000000E+00  0.20926820227E+04  0.20926820227E+04  0.00000000000E+00 0.  1.
          2   -1    0    0  501    0  0.00000000000E+00 -0.00000000000E+00 -0.12206334170E+04  0.12206334170E+04  0.00000000000E+00 0. -1.
    9900016    2    1    2    0    0 -0.16809551990E+03  0.63915125595E+02  0.35733274611E+03  0.22362018209E+04  0.22001296882E+04 0.  0.
         24    2    3    3    0    0 -0.29039028600E+03  0.86734041519E+03  0.77224155245E+03  0.12015116016E+04  0.10328213501E+03 0.  0.
         23    2    3    3    0    0  0.14554402414E+03 -0.41900232399E+03 -0.46168699655E+03  0.64673436667E+03  0.91457354977E+02 0.  0.
        -15    1    4    4    0    0 -0.44595319208E+02  0.28189459891E+03  0.23039767833E+03  0.36679203586E+03  0.00000000000E+00 0.  1.
        -15    1    5    5    0    0  0.15255404350E+03 -0.32935597546E+03 -0.37006778745E+03  0.51836113094E+03  0.00000000000E+00 0.  1.
         15    1    3    3    0    0 -0.23249258040E+02 -0.38442296561E+03  0.46778190212E+02  0.38795585260E+03  0.00000000000E+00 0. -1.
         15    1    5    5    0    0 -0.70100193655E+01 -0.89646348529E+02 -0.91619209106E+02  0.12837323574E+03  0.00000000000E+00 0. -1.
        -16    1    1    2    0    0  0.34599463066E+02 -0.22882914670E+03  0.72729587449E+03  0.76322944798E+03  0.00000000000E+00 0.  1.
         16    1    4    4    0    0 -0.24579496679E+03  0.58544581627E+03  0.54184387412E+03  0.83471956573E+03  0.00000000000E+00 0. -1.
    9900018    1    1    2    0    0  0.13349605684E+03  0.16491402110E+03 -0.21258001497E+03  0.31388417084E+03  0.91187600000E+02 0.  0.
<mgrwt>
<rscale>  0 0.31964966E+04</rscale>
<asrwt>0</asrwt>
<pdfrwt beam="1">  1        2 0.18778976E+00 0.31964966E+04</pdfrwt>
<pdfrwt beam="2">  1       -2 0.32195108E+00 0.31964966E+04</pdfrwt>
<totfact> 0.36107213E-01</totfact>
</mgrwt>
</event>
<event>
11    1  0.7671135E-010  0.4101214E+04  0.7818608E-02  0.7984434E-01
          1   -1    0    0  501    0  0.00000000000E+00  0.00000000000E+00  0.41412748942E+04  0.41412748942E+04  0.00000000000E+00 0. -1.
         -1   -1    0    0    0  501 -0.00000000000E+00 -0.00000000000E+00 -0.10153849866E+04  0.10153849866E+04  0.00000000000E+00 0.  1.
    9900016    2    1    2    0    0 -0.57504266540E+03  0.12557436851E+04  0.17378515715E+04  0.31243381788E+04  0.21985892526E+04 0.  0.
         23    2    3    3    0    0  0.35564244926E+03 -0.61892312148E+02  0.85990057228E+03  0.93709664558E+03  0.91700157747E+02 0.  0.
        -15    1    3    3    0    0  0.14078973581E+03 -0.51583092195E+02 -0.72041352316E+02  0.16635059829E+03  0.00000000000E+00 0.  1.
        -15    1    4    4    0    0  0.90214561143E+02 -0.42108816589E+02  0.16179355941E+03  0.18997098553E+03  0.00000000000E+00 0.  1.
         15    1    3    3    0    0 -0.90521973485E+02  0.16697803123E+03  0.26185099757E+03  0.32348390304E+03  0.00000000000E+00 0. -1.
         15    1    4    4    0    0  0.26542788812E+03 -0.19783495559E+02  0.69810701287E+03  0.74712566005E+03  0.00000000000E+00 0. -1.
        -16    1    3    3    0    0 -0.98095287699E+03  0.12022410583E+04  0.68814135392E+03  0.16974070319E+04  0.00000000000E+00 0.  1.
         16    1    1    2    0    0  0.38583960367E+03 -0.63619320071E+03  0.10742816813E+04  0.13067880927E+04  0.00000000000E+00 0. -1.
    9900018    1    1    2    0    0  0.18920306173E+03 -0.61955048443E+03  0.31375665489E+03  0.72553360929E+03  0.91187600000E+02 0.  0.
<mgrwt>
<rscale>  0 0.41012137E+04</rscale>
<asrwt>0</asrwt>
<pdfrwt beam="1">  1        1 0.63711920E+00 0.41012137E+04</pdfrwt>
<pdfrwt beam="2">  1       -1 0.15621308E+00 0.41012137E+04</pdfrwt>
<totfact> 0.17302508E-02</totfact>
</mgrwt>
</event>
<event>
11    1  0.6259894E-010  0.3464821E+04  0.7818608E-02  0.8122178E-01
          1   -1    0    0  501    0  0.00000000000E+00  0.00000000000E+00  0.12995812695E+04  0.12995812695E+04  0.00000000000E+00 0. -1.
         -1   -1    0    0    0  501 -0.00000000000E+00 -0.00000000000E+00 -0.23093950680E+04  0.23093950680E+04  0.00000000000E+00 0.  1.
    9900016    2    1    2    0    0  0.31508800786E+03 -0.22953273238E+03 -0.68544552790E+03  0.23283200282E+04  0.21907242761E+04 0.  0.
         23    2    3    3    0    0  0.46054974934E+03  0.22891842671E+03 -0.55245572493E+03  0.76083937255E+03  0.95705303458E+02 0.  0.
        -15    1    4    4    0    0  0.31888457687E+02  0.24336720671E+02 -0.87074423957E+02  0.95870250933E+02  0.00000000000E+00 0.  1.
        -15    1    3    3    0    0 -0.34632373308E+02 -0.66461475825E+03  0.18652143208E+03  0.69116020053E+03  0.00000000000E+00 0.  1.
         15    1    3    3    0    0  0.25956919181E+03  0.27091335646E+03  0.11493546684E+02  0.37536956944E+03  0.00000000000E+00 0. -1.
         15    1    4    4    0    0  0.42866129166E+03  0.20458170604E+03 -0.46538130097E+03  0.66496912162E+03  0.00000000000E+00 0. -1.
        -16    1    1    2    0    0 -0.44862387066E+02  0.53761255572E+03 -0.57761507113E+03  0.79036641138E+03  0.00000000000E+00 0.  1.
         16    1    3    3    0    0 -0.37039855998E+03 -0.64749757301E+02 -0.33100478173E+03  0.50095088565E+03  0.00000000000E+00 0. -1.
    9900018    1    1    2    0    0 -0.27022562080E+03 -0.30807982334E+03  0.25324680054E+03  0.49028989798E+03  0.91187600000E+02 0.  0.
<mgrwt>
<rscale>  0 0.34648213E+04</rscale>
<asrwt>0</asrwt>
<pdfrwt beam="1">  1        1 0.19993558E+00 0.34648213E+04</pdfrwt>
<pdfrwt beam="2">  1       -1 0.35529155E+00 0.34648213E+04</pdfrwt>
<totfact> 0.10608319E-01</totfact>
</mgrwt>
</event>
<event>
11    1  0.6259894E-010  0.4009463E+04  0.7818608E-02  0.8002640E-01
          1   -1    0    0  501    0  0.00000000000E+00  0.00000000000E+00  0.19421322943E+04  0.19421322943E+04  0.00000000000E+00 0. -1.
         -1   -1    0    0    0  501 -0.00000000000E+00 -0.00000000000E+00 -0.20693482815E+04  0.20693482815E+04  0.00000000000E+00 0.  1.
    9900016    2    1    2    0    0  0.74520911951E+03  0.10149404195E+03 -0.10164286169E+04  0.25373127943E+04  0.21998162220E+04 0.  0.
         23    2    3    3    0    0 -0.40807349668E+02  0.30295619906E+03 -0.47060248255E+03  0.56857677765E+03  0.91461233145E+02 0.  0.
        -15    1    4    4    0    0  0.11788428133E+02  0.22310034401E+03 -0.33409987596E+03  0.40191473928E+03  0.00000000000E+00 0. -1.
        -15    1    3    3    0    0  0.50872233942E+03 -0.20702982837E+03 -0.11566472709E+04  0.12804267561E+04  0.00000000000E+00 0.  1.
         15    1    4    4    0    0 -0.52595777801E+02  0.79855855046E+02 -0.13650260659E+03  0.16666203837E+03  0.00000000000E+00 0.  1.
         15    1    3    3    0    0  0.23638267094E+03 -0.41530058259E+02  0.38201533590E+03  0.45115100546E+03  0.00000000000E+00 0. -1.
        -16    1    3    3    0    0  0.40911458813E+02  0.47097729510E+02  0.22880580059E+03  0.23715825512E+03  0.00000000000E+00 0.  1.
         16    1    1    2    0    0 -0.66267910023E+03 -0.30826769854E+03  0.97519492914E+03  0.12186786753E+04  0.00000000000E+00 0. -1.
    9900018    1    1    2    0    0 -0.82530019279E+02  0.20677365660E+03 -0.85982299421E+02  0.25548910613E+03  0.91187600000E+02 0.  0.
<mgrwt>
<rscale>  0 0.40094629E+04</rscale>
<asrwt>0</asrwt>
<pdfrwt beam="1">  1        1 0.29878958E+00 0.40094629E+04</pdfrwt>
<pdfrwt beam="2">  1       -1 0.31836127E+00 0.40094629E+04</pdfrwt>
<totfact> 0.63987382E-02</totfact>
</mgrwt>
</event>
<event>
11    1  0.6259894E-010  0.3910343E+04  0.7818608E-02  0.8022881E-01
          1   -1    0    0  501    0  0.00000000000E+00  0.00000000000E+00  0.26537770635E+04  0.26537770635E+04  0.00000000000E+00 0. -1.
         -1   -1    0    0    0  501 -0.00000000000E+00 -0.00000000000E+00 -0.14404735409E+04  0.14404735409E+04  0.00000000000E+00 0.  1.
    9900016    2    1    2    0    0 -0.29287968487E+03 -0.53192849122E+03  0.11901574488E+03  0.22866863517E+04  0.22013730474E+04 0.  0.
         23    2    3    3    0    0  0.14965249810E+03 -0.14583569276E+03 -0.16243422832E+03  0.27979267797E+03  0.90747697735E+02 0.  0.
        -15    1    3    3    0    0  0.55724274031E+02 -0.29924077555E+03  0.81225255609E+02  0.31503615446E+03  0.00000000000E+00 0.  1.
        -15    1    4    4    0    0  0.45184752087E+02 -0.10661784374E+03 -0.91303329643E+02  0.14746295952E+03  0.00000000000E+00 0. -1.
         15    1    3    3    0    0 -0.10089701228E+04  0.26782144179E+03  0.18566322800E+02  0.10440755441E+04  0.00000000000E+00 0. -1.
         15    1    4    4    0    0  0.10446774601E+03 -0.39217849013E+02 -0.71130898680E+02  0.13232971845E+03  0.00000000000E+00 0.  1.
        -16    1    3    3    0    0  0.51071366581E+03 -0.35467346471E+03  0.18165839479E+03  0.64778197521E+03  0.00000000000E+00 0.  1.
         16    1    1    2    0    0  0.21878401225E+03  0.74881702718E+03  0.12798646992E+04  0.14988819274E+04  0.00000000000E+00 0. -1.
    9900018    1    1    2    0    0  0.74095672621E+02 -0.21688853596E+03 -0.18557692151E+03  0.30868232526E+03  0.91187600000E+02 0.  0.
<mgrwt>
<rscale>  0 0.39103430E+04</rscale>
<asrwt>0</asrwt>
<pdfrwt beam="1">  1        1 0.40827340E+00 0.39103430E+04</pdfrwt>
<pdfrwt beam="2">  1       -1 0.22161131E+00 0.39103430E+04</pdfrwt>
<totfact> 0.89517659E-02</totfact>
</mgrwt>
</event>
<event>
11    1  0.6259894E-010  0.2850717E+04  0.7818608E-02  0.8287693E-01
         -1   -1    0    0    0  501 -0.00000000000E+00  0.00000000000E+00  0.10966451596E+04  0.10966451596E+04  0.00000000000E+00 0.  1.
          1   -1    0    0  501    0  0.00000000000E+00 -0.00000000000E+00 -0.18526023715E+04  0.18526023715E+04  0.00000000000E+00 0. -1.
    9900016    2    1    2    0    0  0.14954704388E+03  0.45055523118E+03 -0.67736917314E+03  0.23199769700E+04  0.21675100484E+04 0.  0.
         23    2    3    3    0    0 -0.24283795405E+03 -0.71809746507E+02  0.12278282688E+03  0.29519160863E+03  0.89081713079E+02 0.  0.
        -15    1    4    4    0    0 -0.17697774222E+03 -0.22743659164E+02  0.49626687343E+02  0.18520584054E+03  0.00000000000E+00 0.  1.
        -15    1    3    3    0    0  0.17141770365E+02  0.20084687622E+03  0.24835184297E+03  0.31986238586E+03  0.00000000000E+00 0.  1.
         15    1    4    4    0    0 -0.65860211835E+02 -0.49066087343E+02  0.73156139537E+02  0.10998576809E+03  0.00000000000E+00 0. -1.
         15    1    3    3    0    0  0.46150464774E+03 -0.25097613445E+03 -0.21262131834E+02  0.52576386163E+03  0.00000000000E+00 0. -1.
        -16    1    3    3    0    0 -0.86261420174E+02  0.57249423591E+03 -0.10272417112E+04  0.11791591139E+04  0.00000000000E+00 0.  1.
         16    1    1    2    0    0 -0.15477097227E+03 -0.42464218469E+03 -0.18348069847E+03  0.48779114956E+03  0.00000000000E+00 0. -1.
    9900018    1    1    2    0    0  0.52239283954E+01 -0.25913046490E+02  0.10489265970E+03  0.14147941143E+03  0.91187600000E+02 0.  0.
<mgrwt>
<rscale>  0 0.28507174E+04</rscale>
<asrwt>0</asrwt>
<pdfrwt beam="1">  1        1 0.28501574E+00 0.28507174E+04</pdfrwt>
<pdfrwt beam="2">  1       -1 0.16871464E+00 0.28507174E+04</pdfrwt>
<totfact> 0.81338388E-01</totfact>
</mgrwt>
</event>
<event>
11    1  0.6447226E-010  0.3508331E+04  0.7818608E-02  0.8111818E-01
          2   -1    0    0  501    0  0.00000000000E+00  0.00000000000E+00  0.28710243927E+04  0.28710243927E+04  0.00000000000E+00 0. -1.
         -2   -1    0    0    0  501 -0.00000000000E+00 -0.00000000000E+00 -0.10717767157E+04  0.10717767157E+04  0.00000000000E+00 0.  1.
    9900016    2    1    2    0    0 -0.42785456094E+03  0.36747160180E+03  0.80245304809E+03  0.24103157417E+04  0.22017257270E+04 0.  0.
         23    2    3    3    0    0  0.13937911960E+03  0.37276177102E+03  0.49638926133E+03  0.64287518262E+03  0.92240580828E+02 0.  0.
        -15    1    3    3    0    0 -0.66974852566E+02 -0.36947464550E+03  0.44208108110E+03  0.58002829829E+03  0.00000000000E+00 0.  1.
        -15    1    4    4    0    0  0.70244986139E+02  0.12639918272E+03  0.12089403782E+03  0.18848469394E+03  0.00000000000E+00 0. -1.
         15    1    3    3    0    0 -0.18834488445E+03  0.25850214813E+03  0.42798866358E+03  0.53429528563E+03  0.00000000000E+00 0. -1.
         15    1    4    4    0    0  0.69134133463E+02  0.24636258830E+03  0.37549522351E+03  0.45439048868E+03  0.00000000000E+00 0.  1.
        -16    1    1    2    0    0  0.16915184980E+03 -0.59269103951E+03  0.18029728777E+03  0.64218543162E+03  0.00000000000E+00 0.  1.
         16    1    3    3    0    0 -0.31191394353E+03  0.10568232814E+03 -0.56400595793E+03  0.65311697515E+03  0.00000000000E+00 0. -1.
    9900018    1    1    2    0    0  0.25870271114E+03  0.22521943772E+03  0.81649734115E+03  0.89029993507E+03  0.91187600000E+02 0.  0.
<mgrwt>
<rscale>  0 0.35083313E+04</rscale>
<asrwt>0</asrwt>
<pdfrwt beam="1">  1        2 0.44169606E+00 0.35083313E+04</pdfrwt>
<pdfrwt beam="2">  1       -2 0.16488873E+00 0.35083313E+04</pdfrwt>
<totfact> 0.39846299E-01</totfact>
</mgrwt>
</event>
<event>
11    1  0.6259894E-010  0.3582383E+04  0.7818608E-02  0.8094539E-01
          2   -1    0    0  501    0  0.00000000000E+00  0.00000000000E+00  0.22672919878E+04  0.22672919878E+04  0.00000000000E+00 0. -1.
         -2   -1    0    0    0  501 -0.00000000000E+00 -0.00000000000E+00 -0.14150657633E+04  0.14150657633E+04  0.00000000000E+00 0.  1.
    9900016    2    1    2    0    0  0.30220316095E+03 -0.42269559090E+03  0.46865098003E+03  0.23122604665E+04  0.22038412853E+04 0.  0.
         23    2    3    3    0    0  0.15714574074E+03 -0.10449648657E+03  0.34314064777E+03  0.40224916130E+03  0.91894418106E+02 0.  0.
        -15    1    4    4    0    0  0.43002342560E+01 -0.38503399815E+02  0.35986228018E+02  0.52877333697E+02  0.00000000000E+00 0.  1.
        -15    1    3    3    0    0 -0.23806064890E+02 -0.16539499952E+03 -0.10485215808E+03  0.19727191804E+03  0.00000000000E+00 0.  1.
         15    1    4    4    0    0  0.15284550648E+03 -0.65993086755E+02  0.30715441975E+03  0.34937182760E+03  0.00000000000E+00 0. -1.
         15    1    3    3    0    0 -0.65506905684E+03 -0.16485860502E+03  0.50582940787E+03  0.84389408029E+03  0.00000000000E+00 0. -1.
        -16    1    3    3    0    0  0.82393254193E+03  0.12054500212E+02 -0.27546691752E+03  0.86884530688E+03  0.00000000000E+00 0.  1.
         16    1    1    2    0    0 -0.58259834255E+03  0.66424177557E+03  0.43616039095E+03  0.98532931134E+03  0.00000000000E+00 0. -1.
    9900018    1    1    2    0    0  0.28039518161E+03 -0.24154618467E+03 -0.52585146432E+02  0.38476797322E+03  0.91187600000E+02 0.  0.
<mgrwt>
<rscale>  0 0.35823832E+04</rscale>
<asrwt>0</asrwt>
<pdfrwt beam="1">  1        2 0.34881415E+00 0.35823832E+04</pdfrwt>
<pdfrwt beam="2">  1       -2 0.21770243E+00 0.35823832E+04</pdfrwt>
<totfact> 0.39473057E-01</totfact>
</mgrwt>
</event>
<event>
12    1  0.6259894E-010  0.5004259E+04  0.7818608E-02  0.7827851E-01
         -1   -1    0    0    0  501 -0.00000000000E+00  0.00000000000E+00  0.29696051773E+04  0.29696051773E+04  0.00000000000E+00 0.  1.
          1   -1    0    0  501    0  0.00000000000E+00 -0.00000000000E+00 -0.21082437182E+04  0.21082437182E+04  0.00000000000E+00 0. -1.
    9900016    2    1    2    0    0  0.47365476615E+02  0.57260087611E+03 -0.14741217298E+03  0.22752761373E+04  0.21965964355E+04 0.  0.
        -24    2    3    3    0    0  0.40766923574E+02 -0.71804696853E+02 -0.10981456954E+03  0.16831387988E+03  0.97223793021E+02 0.  0.
         23    2    3    3    0    0  0.30653296592E+03  0.52594614351E+02 -0.93590665482E+03  0.99019907101E+03  0.88567945929E+02 0.  0.
        -15    1    3    3    0    0 -0.29993441288E+03  0.59181095861E+03  0.89830905137E+03  0.11167631864E+04  0.00000000000E+00 0.  1.
        -15    1    5    5    0    0  0.10131475165E+03  0.53124629163E+02 -0.41031121545E+03  0.42596032520E+03  0.00000000000E+00 0. -1.
         15    1    5    5    0    0  0.20521821427E+03 -0.53001481210E+00 -0.52559543937E+03  0.56423874581E+03  0.00000000000E+00 0.  1.
         15    1    4    4    0    0 -0.17129914509E+02 -0.57044375851E+02 -0.84598418750E+02  0.10346200869E+03  0.00000000000E+00 0. -1.
        -16    1    4    4    0    0  0.57896838083E+02 -0.14760321002E+02 -0.25216150787E+02  0.64851871188E+02  0.00000000000E+00 0.  1.
         16    1    1    2    0    0 -0.16425279561E+03 -0.11985320319E+04 -0.38335108363E+03  0.12690216963E+04  0.00000000000E+00 0. -1.
    9900018    1    1    2    0    0  0.11688731899E+03  0.62593115577E+03  0.13921247157E+04  0.15335510619E+04  0.91187600000E+02 0.  0.
<mgrwt>
<rscale>  0 0.50042588E+04</rscale>
<asrwt>0</asrwt>
<pdfrwt beam="1">  1        1 0.32434519E+00 0.50042588E+04</pdfrwt>
<pdfrwt beam="2">  1       -1 0.45686234E+00 0.50042588E+04</pdfrwt>
<totfact> 0.52835284E-03</totfact>
</mgrwt>
</event>
<event>
11    1  0.6259894E-010  0.4577421E+04  0.7818608E-02  0.7897221E-01
         -2   -1    0    0    0  501 -0.00000000000E+00  0.00000000000E+00  0.28982696207E+04  0.28982696207E+04  0.00000000000E+00 0.  1.
          2   -1    0    0  501    0  0.00000000000E+00 -0.00000000000E+00 -0.18073525935E+04  0.18073525935E+04  0.00000000000E+00 0. -1.
    9900016    2    1    2    0    0 -0.11369590751E+04  0.45721713395E+03  0.63862033359E+03  0.26157545036E+04  0.22209485016E+04 0.  0.
         23    2    3    3    0    0 -0.52838258018E+02 -0.74473089807E+02  0.22660920132E+03  0.26092547174E+03  0.91609219315E+02 0.  0.
        -15    1    4    4    0    0 -0.51823531006E+02 -0.13528774104E+02  0.16813425114E+03  0.17645915250E+03  0.00000000000E+00 0.  1.
        -15    1    3    3    0    0 -0.66762022153E+03  0.68757439669E+03  0.24992635003E+03  0.99042339008E+03  0.00000000000E+00 0.  1.
         15    1    4    4    0    0 -0.10147270121E+01 -0.60944315703E+02  0.58474950186E+02  0.84466319244E+02  0.00000000000E+00 0. -1.
         15    1    3    3    0    0  0.18990999532E+03 -0.70628573028E+02  0.58572194621E+03  0.61977770202E+03  0.00000000000E+00 0. -1.
        -16    1    1    2    0    0  0.50991239542E+03  0.54664394595E+03 -0.14417844639E+03  0.76132626321E+03  0.00000000000E+00 0.  1.
         16    1    3    3    0    0 -0.60641059087E+03 -0.85255599904E+02 -0.42363716396E+03  0.74462793980E+03  0.00000000000E+00 0. -1.
    9900018    1    1    2    0    0  0.62704667968E+03 -0.10038610799E+04  0.59647513995E+03  0.13285414473E+04  0.91187600000E+02 0.  0.
<mgrwt>
<rscale>  0 0.45774207E+04</rscale>
<asrwt>0</asrwt>
<pdfrwt beam="1">  1        2 0.27805425E+00 0.45774207E+04</pdfrwt>
<pdfrwt beam="2">  1       -2 0.44588763E+00 0.45774207E+04</pdfrwt>
<totfact> 0.23817462E-02</totfact>
</mgrwt>
</event>
<event>
11    1  0.6259894E-010  0.3258096E+04  0.7818608E-02  0.8173641E-01
         -2   -1    0    0    0  501 -0.00000000000E+00  0.00000000000E+00  0.13530602087E+04  0.13530602087E+04  0.00000000000E+00 0.  1.
          2   -1    0    0  501    0  0.00000000000E+00 -0.00000000000E+00 -0.19613293590E+04  0.19613293590E+04  0.00000000000E+00 0. -1.
    9900016    2    1    2    0    0  0.52957866425E+02  0.18362264971E+02 -0.43328621053E+03  0.22380982313E+04  0.21950410120E+04 0.  0.
         23    2    3    3    0    0 -0.38979486120E+03 -0.32659892759E+03  0.29828964467E+03  0.59639926452E+03  0.90047083682E+02 0.  0.
        -15    1    3    3    0    0  0.67524132762E+02  0.46171127206E+02  0.20007222293E+03  0.21614850423E+03  0.00000000000E+00 0.  1.
        -15    1    4    4    0    0 -0.64024018692E+02 -0.19343919246E+02  0.22928289913E+02  0.70703385065E+02  0.00000000000E+00 0.  1.
         15    1    3    3    0    0  0.60458994396E+02  0.27773147982E+03  0.13396241335E+03  0.31422283984E+03  0.00000000000E+00 0. -1.
         15    1    4    4    0    0 -0.32577084251E+03 -0.30725500834E+03  0.27536135476E+03  0.52569587946E+03  0.00000000000E+00 0. -1.
        -16    1    3    3    0    0  0.31476960047E+03  0.21058585540E+02 -0.10656104915E+04  0.11113276227E+04  0.00000000000E+00 0.  1.
         16    1    1    2    0    0 -0.95205971288E+02  0.33142347903E+03 -0.48713072799E+03  0.59682664616E+03  0.00000000000E+00 0. -1.
    9900018    1    1    2    0    0  0.42248104863E+02 -0.34978574400E+03  0.31214778820E+03  0.47946469020E+03  0.91187600000E+02 0.  0.
<mgrwt>
<rscale>  0 0.32580956E+04</rscale>
<asrwt>0</asrwt>
<pdfrwt beam="1">  1        2 0.30174298E+00 0.32580956E+04</pdfrwt>
<pdfrwt beam="2">  1       -2 0.20816311E+00 0.32580956E+04</pdfrwt>
<totfact> 0.69240265E-01</totfact>
</mgrwt>
</event>
<event>
11    1  0.6259894E-010  0.3289090E+04  0.7818608E-02  0.8165677E-01
         -1   -1    0    0    0  501 -0.00000000000E+00  0.00000000000E+00  0.15290735493E+04  0.15290735493E+04  0.00000000000E+00 0.  1.
          1   -1    0    0  501    0  0.00000000000E+00 -0.00000000000E+00 -0.17687364211E+04  0.17687364211E+04  0.00000000000E+00 0. -1.
    9900016    2    1    2    0    0 -0.77713500145E+03  0.32621091758E+03 -0.18740962576E+02  0.23568698705E+04  0.22009388882E+04 0.  0.
         23    2    3    3    0    0 -0.33176809092E+03  0.30754094572E+02  0.39758603838E+03  0.52695964934E+03  0.92714257951E+02 0.  0.
        -15    1    3    3    0    0 -0.12695609516E+03  0.19249404784E+03 -0.54889473764E+03  0.59536311740E+03  0.00000000000E+00 0.  1.
        -15    1    4    4    0    0 -0.22816152084E+03 -0.18837113620E+02  0.23694416921E+03  0.32947694269E+03  0.00000000000E+00 0.  1.
         15    1    3    3    0    0  0.83868489297E+02  0.10632154996E+03  0.60158232313E+03  0.61663561929E+03  0.00000000000E+00 0. -1.
         15    1    4    4    0    0 -0.10360657008E+03  0.49591208193E+02  0.16064186917E+03  0.19748270665E+03  0.00000000000E+00 0. -1.
        -16    1    1    2    0    0  0.21262526075E+03  0.64274419751E+02 -0.58853454136E+02  0.22979214870E+03  0.00000000000E+00 0.  1.
         16    1    3    3    0    0 -0.40227930466E+03 -0.33587747940E+01 -0.46901458644E+03  0.61791148446E+03  0.00000000000E+00 0. -1.
    9900018    1    1    2    0    0  0.56450974070E+03 -0.39048533733E+03 -0.16206845513E+03  0.71114795124E+03  0.91187600000E+02 0.  0.
<mgrwt>
<rscale>  0 0.32890899E+04</rscale>
<asrwt>0</asrwt>
<pdfrwt beam="1">  1        1 0.27211330E+00 0.32890899E+04</pdfrwt>
<pdfrwt beam="2">  1       -1 0.23524208E+00 0.32890899E+04</pdfrwt>
<totfact> 0.30961964E-01</totfact>
</mgrwt>
</event>
<event>
11    1  0.6259894E-010  0.3465344E+04  0.7818608E-02  0.8122053E-01
         -2   -1    0    0    0  501 -0.00000000000E+00  0.00000000000E+00  0.99022981617E+03  0.99022981617E+03  0.00000000000E+00 0. -1.
          2   -1    0    0  501    0  0.00000000000E+00 -0.00000000000E+00 -0.30317725295E+04  0.30317725295E+04  0.00000000000E+00 0.  1.
    9900016    2    1    2    0    0  0.16935221056E+02  0.87763110377E+03 -0.10281707667E+04  0.25801679521E+04  0.21976369991E+04 0.  0.
         23    2    3    3    0    0 -0.69936304318E+03  0.49886233134E+03 -0.43092201153E+03  0.96546736897E+03  0.91984611440E+02 0.  0.
        -15    1    3    3    0    0  0.10268382549E+03  0.32449324323E+03 -0.57085848475E+03  0.66461962244E+03  0.00000000000E+00 0.  1.
        -15    1    4    4    0    0 -0.66483673266E+03  0.48754795391E+03 -0.39431308800E+03  0.91388932580E+03  0.00000000000E+00 0.  1.
         15    1    3    3    0    0  0.88290330149E+02  0.24870094256E+03  0.21474022146E+03  0.34023624725E+03  0.00000000000E+00 0. -1.
         15    1    4    4    0    0 -0.34526310521E+02  0.11314377422E+02 -0.36608923537E+02  0.51578043170E+02  0.00000000000E+00 0. -1.
        -16    1    1    2    0    0 -0.23254005766E+03 -0.64082752176E+03 -0.77595775736E+03  0.10328820031E+04  0.00000000000E+00 0.  1.
         16    1    3    3    0    0  0.52532410859E+03 -0.19442541335E+03 -0.24113049184E+03  0.60984471345E+03  0.00000000000E+00 0. -1.
    9900018    1    1    2    0    0  0.21560483660E+03 -0.23680358201E+03 -0.23741418934E+03  0.40895239052E+03  0.91187600000E+02 0.  0.
<mgrwt>
<rscale>  0 0.34653436E+04</rscale>
<asrwt>0</asrwt>
<pdfrwt beam="1">  1        2 0.46642653E+00 0.34653436E+04</pdfrwt>
<pdfrwt beam="2">  1       -2 0.15234305E+00 0.34653436E+04</pdfrwt>
<totfact> 0.39365858E-01</totfact>
</mgrwt>
</event>
<event>
11    1  0.6259894E-010  0.2632670E+04  0.7818608E-02  0.8357188E-01
          1   -1    0    0  501    0  0.00000000000E+00  0.00000000000E+00  0.25233184077E+04  0.25233184077E+04  0.00000000000E+00 0. -1.
         -1   -1    0    0    0  501 -0.00000000000E+00 -0.00000000000E+00 -0.68669022804E+03  0.68669022804E+03  0.00000000000E+00 0.  1.
    9900016    2    1    2    0    0  0.59741134032E+02  0.11952231988E+02  0.12615791478E+04  0.25321496543E+04  0.21946498734E+04 0.  0.
         23    2    3    3    0    0 -0.36184570850E+03 -0.23686966603E+03  0.28326208115E+03  0.52493490313E+03  0.90992804457E+02 0.  0.
        -15    1    3    3    0    0  0.76892575821E+02  0.99593072463E+02 -0.44189758982E+02  0.13335660125E+03  0.00000000000E+00 0.  1.
        -15    1    4    4    0    0 -0.26240795140E+03 -0.20059676950E+03  0.17609357645E+03  0.37430728627E+03  0.00000000000E+00 0.  1.
         15    1    4    4    0    0 -0.99437757104E+02 -0.36272896530E+02  0.10716850471E+03  0.15062761686E+03  0.00000000000E+00 0. -1.
         15    1    3    3    0    0 -0.44733957466E+03  0.13942807614E+03 -0.11994654131E+03  0.48367350170E+03  0.00000000000E+00 0. -1.
        -16    1    1    2    0    0  0.51655855032E+02  0.81159166742E+02  0.21784909153E+02  0.98639342922E+02  0.00000000000E+00 0.  1.
         16    1    3    3    0    0  0.79203384137E+03  0.98007494116E+01  0.11424533669E+04  0.13901846482E+04  0.00000000000E+00 0. -1.
    9900018    1    1    2    0    0 -0.11139698906E+03 -0.93111398730E+02  0.55326412279E+03  0.57921963857E+03  0.91187600000E+02 0.  0.
<mgrwt>
<rscale>  0 0.26326702E+04</rscale>
<asrwt>0</asrwt>
<pdfrwt beam="1">  1        1 0.38820283E+00 0.26326702E+04</pdfrwt>
<pdfrwt beam="2">  1       -1 0.10564465E+00 0.26326702E+04</pdfrwt>
<totfact> 0.96159616E-01</totfact>
</mgrwt>
</event>
<event>
11    1  0.6259894E-010  0.5104629E+04  0.7818608E-02  0.7812567E-01
         -2   -1    0    0    0  501 -0.00000000000E+00  0.00000000000E+00  0.16784267834E+04  0.16784267834E+04  0.00000000000E+00 0.  1.
          2   -1    0    0  501    0  0.00000000000E+00 -0.00000000000E+00 -0.38812002377E+04  0.38812002377E+04  0.00000000000E+00 0. -1.
    9900016    2    1    2    0    0  0.74243330386E+03  0.14837079803E+04 -0.17713953561E+04  0.32772146921E+04  0.22022029990E+04 0.  0.
         23    2    3    3    0    0  0.78931760481E+02 -0.13479770979E+03 -0.43429155603E+03  0.47039156619E+03  0.90875874286E+02 0.  0.
        -15    1    3    3    0    0  0.68405942607E+02  0.10130153893E+04 -0.30646675598E+03  0.10605665583E+04  0.00000000000E+00 0.  1.
        -15    1    4    4    0    0  0.66068070047E+01 -0.89813011024E+02 -0.16532832846E+03  0.18826439664E+03  0.00000000000E+00 0. -1.
         15    1    4    4    0    0  0.72324953476E+02 -0.44984698768E+02 -0.26896322757E+03  0.28212716956E+03  0.00000000000E+00 0.  1.
         15    1    3    3    0    0  0.12291887185E+03 -0.33283352850E+03 -0.20157006365E+03  0.40806580022E+03  0.00000000000E+00 0. -1.
        -16    1    1    2    0    0 -0.88240162284E+03 -0.15551454917E+03 -0.87308739254E+02  0.90024453064E+03  0.00000000000E+00 0.  1.
         16    1    3    3    0    0  0.47217672893E+03  0.93832382926E+03 -0.82906698044E+03  0.13381907674E+04  0.00000000000E+00 0. -1.
    9900018    1    1    2    0    0  0.13996831898E+03 -0.13281934311E+04 -0.34406935890E+03  0.13821677984E+04  0.91187600000E+02 0.  0.
<mgrwt>
<rscale>  0 0.51046294E+04</rscale>
<asrwt>0</asrwt>
<pdfrwt beam="1">  1        2 0.59710773E+00 0.51046294E+04</pdfrwt>
<pdfrwt beam="2">  1       -2 0.25821950E+00 0.51046294E+04</pdfrwt>
<totfact> 0.17496025E-02</totfact>
</mgrwt>
</event>
<event>
11    1  0.6259894E-010  0.3337604E+04  0.7818608E-02  0.8153392E-01
          2   -1    0    0  501    0  0.00000000000E+00  0.00000000000E+00  0.14959862912E+04  0.14959862912E+04  0.00000000000E+00 0.  1.
         -2   -1    0    0    0  501 -0.00000000000E+00 -0.00000000000E+00 -0.18615811703E+04  0.18615811703E+04  0.00000000000E+00 0. -1.
    9900016    2    1    2    0    0 -0.42209290576E+03 -0.35805609258E+03 -0.99371057211E+02  0.22757329912E+04  0.22051574668E+04 0.  0.
         23    2    3    3    0    0  0.48673660884E+03  0.18588582536E+03 -0.27731755471E+03  0.59702137216E+03  0.89796582416E+02 0.  0.
        -15    1    3    3    0    0  0.10424935576E+03  0.81647944568E+02  0.15220186173E+03  0.20174172038E+03  0.00000000000E+00 0.  1.
        -15    1    4    4    0    0  0.90231904211E+02 -0.11048266868E+01 -0.51317793640E+02  0.10381008199E+03  0.00000000000E+00 0.  1.
         15    1    4    4    0    0  0.39650470463E+03  0.18699065205E+03 -0.22599976107E+03  0.49321129017E+03  0.00000000000E+00 0. -1.
         15    1    3    3    0    0 -0.94454521835E+02 -0.21174656688E+03  0.34886453482E+03  0.41888510230E+03  0.00000000000E+00 0. -1.
        -16    1    3    3    0    0 -0.91862434852E+03 -0.41384329563E+03 -0.32311989905E+03  0.10580847963E+04  0.00000000000E+00 0.  1.
         16    1    1    2    0    0  0.58451984956E+02 -0.28798993271E+03 -0.16782518462E+02  0.29434076988E+03  0.00000000000E+00 0. -1.
    9900018    1    1    2    0    0  0.36364092080E+03  0.64604602529E+03 -0.24944130338E+03  0.78749370049E+03  0.91187600000E+02 0.  0.
<mgrwt>
<rscale>  0 0.33376039E+04</rscale>
<asrwt>0</asrwt>
<pdfrwt beam="1">  1        2 0.23015174E+00 0.33376039E+04</pdfrwt>
<pdfrwt beam="2">  1       -2 0.28639710E+00 0.33376039E+04</pdfrwt>
<totfact> 0.40895115E-01</totfact>
</mgrwt>
</event>
<event>
11    1  0.6259894E-010  0.3749832E+04  0.7818608E-02  0.8057007E-01
         -2   -1    0    0    0  501 -0.00000000000E+00  0.00000000000E+00  0.21198692507E+04  0.21198692507E+04  0.00000000000E+00 0.  1.
          2   -1    0    0  501    0  0.00000000000E+00 -0.00000000000E+00 -0.16582673355E+04  0.16582673355E+04  0.00000000000E+00 0. -1.
    9900016    2    1    2    0    0  0.27021118683E+03 -0.68681348898E+03  0.67716653307E+02  0.23312956375E+04  0.22103454368E+04 0.  0.
         23    2    3    3    0    0 -0.30041954177E+02 -0.10650918425E+03  0.31039063867E+03  0.34149243039E+03  0.89599141161E+02 0.  0.
        -15    1    3    3    0    0  0.29396201662E+03 -0.60759863695E+03  0.46291832440E+03  0.81846389407E+03  0.00000000000E+00 0.  1.
        -15    1    4    4    0    0 -0.54176499761E+02 -0.29612072913E+02  0.13004940421E+03  0.14396115978E+03  0.00000000000E+00 0.  1.
         15    1    3    3    0    0  0.22337339052E+03  0.38152579066E+03 -0.12877497979E+03  0.46047865960E+03  0.00000000000E+00 0. -1.
         15    1    4    4    0    0  0.24134545584E+02 -0.76897111338E+02  0.18034123445E+03  0.19753127061E+03  0.00000000000E+00 0. -1.
        -16    1    3    3    0    0 -0.21708226612E+03 -0.35423145844E+03 -0.57681732997E+03  0.71086065341E+03  0.00000000000E+00 0.  1.
         16    1    1    2    0    0  0.13188589356E+03  0.90555040539E+03  0.17652967498E+03  0.93197540299E+03  0.00000000000E+00 0. -1.
    9900018    1    1    2    0    0 -0.40209708040E+03 -0.21873691641E+03  0.21735558684E+03  0.51486554574E+03  0.91187600000E+02 0.  0.
<mgrwt>
<rscale>  0 0.37498320E+04</rscale>
<asrwt>0</asrwt>
<pdfrwt beam="1">  1        2 0.25511805E+00 0.37498320E+04</pdfrwt>
<pdfrwt beam="2">  1       -2 0.32613373E+00 0.37498320E+04</pdfrwt>
<totfact> 0.18271528E-01</totfact>
</mgrwt>
</event>
<event>
11    1  0.6259894E-010  0.3184646E+04  0.7818608E-02  0.8192884E-01
          1   -1    0    0  501    0  0.00000000000E+00  0.00000000000E+00  0.15231802551E+04  0.15231802551E+04  0.00000000000E+00 0. -1.
         -1   -1    0    0    0  501 -0.00000000000E+00 -0.00000000000E+00 -0.16646041337E+04  0.16646041337E+04  0.00000000000E+00 0.  1.
    9900016    2    1    2    0    0 -0.24603186473E+03 -0.30370291325E+03  0.59816033225E+03  0.23185308846E+04  0.22056796099E+04 0.  0.
         23    2    3    3    0    0 -0.71487285397E+01  0.18212700780E+03 -0.24230772606E+02  0.20513466539E+03  0.90949157865E+02 0.  0.
        -15    1    4    4    0    0 -0.27991031990E+02  0.56442325612E+02 -0.43114096841E+02  0.76341727376E+02  0.00000000000E+00 0. -1.
        -15    1    3    3    0    0 -0.64045455741E+01 -0.42672047765E+03  0.18768938462E+03  0.46621742712E+03  0.00000000000E+00 0.  1.
         15    1    4    4    0    0  0.20842303451E+02  0.12568468218E+03  0.18883324235E+02  0.12879293802E+03  0.00000000000E+00 0.  1.
         15    1    3    3    0    0  0.58470308693E+03  0.26322181673E+03 -0.51259094491E+02  0.64326582331E+03  0.00000000000E+00 0. -1.
        -16    1    1    2    0    0  0.19939318680E+03  0.16646805103E+03 -0.57856777008E+03  0.63420022039E+03  0.00000000000E+00 0.  1.
         16    1    3    3    0    0 -0.81718167754E+03 -0.32233126013E+03  0.48596081472E+03  0.10039129687E+04  0.00000000000E+00 0. -1.
    9900018    1    1    2    0    0  0.46638677927E+02  0.13723486222E+03 -0.16101644069E+03  0.23505328386E+03  0.91187600000E+02 0.  0.
<mgrwt>
<rscale>  0 0.31846458E+04</rscale>
<asrwt>0</asrwt>
<pdfrwt beam="1">  1        1 0.23433542E+00 0.31846458E+04</pdfrwt>
<pdfrwt beam="2">  1       -1 0.25609294E+00 0.31846458E+04</pdfrwt>
<totfact> 0.33598749E-01</totfact>
</mgrwt>
</event>
<event>
11    1  0.6259894E-010  0.3546913E+04  0.7818608E-02  0.8102761E-01
          2   -1    0    0  501    0  0.00000000000E+00  0.00000000000E+00  0.17420970416E+04  0.17420970416E+04  0.00000000000E+00 0. -1.
         -2   -1    0    0    0  501 -0.00000000000E+00 -0.00000000000E+00 -0.18053801991E+04  0.18053801991E+04  0.00000000000E+00 0.  1.
    9900016    2    1    2    0    0 -0.68732797146E+03 -0.59444702581E+03 -0.34318095650E+03  0.24405511208E+04  0.22389125926E+04 0.  0.
         23    2    3    3    0    0  0.23731447797E+03 -0.51411052382E+02 -0.25823332497E+03  0.36584103208E+03  0.90520455491E+02 0.  0.
        -15    1    3    3    0    0 -0.19717562347E+03 -0.64671678850E+03 -0.12463721612E+03  0.68749928485E+03  0.00000000000E+00 0.  1.
        -15    1    4    4    0    0  0.69283137753E+02  0.61316914610E+01 -0.12772948190E+03  0.14543923598E+03  0.00000000000E+00 0. -1.
         15    1    3    3    0    0 -0.20556279857E+03  0.34342895257E+03  0.50758554112E+03  0.64640744981E+03  0.00000000000E+00 0. -1.
         15    1    4    4    0    0  0.16803134022E+03 -0.57542743843E+02 -0.13050384308E+03  0.22040179609E+03  0.00000000000E+00 0.  1.
        -16    1    3    3    0    0 -0.52190402739E+03 -0.23974813749E+03 -0.46789595653E+03  0.74080335405E+03  0.00000000000E+00 0.  1.
         16    1    1    2    0    0  0.52371780418E+03  0.44947868184E+03  0.44232150730E+03  0.81973150461E+03  0.00000000000E+00 0. -1.
    9900018    1    1    2    0    0  0.16361016729E+03  0.14496834397E+03 -0.16242370831E+03  0.28719461521E+03  0.91187600000E+02 0.  0.
<mgrwt>
<rscale>  0 0.35469127E+04</rscale>
<asrwt>0</asrwt>
<pdfrwt beam="1">  1        2 0.26801493E+00 0.35469127E+04</pdfrwt>
<pdfrwt beam="2">  1       -2 0.27775080E+00 0.35469127E+04</pdfrwt>
<totfact> 0.33060177E-01</totfact>
</mgrwt>
</event>
<event>
11    1  0.6259894E-010  0.2667019E+04  0.7818608E-02  0.8345786E-01
          2   -1    0    0  501    0  0.00000000000E+00  0.00000000000E+00  0.11472735483E+04  0.11472735483E+04  0.00000000000E+00 0. -1.
         -2   -1    0    0    0  501 -0.00000000000E+00 -0.00000000000E+00 -0.15499768436E+04  0.15499768436E+04  0.00000000000E+00 0.  1.
    9900016    2    1    2    0    0 -0.12341343174E+03 -0.32746747591E+02 -0.37386065322E+03  0.22225317711E+04  0.21871379611E+04 0.  0.
         23    2    3    3    0    0  0.88065790826E+02  0.19224884827E+03  0.11736085042E+02  0.23062853921E+03  0.91304897088E+02 0.  0.
        -15    1    4    4    0    0  0.96871386485E+01  0.12509810189E+03  0.20130084751E+02  0.12707712643E+03  0.00000000000E+00 0.  1.
        -15    1    3    3    0    0 -0.66698327717E+02 -0.32285122821E+03  0.29410205396E+03  0.44178909065E+03  0.00000000000E+00 0.  1.
         15    1    4    4    0    0  0.78378652178E+02  0.67150746381E+02 -0.83939997100E+01  0.10355141278E+03  0.00000000000E+00 0. -1.
         15    1    3    3    0    0 -0.22543688399E+03  0.25516823098E+03 -0.10693425821E+04  0.11222415839E+04  0.00000000000E+00 0. -1.
        -16    1    1    2    0    0  0.22165895634E+03 -0.10918852256E+03 -0.10051188790E+03  0.26675356791E+03  0.00000000000E+00 0.  1.
         16    1    3    3    0    0  0.80655989140E+02 -0.15731259863E+03  0.38964378993E+03  0.42787255731E+03  0.00000000000E+00 0. -1.
    9900018    1    1    2    0    0 -0.98245524593E+02  0.14193527015E+03  0.71669245783E+02  0.20796505284E+03  0.91187600000E+02 0.  0.
<mgrwt>
<rscale>  0 0.26670189E+04</rscale>
<asrwt>0</asrwt>
<pdfrwt beam="1">  1        2 0.17650362E+00 0.26670189E+04</pdfrwt>
<pdfrwt beam="2">  1       -2 0.23845797E+00 0.26670189E+04</pdfrwt>
<totfact> 0.13575088E+00</totfact>
</mgrwt>
</event>
<event>
11    1  0.6259894E-010  0.3132064E+04  0.7818608E-02  0.8206993E-01
         -1   -1    0    0    0  501 -0.00000000000E+00  0.00000000000E+00  0.82093811933E+03  0.82093811933E+03  0.00000000000E+00 0.  1.
          1   -1    0    0  501    0  0.00000000000E+00 -0.00000000000E+00 -0.29873819828E+04  0.29873819828E+04  0.00000000000E+00 0. -1.
    9900016    2    1    2    0    0 -0.27767129861E+03 -0.34098660780E+03 -0.12266753824E+04  0.25567585840E+04  0.21997519739E+04 0.  0.
         23    2    3    3    0    0 -0.14739274579E+03  0.88611839262E+02  0.25420316512E+03  0.31789218093E+03  0.82822158690E+02 0.  0.
        -15    1    4    4    0    0 -0.12590583906E+03  0.10033075496E+03  0.18915038909E+03  0.24838762126E+03  0.00000000000E+00 0. -1.
        -15    1    3    3    0    0  0.32957971199E+03  0.42441060351E+03 -0.22028951276E+03  0.58075349019E+03  0.00000000000E+00 0.  1.
         15    1    4    4    0    0 -0.21486906723E+02 -0.11718915699E+02  0.65052776029E+02  0.69504559669E+02  0.00000000000E+00 0.  1.
         15    1    3    3    0    0  0.38682771587E+02 -0.40035579186E+03 -0.43894691804E+03  0.59536166634E+03  0.00000000000E+00 0. -1.
        -16    1    3    3    0    0 -0.49854103640E+03 -0.45365325872E+03 -0.82164211675E+03  0.10627512466E+04  0.00000000000E+00 0.  1.
         16    1    1    2    0    0  0.24495282000E+02  0.44556708545E+03 -0.83064594835E+03  0.94292244537E+03  0.00000000000E+00 0. -1.
    9900018    1    1    2    0    0  0.25317601661E+03 -0.10458047765E+03 -0.10912253274E+03  0.30863907276E+03  0.91187600000E+02 0.  0.
<mgrwt>
<rscale>  0 0.31320637E+04</rscale>
<asrwt>0</asrwt>
<pdfrwt beam="1">  1        1 0.45959722E+00 0.31320637E+04</pdfrwt>
<pdfrwt beam="2">  1       -1 0.12629817E+00 0.31320637E+04</pdfrwt>
<totfact> 0.27998163E-01</totfact>
</mgrwt>
</event>
<event>
11    1  0.6259894E-010  0.3661144E+04  0.7818608E-02  0.8076628E-01
         -2   -1    0    0    0  501 -0.00000000000E+00  0.00000000000E+00  0.23416881428E+04  0.23416881428E+04  0.00000000000E+00 0.  1.
          2   -1    0    0  501    0  0.00000000000E+00 -0.00000000000E+00 -0.14310161776E+04  0.14310161776E+04  0.00000000000E+00 0. -1.
    9900016    2    1    2    0    0 -0.82577820143E+03 -0.14888698411E+03  0.38827760813E+03  0.23843926279E+04  0.21978379674E+04 0.  0.
         23    2    3    3    0    0  0.12627781446E+03  0.36517865927E+03  0.51620480325E+03  0.65128261362E+03  0.91652082883E+02 0.  0.
        -15    1    3    3    0    0 -0.39430377067E+03 -0.13489591176E+02  0.19861073795E+03  0.44170539714E+03  0.00000000000E+00 0.  1.
        -15    1    4    4    0    0  0.73818384139E+02  0.30514622796E+03  0.44357579642E+03  0.54343616133E+03  0.00000000000E+00 0. -1.
         15    1    4    4    0    0  0.52459430316E+02  0.60032431306E+02  0.72629006836E+02  0.10784645229E+03  0.00000000000E+00 0.  1.
         15    1    3    3    0    0  0.24806796612E+03 -0.34811830752E+03 -0.14548435586E+03  0.45154154809E+03  0.00000000000E+00 0. -1.
        -16    1    1    2    0    0  0.55316922026E+03  0.54332398358E+03  0.44544531367E+03  0.89421399276E+03  0.00000000000E+00 0.  1.
         16    1    3    3    0    0 -0.80582021133E+03 -0.15245774468E+03 -0.18105357721E+03  0.83986306903E+03  0.00000000000E+00 0. -1.
    9900018    1    1    2    0    0  0.27260898117E+03 -0.39443699947E+03  0.76949043397E+02  0.49409769969E+03  0.91187600000E+02 0.  0.
<mgrwt>
<rscale>  0 0.36611439E+04</rscale>
<asrwt>0</asrwt>
<pdfrwt beam="1">  1        2 0.22015633E+00 0.36611439E+04</pdfrwt>
<pdfrwt beam="2">  1       -2 0.36025971E+00 0.36611439E+04</pdfrwt>
<totfact> 0.15084966E-01</totfact>
</mgrwt>
</event>
<event>
11    1  0.6259894E-010  0.3022124E+04  0.7818608E-02  0.8237441E-01
         -1   -1    0    0    0  501 -0.00000000000E+00  0.00000000000E+00  0.94845948506E+03  0.94845948506E+03  0.00000000000E+00 0.  1.
          1   -1    0    0  501    0  0.00000000000E+00 -0.00000000000E+00 -0.24073866425E+04  0.24073866425E+04  0.00000000000E+00 0. -1.
    9900016    2    1    2    0    0 -0.20160129717E+03 -0.22739354122E+03 -0.12394447091E+04  0.25454703840E+04  0.22024634806E+04 0.  0.
         23    2    3    3    0    0 -0.58583997271E+03  0.11895453264E+02 -0.38827820715E+03  0.70875109814E+03  0.90654164438E+02 0.  0.
        -15    1    3    3    0    0 -0.24559944099E+03  0.46210870245E+03 -0.32007030144E+03  0.61343992058E+03  0.00000000000E+00 0.  1.
        -15    1    4    4    0    0 -0.24864806814E+02  0.19629845678E+02 -0.25270650874E+02  0.40524008375E+02  0.00000000000E+00 0. -1.
         15    1    3    3    0    0  0.18750534807E+03 -0.57987700647E+03 -0.44969555745E+03  0.75739137345E+03  0.00000000000E+00 0. -1.
         15    1    4    4    0    0 -0.56097516589E+03 -0.77343924135E+01 -0.36300755628E+03  0.66822708976E+03  0.00000000000E+00 0.  1.
        -16    1    3    3    0    0  0.44233276845E+03 -0.12152069047E+03 -0.81400643071E+02  0.46588799185E+03  0.00000000000E+00 0.  1.
         16    1    1    2    0    0 -0.34447374197E+02 -0.65231062456E+02 -0.38324412024E+03  0.39027909091E+03  0.00000000000E+00 0. -1.
    9900018    1    1    2    0    0  0.23604867137E+03  0.29262460368E+03  0.16376167195E+03  0.42009665260E+03  0.91187600000E+02 0.  0.
<mgrwt>
<rscale>  0 0.30221242E+04</rscale>
<asrwt>0</asrwt>
<pdfrwt beam="1">  1        1 0.37036717E+00 0.30221242E+04</pdfrwt>
<pdfrwt beam="2">  1       -1 0.14591685E+00 0.30221242E+04</pdfrwt>
<totfact> 0.50097338E-01</totfact>
</mgrwt>
</event>
<event>
11    1  0.6259894E-010  0.3507775E+04  0.7818608E-02  0.8111950E-01
          2   -1    0    0  501    0  0.00000000000E+00  0.00000000000E+00  0.19577626730E+04  0.19577626730E+04  0.00000000000E+00 0. -1.
         -2   -1    0    0    0  501 -0.00000000000E+00 -0.00000000000E+00 -0.15712436357E+04  0.15712436357E+04  0.00000000000E+00 0.  1.
    9900016    2    1    2    0    0  0.48901207329E+03 -0.40368041664E+03  0.39925399938E+03  0.23193838915E+04  0.21950050555E+04 0.  0.
         23    2    3    3    0    0  0.94046242674E+02 -0.51896081750E+02  0.42151994388E+02  0.15277618821E+03  0.10012928638E+03 0.  0.
        -15    1    3    3    0    0  0.10202530842E+04 -0.78791895707E+03  0.47435261757E+03  0.13735876545E+04  0.00000000000E+00 0.  1.
        -15    1    4    4    0    0  0.61114344060E+02 -0.38473802017E+02  0.75177517854E+02  0.10424421174E+03  0.00000000000E+00 0. -1.
         15    1    3    3    0    0 -0.55090364791E+03  0.42624866496E+03 -0.14770298451E+03  0.71203857009E+03  0.00000000000E+00 0. -1.
         15    1    4    4    0    0  0.32931898614E+02 -0.13422279733E+02 -0.33025523467E+02  0.48531976467E+02  0.00000000000E+00 0.  1.
        -16    1    3    3    0    0 -0.74383605681E+02  0.98859572221E+01  0.30452371930E+02  0.80981478750E+02  0.00000000000E+00 0.  1.
         16    1    1    2    0    0 -0.38282189667E+03 -0.18540837561E+03  0.30730779262E+03  0.52475418027E+03  0.00000000000E+00 0. -1.
    9900018    1    1    2    0    0 -0.10619017662E+03  0.58908879225E+03 -0.32004275469E+03  0.68486823695E+03  0.91187600000E+02 0.  0.
<mgrwt>
<rscale>  0 0.35077754E+04</rscale>
<asrwt>0</asrwt>
<pdfrwt beam="1">  1        2 0.30119426E+00 0.35077754E+04</pdfrwt>
<pdfrwt beam="2">  1       -2 0.24172979E+00 0.35077754E+04</pdfrwt>
<totfact> 0.41858882E-01</totfact>
</mgrwt>
</event>
<event>
11    1  0.6259894E-010  0.3571913E+04  0.7818608E-02  0.8096956E-01
          2   -1    0    0  501    0  0.00000000000E+00  0.00000000000E+00  0.29048005054E+04  0.29048005054E+04  0.00000000000E+00 0.  1.
         -2   -1    0    0    0  501 -0.00000000000E+00 -0.00000000000E+00 -0.10980586803E+04  0.10980586803E+04  0.00000000000E+00 0. -1.
    9900016    2    1    2    0    0  0.70155327529E+03  0.53032550847E+03  0.79472551112E+03  0.25017738319E+04  0.22031480942E+04 0.  0.
         23    2    3    3    0    0 -0.99930418117E+02  0.27886975980E+03  0.50196039532E+03  0.58946385494E+03  0.88028213790E+02 0.  0.
        -15    1    4    4    0    0 -0.58576604180E+02  0.51688149214E+02  0.12641339568E+03  0.14860427293E+03  0.00000000000E+00 0.  1.
        -15    1    3    3    0    0  0.29328969754E+03  0.34023113077E+03 -0.45736888255E+03  0.64106346313E+03  0.00000000000E+00 0.  1.
         15    1    4    4    0    0 -0.41353813937E+02  0.22718161058E+03  0.37554699964E+03  0.44085958201E+03  0.00000000000E+00 0. -1.
         15    1    3    3    0    0 -0.13241403399E+03  0.26214741019E+03  0.25359373120E+03  0.38802644443E+03  0.00000000000E+00 0. -1.
        -16    1    3    3    0    0  0.64060802985E+03 -0.35092279229E+03  0.49654026715E+03  0.88322006938E+03  0.00000000000E+00 0.  1.
         16    1    1    2    0    0 -0.49330976092E+03 -0.41070320034E+03  0.23641481300E+03  0.68404941546E+03  0.00000000000E+00 0. -1.
    9900018    1    1    2    0    0 -0.20824351437E+03 -0.11962230813E+03  0.77560150094E+03  0.81703593834E+03  0.91187600000E+02 0.  0.
<mgrwt>
<rscale>  0 0.35719134E+04</rscale>
<asrwt>0</asrwt>
<pdfrwt beam="1">  1        2 0.44689238E+00 0.35719134E+04</pdfrwt>
<pdfrwt beam="2">  1       -2 0.16893211E+00 0.35719134E+04</pdfrwt>
<totfact> 0.35337612E-01</totfact>
</mgrwt>
</event>
<event>
11    1  0.6259894E-010  0.4649734E+04  0.7818608E-02  0.7884935E-01
          1   -1    0    0  501    0  0.00000000000E+00  0.00000000000E+00  0.40938747439E+04  0.40938747439E+04  0.00000000000E+00 0. -1.
         -1   -1    0    0    0  501 -0.00000000000E+00 -0.00000000000E+00 -0.13202664924E+04  0.13202664924E+04  0.00000000000E+00 0.  1.
    9900016    2    1    2    0    0 -0.40240788231E+02  0.93169624116E+03  0.11463295656E+04  0.26577224491E+04  0.22090133401E+04 0.  0.
         23    2    3    3    0    0 -0.51680349436E+02  0.13587883101E+03 -0.21731035630E+03  0.27348153950E+03  0.80215000207E+02 0.  0.
        -15    1    4    4    0    0 -0.17300970048E+02  0.12799950227E+03 -0.15387210674E+03  0.20089753951E+03  0.00000000000E+00 0.  1.
        -15    1    3    3    0    0  0.39665115155E+02 -0.27004218070E+03  0.19355998959E+03  0.33460659032E+03  0.00000000000E+00 0.  1.
         15    1    3    3    0    0  0.44726204558E+03 -0.67798354527E+02  0.34827947738E+03  0.57091028074E+03  0.00000000000E+00 0. -1.
         15    1    4    4    0    0 -0.34379379388E+02  0.78793287402E+01 -0.63438249557E+02  0.72583999995E+02  0.00000000000E+00 0. -1.
        -16    1    3    3    0    0 -0.47548759953E+03  0.11336579454E+04  0.82180045498E+03  0.14787240386E+04  0.00000000000E+00 0.  1.
         16    1    1    2    0    0  0.38063199249E+03 -0.10271253390E+04  0.19710376244E+04  0.22549626367E+04  0.00000000000E+00 0. -1.
    9900018    1    1    2    0    0 -0.34039120426E+03  0.95429097874E+02 -0.34375893856E+03  0.50145615051E+03  0.91187600000E+02 0.  0.
<mgrwt>
<rscale>  0 0.46497336E+04</rscale>
<asrwt>0</asrwt>
<pdfrwt beam="1">  1        1 0.62982688E+00 0.46497336E+04</pdfrwt>
<pdfrwt beam="2">  1       -1 0.20311792E+00 0.46497336E+04</pdfrwt>
<totfact> 0.83805691E-03</totfact>
</mgrwt>
</event>
<event>
12    1  0.6259894E-010  0.3902366E+04  0.7818608E-02  0.8024537E-01
          2   -1    0    0  501    0  0.00000000000E+00  0.00000000000E+00  0.24233182837E+04  0.24233182837E+04  0.00000000000E+00 0. -1.
         -2   -1    0    0    0  501 -0.00000000000E+00 -0.00000000000E+00 -0.15710338237E+04  0.15710338237E+04  0.00000000000E+00 0.  1.
    9900016    2    1    2    0    0  0.61414571906E+03  0.57469358094E+03  0.14297457600E+04  0.27761422410E+04  0.22260604502E+04 0.  0.
         24    2    3    3    0    0 -0.10309331720E+03 -0.61227589487E+03  0.76126017029E+03  0.98366311228E+03  0.50656372759E+02 0.  0.
         23    2    3    3    0    0 -0.51625543288E+02  0.20410585331E+03 -0.17289309759E+03  0.28745695700E+03  0.91733760735E+02 0.  0.
        -15    1    4    4    0    0 -0.76452440031E+02 -0.42545657861E+03  0.56501283024E+03  0.71140549211E+03  0.00000000000E+00 0.  1.
        -15    1    5    5    0    0 -0.14167151153E+02  0.10350183658E+03 -0.14097126625E+03  0.17546007026E+03  0.00000000000E+00 0. -1.
         15    1    3    3    0    0  0.76886457955E+03  0.98286362250E+03  0.84137868727E+03  0.15050221718E+04  0.00000000000E+00 0. -1.
         15    1    5    5    0    0 -0.37458392136E+02  0.10060401673E+03 -0.31921831339E+02  0.11199688674E+03  0.00000000000E+00 0.  1.
        -16    1    1    2    0    0 -0.52679044317E+03 -0.53973580632E+03 -0.70713909013E+03  0.10338610179E+04  0.00000000000E+00 0.  1.
         16    1    4    4    0    0 -0.26640877173E+02 -0.18681931625E+03  0.19624734005E+03  0.27225762017E+03  0.00000000000E+00 0. -1.
    9900018    1    1    2    0    0 -0.87355275889E+02 -0.34957774625E+02  0.12967779022E+03  0.18434884839E+03  0.91187600000E+02 0.  0.
<mgrwt>
<rscale>  0 0.39023659E+04</rscale>
<asrwt>0</asrwt>
<pdfrwt beam="1">  1        2 0.37281820E+00 0.39023659E+04</pdfrwt>
<pdfrwt beam="2">  1       -2 0.24169751E+00 0.39023659E+04</pdfrwt>
<totfact> 0.22162171E-01</totfact>
</mgrwt>
</event>
<event>
11    1  0.6259894E-010  0.2663849E+04  0.7818608E-02  0.8346831E-01
         -2   -1    0    0    0  501 -0.00000000000E+00  0.00000000000E+00  0.20938339224E+04  0.20938339224E+04  0.00000000000E+00 0.  1.
          2   -1    0    0  501    0  0.00000000000E+00 -0.00000000000E+00 -0.84726054691E+03  0.84726054691E+03  0.00000000000E+00 0. -1.
    9900016    2    1    2    0    0  0.25368727603E+03  0.45238094362E+02  0.10777587676E+04  0.24607278443E+04  0.21970921335E+04 0.  0.
         23    2    3    3    0    0  0.17016521977E+02 -0.18527098082E+03  0.57028762566E+02  0.21497881609E+03  0.91371293395E+02 0.  0.
        -15    1    4    4    0    0  0.23917408008E+02 -0.17172802567E+03  0.77138754759E+02  0.18977076881E+03  0.00000000000E+00 0. -1.
        -15    1    3    3    0    0 -0.35735953861E+03 -0.35418227164E+03 -0.48373443910E+02  0.50546108797E+03  0.00000000000E+00 0.  1.
         15    1    3    3    0    0 -0.11152264009E+03  0.63466063125E+03  0.35731298415E+03  0.73682018481E+03  0.00000000000E+00 0. -1.
         15    1    4    4    0    0 -0.69008860312E+01 -0.13542955141E+02 -0.20109992193E+02  0.25208047286E+02  0.00000000000E+00 0.  1.
        -16    1    1    2    0    0 -0.20910369486E+03 -0.18227268874E+03  0.12523203664E+03  0.30435300436E+03  0.00000000000E+00 0.  1.
         16    1    3    3    0    0  0.70555293274E+03 -0.49969284432E+02  0.71179046481E+03  0.10034677554E+04  0.00000000000E+00 0. -1.
    9900018    1    1    2    0    0 -0.44583581171E+02  0.13703459438E+03  0.43582571266E+02  0.17601362072E+03  0.91187600000E+02 0.  0.
<mgrwt>
<rscale>  0 0.26638490E+04</rscale>
<asrwt>0</asrwt>
<pdfrwt beam="1">  1        2 0.13034778E+00 0.26638490E+04</pdfrwt>
<pdfrwt beam="2">  1       -2 0.32212829E+00 0.26638490E+04</pdfrwt>
<totfact> 0.65167366E-01</totfact>
</mgrwt>
</event>
<event>
12    1  0.6259894E-010  0.2792169E+04  0.7818608E-02  0.8305704E-01
         -1   -1    0    0    0  501 -0.00000000000E+00  0.00000000000E+00  0.11338218751E+04  0.11338218751E+04  0.00000000000E+00 0.  1.
          1   -1    0    0  501    0  0.00000000000E+00 -0.00000000000E+00 -0.17190101059E+04  0.17190101059E+04  0.00000000000E+00 0. -1.
    9900016    2    1    2    0    0 -0.15436980022E+03 -0.27978010942E+03 -0.70050292924E+03  0.23364382058E+04  0.22059311392E+04 0.  0.
        -24    2    3    3    0    0  0.42810502100E+03 -0.62467744495E+03 -0.10300375120E+04  0.12827515149E+04  0.10477763885E+03 0.  0.
         23    2    3    3    0    0  0.16373964847E+03  0.28139790076E+02  0.66661634171E+02  0.20146983797E+03  0.92432688350E+02 0.  0.
        -15    1    5    5    0    0  0.96610842461E+02 -0.29182199857E+02  0.25623929492E+02  0.10412416354E+03  0.00000000000E+00 0.  1.
        -15    1    3    3    0    0 -0.74621446969E+03  0.31675754546E+03  0.26287294854E+03  0.85221685295E+03  0.00000000000E+00 0.  1.
         15    1    5    5    0    0  0.67128806010E+02  0.57321989933E+02  0.41037704679E+02  0.97345674437E+02  0.00000000000E+00 0. -1.
         15    1    4    4    0    0  0.23490883015E+03 -0.34946500146E+03 -0.48449785787E+03  0.64190818659E+03  0.00000000000E+00 0. -1.
        -16    1    4    4    0    0  0.19319619085E+03 -0.27521244349E+03 -0.54553965408E+03  0.64084332827E+03  0.00000000000E+00 0.  1.
         16    1    1    2    0    0  0.19790344157E+03  0.26938901538E+03  0.19526642002E+03  0.38712425470E+03  0.00000000000E+00 0. -1.
    9900018    1    1    2    0    0 -0.43533641353E+02  0.10391094034E+02 -0.79951721570E+02  0.12926952054E+03  0.91187600000E+02 0.  0.
<mgrwt>
<rscale>  0 0.27921685E+04</rscale>
<asrwt>0</asrwt>
<pdfrwt beam="1">  1        1 0.26446309E+00 0.27921685E+04</pdfrwt>
<pdfrwt beam="2">  1       -1 0.17443413E+00 0.27921685E+04</pdfrwt>
<totfact> 0.91507503E-01</totfact>
</mgrwt>
</event>
<event>
11    1  0.6259894E-010  0.4099458E+04  0.7818608E-02  0.7984778E-01
         -2   -1    0    0    0  501 -0.00000000000E+00  0.00000000000E+00  0.28013317652E+04  0.28013317652E+04  0.00000000000E+00 0.  1.
          2   -1    0    0  501    0  0.00000000000E+00 -0.00000000000E+00 -0.14997829124E+04  0.14997829124E+04  0.00000000000E+00 0. -1.
    9900016    2    1    2    0    0 -0.48415662273E+03  0.75278075835E+03  0.75711879366E+03  0.24919471027E+04  0.21989736218E+04 0.  0.
         23    2    3    3    0    0  0.35159892604E+03 -0.62248459359E+02  0.88607135210E+03  0.95950967407E+03  0.89664363773E+02 0.  0.
        -15    1    3    3    0    0 -0.78283946635E+02  0.15999565734E+03  0.30739654187E+03  0.35527400780E+03  0.00000000000E+00 0.  1.
        -15    1    4    4    0    0  0.25990468397E+03 -0.41664459064E+02  0.74380142002E+03  0.78900375431E+03  0.00000000000E+00 0.  1.
         15    1    4    4    0    0  0.91694242069E+02 -0.20584000296E+02  0.14226993209E+03  0.17050591976E+03  0.00000000000E+00 0. -1.
         15    1    3    3    0    0 -0.55857134623E+03  0.31428872019E+03 -0.80700334900E+02  0.64598134069E+03  0.00000000000E+00 0. -1.
        -16    1    3    3    0    0 -0.19890025591E+03  0.34074484018E+03 -0.35564876541E+03  0.53118208013E+03  0.00000000000E+00 0.  1.
         16    1    1    2    0    0  0.59090041980E+03 -0.98432799350E+03 -0.57110774170E+02  0.11494896891E+04  0.00000000000E+00 0. -1.
    9900018    1    1    2    0    0 -0.10674379707E+03  0.23154723515E+03  0.60154083340E+03  0.65967788576E+03  0.91187600000E+02 0.  0.
<mgrwt>
<rscale>  0 0.40994583E+04</rscale>
<asrwt>0</asrwt>
<pdfrwt beam="1">  1        2 0.23073583E+00 0.40994583E+04</pdfrwt>
<pdfrwt beam="2">  1       -2 0.43097412E+00 0.40994583E+04</pdfrwt>
<totfact> 0.46091895E-02</totfact>
</mgrwt>
</event>
<event>
11    1  0.6259894E-010  0.3497021E+04  0.7818608E-02  0.8114496E-01
         -2   -1    0    0    0  501 -0.00000000000E+00  0.00000000000E+00  0.19441439301E+04  0.19441439301E+04  0.00000000000E+00 0.  1.
          2   -1    0    0  501    0  0.00000000000E+00 -0.00000000000E+00 -0.15725631165E+04  0.15725631165E+04  0.00000000000E+00 0. -1.
    9900016    2    1    2    0    0 -0.43821812079E+03  0.66817573617E+03  0.56966463689E+03  0.24162576952E+04  0.22080057779E+04 0.  0.
         23    2    3    3    0    0  0.16108359095E+03 -0.12596106854E+03  0.19533189974E+03  0.29740038801E+03  0.92077824007E+02 0.  0.
        -15    1    4    4    0    0  0.25993500111E+02 -0.14670737148E+02  0.85996634402E+02  0.91029191499E+02  0.00000000000E+00 0.  1.
        -15    1    3    3    0    0  0.44463675278E+03 -0.99206663897E+02  0.55642248308E+03  0.71913127019E+03  0.00000000000E+00 0.  1.
         15    1    3    3    0    0 -0.35333980110E+03  0.24668572732E+03 -0.13844852730E+03  0.45262662075E+03  0.00000000000E+00 0. -1.
         15    1    4    4    0    0  0.13509009084E+03 -0.11129033140E+03  0.10933526534E+03  0.20637119652E+03  0.00000000000E+00 0. -1.
        -16    1    3    3    0    0 -0.69059866343E+03  0.64665774130E+03 -0.43641218629E+02  0.94709941626E+03  0.00000000000E+00 0.  1.
         16    1    1    2    0    0  0.38049070714E+03 -0.16153776426E+03 -0.36989100890E+03  0.55469539927E+03  0.00000000000E+00 0. -1.
    9900018    1    1    2    0    0  0.57727413659E+02 -0.50663797191E+03  0.17180718553E+03  0.54575395213E+03  0.91187600000E+02 0.  0.
<mgrwt>
<rscale>  0 0.34970210E+04</rscale>
<asrwt>0</asrwt>
<pdfrwt beam="1">  1        2 0.24193279E+00 0.34970210E+04</pdfrwt>
<pdfrwt beam="2">  1       -2 0.29909906E+00 0.34970210E+04</pdfrwt>
<totfact> 0.30565691E-01</totfact>
</mgrwt>
</event>
<event>
12    1  0.6259895E-010  0.3430503E+04  0.7818608E-02  0.8130460E-01
          2   -1    0    0  501    0  0.00000000000E+00  0.00000000000E+00  0.25964948661E+04  0.25964948661E+04  0.00000000000E+00 0. -1.
         -2   -1    0    0    0  501 -0.00000000000E+00 -0.00000000000E+00 -0.11330999471E+04  0.11330999471E+04  0.00000000000E+00 0.  1.
    9900016    2    1    2    0    0  0.53336376123E+03  0.53182668858E+03  0.11187026289E+04  0.25722134402E+04  0.21903127360E+04 0.  0.
         24    2    3    3    0    0 -0.76237604179E+03  0.47435679417E+03  0.38796895033E+03  0.98315691982E+03  0.99227139954E+02 0.  0.
         23    2    3    3    0    0  0.30968183634E+02 -0.75927462504E+02  0.14007302888E+03  0.18680044280E+03  0.92465907503E+02 0.  0.
        -15    1    4    4    0    0 -0.47497676791E+03  0.24612704641E+03  0.25700310000E+03  0.59349140384E+03  0.00000000000E+00 0.  1.
        -15    1    5    5    0    0 -0.29718329851E+02 -0.26834741327E+02  0.23257177620E+02  0.46305278123E+02  0.00000000000E+00 0. -1.
         15    1    3    3    0    0  0.12647716194E+04  0.13339735692E+03  0.59066064968E+03  0.14022560776E+04  0.00000000000E+00 0. -1.
         15    1    5    5    0    0  0.60686513485E+02 -0.49092721177E+02  0.11681585126E+03  0.14049516468E+03  0.00000000000E+00 0.  1.
        -16    1    1    2    0    0 -0.43966371997E+03 -0.64369296543E+02 -0.14546144857E+03  0.46755387499E+03  0.00000000000E+00 0.  1.
         16    1    4    4    0    0 -0.28739927388E+03  0.22822974776E+03  0.13096585034E+03  0.38966551598E+03  0.00000000000E+00 0. -1.
    9900018    1    1    2    0    0 -0.93700041259E+02 -0.46745739204E+03  0.49015373871E+03  0.68982749806E+03  0.91187600000E+02 0.  0.
<mgrwt>
<rscale>  0 0.34305033E+04</rscale>
<asrwt>0</asrwt>
<pdfrwt beam="1">  1        2 0.39946075E+00 0.34305033E+04</pdfrwt>
<pdfrwt beam="2">  1       -2 0.17432307E+00 0.34305033E+04</pdfrwt>
<totfact> 0.50183125E-01</totfact>
</mgrwt>
</event>
<event>
11    1  0.6259894E-010  0.4184310E+04  0.7818608E-02  0.7968364E-01
         -2   -1    0    0    0  501 -0.00000000000E+00  0.00000000000E+00  0.19107432580E+04  0.19107432580E+04  0.00000000000E+00 0.  1.
          2   -1    0    0  501    0  0.00000000000E+00 -0.00000000000E+00 -0.22907904580E+04  0.22907904580E+04  0.00000000000E+00 0. -1.
    9900016    2    1    2    0    0  0.12066022648E+04  0.32478251955E+03  0.16225869278E+02  0.25030958819E+04  0.21688367861E+04 0.  0.
         23    2    3    3    0    0 -0.18971272436E+03 -0.12633967878E+03 -0.22290087725E+03  0.33020894267E+03  0.86026231605E+02 0.  0.
        -15    1    3    3    0    0  0.67363981025E+03  0.89498844027E+02  0.85841536069E+02  0.68495941949E+03  0.00000000000E+00 0.  1.
        -15    1    4    4    0    0 -0.13977284950E+03 -0.42684426184E+02 -0.13707310259E+03  0.20036827381E+03  0.00000000000E+00 0.  1.
         15    1    3    3    0    0  0.57831515656E+03 -0.39577940332E+03 -0.50712892560E+01  0.70079631447E+03  0.00000000000E+00 0. -1.
         15    1    4    4    0    0 -0.49939874859E+02 -0.83655252591E+02 -0.85827774663E+02  0.12984066886E+03  0.00000000000E+00 0. -1.
        -16    1    1    2    0    0 -0.11021279674E+04 -0.64295822447E+03 -0.17772602290E+03  0.12882809764E+04  0.00000000000E+00 0.  1.
         16    1    3    3    0    0  0.14436002233E+03  0.75740275761E+03  0.15835649971E+03  0.78713120526E+03  0.00000000000E+00 0. -1.
    9900018    1    1    2    0    0 -0.10447429739E+03  0.31817570492E+03 -0.21854704647E+03  0.41015685772E+03  0.91187600000E+02 0.  0.
<mgrwt>
<rscale>  0 0.41843099E+04</rscale>
<asrwt>0</asrwt>
<pdfrwt beam="1">  1        2 0.35242930E+00 0.41843099E+04</pdfrwt>
<pdfrwt beam="2">  1       -2 0.29396050E+00 0.41843099E+04</pdfrwt>
<totfact> 0.12342482E-01</totfact>
</mgrwt>
</event>
<event>
11    1  0.6259894E-010  0.4708153E+04  0.7818608E-02  0.7875175E-01
          2   -1    0    0  501    0  0.00000000000E+00  0.00000000000E+00  0.28891131972E+04  0.28891131972E+04  0.00000000000E+00 0. -1.
         -2   -1    0    0    0  501 -0.00000000000E+00 -0.00000000000E+00 -0.19181234596E+04  0.19181234596E+04  0.00000000000E+00 0.  1.
    9900016    2    1    2    0    0  0.67748551802E+03  0.37203149388E+02 -0.48139001916E+02  0.23036568715E+04  0.22009422793E+04 0.  0.
         23    2    3    3    0    0 -0.65797372336E+02  0.61600032361E+03  0.59030234837E+03  0.86064562413E+03  0.92023556510E+02 0.  0.
        -15    1    3    3    0    0  0.29520465513E+03 -0.51975962076E+03 -0.43516486280E+02  0.59932423308E+03  0.00000000000E+00 0.  1.
        -15    1    4    4    0    0 -0.61344837911E+02  0.51940822021E+03  0.44834057712E+03  0.68888123901E+03  0.00000000000E+00 0.  1.
         15    1    3    3    0    0  0.90122009215E+02 -0.16334460162E+02 -0.44319961814E+03  0.45256457291E+03  0.00000000000E+00 0. -1.
         15    1    4    4    0    0 -0.44525344249E+01  0.96592103397E+02  0.14196177124E+03  0.17176438512E+03  0.00000000000E+00 0. -1.
        -16    1    3    3    0    0  0.35795622601E+03 -0.42703093300E+02 -0.15172524587E+03  0.39112244138E+03  0.00000000000E+00 0.  1.
         16    1    1    2    0    0 -0.63815883098E+03 -0.47607955693E+03  0.15891004493E+04  0.17773966006E+04  0.00000000000E+00 0. -1.
    9900018    1    1    2    0    0 -0.39326687036E+02  0.43887640754E+03 -0.56997170974E+03  0.72618318467E+03  0.91187600000E+02 0.  0.
<mgrwt>
<rscale>  0 0.47081528E+04</rscale>
<asrwt>0</asrwt>
<pdfrwt beam="1">  1        2 0.44447895E+00 0.47081528E+04</pdfrwt>
<pdfrwt beam="2">  1       -2 0.29509592E+00 0.47081528E+04</pdfrwt>
<totfact> 0.51756947E-02</totfact>
</mgrwt>
</event>
<event>
11    1  0.6259894E-010  0.3332789E+04  0.7818608E-02  0.8154602E-01
          2   -1    0    0  501    0  0.00000000000E+00  0.00000000000E+00  0.12682059008E+04  0.12682059008E+04  0.00000000000E+00 0.  1.
         -2   -1    0    0    0  501 -0.00000000000E+00 -0.00000000000E+00 -0.21896053060E+04  0.21896053060E+04  0.00000000000E+00 0. -1.
    9900016    2    1    2    0    0  0.11733476665E+03  0.67294292209E+03 -0.33168100510E+03  0.23187455153E+04  0.21908785570E+04 0.  0.
         23    2    3    3    0    0  0.52406939115E+03 -0.84273741066E+02 -0.41490738170E+03  0.67987907654E+03  0.91305164948E+02 0.  0.
        -15    1    3    3    0    0  0.19643740368E+03 -0.74533560909E+02 -0.42905777798E+03  0.47773788013E+03  0.00000000000E+00 0.  1.
        -15    1    4    4    0    0  0.99187891019E+02 -0.12399415375E+01 -0.12173350620E+03  0.15703127622E+03  0.00000000000E+00 0.  1.
         15    1    4    4    0    0  0.42488150013E+03 -0.83033799528E+02 -0.29317387551E+03  0.52284780032E+03  0.00000000000E+00 0. -1.
         15    1    3    3    0    0 -0.16970134244E+03  0.12309970100E+03  0.77490249618E+02  0.22351022527E+03  0.00000000000E+00 0. -1.
        -16    1    3    3    0    0 -0.43347068573E+03  0.70865052306E+03  0.43479390497E+03  0.93761833335E+03  0.00000000000E+00 0.  1.
         16    1    1    2    0    0  0.17296069913E+03 -0.62855376260E+03 -0.30399880471E+03  0.71931252540E+03  0.00000000000E+00 0. -1.
    9900018    1    1    2    0    0 -0.29029546578E+03 -0.44389159485E+02 -0.28571959532E+03  0.41975316613E+03  0.91187600000E+02 0.  0.
<mgrwt>
<rscale>  0 0.33327888E+04</rscale>
<asrwt>0</asrwt>
<pdfrwt beam="1">  1        2 0.19510860E+00 0.33327888E+04</pdfrwt>
<pdfrwt beam="2">  1       -2 0.33686235E+00 0.33327888E+04</pdfrwt>
<totfact> 0.27031367E-01</totfact>
</mgrwt>
</event>
<event>
11    1  0.6259894E-010  0.2897305E+04  0.7818608E-02  0.8273680E-01
          1   -1    0    0  501    0  0.00000000000E+00  0.00000000000E+00  0.15622207522E+04  0.15622207522E+04  0.00000000000E+00 0. -1.
         -1   -1    0    0    0  501 -0.00000000000E+00 -0.00000000000E+00 -0.13433407229E+04  0.13433407229E+04  0.00000000000E+00 0.  1.
    9900016    2    1    2    0    0  0.14878756025E+03 -0.11344523042E+03  0.45888588104E+03  0.22485590443E+04  0.21932701534E+04 0.  0.
         23    2    3    3    0    0 -0.30529872672E+03 -0.34998525813E+02 -0.39255301370E+03  0.50723643119E+03  0.93588029227E+02 0.  0.
        -15    1    4    4    0    0 -0.18316162342E+03  0.19778388031E+02 -0.19176401294E+03  0.26591878758E+03  0.00000000000E+00 0.  1.
        -15    1    3    3    0    0  0.20180521734E+03 -0.75310967770E+03  0.53527023187E+03  0.94573450478E+03  0.00000000000E+00 0.  1.
         15    1    3    3    0    0  0.12004154350E+03  0.36012686136E+03  0.22934979890E+03  0.44351173456E+03  0.00000000000E+00 0. -1.
         15    1    4    4    0    0 -0.12213710330E+03 -0.54776913845E+02 -0.20078900076E+03  0.24131764361E+03  0.00000000000E+00 0. -1.
        -16    1    3    3    0    0  0.13223952613E+03  0.31453611174E+03  0.86818863968E+02  0.35207637381E+03  0.00000000000E+00 0.  1.
         16    1    1    2    0    0 -0.30318346388E+03  0.24225852795E+03 -0.12288209964E+03  0.40707421627E+03  0.00000000000E+00 0. -1.
    9900018    1    1    2    0    0  0.15439590363E+03 -0.12881329753E+03 -0.11712375208E+03  0.24992821444E+03  0.91187600000E+02 0.  0.
<mgrwt>
<rscale>  0 0.28973055E+04</rscale>
<asrwt>0</asrwt>
<pdfrwt beam="1">  1        1 0.24034165E+00 0.28973055E+04</pdfrwt>
<pdfrwt beam="2">  1       -1 0.20666780E+00 0.28973055E+04</pdfrwt>
<totfact> 0.68901110E-01</totfact>
</mgrwt>
</event>
<event>
11    1  0.6259894E-010  0.2543720E+04  0.7818608E-02  0.8387574E-01
          1   -1    0    0  501    0  0.00000000000E+00  0.00000000000E+00  0.36379209041E+04  0.36379209041E+04  0.00000000000E+00 0. -1.
         -1   -1    0    0    0  501 -0.00000000000E+00 -0.00000000000E+00 -0.44465722137E+03  0.44465722137E+03  0.00000000000E+00 0.  1.
    9900016    2    1    2    0    0 -0.21758326275E+03 -0.26638026411E+02  0.28495647156E+04  0.36054247874E+04  0.21979574082E+04 0.  0.
         23    2    3    3    0    0 -0.17023655587E+02  0.41473168920E+03  0.11810292573E+03  0.44063210764E+03  0.88972885389E+02 0.  0.
        -15    1    3    3    0    0 -0.41013378220E+03  0.10307359649E+03  0.23342032888E+03  0.48303098817E+03  0.00000000000E+00 0.  1.
        -15    1    4    4    0    0 -0.39424768016E+02  0.24224807346E+03  0.10257669608E+03  0.26600830815E+03  0.00000000000E+00 0.  1.
         15    1    3    3    0    0  0.30444990007E+03 -0.70475341594E+02  0.30712797326E+03  0.43815991074E+03  0.00000000000E+00 0. -1.
         15    1    4    4    0    0  0.22401112429E+02  0.17248361575E+03  0.15526229648E+02  0.17462379948E+03  0.00000000000E+00 0. -1.
        -16    1    1    2    0    0  0.22074286697E+03 -0.30874151032E+02  0.22318363131E+03  0.31542282702E+03  0.00000000000E+00 0.  1.
         16    1    3    3    0    0 -0.94875725029E+02 -0.47396797051E+03  0.21909134877E+04  0.22436017808E+04  0.00000000000E+00 0. -1.
    9900018    1    1    2    0    0 -0.31596042198E+01  0.57512177443E+02  0.12051533587E+03  0.16173051112E+03  0.91187600000E+02 0.  0.
<mgrwt>
<rscale>  0 0.25437200E+04</rscale>
<asrwt>0</asrwt>
<pdfrwt beam="1">  1        1 0.55968012E+00 0.25437200E+04</pdfrwt>
<pdfrwt beam="2">  1       -1 0.68408806E-01 0.25437200E+04</pdfrwt>
<totfact> 0.37149366E-01</totfact>
</mgrwt>
</event>
<event>
11    1  0.6259894E-010  0.4165103E+04  0.7818608E-02  0.7972044E-01
         -2   -1    0    0    0  501 -0.00000000000E+00  0.00000000000E+00  0.18182168327E+04  0.18182168327E+04  0.00000000000E+00 0. -1.
          2   -1    0    0  501    0  0.00000000000E+00 -0.00000000000E+00 -0.23853153491E+04  0.23853153491E+04  0.00000000000E+00 0.  1.
    9900016    2    1    2    0    0  0.73355418571E+03  0.54521009797E+03 -0.67507676798E+03  0.24896124946E+04  0.22151943338E+04 0.  0.
         23    2    3    3    0    0 -0.80718139633E+02 -0.27114320759E+03  0.16861337833E+02  0.29749229076E+03  0.90461601023E+02 0.  0.
        -15    1    4    4    0    0 -0.48290961581E+02 -0.84951158731E+02  0.42885937968E+02  0.10671419782E+03  0.00000000000E+00 0.  1.
        -15    1    3    3    0    0  0.72480339347E+02  0.77567293671E+03 -0.10473498008E+03  0.78606063404E+03  0.00000000000E+00 0.  1.
         15    1    3    3    0    0  0.74470523536E+03 -0.39136709203E+03 -0.44152110641E+03  0.95010261325E+03  0.00000000000E+00 0. -1.
         15    1    4    4    0    0 -0.32427178051E+02 -0.18619204886E+03 -0.26024600135E+02  0.19077809295E+03  0.00000000000E+00 0. -1.
        -16    1    1    2    0    0 -0.91106941300E+03 -0.19505362834E+03 -0.44267501447E+03  0.10315302040E+04  0.00000000000E+00 0.  1.
         16    1    3    3    0    0 -0.29132493622E+01  0.43204746088E+03 -0.14568201932E+03  0.45595695656E+03  0.00000000000E+00 0. -1.
    9900018    1    1    2    0    0  0.17751522728E+03 -0.35015646962E+03  0.55065326602E+03  0.68238948329E+03  0.91187600000E+02 0.  0.
<mgrwt>
<rscale>  0 0.41651029E+04</rscale>
<asrwt>0</asrwt>
<pdfrwt beam="1">  1        2 0.36697159E+00 0.41651029E+04</pdfrwt>
<pdfrwt beam="2">  1       -2 0.27972567E+00 0.41651029E+04</pdfrwt>
<totfact> 0.13339576E-01</totfact>
</mgrwt>
</event>
<event>
11    1  0.6259894E-010  0.3265677E+04  0.7818608E-02  0.8171684E-01
          2   -1    0    0  501    0  0.00000000000E+00  0.00000000000E+00  0.11022828191E+04  0.11022828191E+04  0.00000000000E+00 0. -1.
         -2   -1    0    0    0  501 -0.00000000000E+00 -0.00000000000E+00 -0.24187632270E+04  0.24187632270E+04  0.00000000000E+00 0.  1.
    9900016    2    1    2    0    0  0.15615012242E+01  0.61058182136E+03 -0.11196425747E+04  0.25442713545E+04  0.22015686752E+04 0.  0.
         23    2    3    3    0    0 -0.31623919064E+03  0.51415387600E+02 -0.23854434626E+03  0.41106648471E+03  0.97064318552E+02 0.  0.
        -15    1    3    3    0    0  0.33383145306E+03 -0.43257982362E+03 -0.31196744868E+03  0.62919983462E+03  0.00000000000E+00 0.  1.
        -15    1    4    4    0    0 -0.10931530193E+03 -0.27226854993E+02 -0.67599030296E+02  0.13138023354E+03  0.00000000000E+00 0.  1.
         15    1    4    4    0    0 -0.20692388871E+03  0.78642242593E+02 -0.17094531597E+03  0.27968625117E+03  0.00000000000E+00 0. -1.
         15    1    3    3    0    0 -0.29230501726E+03  0.81729833865E+03 -0.23851004700E+02  0.86832463279E+03  0.00000000000E+00 0. -1.
        -16    1    3    3    0    0  0.27627425607E+03  0.17444791873E+03 -0.54527977505E+03  0.63568040240E+03  0.00000000000E+00 0.  1.
         16    1    1    2    0    0 -0.85493014745E+02 -0.69539229396E+03  0.33925765651E+02  0.70144882610E+03  0.00000000000E+00 0. -1.
    9900018    1    1    2    0    0  0.83931513521E+02  0.84810472595E+02 -0.23076359892E+03  0.27532586549E+03  0.91187600000E+02 0.  0.
<mgrwt>
<rscale>  0 0.32656767E+04</rscale>
<asrwt>0</asrwt>
<pdfrwt beam="1">  1        2 0.16958197E+00 0.32656767E+04</pdfrwt>
<pdfrwt beam="2">  1       -2 0.37211742E+00 0.32656767E+04</pdfrwt>
<totfact> 0.20453359E-01</totfact>
</mgrwt>
</event>
<event>
11    1  0.6259894E-010  0.4701028E+04  0.7818608E-02  0.7876358E-01
          2   -1    0    0  501    0  0.00000000000E+00  0.00000000000E+00  0.37162067734E+04  0.37162067734E+04  0.00000000000E+00 0. -1.
         -2   -1    0    0    0  501 -0.00000000000E+00 -0.00000000000E+00 -0.14867084641E+04  0.14867084641E+04  0.00000000000E+00 0.  1.
    9900016    2    1    2    0    0 -0.11185713454E+04 -0.46540006942E+02  0.18074982663E+04  0.30704508892E+04  0.22152315575E+04 0.  0.
         23    2    3    3    0    0  0.20552580703E+03  0.26160863350E+03  0.38950242726E+03  0.52044366943E+03  0.92030091476E+02 0.  0.
        -15    1    3    3    0    0 -0.10318463017E+04 -0.42103767677E+03  0.12311619545E+04  0.16606442346E+04  0.00000000000E+00 0.  1.
        -15    1    4    4    0    0  0.59197148710E+02  0.53492421679E+02  0.43186586849E+02  0.90723882612E+02  0.00000000000E+00 0.  1.
         15    1    3    3    0    0  0.70527977621E+02  0.14924883181E+03  0.42360470440E+03  0.45463210952E+03  0.00000000000E+00 0. -1.
         15    1    4    4    0    0  0.14632865832E+03  0.20811621182E+03  0.34631584041E+03  0.42971978682E+03  0.00000000000E+00 0. -1.
        -16    1    1    2    0    0  0.14077798437E+04 -0.18250400700E+03 -0.16925261485E+03  0.14296147203E+04  0.00000000000E+00 0.  1.
         16    1    3    3    0    0 -0.36277882840E+03 -0.36359795479E+02 -0.23677081994E+03  0.43473087564E+03  0.00000000000E+00 0. -1.
    9900018    1    1    2    0    0 -0.28920849825E+03  0.22904401394E+03  0.59125265784E+03  0.70284962800E+03  0.91187600000E+02 0.  0.
<mgrwt>
<rscale>  0 0.47010280E+04</rscale>
<asrwt>0</asrwt>
<pdfrwt beam="1">  1        2 0.57172412E+00 0.47010280E+04</pdfrwt>
<pdfrwt beam="2">  1       -2 0.22872438E+00 0.47010280E+04</pdfrwt>
<totfact> 0.36757681E-02</totfact>
</mgrwt>
</event>
