<event>
11    1  0.4883010E-014  0.9678332E+03  0.7818608E-02  0.9344546E-01
         -3   -1    0    0    0  501 -0.00000000000E+00  0.00000000000E+00  0.11050013571E+04  0.11050013571E+04  0.00000000000E+00 0.  1.
          3   -1    0    0  501    0  0.00000000000E+00 -0.00000000000E+00 -0.21192308654E+03  0.21192308654E+03  0.00000000000E+00 0. -1.
    9900016    2    1    2    0    0 -0.97055729262E+02 -0.22337298636E+01  0.82456704444E+03  0.10675606771E+04  0.67108135448E+03 0.  0.
         23    2    3    3    0    0  0.45012803076E+02 -0.13959209170E+03  0.45617106225E+02  0.17852628421E+03  0.90986863164E+02 0.  0.
        -15    1    4    4    0    0  0.28182154824E+02 -0.87128415940E+02 -0.19088088542E+02  0.93541166547E+02  0.00000000000E+00 0.  1.
        -15    1    3    3    0    0  0.31096309000E+02 -0.84870365432E+01  0.18261821642E+03  0.18544115830E+03  0.00000000000E+00 0.  1.
         15    1    4    4    0    0  0.16830648252E+02 -0.52463675757E+02  0.64705194766E+02  0.84985117664E+02  0.00000000000E+00 0. -1.
         15    1    3    3    0    0  0.34451199514E+02  0.15364225944E+03  0.18628674412E+03  0.24391715821E+03  0.00000000000E+00 0. -1.
        -16    1    3    3    0    0 -0.20761604085E+03 -0.77968610600E+01  0.41004497767E+03  0.45967607636E+03  0.00000000000E+00 0.  1.
         16    1    1    2    0    0  0.78496889032E+02  0.29983303812E+02 -0.48725315820E+02  0.97133498326E+02  0.00000000000E+00 0. -1.
    9900018    1    1    2    0    0  0.18558840230E+02 -0.27749573948E+02  0.11723654192E+03  0.15223026821E+03  0.91187600000E+02 0.  0.
<mgrwt>
<rscale>  0 0.96783325E+03</rscale>
<asrwt>0</asrwt>
<pdfrwt beam="1">  1        3 0.32603552E-01 0.96783325E+03</pdfrwt>
<pdfrwt beam="2">  1       -3 0.17000021E+00 0.96783325E+03</pdfrwt>
<totfact> 0.56143401E+00</totfact>
</mgrwt>
</event>
<event>
11    1  0.4883010E-014  0.1073114E+04  0.7818608E-02  0.9231801E-01
          1   -1    0    0  501    0  0.00000000000E+00  0.00000000000E+00  0.13878232965E+04  0.13878232965E+04  0.00000000000E+00 0. -1.
         -1   -1    0    0    0  501 -0.00000000000E+00 -0.00000000000E+00 -0.20744230122E+03  0.20744230122E+03  0.00000000000E+00 0.  1.
    9900016    2    1    2    0    0 -0.60096495559E+02 -0.11588152642E+03  0.56161501574E+03  0.87437190760E+03  0.65732388513E+03 0.  0.
         23    2    3    3    0    0 -0.13923880205E+03  0.11535789784E+03  0.28437362270E+03  0.34887732362E+03  0.90289207873E+02 0.  0.
        -15    1    3    3    0    0  0.12707229469E+03 -0.30198426975E+03  0.24272142829E+03  0.40774447759E+03  0.00000000000E+00 0.  1.
        -15    1    4    4    0    0 -0.58184289132E+02  0.54283389350E+02  0.20542061887E+03  0.22029464024E+03  0.00000000000E+00 0. -1.
         15    1    4    4    0    0 -0.81054512917E+02  0.61074508489E+02  0.78953003829E+02  0.12858268338E+03  0.00000000000E+00 0.  1.
         15    1    3    3    0    0  0.18703402147E+02  0.63828151593E+01  0.36219931841E+01  0.20091700173E+02  0.00000000000E+00 0. -1.
        -16    1    3    3    0    0 -0.66633390349E+02  0.64362030333E+02  0.30897971562E+02  0.97658406216E+02  0.00000000000E+00 0.  1.
         16    1    1    2    0    0  0.12116075024E+03  0.15189407490E+03  0.55699375692E+03  0.58990997842E+03  0.00000000000E+00 0. -1.
    9900018    1    1    2    0    0 -0.61064254682E+02 -0.36012548482E+02  0.61772222599E+02  0.13098371168E+03  0.91187600000E+02 0.  0.
<mgrwt>
<rscale>  0 0.10731137E+04</rscale>
<asrwt>0</asrwt>
<pdfrwt beam="1">  1        1 0.21351127E+00 0.10731137E+04</pdfrwt>
<pdfrwt beam="2">  1       -1 0.31914201E-01 0.10731137E+04</pdfrwt>
<totfact> 0.71516369E+01</totfact>
</mgrwt>
</event>
<event>
11    1  0.4883010E-014  0.1733536E+04  0.7818608E-02  0.8742465E-01
          1   -1    0    0  501    0  0.00000000000E+00  0.00000000000E+00  0.12621494022E+04  0.12621494022E+04  0.00000000000E+00 0. -1.
         -1   -1    0    0    0  501 -0.00000000000E+00 -0.00000000000E+00 -0.59524384836E+03  0.59524384836E+03  0.00000000000E+00 0.  1.
    9900016    2    1    2    0    0 -0.42717550851E+02  0.69603261273E+03  0.48812682464E+03  0.11374987992E+04  0.75455253899E+03 0.  0.
         23    2    3    3    0    0  0.10015541610E+02  0.48715786994E+03  0.46856887791E+03  0.68221102215E+03  0.91825835563E+02 0.  0.
        -15    1    3    3    0    0  0.18423931921E+02  0.71349940750E+02 -0.52808552225E+02  0.90658692361E+02  0.00000000000E+00 0.  1.
        -15    1    4    4    0    0  0.39415882307E+01  0.46697241725E+03  0.46797995300E+03  0.66112329485E+03  0.00000000000E+00 0.  1.
         15    1    3    3    0    0  0.22098294826E+02 -0.55845362505E+02  0.81359200187E+02  0.10112545971E+03  0.00000000000E+00 0. -1.
         15    1    4    4    0    0  0.60739533796E+01  0.20185452695E+02  0.58892491552E+00  0.21087727301E+02  0.00000000000E+00 0. -1.
        -16    1    1    2    0    0  0.42717550851E+02 -0.69603261273E+03  0.17877872923E+03  0.71989445140E+03  0.00000000000E+00 0.  1.
         16    1    3    3    0    0 -0.64181306910E+02  0.10680910035E+03 -0.39835127934E+02  0.13082148712E+03  0.00000000000E+00 0. -1.
    9900018    1    3    3    0    0 -0.29074012300E+02  0.86561064192E+02  0.30842426693E+02  0.13268213785E+03  0.91187600000E+02 0.  0.
<mgrwt>
<rscale>  0 0.17335359E+04</rscale>
<asrwt>0</asrwt>
<pdfrwt beam="1">  1        1 0.19417683E+00 0.17335359E+04</pdfrwt>
<pdfrwt beam="2">  1       -1 0.91575977E-01 0.17335359E+04</pdfrwt>
<totfact> 0.10622828E+01</totfact>
</mgrwt>
</event>
<event>
11    1  0.4883010E-014  0.2380794E+04  0.7818608E-02  0.8446729E-01
         -1   -1    0    0    0  501 -0.00000000000E+00  0.00000000000E+00  0.13757657991E+04  0.13757657991E+04  0.00000000000E+00 0.  1.
          1   -1    0    0  501    0  0.00000000000E+00 -0.00000000000E+00 -0.10300047273E+04  0.10300047273E+04  0.00000000000E+00 0. -1.
    9900016    2    1    2    0    0  0.57861291876E+03  0.13769462605E+02  0.87145351340E+03  0.12383689355E+04  0.66267932410E+03 0.  0.
         23    2    3    3    0    0 -0.24508749596E+02  0.10737891604E+03  0.28546812989E+02  0.14643547487E+03  0.92181979533E+02 0.  0.
        -15    1    3    3    0    0  0.36699893940E+03 -0.18203916288E+03  0.49668742316E+03  0.64383606195E+03  0.00000000000E+00 0.  1.
        -15    1    4    4    0    0 -0.68330335044E+01  0.11498119766E+03  0.40097034848E+01  0.11525382373E+03  0.00000000000E+00 0.  1.
         15    1    3    3    0    0  0.14671468213E+03  0.25729842452E+02  0.28825306991E+03  0.32446425852E+03  0.00000000000E+00 0. -1.
         15    1    4    4    0    0 -0.17675716092E+02 -0.76022816142E+01  0.24537109504E+02  0.31181651141E+02  0.00000000000E+00 0. -1.
        -16    1    3    3    0    0  0.89408046830E+02  0.62699866993E+02  0.57966207348E+02  0.12363314019E+03  0.00000000000E+00 0.  1.
         16    1    1    2    0    0 -0.69615890130E+03  0.17263378169E+00 -0.66527503671E+03  0.96292685087E+03  0.00000000000E+00 0. -1.
    9900018    1    1    2    0    0  0.11754598254E+03 -0.13942096387E+02  0.13958259508E+03  0.20447474002E+03  0.91187600000E+02 0.  0.
<mgrwt>
<rscale>  0 0.23807942E+04</rscale>
<asrwt>0</asrwt>
<pdfrwt beam="1">  1        1 0.15846227E+00 0.23807942E+04</pdfrwt>
<pdfrwt beam="2">  1       -1 0.21165628E+00 0.23807942E+04</pdfrwt>
<totfact> 0.16123215E+00</totfact>
</mgrwt>
</event>
<event>
11    1  0.4883010E-014  0.8556462E+03  0.7818608E-02  0.9482790E-01
          1   -1    0    0  501    0  0.00000000000E+00  0.00000000000E+00  0.73270588993E+03  0.73270588993E+03  0.00000000000E+00 0. -1.
         -1   -1    0    0    0  501 -0.00000000000E+00 -0.00000000000E+00 -0.24980367795E+03  0.24980367795E+03  0.00000000000E+00 0.  1.
    9900016    2    1    2    0    0 -0.23652904906E+02 -0.85301537548E+02  0.45031440982E+03  0.88818153881E+03  0.76042591090E+03 0.  0.
         23    2    3    3    0    0 -0.44303032057E+02 -0.19195152666E+02 -0.33020887058E+02  0.10822049892E+03  0.91049903178E+02 0.  0.
        -15    1    3    3    0    0  0.17630288359E+03 -0.13475206951E+03  0.32236559861E+03  0.39135713379E+03  0.00000000000E+00 0.  1.
        -15    1    4    4    0    0 -0.72416327446E+02 -0.87741153131E+01 -0.25865121446E+02  0.77395827328E+02  0.00000000000E+00 0.  1.
         15    1    4    4    0    0  0.28113295389E+02 -0.10421037353E+02 -0.71557656116E+01  0.30824671590E+02  0.00000000000E+00 0. -1.
         15    1    3    3    0    0 -0.87744950423E+02  0.11152503490E+02  0.88581314154E+02  0.12518068492E+03  0.00000000000E+00 0. -1.
        -16    1    3    3    0    0 -0.99243006748E+02  0.10584810010E+03  0.34976434879E+02  0.14925262369E+03  0.00000000000E+00 0.  1.
         16    1    1    2    0    0  0.23652904906E+02  0.85301537548E+02  0.32587802155E+02  0.94328029068E+02  0.00000000000E+00 0. -1.
    9900018    1    3    3    0    0  0.31335200730E+02 -0.48354918958E+02  0.37411949237E+02  0.11417059749E+03  0.91187600000E+02 0.  0.
<mgrwt>
<rscale>  0 0.85564625E+03</rscale>
<asrwt>0</asrwt>
<pdfrwt beam="1">  1        1 0.11272398E+00 0.85564625E+03</pdfrwt>
<pdfrwt beam="2">  1       -1 0.38431335E-01 0.85564625E+03</pdfrwt>
<totfact> 0.16784378E+02</totfact>
</mgrwt>
</event>
<event>
11    1  0.4883010E-014  0.1018472E+04  0.7818608E-02  0.9288514E-01
          2   -1    0    0  501    0  0.00000000000E+00  0.00000000000E+00  0.27706479717E+04  0.27706479717E+04  0.00000000000E+00 0. -1.
         -2   -1    0    0    0  501 -0.00000000000E+00 -0.00000000000E+00 -0.93595863891E+02  0.93595863891E+02  0.00000000000E+00 0.  1.
    9900016    2    1    2    0    0 -0.17832235720E+03  0.77295124478E+01  0.20239694823E+04  0.21361057174E+04  0.65926971883E+03 0.  0.
         23    2    3    3    0    0 -0.14684083450E+02 -0.16319488016E+03  0.88294869635E+03  0.90248930481E+03  0.89668019435E+02 0.  0.
        -15    1    3    3    0    0 -0.11621824085E+03  0.25922118919E+03  0.73172606739E+03  0.78493652108E+03  0.00000000000E+00 0.  1.
        -15    1    4    4    0    0  0.34181104358E+02 -0.84505447220E+02  0.35749549965E+03  0.36893434480E+03  0.00000000000E+00 0. -1.
         15    1    3    3    0    0  0.53551489809E+01 -0.11755807849E+03  0.21334280351E+03  0.24364673453E+03  0.00000000000E+00 0. -1.
         15    1    4    4    0    0 -0.48865187808E+02 -0.78689432941E+02  0.52545319669E+03  0.53355496001E+03  0.00000000000E+00 0.  1.
        -16    1    1    2    0    0  0.18805704105E+03  0.30713832427E+02  0.25802347993E+03  0.32075677138E+03  0.00000000000E+00 0.  1.
         16    1    3    3    0    0 -0.52775181876E+02  0.29261281903E+02  0.19595191508E+03  0.20503315699E+03  0.00000000000E+00 0. -1.
    9900018    1    1    2    0    0 -0.97346838550E+01 -0.38443344875E+02  0.39505914560E+03  0.40738134683E+03  0.91187600000E+02 0.  0.
<mgrwt>
<rscale>  0 0.10184718E+04</rscale>
<asrwt>0</asrwt>
<pdfrwt beam="1">  1        2 0.42625347E+00 0.10184718E+04</pdfrwt>
<pdfrwt beam="2">  1       -2 0.14399366E-01 0.10184718E+04</pdfrwt>
<totfact> 0.91996615E+01</totfact>
</mgrwt>
</event>
<event>
11    1  0.4883010E-014  0.1010950E+04  0.7818608E-02  0.9296616E-01
         -2   -1    0    0    0  501 -0.00000000000E+00  0.00000000000E+00  0.11578519752E+03  0.11578519752E+03  0.00000000000E+00 0.  1.
          2   -1    0    0  501    0  0.00000000000E+00 -0.00000000000E+00 -0.22067152022E+04  0.22067152022E+04  0.00000000000E+00 0. -1.
    9900016    2    1    2    0    0  0.44448994445E+02  0.12388408863E+03 -0.15949002010E+04  0.17311888156E+04  0.66029166552E+03 0.  0.
         23    2    3    3    0    0  0.42062980864E+02 -0.31255463921E+02 -0.12600787796E+03  0.16492505619E+03  0.92607183672E+02 0.  0.
        -15    1    3    3    0    0  0.14979728629E+03 -0.72625229622E+02 -0.33227008168E+03  0.37164103398E+03  0.00000000000E+00 0.  1.
        -15    1    4    4    0    0  0.63605518507E+02  0.32886806793E+01 -0.91910086476E+02  0.11182102397E+03  0.00000000000E+00 0. -1.
         15    1    3    3    0    0 -0.21144085593E+03  0.19087548629E+03 -0.99377626539E+03  0.10337949277E+04  0.00000000000E+00 0. -1.
         15    1    4    4    0    0 -0.21542537644E+02 -0.34544144601E+02 -0.34097791487E+02  0.53104032225E+02  0.00000000000E+00 0.  1.
        -16    1    3    3    0    0  0.64029583221E+02  0.36889295883E+02 -0.14284597601E+03  0.16082779779E+03  0.00000000000E+00 0.  1.
         16    1    1    2    0    0 -0.17352450991E+02 -0.15722735755E+03 -0.11083995473E+03  0.19315031733E+03  0.00000000000E+00 0. -1.
    9900018    1    1    2    0    0 -0.27096543453E+02  0.33343268921E+02 -0.38518984890E+03  0.39816126675E+03  0.91187600000E+02 0.  0.
<mgrwt>
<rscale>  0 0.10109500E+04</rscale>
<asrwt>0</asrwt>
<pdfrwt beam="1">  1        2 0.33949465E+00 0.10109500E+04</pdfrwt>
<pdfrwt beam="2">  1       -2 0.17813107E-01 0.10109500E+04</pdfrwt>
<totfact> 0.13449979E+02</totfact>
</mgrwt>
</event>
<event>
11    1  0.4883010E-014  0.8490304E+03  0.7818608E-02  0.9491639E-01
         -1   -1    0    0    0  501 -0.00000000000E+00  0.00000000000E+00  0.94701467373E+03  0.94701467373E+03  0.00000000000E+00 0.  1.
          1   -1    0    0  501    0  0.00000000000E+00 -0.00000000000E+00 -0.19029604297E+03  0.19029604297E+03  0.00000000000E+00 0. -1.
    9900016    2    1    2    0    0  0.33613193699E+02  0.76392503578E+02  0.72545831921E+03  0.10481879448E+04  0.75195913007E+03 0.  0.
         23    2    3    3    0    0  0.72079560016E+02  0.17640222921E+02  0.16191926622E+03  0.19919609013E+03  0.89188525688E+02 0.  0.
        -15    1    3    3    0    0  0.80800746633E+02  0.43108649309E+02  0.37056012295E+03  0.38170921003E+03  0.00000000000E+00 0.  1.
        -15    1    4    4    0    0 -0.15340770946E+02  0.18125557704E+02  0.14554249525E+02  0.27851414229E+02  0.00000000000E+00 0. -1.
         15    1    3    3    0    0 -0.11061199835E+03 -0.33945481400E+02 -0.90974836644E+02  0.14718604142E+03  0.00000000000E+00 0. -1.
         15    1    4    4    0    0  0.87420330962E+02 -0.48533478325E+00  0.14736501670E+03  0.17134467591E+03  0.00000000000E+00 0.  1.
        -16    1    1    2    0    0 -0.33613193699E+02 -0.76392503578E+02  0.31260311549E+02  0.89122771903E+02  0.00000000000E+00 0.  1.
         16    1    3    3    0    0 -0.18454181975E+02  0.35287100164E+02  0.16208349841E+03  0.16690355517E+03  0.00000000000E+00 0. -1.
    9900018    1    3    3    0    0  0.97990673728E+01  0.14302012584E+02  0.12187026827E+03  0.15319304804E+03  0.91187600000E+02 0.  0.
<mgrwt>
<rscale>  0 0.84903038E+03</rscale>
<asrwt>0</asrwt>
<pdfrwt beam="1">  1        1 0.29276315E-01 0.84903038E+03</pdfrwt>
<pdfrwt beam="2">  1       -1 0.14569456E+00 0.84903038E+03</pdfrwt>
<totfact> 0.60589214E+01</totfact>
</mgrwt>
</event>
