<event>
11    1  0.1538339E-013  0.1224098E+04  0.7818608E-02  0.9092021E-01
          3   -1    0    0  501    0  0.00000000000E+00  0.00000000000E+00  0.67630594170E+03  0.67630594170E+03  0.00000000000E+00 0. -1.
         -3   -1    0    0    0  501 -0.00000000000E+00 -0.00000000000E+00 -0.55389746530E+03  0.55389746530E+03  0.00000000000E+00 0.  1.
    9900016    2    1    2    0    0 -0.27237552697E+03  0.42656948591E+02  0.37698534302E+03  0.85494692940E+03  0.71610631912E+03 0.  0.
         23    2    3    3    0    0 -0.48809773938E+02 -0.12132821793E+03  0.10519519580E+03  0.18404186413E+03  0.75514555117E+02 0.  0.
        -15    1    4    4    0    0 -0.45348101256E+02 -0.41568685580E+02  0.78774114689E+02  0.99948822171E+02  0.00000000000E+00 0.  1.
        -15    1    3    3    0    0 -0.18944920147E+03 -0.42140822250E+02 -0.19032193552E+02  0.19501044389E+03  0.00000000000E+00 0.  1.
         15    1    3    3    0    0  0.35921445323E+02  0.16945673810E+03  0.12734354321E+03  0.21499375414E+03  0.00000000000E+00 0. -1.
         15    1    4    4    0    0 -0.34616726819E+01 -0.79759532352E+02  0.26421081112E+02  0.84093041958E+02  0.00000000000E+00 0. -1.
        -16    1    1    2    0    0  0.27237552697E+03 -0.42656948591E+02 -0.25457686662E+03  0.37525647759E+03  0.00000000000E+00 0.  1.
         16    1    3    3    0    0  0.18253221275E+02 -0.46442155775E+02  0.26520633894E+02  0.56510157867E+02  0.00000000000E+00 0. -1.
    9900018    1    3    3    0    0 -0.88291218167E+02  0.83111406445E+02  0.13695816367E+03  0.20439070937E+03  0.91187600000E+02 0.  0.
<mgrwt>
<rscale>  0 0.12240983E+04</rscale>
<asrwt>0</asrwt>
<pdfrwt beam="1">  1        3 0.10404707E+00 0.12240983E+04</pdfrwt>
<pdfrwt beam="2">  1       -3 0.85214995E-01 0.12240983E+04</pdfrwt>
<totfact> 0.25974098E+00</totfact>
</mgrwt>
</event>
<event>
10    1  0.1538339E-013  0.9560755E+03  0.7818608E-02  0.9358077E-01
          1   -1    0    0  501    0  0.00000000000E+00  0.00000000000E+00  0.15314669147E+04  0.15314669147E+04  0.00000000000E+00 0. -1.
         -1   -1    0    0    0  501 -0.00000000000E+00 -0.00000000000E+00 -0.14921646048E+03  0.14921646048E+03  0.00000000000E+00 0.  1.
    9900016    2    1    2    0    0 -0.90120212853E+02  0.11616090854E+03  0.13423731848E+04  0.15283508243E+04  0.71573421431E+03 0.  0.
        -15    1    3    3    0    0  0.34161831684E+02 -0.30233687668E+02  0.66966285616E+02  0.81028328523E+02  0.00000000000E+00 0.  1.
        -15    1    3    3    0    0 -0.83496051988E+01  0.81041070532E+02  0.91997592661E+02  0.12288583350E+03  0.00000000000E+00 0.  1.
         15    1    3    3    0    0  0.11417508171E+03  0.22222985034E+02  0.26354912629E+03  0.28807629600E+03  0.00000000000E+00 0. -1.
         15    1    3    3    0    0 -0.10339512558E+03  0.24099963925E+02  0.12744897717E+03  0.16587526047E+03  0.00000000000E+00 0. -1.
        -16    1    1    2    0    0  0.90120212853E+02 -0.11616090854E+03  0.39877269442E+02  0.15233255087E+03  0.00000000000E+00 0.  1.
         16    1    3    3    0    0 -0.53900233908E+02 -0.76663225252E+02  0.37996835843E+02  0.10112489731E+03  0.00000000000E+00 0. -1.
    9900018    1    3    3    0    0 -0.72812161553E+02  0.95693801967E+02  0.75441436723E+03  0.76936020854E+03  0.91187600000E+02 0.  0.
<mgrwt>
<rscale>  0 0.95607546E+03</rscale>
<asrwt>0</asrwt>
<pdfrwt beam="1">  1        1 0.23561028E+00 0.95607546E+03</pdfrwt>
<pdfrwt beam="2">  1       -1 0.22956380E-01 0.95607546E+03</pdfrwt>
<totfact> 0.10138633E+02</totfact>
</mgrwt>
</event>
<event>
11    1  0.1538339E-013  0.8722228E+03  0.7818608E-02  0.9460986E-01
          2   -1    0    0  501    0  0.00000000000E+00  0.00000000000E+00  0.73388164337E+03  0.73388164337E+03  0.00000000000E+00 0. -1.
         -2   -1    0    0    0  501 -0.00000000000E+00 -0.00000000000E+00 -0.25916053732E+03  0.25916053732E+03  0.00000000000E+00 0.  1.
    9900016    2    1    2    0    0  0.30524480879E+02 -0.29553234584E+02  0.24578846913E+03  0.76020041070E+03  0.71811388739E+03 0.  0.
         23    2    3    3    0    0 -0.17566741003E+02 -0.80232914884E+02  0.73608502347E+01  0.13320531439E+03  0.10461148429E+03 0.  0.
        -15    1    4    4    0    0 -0.28962707350E+01 -0.20487400013E+02 -0.46845112303E+02  0.51211194969E+02  0.00000000000E+00 0. -1.
        -15    1    3    3    0    0  0.41545579623E+01  0.49180757866E+02 -0.96067043475E+02  0.10800409315E+03  0.00000000000E+00 0.  1.
         15    1    4    4    0    0 -0.14670470269E+02 -0.59745514871E+02  0.54205962537E+02  0.81994119422E+02  0.00000000000E+00 0. -1.
         15    1    3    3    0    0  0.46886369542E+01 -0.10384617471E+03  0.99801464163E+01  0.10442995088E+03  0.00000000000E+00 0.  1.
        -16    1    3    3    0    0  0.96653873276E+02  0.16562613376E+01  0.19109678782E+03  0.21415577680E+03  0.00000000000E+00 0.  1.
         16    1    1    2    0    0 -0.30524480879E+02  0.29553234584E+02  0.22893263692E+03  0.23284176999E+03  0.00000000000E+00 0. -1.
    9900018    1    3    3    0    0 -0.57405846310E+02  0.10368883581E+03  0.13341772813E+03  0.20040527547E+03  0.91187600000E+02 0.  0.
<mgrwt>
<rscale>  0 0.87222282E+03</rscale>
<asrwt>0</asrwt>
<pdfrwt beam="1">  1        2 0.11290487E+00 0.87222282E+03</pdfrwt>
<pdfrwt beam="2">  1       -2 0.39870852E-01 0.87222282E+03</pdfrwt>
<totfact> 0.23034261E+02</totfact>
</mgrwt>
</event>
<event>
11    1  0.1538339E-013  0.1026076E+04  0.7818608E-02  0.9280398E-01
         -1   -1    0    0    0  501 -0.00000000000E+00  0.00000000000E+00  0.56689578551E+03  0.56689578551E+03  0.00000000000E+00 0.  1.
          1   -1    0    0  501    0  0.00000000000E+00 -0.00000000000E+00 -0.46429706539E+03  0.46429706539E+03  0.00000000000E+00 0. -1.
    9900016    2    1    2    0    0 -0.12066278706E+03  0.23136910981E+03  0.19599819475E+02  0.75736810647E+03  0.71072577174E+03 0.  0.
         23    2    3    3    0    0  0.27047832780E+02  0.15591405305E+03  0.15135527021E+03  0.23185903874E+03  0.76219543619E+02 0.  0.
        -15    1    3    3    0    0 -0.14388425548E+03 -0.59459720473E+02 -0.90641108359E+02  0.18014979284E+03  0.00000000000E+00 0.  1.
        -15    1    4    4    0    0 -0.23723420851E+02  0.69555430467E+02  0.81442624906E+02  0.10969803898E+03  0.00000000000E+00 0.  1.
         15    1    3    3    0    0 -0.91112826035E+02  0.51563645296E+02 -0.20949715137E+02  0.10676725691E+03  0.00000000000E+00 0. -1.
         15    1    4    4    0    0  0.50771253631E+02  0.86358622583E+02  0.69912645302E+02  0.12216099976E+03  0.00000000000E+00 0. -1.
        -16    1    3    3    0    0 -0.12057495717E+02  0.79462632656E+02 -0.57255146523E+02  0.98680519836E+02  0.00000000000E+00 0.  1.
         16    1    1    2    0    0  0.12066278706E+03 -0.23136910981E+03  0.82998900651E+02  0.27382474443E+03  0.00000000000E+00 0. -1.
    9900018    1    3    3    0    0  0.99343957394E+02  0.38884992764E+01  0.37090519286E+02  0.13991149814E+03  0.91187600000E+02 0.  0.
<mgrwt>
<rscale>  0 0.10260761E+04</rscale>
<asrwt>0</asrwt>
<pdfrwt beam="1">  1        1 0.71430317E-01 0.10260761E+04</pdfrwt>
<pdfrwt beam="2">  1       -1 0.87214737E-01 0.10260761E+04</pdfrwt>
<totfact> 0.63627078E+01</totfact>
</mgrwt>
</event>
<event>
11    1  0.1538339E-013  0.2416424E+04  0.7818608E-02  0.8433380E-01
          2   -1    0    0  501    0  0.00000000000E+00  0.00000000000E+00  0.29228089312E+04  0.29228089312E+04  0.00000000000E+00 0. -1.
         -2   -1    0    0    0  501 -0.00000000000E+00 -0.00000000000E+00 -0.49944281570E+03  0.49944281570E+03  0.00000000000E+00 0.  1.
    9900016    2    1    2    0    0 -0.21355213682E+03 -0.10176311648E+04  0.78964560680E+03  0.14857031668E+04  0.70894006293E+03 0.  0.
         23    2    3    3    0    0 -0.13410373622E+03 -0.16121347724E+03  0.23470827213E+03  0.32434683996E+03  0.78353699797E+02 0.  0.
        -15    1    3    3    0    0  0.38535336389E+02 -0.26134137447E+03  0.70306966532E+02  0.27336304743E+03  0.00000000000E+00 0.  1.
        -15    1    4    4    0    0 -0.12787585947E+03 -0.13046179860E+03  0.15822063126E+03  0.24167392181E+03  0.00000000000E+00 0.  1.
         15    1    4    4    0    0 -0.62278767450E+01 -0.30751678643E+02  0.76487640871E+02  0.82672918142E+02  0.00000000000E+00 0. -1.
         15    1    3    3    0    0  0.57189903986E+01 -0.36917355198E+02 -0.43547874259E+02  0.57376086643E+02  0.00000000000E+00 0. -1.
        -16    1    3    3    0    0  0.57259790073E+02 -0.23748310608E+03  0.30400010224E+03  0.38999098886E+03  0.00000000000E+00 0.  1.
         16    1    1    2    0    0  0.21355213682E+03  0.10176311648E+04  0.16337205087E+04  0.19365485801E+04  0.00000000000E+00 0. -1.
    9900018    1    3    3    0    0 -0.18096251747E+03 -0.32067585176E+03  0.22417814016E+03  0.44062620389E+03  0.91187600000E+02 0.  0.
<mgrwt>
<rscale>  0 0.24164237E+04</rscale>
<asrwt>0</asrwt>
<pdfrwt beam="1">  1        2 0.44966290E+00 0.24164237E+04</pdfrwt>
<pdfrwt beam="2">  1       -2 0.76837358E-01 0.24164237E+04</pdfrwt>
<totfact> 0.26435272E+00</totfact>
</mgrwt>
</event>
<event>
10    1  0.1538339E-013  0.9593555E+03  0.7818608E-02  0.9354282E-01
         -1   -1    0    0    0  501 -0.00000000000E+00  0.00000000000E+00  0.33634233189E+03  0.33634233189E+03  0.00000000000E+00 0.  1.
          1   -1    0    0  501    0  0.00000000000E+00 -0.00000000000E+00 -0.68409690484E+03  0.68409690484E+03  0.00000000000E+00 0. -1.
    9900016    2    1    2    0    0  0.61806447279E+02  0.33287289593E+01 -0.43360795568E+02  0.70981617083E+03  0.70578163792E+03 0.  0.
        -15    1    3    3    0    0  0.17562214653E+03  0.78956424101E+02 -0.10060803535E+03  0.21725384239E+03  0.00000000000E+00 0.  1.
        -15    1    3    3    0    0  0.61157182657E+02 -0.22876434455E+02  0.13775034032E+02  0.66732928952E+02  0.00000000000E+00 0. -1.
         15    1    3    3    0    0 -0.16187849676E+02  0.71227250406E+01  0.22915455578E+02  0.28946464266E+02  0.00000000000E+00 0.  1.
         15    1    3    3    0    0 -0.19037538192E+03 -0.96228319382E+02 -0.86012080861E+02  0.23000163814E+03  0.00000000000E+00 0. -1.
        -16    1    3    3    0    0 -0.15487197907E+02  0.14535524050E+02  0.73397689936E+01  0.22472360074E+02  0.00000000000E+00 0.  1.
         16    1    1    2    0    0 -0.61806447279E+02 -0.33287289593E+01 -0.30439377738E+03  0.31062306591E+03  0.00000000000E+00 0. -1.
    9900018    1    3    3    0    0  0.47077547598E+02  0.21818809606E+02  0.99229062038E+02  0.14440893701E+03  0.91187600000E+02 0.  0.
<mgrwt>
<rscale>  0 0.95935551E+03</rscale>
<asrwt>0</asrwt>
<pdfrwt beam="1">  1        1 0.10524568E+00 0.95935551E+03</pdfrwt>
<pdfrwt beam="2">  1       -1 0.51744974E-01 0.95935551E+03</pdfrwt>
<totfact> 0.10653403E+02</totfact>
</mgrwt>
</event>
<event>
11    1  0.1538339E-013  0.1238559E+04  0.7818608E-02  0.9079759E-01
          2   -1    0    0  501    0  0.00000000000E+00  0.00000000000E+00  0.14555792817E+04  0.14555792817E+04  0.00000000000E+00 0. -1.
         -2   -1    0    0    0  501 -0.00000000000E+00 -0.00000000000E+00 -0.26347400214E+03  0.26347400214E+03  0.00000000000E+00 0.  1.
    9900016    2    1    2    0    0 -0.63080221264E+02 -0.24736686525E+03  0.34213439947E+03  0.83157371939E+03  0.71364516612E+03 0.  0.
         23    2    3    3    0    0 -0.13081941855E+03  0.91233220767E+02 -0.70406864213E+02  0.18638962720E+03  0.65929854847E+02 0.  0.
        -15    1    3    3    0    0  0.14313081550E+02 -0.22206806567E+02  0.23721057862E+02  0.35506269128E+02  0.00000000000E+00 0.  1.
        -15    1    4    4    0    0 -0.11092751801E+02  0.33865282720E+02  0.98682217292E+00  0.35649408610E+02  0.00000000000E+00 0. -1.
         15    1    3    3    0    0  0.56360691491E+02 -0.53538295209E+02 -0.59618196072E+01  0.77964221873E+02  0.00000000000E+00 0.  1.
         15    1    4    4    0    0 -0.11972666674E+03  0.57367938047E+02 -0.71393686386E+02  0.15074021859E+03  0.00000000000E+00 0. -1.
        -16    1    3    3    0    0 -0.35100414163E+01  0.33621509799E+02  0.59626132492E+01  0.34326069811E+02  0.00000000000E+00 0.  1.
         16    1    1    2    0    0  0.63080221264E+02  0.24736686525E+03  0.84997088011E+03  0.88747956448E+03  0.00000000000E+00 0. -1.
    9900018    1    3    3    0    0  0.57546565672E+00 -0.29647649404E+03  0.38881941218E+03  0.49738753137E+03  0.91187600000E+02 0.  0.
<mgrwt>
<rscale>  0 0.12385593E+04</rscale>
<asrwt>0</asrwt>
<pdfrwt beam="1">  1        2 0.22393527E+00 0.12385593E+04</pdfrwt>
<pdfrwt beam="2">  1       -2 0.40534463E-01 0.12385593E+04</pdfrwt>
<totfact> 0.76250134E+01</totfact>
</mgrwt>
</event>
<event>
11    1  0.1538339E-013  0.7893174E+03  0.7818608E-02  0.9575610E-01
         -1   -1    0    0    0  501 -0.00000000000E+00  0.00000000000E+00  0.11292160532E+03  0.11292160532E+03  0.00000000000E+00 0.  1.
          1   -1    0    0  501    0  0.00000000000E+00 -0.00000000000E+00 -0.13793240643E+04  0.13793240643E+04  0.00000000000E+00 0. -1.
    9900016    2    1    2    0    0  0.71512996239E+02 -0.27697343991E+02 -0.11566123737E+04  0.13583236239E+04  0.70810284058E+03 0.  0.
         23    2    3    3    0    0  0.99295423131E+02  0.89898209544E+02 -0.13682442490E+03  0.21928224310E+03  0.10687614212E+03 0.  0.
        -15    1    3    3    0    0  0.24546058277E+02 -0.29996875217E+02 -0.57855314597E+02  0.69638774593E+02  0.00000000000E+00 0.  1.
        -15    1    4    4    0    0  0.11773785504E+03  0.93614939902E+02 -0.13132877473E+03  0.19968276479E+03  0.00000000000E+00 0.  1.
         15    1    3    3    0    0 -0.15201389284E+03 -0.12482685001E+03 -0.18040802949E+03  0.26690264743E+03  0.00000000000E+00 0. -1.
         15    1    4    4    0    0 -0.18442431905E+02 -0.37167303580E+01 -0.54956501640E+01  0.19599478305E+02  0.00000000000E+00 0. -1.
        -16    1    3    3    0    0  0.31133687350E+02  0.26808829193E+02 -0.65144324873E+02  0.77018198329E+02  0.00000000000E+00 0.  1.
         16    1    1    2    0    0 -0.71512996239E+02  0.27697343991E+02 -0.10979008525E+03  0.13392204566E+03  0.00000000000E+00 0. -1.
    9900018    1    3    3    0    0  0.68551720317E+02  0.10419342503E+02 -0.71638027985E+03  0.72548176049E+03  0.91187600000E+02 0.  0.
<mgrwt>
<rscale>  0 0.78931740E+03</rscale>
<asrwt>0</asrwt>
<pdfrwt beam="1">  1        1 0.21220370E+00 0.78931740E+03</pdfrwt>
<pdfrwt beam="2">  1       -1 0.17372555E-01 0.78931740E+03</pdfrwt>
<totfact> 0.20825709E+02</totfact>
</mgrwt>
</event>
<event>
10    1  0.1538339E-013  0.9560287E+03  0.7818608E-02  0.9358132E-01
         -1   -1    0    0    0  501 -0.00000000000E+00  0.00000000000E+00  0.28659729406E+03  0.28659729406E+03  0.00000000000E+00 0.  1.
          1   -1    0    0  501    0  0.00000000000E+00 -0.00000000000E+00 -0.79727802605E+03  0.79727802605E+03  0.00000000000E+00 0. -1.
    9900016    2    1    2    0    0  0.36932559755E+02  0.19995941034E+03 -0.48287945669E+03  0.87864206096E+03  0.70533078895E+03 0.  0.
        -15    1    3    3    0    0 -0.64515864314E+02  0.11532992802E+02 -0.12945229492E+03  0.14509722027E+03  0.00000000000E+00 0. -1.
        -15    1    3    3    0    0 -0.12724293104E+02  0.13740850942E+03 -0.21849518088E+02  0.13971545204E+03  0.00000000000E+00 0. -1.
         15    1    3    3    0    0 -0.65179992936E+02 -0.40516582148E+02 -0.19619976172E+03  0.21067598678E+03  0.00000000000E+00 0.  1.
         15    1    3    3    0    0 -0.35224987423E+02  0.15990404801E+02  0.14340260002E+02  0.41256949010E+02  0.00000000000E+00 0.  1.
        -16    1    3    3    0    0  0.13336029253E+03 -0.25748881898E+02 -0.11838764768E+03  0.18017660133E+03  0.00000000000E+00 0.  1.
         16    1    1    2    0    0 -0.36932559755E+02 -0.19995941034E+03 -0.27801275296E+02  0.20523325915E+03  0.00000000000E+00 0. -1.
    9900018    1    3    3    0    0  0.81217405001E+02  0.10129296736E+03 -0.31330494282E+02  0.16171985152E+03  0.91187600000E+02 0.  0.
<mgrwt>
<rscale>  0 0.95602871E+03</rscale>
<asrwt>0</asrwt>
<pdfrwt beam="1">  1        1 0.12265816E+00 0.95602871E+03</pdfrwt>
<pdfrwt beam="2">  1       -1 0.44091891E-01 0.95602871E+03</pdfrwt>
<totfact> 0.11358540E+02</totfact>
</mgrwt>
</event>
<event>
11    1  0.1538339E-013  0.1048483E+04  0.7818608E-02  0.9256912E-01
         -1   -1    0    0    0  501 -0.00000000000E+00  0.00000000000E+00  0.19358643466E+03  0.19358643466E+03  0.00000000000E+00 0.  1.
          1   -1    0    0  501    0  0.00000000000E+00 -0.00000000000E+00 -0.14196708307E+04  0.14196708307E+04  0.00000000000E+00 0. -1.
    9900016    2    1    2    0    0 -0.18055066046E+03 -0.20183053595E+03 -0.77112696608E+03  0.10838043691E+04  0.71180124086E+03 0.  0.
         23    2    3    3    0    0  0.18577505478E+03 -0.92361061652E+02 -0.15270487700E+03  0.26760390720E+03  0.72457815314E+02 0.  0.
        -15    1    3    3    0    0 -0.13278629768E+03  0.70701499646E+02 -0.27186263471E+03  0.31070918083E+03  0.00000000000E+00 0.  1.
        -15    1    4    4    0    0  0.10284495805E+03 -0.32192203941E+02 -0.39146225518E+02  0.11465535471E+03  0.00000000000E+00 0. -1.
         15    1    3    3    0    0 -0.14471104255E+03 -0.14043611190E+03 -0.24256432546E+03  0.31543785338E+03  0.00000000000E+00 0. -1.
         15    1    4    4    0    0  0.82930096725E+02 -0.60168857712E+02 -0.11355865148E+03  0.15294855249E+03  0.00000000000E+00 0.  1.
        -16    1    3    3    0    0 -0.54406040962E+02 -0.37978559756E+01 -0.44128658237E+02  0.70155395238E+02  0.00000000000E+00 0.  1.
         16    1    1    2    0    0  0.18055066046E+03  0.20183053595E+03 -0.45495742992E+03  0.52945289618E+03  0.00000000000E+00 0. -1.
    9900018    1    3    3    0    0 -0.34422334052E+02 -0.35937006073E+02 -0.59866470678E+02  0.11989803248E+03  0.91187600000E+02 0.  0.
<mgrwt>
<rscale>  0 0.10484827E+04</rscale>
<asrwt>0</asrwt>
<pdfrwt beam="1">  1        1 0.21841090E+00 0.10484827E+04</pdfrwt>
<pdfrwt beam="2">  1       -1 0.29782528E-01 0.10484827E+04</pdfrwt>
<totfact> 0.76857832E+01</totfact>
</mgrwt>
</event>
<event>
11    1  0.1538339E-013  0.7963346E+03  0.7818608E-02  0.9565338E-01
         -1   -1    0    0    0  501 -0.00000000000E+00  0.00000000000E+00  0.13151944206E+03  0.13151944206E+03  0.00000000000E+00 0.  1.
          1   -1    0    0  501    0  0.00000000000E+00 -0.00000000000E+00 -0.12054278118E+04  0.12054278118E+04  0.00000000000E+00 0. -1.
    9900016    2    1    2    0    0  0.26225335033E+02 -0.50806122835E+02 -0.10592613737E+04  0.12779255222E+04  0.71259381990E+03 0.  0.
         23    2    3    3    0    0  0.10404987127E+03 -0.18419254863E+03 -0.42502175395E+03  0.48653809527E+03  0.10640750040E+03 0.  0.
        -15    1    4    4    0    0  0.12019265992E+03 -0.11719897983E+03 -0.29860959833E+03  0.34256323298E+03  0.00000000000E+00 0.  1.
        -15    1    3    3    0    0 -0.10323247488E+03  0.66969609202E+02 -0.14625637155E+03  0.19113555045E+03  0.00000000000E+00 0.  1.
         15    1    4    4    0    0 -0.16142788650E+02 -0.66993568803E+02 -0.12641215561E+03  0.14397486230E+03  0.00000000000E+00 0. -1.
         15    1    3    3    0    0 -0.38249780931E+02  0.92338033924E+02 -0.13018689974E+03  0.16412795957E+03  0.00000000000E+00 0. -1.
        -16    1    1    2    0    0 -0.26225335033E+02  0.50806122835E+02 -0.14646996023E+02  0.59021731655E+02  0.00000000000E+00 0.  1.
         16    1    3    3    0    0  0.12771721803E+03 -0.38516419642E+01 -0.13406496645E+03  0.18520242481E+03  0.00000000000E+00 0. -1.
    9900018    1    3    3    0    0 -0.64059498463E+02 -0.22069575364E+02 -0.22373138204E+03  0.25092149211E+03  0.91187600000E+02 0.  0.
<mgrwt>
<rscale>  0 0.79633459E+03</rscale>
<asrwt>0</asrwt>
<pdfrwt beam="1">  1        1 0.18545044E+00 0.79633459E+03</pdfrwt>
<pdfrwt beam="2">  1       -1 0.20233760E-01 0.79633459E+03</pdfrwt>
<totfact> 0.21479825E+02</totfact>
</mgrwt>
</event>
<event>
11    1  0.1538339E-013  0.9615575E+03  0.7818608E-02  0.9351743E-01
         -1   -1    0    0    0  501 -0.00000000000E+00  0.00000000000E+00  0.57926070178E+03  0.57926070178E+03  0.00000000000E+00 0.  1.
          1   -1    0    0  501    0  0.00000000000E+00 -0.00000000000E+00 -0.39904004558E+03  0.39904004558E+03  0.00000000000E+00 0. -1.
    9900016    2    1    2    0    0 -0.18480460724E+03 -0.62148398940E+02  0.16951824625E+03  0.78303245006E+03  0.73918077335E+03 0.  0.
         23    2    3    3    0    0 -0.10696435797E+03 -0.22898841205E+02  0.62321849024E+02  0.14807430141E+03  0.77950337192E+02 0.  0.
        -15    1    4    4    0    0 -0.10136394874E+03 -0.87989140261E+01  0.76510072758E+02  0.12730224752E+03  0.00000000000E+00 0.  1.
        -15    1    3    3    0    0 -0.83638425310E+02  0.96338404670E+02  0.90401070049E+02  0.15636120960E+03  0.00000000000E+00 0.  1.
         15    1    3    3    0    0  0.97821228360E+01  0.29965689720E+02 -0.73616467029E+02  0.80081313085E+02  0.00000000000E+00 0. -1.
         15    1    4    4    0    0 -0.56004092386E+01 -0.14099927179E+02 -0.14188223734E+02  0.20772053890E+02  0.00000000000E+00 0. -1.
        -16    1    1    2    0    0  0.18480460724E+03  0.62148398940E+02  0.10702409958E+02  0.19526829729E+03  0.00000000000E+00 0.  1.
         16    1    3    3    0    0  0.15225215056E+03 -0.84438266478E+02  0.98621515063E+02  0.20009183249E+03  0.00000000000E+00 0. -1.
    9900018    1    3    3    0    0 -0.15623609735E+03 -0.81115385647E+02 -0.82097208617E+01  0.19842379347E+03  0.91187600000E+02 0.  0.
<mgrwt>
<rscale>  0 0.96155752E+03</rscale>
<asrwt>0</asrwt>
<pdfrwt beam="1">  1        1 0.61390776E-01 0.96155752E+03</pdfrwt>
<pdfrwt beam="2">  1       -1 0.89117031E-01 0.96155752E+03</pdfrwt>
<totfact> 0.74706254E+01</totfact>
</mgrwt>
</event>
<event>
10    1  0.1538339E-013  0.1152064E+04  0.7818608E-02  0.9155881E-01
         -2   -1    0    0    0  501 -0.00000000000E+00  0.00000000000E+00  0.49162490150E+03  0.49162490150E+03  0.00000000000E+00 0.  1.
          2   -1    0    0  501    0  0.00000000000E+00 -0.00000000000E+00 -0.67493114430E+03  0.67493114430E+03  0.00000000000E+00 0. -1.
    9900016    2    1    2    0    0 -0.25312612853E+03  0.11815309921E+03  0.84006492489E+02  0.77991785545E+03  0.72331305716E+03 0.  0.
        -15    1    3    3    0    0 -0.39125669004E+02 -0.84870495349E+02  0.27867624951E+02  0.97521400093E+02  0.00000000000E+00 0.  1.
        -15    1    3    3    0    0 -0.74666336073E+02  0.20192035655E+02 -0.19915983915E+01  0.77374068722E+02  0.00000000000E+00 0. -1.
         15    1    3    3    0    0 -0.58059587256E+02 -0.47949134246E+02 -0.64015946356E+01  0.75571261477E+02  0.00000000000E+00 0. -1.
         15    1    3    3    0    0  0.27213072957E+02  0.38840482824E+02  0.59047540392E+01  0.47791218503E+02  0.00000000000E+00 0.  1.
        -16    1    3    3    0    0  0.46252623615E+02  0.69305438618E+02 -0.15552483331E+03  0.17643843909E+03  0.00000000000E+00 0.  1.
         16    1    1    2    0    0  0.25312612853E+03 -0.11815309921E+03 -0.26731273528E+03  0.38663819036E+03  0.00000000000E+00 0. -1.
    9900018    1    3    3    0    0 -0.15474023277E+03  0.12263477170E+03  0.21415213983E+03  0.30522146756E+03  0.91187600000E+02 0.  0.
<mgrwt>
<rscale>  0 0.11520642E+04</rscale>
<asrwt>0</asrwt>
<pdfrwt beam="1">  1        2 0.10383556E+00 0.11520642E+04</pdfrwt>
<pdfrwt beam="2">  1       -2 0.75634601E-01 0.11520642E+04</pdfrwt>
<totfact> 0.66583700E+01</totfact>
</mgrwt>
</event>
<event>
11    1  0.1538339E-013  0.1220660E+04  0.7818608E-02  0.9094962E-01
         -2   -1    0    0    0  501 -0.00000000000E+00  0.00000000000E+00  0.42880778751E+03  0.42880778751E+03  0.00000000000E+00 0.  1.
          2   -1    0    0  501    0  0.00000000000E+00 -0.00000000000E+00 -0.86869455959E+03  0.86869455959E+03  0.00000000000E+00 0. -1.
    9900016    2    1    2    0    0 -0.17295460813E+03  0.19738540099E+03  0.33784324044E+02  0.75598725008E+03  0.70816738751E+03 0.  0.
         23    2    3    3    0    0 -0.10297584236E+02  0.32550003225E+02 -0.15141421563E+03  0.19092732444E+03  0.11118199302E+03 0.  0.
        -15    1    3    3    0    0 -0.16275538696E+03  0.16409154785E+02  0.19826141766E+03  0.25703339487E+03  0.00000000000E+00 0.  1.
        -15    1    4    4    0    0  0.39574635915E+01 -0.33433673486E+02 -0.11496168301E+02  0.35575749134E+02  0.00000000000E+00 0. -1.
         15    1    4    4    0    0 -0.14255047828E+02  0.65983676711E+02 -0.13991804733E+03  0.15535157531E+03  0.00000000000E+00 0. -1.
         15    1    3    3    0    0  0.18327789624E+02  0.48824347779E+02 -0.67818334979E+01  0.52590094829E+02  0.00000000000E+00 0.  1.
        -16    1    3    3    0    0  0.24350859543E+01  0.10893111421E+03 -0.80686158087E+02  0.13558087400E+03  0.00000000000E+00 0.  1.
         16    1    1    2    0    0  0.17295460813E+03 -0.19738540099E+03 -0.47367109612E+03  0.54151509702E+03  0.00000000000E+00 0. -1.
    9900018    1    3    3    0    0 -0.20664512508E+02 -0.93292190085E+01  0.74405113600E+02  0.11985556194E+03  0.91187600000E+02 0.  0.
<mgrwt>
<rscale>  0 0.12206605E+04</rscale>
<asrwt>0</asrwt>
<pdfrwt beam="1">  1        2 0.13364532E+00 0.12206605E+04</pdfrwt>
<pdfrwt beam="2">  1       -2 0.65970429E-01 0.12206605E+04</pdfrwt>
<totfact> 0.64206191E+01</totfact>
</mgrwt>
</event>
<event>
11    1  0.1538339E-013  0.8376057E+03  0.7818608E-02  0.9507125E-01
         -1   -1    0    0    0  501 -0.00000000000E+00  0.00000000000E+00  0.17339517963E+03  0.17339517963E+03  0.00000000000E+00 0.  1.
          1   -1    0    0  501    0  0.00000000000E+00 -0.00000000000E+00 -0.10115380213E+04  0.10115380213E+04  0.00000000000E+00 0. -1.
    9900016    2    1    2    0    0 -0.86134591878E+02  0.90261355394E+01 -0.78289160558E+03  0.10822037595E+04  0.74212200616E+03 0.  0.
         23    2    3    3    0    0 -0.95142896511E+02 -0.46472121487E+02 -0.38675400827E+03  0.41430242603E+03  0.10419217088E+03 0.  0.
        -15    1    4    4    0    0 -0.11663396017E+03 -0.40161371600E+02 -0.29295888993E+03  0.31786998541E+03  0.00000000000E+00 0.  1.
        -15    1    3    3    0    0 -0.61123180228E+02 -0.99102456999E+02 -0.26185518295E+02  0.11934413062E+03  0.00000000000E+00 0.  1.
         15    1    4    4    0    0  0.21491063655E+02 -0.63107498860E+01 -0.93795118337E+02  0.96432440625E+02  0.00000000000E+00 0. -1.
         15    1    3    3    0    0  0.11051154504E+02 -0.22560201572E+02  0.34795406055E+02  0.42916325488E+02  0.00000000000E+00 0. -1.
        -16    1    3    3    0    0  0.94343102357E+02  0.88345867190E+02 -0.32876571083E+03  0.35325982765E+03  0.00000000000E+00 0.  1.
         16    1    1    2    0    0  0.86134591878E+02 -0.90261355394E+01 -0.55251236098E+02  0.10272944140E+03  0.00000000000E+00 0. -1.
    9900018    1    3    3    0    0 -0.35262772000E+02  0.88815048406E+02 -0.75981774246E+02  0.15238104975E+03  0.91187600000E+02 0.  0.
<mgrwt>
<rscale>  0 0.83760568E+03</rscale>
<asrwt>0</asrwt>
<pdfrwt beam="1">  1        1 0.15562124E+00 0.83760568E+03</pdfrwt>
<pdfrwt beam="2">  1       -1 0.26676181E-01 0.83760568E+03</pdfrwt>
<totfact> 0.18720525E+02</totfact>
</mgrwt>
</event>
<event>
11    1  0.1538339E-013  0.1558079E+04  0.7818608E-02  0.8846724E-01
         -2   -1    0    0    0  501 -0.00000000000E+00  0.00000000000E+00  0.49413352252E+03  0.49413352252E+03  0.00000000000E+00 0. -1.
          2   -1    0    0  501    0  0.00000000000E+00 -0.00000000000E+00 -0.12282154946E+04  0.12282154946E+04  0.00000000000E+00 0.  1.
    9900016    2    1    2    0    0 -0.51437507484E+03 -0.24139408025E+03 -0.71583628374E+03  0.11538547561E+04  0.70434820473E+03 0.  0.
         23    2    3    3    0    0 -0.23100643682E+03 -0.15900841253E+03 -0.68838225730E+02  0.29927414494E+03  0.78604474439E+02 0.  0.
        -15    1    3    3    0    0  0.19678652464E+01  0.55659668024E+02 -0.14845877635E+03  0.15856191035E+03  0.00000000000E+00 0.  1.
        -15    1    4    4    0    0 -0.16683635910E+03 -0.72387145915E+02 -0.28045067045E+02  0.18401303051E+03  0.00000000000E+00 0.  1.
         15    1    4    4    0    0 -0.64170077716E+02 -0.86621266617E+02 -0.40793158685E+02  0.11526111443E+03  0.00000000000E+00 0. -1.
         15    1    3    3    0    0 -0.21572355203E+03  0.10477910376E+02 -0.10964320909E+03  0.24221492688E+03  0.00000000000E+00 0. -1.
        -16    1    3    3    0    0 -0.74253677627E+02 -0.34757661546E+02 -0.93511592548E+02  0.12436286270E+03  0.00000000000E+00 0.  1.
         16    1    1    2    0    0  0.51437507484E+03  0.24139408025E+03 -0.18245688282E+02  0.56849426095E+03  0.00000000000E+00 0. -1.
    9900018    1    3    3    0    0  0.46407263861E+01 -0.11376558457E+03 -0.29538448003E+03  0.32944091125E+03  0.91187600000E+02 0.  0.
<mgrwt>
<rscale>  0 0.15580789E+04</rscale>
<asrwt>0</asrwt>
<pdfrwt beam="1">  1        2 0.18895623E+00 0.15580789E+04</pdfrwt>
<pdfrwt beam="2">  1       -2 0.76020543E-01 0.15580789E+04</pdfrwt>
<totfact> 0.27164043E+01</totfact>
</mgrwt>
</event>
<event>
11    1  0.1538339E-013  0.7636156E+03  0.7818608E-02  0.9614229E-01
         -2   -1    0    0    0  501 -0.00000000000E+00  0.00000000000E+00  0.93516145528E+02  0.93516145528E+02  0.00000000000E+00 0. -1.
          2   -1    0    0  501    0  0.00000000000E+00 -0.00000000000E+00 -0.15588451981E+04  0.15588451981E+04  0.00000000000E+00 0.  1.
    9900016    2    1    2    0    0 -0.29335806157E+01  0.18119209551E+02 -0.12904323027E+04  0.14765040585E+04  0.71729477553E+03 0.  0.
         23    2    3    3    0    0 -0.81556846126E+02  0.15177796262E+03 -0.78384520450E+03  0.80437217954E+03  0.53974341257E+02 0.  0.
        -15    1    4    4    0    0 -0.28839761203E+02  0.74977655932E+02 -0.47636977283E+03  0.48309578882E+03  0.00000000000E+00 0.  1.
        -15    1    3    3    0    0 -0.12942910696E+03 -0.12452083449E+02 -0.17692650453E+03  0.21956761172E+03  0.00000000000E+00 0.  1.
         15    1    3    3    0    0  0.53605038668E+02 -0.69769694866E+02 -0.29885061633E+02  0.92921619664E+02  0.00000000000E+00 0. -1.
         15    1    4    4    0    0 -0.52717084923E+02  0.76800306684E+02 -0.30747543168E+03  0.32127639072E+03  0.00000000000E+00 0. -1.
        -16    1    1    2    0    0  0.29335806157E+01 -0.18119209551E+02 -0.17489674984E+03  0.17585728519E+03  0.00000000000E+00 0.  1.
         16    1    3    3    0    0  0.33314214442E+02 -0.37330809589E+01 -0.92854466041E+02  0.98720436795E+02  0.00000000000E+00 0. -1.
    9900018    1    3    3    0    0  0.12113311936E+03 -0.47703893791E+02 -0.20692106604E+03  0.26092221073E+03  0.91187600000E+02 0.  0.
<mgrwt>
<rscale>  0 0.76361560E+03</rscale>
<asrwt>0</asrwt>
<pdfrwt beam="1">  1        2 0.23982235E+00 0.76361560E+03</pdfrwt>
<pdfrwt beam="2">  1       -2 0.14387098E-01 0.76361560E+03</pdfrwt>
<totfact> 0.44778272E+02</totfact>
</mgrwt>
</event>
<event>
11    1  0.1538339E-013  0.8586053E+03  0.7818608E-02  0.9478859E-01
         -3   -1    0    0    0  501 -0.00000000000E+00  0.00000000000E+00  0.23883130447E+04  0.23883130447E+04  0.00000000000E+00 0.  1.
          3   -1    0    0  501    0  0.00000000000E+00 -0.00000000000E+00 -0.77167765438E+02  0.77167765438E+02  0.00000000000E+00 0. -1.
    9900016    2    1    2    0    0  0.47271010436E+02  0.58974621079E+02  0.22721855271E+04  0.23804489534E+04  0.70568944737E+03 0.  0.
         23    2    3    3    0    0 -0.11033125781E+03 -0.10193706278E+03  0.46839518954E+03  0.49529756719E+03  0.57978230863E+02 0.  0.
        -15    1    4    4    0    0 -0.34983454112E+02 -0.57576594896E+01  0.15323851022E+03  0.15728647023E+03  0.00000000000E+00 0.  1.
        -15    1    3    3    0    0  0.11274692047E+03  0.15762362342E+03  0.48662756300E+03  0.52379715521E+03  0.00000000000E+00 0.  1.
         15    1    3    3    0    0  0.61373340601E+02 -0.10223798408E+03  0.22934148663E+03  0.25848947718E+03  0.00000000000E+00 0. -1.
         15    1    4    4    0    0 -0.75347803703E+02 -0.96179403294E+02  0.31515667932E+03  0.33801109695E+03  0.00000000000E+00 0. -1.
        -16    1    3    3    0    0 -0.41256981335E+02  0.26867427173E+02  0.17472237111E+03  0.18152659342E+03  0.00000000000E+00 0.  1.
         16    1    1    2    0    0 -0.47271010436E+02 -0.58974621079E+02  0.38959752145E+02  0.85031856655E+02  0.00000000000E+00 0. -1.
    9900018    1    3    3    0    0  0.24738988511E+02  0.78658617354E+02  0.91309891679E+03  0.92133816044E+03  0.91187600000E+02 0.  0.
<mgrwt>
<rscale>  0 0.85860534E+03</rscale>
<asrwt>0</asrwt>
<pdfrwt beam="1">  1        3 0.11871966E-01 0.85860534E+03</pdfrwt>
<pdfrwt beam="2">  1       -3 0.36743272E+00 0.85860534E+03</pdfrwt>
<totfact> 0.25039762E+00</totfact>
</mgrwt>
</event>
<event>
10    1  0.1538339E-013  0.1153664E+04  0.7818608E-02  0.9154410E-01
         -1   -1    0    0    0  501 -0.00000000000E+00  0.00000000000E+00  0.41765756418E+03  0.41765756418E+03  0.00000000000E+00 0.  1.
          1   -1    0    0  501    0  0.00000000000E+00 -0.00000000000E+00 -0.79666951775E+03  0.79666951775E+03  0.00000000000E+00 0. -1.
    9900016    2    1    2    0    0 -0.22190791945E+03 -0.23160004894E+03 -0.42610838347E+03  0.89013611799E+03  0.71266559248E+03 0.  0.
        -15    1    3    3    0    0  0.89741928102E+00 -0.17290307319E+02 -0.58276085518E+02  0.60793603544E+02  0.00000000000E+00 0. -1.
        -15    1    3    3    0    0 -0.27829376735E+02 -0.43487675991E+02  0.23056794004E+02  0.56544388955E+02  0.00000000000E+00 0.  1.
         15    1    3    3    0    0 -0.24674258486E+03 -0.28564018294E+03 -0.21139920807E+03  0.43262205500E+03  0.00000000000E+00 0. -1.
         15    1    3    3    0    0  0.40285424580E+02  0.74270397406E+02 -0.98383854199E+02  0.12968573604E+03  0.00000000000E+00 0.  1.
        -16    1    1    2    0    0  0.22190791945E+03  0.23160004894E+03  0.47096429899E+02  0.32419096393E+03  0.00000000000E+00 0.  1.
         16    1    3    3    0    0  0.11921759574E+02  0.39047267237E+02  0.41148469096E+02  0.57965627219E+02  0.00000000000E+00 0. -1.
    9900018    1    3    3    0    0 -0.44056129011E+00  0.15004526636E+01 -0.12225449878E+03  0.15252470724E+03  0.91187600000E+02 0.  0.
<mgrwt>
<rscale>  0 0.11536638E+04</rscale>
<asrwt>0</asrwt>
<pdfrwt beam="1">  1        1 0.12256454E+00 0.11536638E+04</pdfrwt>
<pdfrwt beam="2">  1       -1 0.64255009E-01 0.11536638E+04</pdfrwt>
<totfact> 0.54292877E+01</totfact>
</mgrwt>
</event>
<event>
11    1  0.1538339E-013  0.1533646E+04  0.7818608E-02  0.8862382E-01
          1   -1    0    0  501    0  0.00000000000E+00  0.00000000000E+00  0.21533150421E+04  0.21533150421E+04  0.00000000000E+00 0. -1.
         -1   -1    0    0    0  501 -0.00000000000E+00 -0.00000000000E+00 -0.27307542438E+03  0.27307542438E+03  0.00000000000E+00 0.  1.
    9900016    2    1    2    0    0  0.19290878958E+03 -0.45935787199E+03  0.61086705101E+03  0.10627445561E+04  0.71277204067E+03 0.  0.
         23    2    3    3    0    0 -0.74916632519E+02 -0.50003870925E+02  0.14287107395E+03  0.18458865658E+03  0.74484491218E+02 0.  0.
        -15    1    3    3    0    0 -0.16508579181E+02  0.27183282455E+02 -0.21257434012E+02  0.38253660379E+02  0.00000000000E+00 0.  1.
        -15    1    4    4    0    0 -0.32716271204E+02  0.12353754601E+02  0.19457745557E+02  0.40019664121E+02  0.00000000000E+00 0. -1.
         15    1    3    3    0    0 -0.96334569016E+00 -0.90029328217E+02  0.11119057624E+03  0.14307184286E+03  0.00000000000E+00 0.  1.
         15    1    4    4    0    0 -0.42200361315E+02 -0.62357625526E+02  0.12341332840E+03  0.14456899246E+03  0.00000000000E+00 0. -1.
        -16    1    3    3    0    0  0.14619848999E+02 -0.27639491593E+02  0.24722628209E+03  0.24919573839E+03  0.00000000000E+00 0.  1.
         16    1    1    2    0    0 -0.19290878958E+03  0.45935787199E+03  0.12693725667E+04  0.13636459104E+04  0.00000000000E+00 0. -1.
    9900018    1    3    3    0    0  0.27067749797E+03 -0.31886846371E+03  0.13083655274E+03  0.44763465793E+03  0.91187600000E+02 0.  0.
<mgrwt>
<rscale>  0 0.15336459E+04</rscale>
<asrwt>0</asrwt>
<pdfrwt beam="1">  1        1 0.33127923E+00 0.15336459E+04</pdfrwt>
<pdfrwt beam="2">  1       -1 0.42011605E-01 0.15336459E+04</pdfrwt>
<totfact> 0.12597051E+01</totfact>
</mgrwt>
</event>
<event>
11    1  0.1538339E-013  0.1375784E+04  0.7818608E-02  0.8971536E-01
         -1   -1    0    0    0  501 -0.00000000000E+00  0.00000000000E+00  0.20386193194E+03  0.20386193194E+03  0.00000000000E+00 0.  1.
          1   -1    0    0  501    0  0.00000000000E+00 -0.00000000000E+00 -0.23211560398E+04  0.23211560398E+04  0.00000000000E+00 0. -1.
    9900016    2    1    2    0    0  0.28910035304E+02  0.50378064544E+03 -0.13566507380E+04  0.16122151097E+04  0.71000394797E+03 0.  0.
         23    2    3    3    0    0  0.13300601074E+03 -0.12680186409E+02 -0.52099622492E+03  0.54795749685E+03  0.10473283130E+03 0.  0.
        -15    1    4    4    0    0  0.10180767712E+03 -0.47716842489E+02 -0.26769732299E+03  0.29035074809E+03  0.00000000000E+00 0.  1.
        -15    1    3    3    0    0 -0.22250920927E+02  0.71434229949E+02 -0.19051476793E+01  0.74843719029E+02  0.00000000000E+00 0.  1.
         15    1    3    3    0    0 -0.12166383099E+03  0.18619490346E+03 -0.24824106646E+03  0.33330805109E+03  0.00000000000E+00 0. -1.
         15    1    4    4    0    0  0.31198333620E+02  0.35036656080E+02 -0.25329890192E+03  0.25760674876E+03  0.00000000000E+00 0. -1.
        -16    1    1    2    0    0 -0.28910035304E+02 -0.50378064544E+03 -0.76064336986E+03  0.91280286205E+03  0.00000000000E+00 0.  1.
         16    1    3    3    0    0  0.28018169027E+02  0.79707110630E+02 -0.10264002616E+03  0.13294064935E+03  0.00000000000E+00 0. -1.
    9900018    1    3    3    0    0  0.11800607456E+02  0.17912458781E+03 -0.48286827277E+03  0.52316519336E+03  0.91187600000E+02 0.  0.
<mgrwt>
<rscale>  0 0.13757839E+04</rscale>
<asrwt>0</asrwt>
<pdfrwt beam="1">  1        1 0.35710089E+00 0.13757839E+04</pdfrwt>
<pdfrwt beam="2">  1       -1 0.31363378E-01 0.13757839E+04</pdfrwt>
<totfact> 0.16633076E+01</totfact>
</mgrwt>
</event>
<event>
11    1  0.1538339E-013  0.8741576E+03  0.7818608E-02  0.9458475E-01
         -1   -1    0    0    0  501 -0.00000000000E+00  0.00000000000E+00  0.60804247483E+03  0.60804247483E+03  0.00000000000E+00 0.  1.
          1   -1    0    0  501    0  0.00000000000E+00 -0.00000000000E+00 -0.31418511819E+03  0.31418511819E+03  0.00000000000E+00 0. -1.
    9900016    2    1    2    0    0 -0.10603366832E+03 -0.46896254368E+02  0.14896305452E+03  0.73665616128E+03  0.71206032810E+03 0.  0.
         23    2    3    3    0    0  0.17682301961E+02  0.60340502940E+02  0.72575602159E+02  0.14462645281E+03  0.10814782812E+03 0.  0.
        -15    1    3    3    0    0  0.71497362409E+02 -0.18710367635E+03  0.64457266433E+02  0.21041482298E+03  0.00000000000E+00 0.  1.
        -15    1    4    4    0    0  0.36286494668E+02 -0.41350776149E+01 -0.10340829784E+02  0.37957098451E+02  0.00000000000E+00 0.  1.
         15    1    4    4    0    0 -0.18604192707E+02  0.64475580554E+02  0.82916431943E+02  0.10666935436E+03  0.00000000000E+00 0. -1.
         15    1    3    3    0    0 -0.10223199931E+03  0.81875517867E+02  0.62622370526E+02  0.14517762706E+03  0.00000000000E+00 0. -1.
        -16    1    1    2    0    0  0.10603366832E+03  0.46896254368E+02  0.14489430212E+03  0.18557143174E+03  0.00000000000E+00 0.  1.
         16    1    3    3    0    0  0.17965049495E+02 -0.96394124371E+01  0.54545354556E+02  0.58231065413E+02  0.00000000000E+00 0. -1.
    9900018    1    3    3    0    0 -0.11094638287E+03  0.76308136077E+01 -0.10523753915E+03  0.17820619302E+03  0.91187600000E+02 0.  0.
<mgrwt>
<rscale>  0 0.87415764E+03</rscale>
<asrwt>0</asrwt>
<pdfrwt beam="1">  1        1 0.48336172E-01 0.87415764E+03</pdfrwt>
<pdfrwt beam="2">  1       -1 0.93544995E-01 0.87415764E+03</pdfrwt>
<totfact> 0.92373952E+01</totfact>
</mgrwt>
</event>
<event>
11    1  0.1538339E-013  0.1309272E+04  0.7818608E-02  0.9022244E-01
          3   -1    0    0  501    0  0.00000000000E+00  0.00000000000E+00  0.18462469780E+03  0.18462469780E+03  0.00000000000E+00 0. -1.
         -3   -1    0    0    0  501 -0.00000000000E+00 -0.00000000000E+00 -0.23211869830E+04  0.23211869830E+04  0.00000000000E+00 0.  1.
    9900016    2    1    2    0    0 -0.18105633301E+03 -0.20519366045E+03 -0.20939577561E+04  0.22288622632E+04  0.71293903675E+03 0.  0.
         23    2    3    3    0    0  0.11429098733E+02 -0.10626528895E+03 -0.86960630135E+02  0.17342154550E+03  0.10530880929E+03 0.  0.
        -15    1    3    3    0    0 -0.29831337187E+01  0.32650312273E+02 -0.15541557986E+03  0.15883621893E+03  0.00000000000E+00 0.  1.
        -15    1    4    4    0    0  0.26992992297E+01 -0.87222079421E+02 -0.11122070617E+03  0.14136839405E+03  0.00000000000E+00 0.  1.
         15    1    4    4    0    0  0.87297995029E+01 -0.19043209529E+02  0.24260076034E+02  0.32053151447E+02  0.00000000000E+00 0. -1.
         15    1    3    3    0    0 -0.58306539575E+02  0.19729993315E+02 -0.11767127146E+03  0.13279854412E+03  0.00000000000E+00 0. -1.
        -16    1    3    3    0    0 -0.50539686637E+02  0.55836496544E+01 -0.62184264253E+02  0.80326333102E+02  0.00000000000E+00 0.  1.
         16    1    1    2    0    0  0.18105633301E+03  0.20519366045E+03 -0.42604529139E+02  0.27694941761E+03  0.00000000000E+00 0. -1.
    9900018    1    3    3    0    0 -0.80656071810E+02 -0.15689232674E+03 -0.16717260104E+04  0.16834796216E+04  0.91187600000E+02 0.  0.
<mgrwt>
<rscale>  0 0.13092722E+04</rscale>
<asrwt>0</asrwt>
<pdfrwt beam="1">  1        3 0.28403798E-01 0.13092722E+04</pdfrwt>
<pdfrwt beam="2">  1       -3 0.35710571E+00 0.13092722E+04</pdfrwt>
<totfact> 0.57141353E-01</totfact>
</mgrwt>
</event>
<event>
10    1  0.1538339E-013  0.1142704E+04  0.7818608E-02  0.9164541E-01
         -1   -1    0    0    0  501 -0.00000000000E+00  0.00000000000E+00  0.51481722262E+03  0.51481722262E+03  0.00000000000E+00 0.  1.
          1   -1    0    0  501    0  0.00000000000E+00 -0.00000000000E+00 -0.63409463627E+03  0.63409463627E+03  0.00000000000E+00 0. -1.
    9900016    2    1    2    0    0  0.15356488262E+03  0.27537694848E+03 -0.23381678202E+03  0.81345112522E+03  0.71247302309E+03 0.  0.
        -15    1    3    3    0    0  0.11975989890E+02 -0.94880494579E+00 -0.57265746863E+01  0.13308577020E+02  0.00000000000E+00 0. -1.
        -15    1    3    3    0    0 -0.15642184358E+02  0.17704113851E+03 -0.12218185664E+03  0.21567718643E+03  0.00000000000E+00 0.  1.
         15    1    3    3    0    0  0.86571998235E+01 -0.76281357359E+01 -0.27577383669E+02  0.29893940082E+02  0.00000000000E+00 0. -1.
         15    1    3    3    0    0  0.17155780216E+03 -0.51293964626E+02 -0.22970259335E+03  0.29124977542E+03  0.00000000000E+00 0.  1.
        -16    1    3    3    0    0  0.26579535071E+02  0.22960345885E+01  0.29958179021E+02  0.40115283243E+02  0.00000000000E+00 0.  1.
         16    1    1    2    0    0 -0.15356488262E+03 -0.27537694848E+03  0.11453936838E+03  0.33546073367E+03  0.00000000000E+00 0. -1.
    9900018    1    3    3    0    0 -0.49563459967E+02  0.15591068069E+03  0.12141344729E+03  0.22320636302E+03  0.91187600000E+02 0.  0.
<mgrwt>
<rscale>  0 0.11427035E+04</rscale>
<asrwt>0</asrwt>
<pdfrwt beam="1">  1        1 0.97553020E-01 0.11427035E+04</pdfrwt>
<pdfrwt beam="2">  1       -1 0.79202650E-01 0.11427035E+04</pdfrwt>
<totfact> 0.50051303E+01</totfact>
</mgrwt>
</event>
<event>
11    1  0.1538339E-013  0.1869470E+04  0.7818608E-02  0.8670204E-01
          1   -1    0    0  501    0  0.00000000000E+00  0.00000000000E+00  0.27408161015E+04  0.27408161015E+04  0.00000000000E+00 0. -1.
         -1   -1    0    0    0  501 -0.00000000000E+00 -0.00000000000E+00 -0.31878459558E+03  0.31878459558E+03  0.00000000000E+00 0.  1.
    9900016    2    1    2    0    0 -0.15347010301E+03  0.76490985899E+03  0.11132364141E+04  0.15359259426E+04  0.71493567732E+03 0.  0.
         23    2    3    3    0    0 -0.12023240550E+03 -0.33564255843E+02  0.15804733357E+03  0.23001746082E+03  0.11111562460E+03 0.  0.
        -15    1    3    3    0    0  0.16480711085E+02  0.10491931267E+03  0.14531017905E+02  0.10719527270E+03  0.00000000000E+00 0.  1.
        -15    1    4    4    0    0 -0.35255492507E+02 -0.49041257603E+02  0.13907623175E+02  0.61979163286E+02  0.00000000000E+00 0.  1.
         15    1    3    3    0    0 -0.19391243530E+02  0.45025272020E+02  0.10097330061E+03  0.11224483455E+03  0.00000000000E+00 0. -1.
         15    1    4    4    0    0 -0.84976912996E+02  0.15477001760E+02  0.14413971040E+03  0.16803829754E+03  0.00000000000E+00 0. -1.
        -16    1    1    2    0    0  0.15347010301E+03 -0.76490985899E+03  0.13087950918E+04  0.15236747544E+04  0.00000000000E+00 0.  1.
         16    1    3    3    0    0 -0.23483108668E+02  0.24877782012E+03  0.47934217867E+03  0.54056524530E+03  0.00000000000E+00 0. -1.
    9900018    1    3    3    0    0 -0.68440563956E+01  0.39975171003E+03  0.36034258331E+03  0.54590312924E+03  0.91187600000E+02 0.  0.
<mgrwt>
<rscale>  0 0.18694705E+04</rscale>
<asrwt>0</asrwt>
<pdfrwt beam="1">  1        1 0.42166400E+00 0.18694705E+04</pdfrwt>
<pdfrwt beam="2">  1       -1 0.49043786E-01 0.18694705E+04</pdfrwt>
<totfact> 0.35923981E+00</totfact>
</mgrwt>
</event>
<event>
11    1  0.1538339E-013  0.1178824E+04  0.7818608E-02  0.9131597E-01
         -1   -1    0    0    0  501 -0.00000000000E+00  0.00000000000E+00  0.11787353489E+03  0.11787353489E+03  0.00000000000E+00 0.  1.
          1   -1    0    0  501    0  0.00000000000E+00 -0.00000000000E+00 -0.29472807107E+04  0.29472807107E+04  0.00000000000E+00 0. -1.
    9900016    2    1    2    0    0 -0.33519646027E+03 -0.13860333551E+03 -0.21101382308E+04  0.22596014126E+04  0.72218255227E+03 0.  0.
         23    2    3    3    0    0 -0.28130469957E+03 -0.67449141381E+02 -0.12272703338E+04  0.12623262520E+04  0.59944754413E+02 0.  0.
        -15    1    3    3    0    0  0.19137857618E+02  0.25278312293E+02 -0.29581338012E+02  0.43362497912E+02  0.00000000000E+00 0. -1.
        -15    1    4    4    0    0 -0.25387956602E+03 -0.59079390878E+02 -0.11644968960E+04  0.11933139693E+04  0.00000000000E+00 0. -1.
         15    1    4    4    0    0 -0.27425133545E+02 -0.83697505027E+01 -0.62773437812E+02  0.69012282734E+02  0.00000000000E+00 0.  1.
         15    1    3    3    0    0 -0.26152903724E+02 -0.94277955577E+02 -0.21936099644E+03  0.24019066185E+03  0.00000000000E+00 0.  1.
        -16    1    1    2    0    0  0.33519646027E+03  0.13860333551E+03 -0.71926894494E+03  0.80555283299E+03  0.00000000000E+00 0.  1.
         16    1    3    3    0    0  0.10867369824E+03  0.73886228086E+02 -0.23011035356E+03  0.26499041908E+03  0.00000000000E+00 0. -1.
    9900018    1    3    3    0    0 -0.15555041283E+03 -0.76040778933E+02 -0.40381520898E+03  0.44873158167E+03  0.91187600000E+02 0.  0.
<mgrwt>
<rscale>  0 0.11788238E+04</rscale>
<asrwt>0</asrwt>
<pdfrwt beam="1">  1        1 0.45342779E+00 0.11788238E+04</pdfrwt>
<pdfrwt beam="2">  1       -1 0.18134390E-01 0.11788238E+04</pdfrwt>
<totfact> 0.15792826E+01</totfact>
</mgrwt>
</event>
<event>
11    1  0.1538339E-013  0.8309880E+03  0.7818608E-02  0.9516216E-01
         -3   -1    0    0    0  501 -0.00000000000E+00  0.00000000000E+00  0.38104126785E+03  0.38104126785E+03  0.00000000000E+00 0.  1.
          3   -1    0    0  501    0  0.00000000000E+00 -0.00000000000E+00 -0.45306185237E+03  0.45306185237E+03  0.00000000000E+00 0. -1.
    9900016    2    1    2    0    0  0.13567576188E+02 -0.40692274339E+01  0.47603100298E+02  0.71364373410E+03  0.71191339805E+03 0.  0.
         23    2    3    3    0    0 -0.42778609765E+02 -0.16279341874E+02 -0.92816151967E+02  0.12839779186E+03  0.76000845150E+02 0.  0.
        -15    1    3    3    0    0 -0.29759331499E+02  0.38832291947E+01  0.13819499904E+03  0.14141624744E+03  0.00000000000E+00 0.  1.
        -15    1    4    4    0    0 -0.23644542892E+02  0.29930957435E+02 -0.47380790047E+02  0.60826522892E+02  0.00000000000E+00 0. -1.
         15    1    4    4    0    0 -0.19134066872E+02 -0.46210299309E+02 -0.45435361920E+02  0.67571268969E+02  0.00000000000E+00 0.  1.
         15    1    3    3    0    0  0.10163987347E+03  0.54174856045E+02 -0.13913836270E+02  0.11601367913E+03  0.00000000000E+00 0. -1.
        -16    1    3    3    0    0  0.97899095307E+02 -0.37274172380E+02 -0.97390707125E+02  0.14303337590E+03  0.00000000000E+00 0.  1.
         16    1    1    2    0    0 -0.13567576188E+02  0.40692274339E+01 -0.11962368482E+03  0.12045938612E+03  0.00000000000E+00 0. -1.
    9900018    1    3    3    0    0 -0.11343345133E+03 -0.85737984198E+01  0.11352879662E+03  0.18478263975E+03  0.91187600000E+02 0.  0.
<mgrwt>
<rscale>  0 0.83098800E+03</rscale>
<asrwt>0</asrwt>
<pdfrwt beam="1">  1        3 0.69701823E-01 0.83098800E+03</pdfrwt>
<pdfrwt beam="2">  1       -3 0.58621734E-01 0.83098800E+03</pdfrwt>
<totfact> 0.14793092E+01</totfact>
</mgrwt>
</event>
<event>
11    1  0.1893537E-013  0.9033046E+03  0.7818608E-02  0.9421460E-01
          1   -1    0    0  501    0  0.00000000000E+00  0.00000000000E+00  0.14552238668E+04  0.14552238668E+04  0.00000000000E+00 0. -1.
         -1   -1    0    0    0  501 -0.00000000000E+00 -0.00000000000E+00 -0.14017759857E+03  0.14017759857E+03  0.00000000000E+00 0.  1.
    9900016    2    1    2    0    0 -0.66531640272E+02  0.15711298500E+03  0.10609371174E+04  0.12893256418E+04  0.71250410133E+03 0.  0.
         23    2    3    3    0    0  0.16929420075E+03  0.25491984587E+03  0.48532839505E+03  0.57877802798E+03  0.76129497609E+02 0.  0.
        -15    1    4    4    0    0  0.85621497594E+02  0.76839536398E+02  0.13873441236E+03  0.18022927725E+03  0.00000000000E+00 0.  1.
        -15    1    3    3    0    0 -0.14053602878E+03 -0.10964180811E+03  0.32505727133E+03  0.37072082638E+03  0.00000000000E+00 0.  1.
         15    1    4    4    0    0  0.83672703158E+02  0.17808030947E+03  0.34659398269E+03  0.39854875073E+03  0.00000000000E+00 0. -1.
         15    1    3    3    0    0 -0.45619471382E+02  0.45580718212E+02  0.29329331761E+02  0.70844532206E+02  0.00000000000E+00 0. -1.
        -16    1    3    3    0    0  0.22987389483E+02 -0.15878786478E+02  0.81345217573E+02  0.86009303899E+02  0.00000000000E+00 0.  1.
         16    1    1    2    0    0  0.66531640272E+02 -0.15711298500E+03  0.25410915083E+03  0.30607582353E+03  0.00000000000E+00 0. -1.
    9900018    1    3    3    0    0 -0.72657730342E+02 -0.17866984498E+02  0.13987690169E+03  0.18297295137E+03  0.91187600000E+02 0.  0.
<mgrwt>
<rscale>  0 0.90330457E+03</rscale>
<asrwt>0</asrwt>
<pdfrwt beam="1">  1        1 0.22388058E+00 0.90330457E+03</pdfrwt>
<pdfrwt beam="2">  1       -1 0.21565785E-01 0.90330457E+03</pdfrwt>
<totfact> 0.12765881E+02</totfact>
</mgrwt>
</event>
<event>
11    1  0.1538339E-013  0.1406611E+04  0.7818608E-02  0.8949047E-01
          1   -1    0    0  501    0  0.00000000000E+00  0.00000000000E+00  0.94507389079E+03  0.94507389079E+03  0.00000000000E+00 0. -1.
         -1   -1    0    0    0  501 -0.00000000000E+00 -0.00000000000E+00 -0.52338587001E+03  0.52338587001E+03  0.00000000000E+00 0.  1.
    9900016    2    1    2    0    0  0.35281895591E+03  0.71887580445E+02 -0.12983759187E+03  0.80980238304E+03  0.71363370116E+03 0.  0.
         23    2    3    3    0    0  0.11279674679E+03 -0.10026003448E+02  0.38916661349E+02  0.14182625293E+03  0.76003635820E+02 0.  0.
        -15    1    3    3    0    0 -0.50231878557E+02  0.16101316580E+02 -0.77534580307E+02  0.93776890343E+02  0.00000000000E+00 0.  1.
        -15    1    4    4    0    0  0.31775139923E+01 -0.14450474652E+02 -0.13689436875E+02  0.20157219421E+02  0.00000000000E+00 0.  1.
         15    1    4    4    0    0  0.10961923280E+03  0.44244712035E+01  0.52606098224E+02  0.12166903351E+03  0.00000000000E+00 0. -1.
         15    1    3    3    0    0  0.16380195008E+03  0.10595419544E+03  0.64604850104E+02  0.20550220689E+03  0.00000000000E+00 0. -1.
        -16    1    3    3    0    0  0.98002887589E+02 -0.23817388950E+02  0.70127862755E+02  0.12284034812E+03  0.00000000000E+00 0.  1.
         16    1    1    2    0    0 -0.35281895591E+03 -0.71887580445E+02  0.55152561265E+03  0.65865737776E+03  0.00000000000E+00 0. -1.
    9900018    1    3    3    0    0  0.28449250015E+02 -0.16324539175E+02 -0.22595238578E+03  0.24585668475E+03  0.91187600000E+02 0.  0.
<mgrwt>
<rscale>  0 0.14066106E+04</rscale>
<asrwt>0</asrwt>
<pdfrwt beam="1">  1        1 0.14539598E+00 0.14066106E+04</pdfrwt>
<pdfrwt beam="2">  1       -1 0.80520903E-01 0.14066106E+04</pdfrwt>
<totfact> 0.25084440E+01</totfact>
</mgrwt>
</event>
<event>
11    1  0.1538339E-013  0.2018587E+04  0.7818608E-02  0.8597980E-01
         -3   -1    0    0    0  501 -0.00000000000E+00  0.00000000000E+00  0.22681693622E+04  0.22681693622E+04  0.00000000000E+00 0.  1.
          3   -1    0    0  501    0  0.00000000000E+00 -0.00000000000E+00 -0.44911705047E+03  0.44911705047E+03  0.00000000000E+00 0. -1.
    9900016    2    1    2    0    0  0.44872886624E+03  0.74660469620E+03  0.12166982877E+04  0.16582271423E+04  0.71455326220E+03 0.  0.
         23    2    3    3    0    0  0.13971594232E+03  0.19875037445E+03  0.13915559110E+03  0.28763778471E+03  0.65946650951E+02 0.  0.
        -15    1    4    4    0    0 -0.53347902291E+01  0.15350838492E+02  0.18126189130E+02  0.24344752239E+02  0.00000000000E+00 0. -1.
        -15    1    3    3    0    0 -0.39357813415E+02  0.50884747511E+02  0.23441877025E+03  0.24308528308E+03  0.00000000000E+00 0.  1.
         15    1    3    3    0    0  0.40090198557E+03  0.35002653319E+03  0.53107416275E+03  0.75185154274E+03  0.00000000000E+00 0.  1.
         15    1    4    4    0    0  0.14505073255E+03  0.18339953596E+03  0.12102940197E+03  0.26329303247E+03  0.00000000000E+00 0. -1.
        -16    1    3    3    0    0 -0.13156141119E+02  0.90325578163E+02  0.10495090667E+03  0.13909164939E+03  0.00000000000E+00 0.  1.
         16    1    1    2    0    0 -0.44872886624E+03 -0.74660469620E+03  0.60235402404E+03  0.10590592703E+04  0.00000000000E+00 0. -1.
    9900018    1    3    3    0    0 -0.39375107111E+02  0.56617462885E+02  0.20709885689E+03  0.23656088240E+03  0.91187600000E+02 0.  0.
<mgrwt>
<rscale>  0 0.20185872E+04</rscale>
<asrwt>0</asrwt>
<pdfrwt beam="1">  1        3 0.69094932E-01 0.20185872E+04</pdfrwt>
<pdfrwt beam="2">  1       -3 0.34894913E+00 0.20185872E+04</pdfrwt>
<totfact> 0.98918688E-02</totfact>
</mgrwt>
</event>
<event>
11    1  0.1538339E-013  0.1793821E+04  0.7818608E-02  0.8709592E-01
         -3   -1    0    0    0  501 -0.00000000000E+00  0.00000000000E+00  0.13095990451E+04  0.13095990451E+04  0.00000000000E+00 0.  1.
          3   -1    0    0  501    0  0.00000000000E+00 -0.00000000000E+00 -0.61427084164E+03  0.61427084164E+03  0.00000000000E+00 0. -1.
    9900016    2    1    2    0    0 -0.16839765806E+03 -0.63820201159E+03  0.79807434742E+03  0.12558756136E+04  0.71038110479E+03 0.  0.
         23    2    3    3    0    0 -0.18348558568E+03 -0.18614226573E+03  0.21255151218E+03  0.35304907331E+03  0.10559166439E+03 0.  0.
        -15    1    3    3    0    0  0.21241130974E+02 -0.12068778974E+03  0.16905191358E+01  0.12255442094E+03  0.00000000000E+00 0.  1.
        -15    1    4    4    0    0 -0.23037656151E+02 -0.91362261109E+02  0.55561825337E+02  0.10938424379E+03  0.00000000000E+00 0.  1.
         15    1    3    3    0    0  0.38689049200E+02 -0.30867622529E+02  0.36588111773E+02  0.61549513172E+02  0.00000000000E+00 0. -1.
         15    1    4    4    0    0 -0.16044792953E+03 -0.94780004624E+02  0.15698968684E+03  0.24366482951E+03  0.00000000000E+00 0. -1.
        -16    1    3    3    0    0 -0.19550386265E+02 -0.60336801548E+02  0.43095955126E+03  0.43560174706E+03  0.00000000000E+00 0.  1.
         16    1    1    2    0    0  0.16839765806E+03  0.63820201159E+03 -0.10274614394E+03  0.66799427313E+03  0.00000000000E+00 0. -1.
    9900018    1    3    3    0    0 -0.25291866293E+02 -0.24016753204E+03  0.11628465308E+03  0.28312085915E+03  0.91187600000E+02 0.  0.
<mgrwt>
<rscale>  0 0.17938211E+04</rscale>
<asrwt>0</asrwt>
<pdfrwt beam="1">  1        3 0.94503206E-01 0.17938211E+04</pdfrwt>
<pdfrwt beam="2">  1       -3 0.20147678E+00 0.17938211E+04</pdfrwt>
<totfact> 0.35320571E-01</totfact>
</mgrwt>
</event>
<event>
10    1  0.1538339E-013  0.7459053E+03  0.7818608E-02  0.9641796E-01
          1   -1    0    0  501    0  0.00000000000E+00  0.00000000000E+00  0.62419728003E+02  0.62419728003E+02  0.00000000000E+00 0. -1.
         -1   -1    0    0    0  501 -0.00000000000E+00 -0.00000000000E+00 -0.22283611541E+04  0.22283611541E+04  0.00000000000E+00 0.  1.
    9900016    2    1    2    0    0 -0.15655018360E+01 -0.40287980434E+02 -0.19935676060E+04  0.21137545958E+04  0.70144217131E+03 0.  0.
        -15    1    3    3    0    0  0.58813998734E+02 -0.15762278746E+03 -0.76778663972E+03  0.78600276952E+03  0.00000000000E+00 0.  1.
        -15    1    3    3    0    0  0.14386874353E+02  0.94000252882E+02 -0.14422591454E+03  0.17275457771E+03  0.00000000000E+00 0.  1.
         15    1    3    3    0    0  0.24880275552E+02  0.54241765489E+02 -0.22505350737E+03  0.23283100828E+03  0.00000000000E+00 0. -1.
         15    1    3    3    0    0  0.63788296049E+02 -0.27355329255E+02 -0.20471053230E+03  0.21615657008E+03  0.00000000000E+00 0. -1.
        -16    1    1    2    0    0  0.15655018360E+01  0.40287980434E+02 -0.17237382012E+03  0.17702628626E+03  0.00000000000E+00 0.  1.
         16    1    3    3    0    0  0.30429411115E+02 -0.23475498408E+02 -0.32254997336E+02  0.50174026542E+02  0.00000000000E+00 0. -1.
    9900018    1    3    3    0    0 -0.19386435764E+03  0.19923616315E+02 -0.61953601470E+03  0.65583564371E+03  0.91187600000E+02 0.  0.
<mgrwt>
<rscale>  0 0.74590535E+03</rscale>
<asrwt>0</asrwt>
<pdfrwt beam="1">  1        1 0.96030328E-02 0.74590535E+03</pdfrwt>
<pdfrwt beam="2">  1       -1 0.34282487E+00 0.74590535E+03</pdfrwt>
<totfact> 0.12941034E+01</totfact>
</mgrwt>
</event>
<event>
10    1  0.1538339E-013  0.1022377E+04  0.7818608E-02  0.9284337E-01
          1   -1    0    0  501    0  0.00000000000E+00  0.00000000000E+00  0.10737993572E+04  0.10737993572E+04  0.00000000000E+00 0. -1.
         -1   -1    0    0    0  501 -0.00000000000E+00 -0.00000000000E+00 -0.24335414171E+03  0.24335414171E+03  0.00000000000E+00 0.  1.
    9900016    2    1    2    0    0  0.61558989417E+02  0.23011057592E+03  0.50610216105E+03  0.91473729237E+03  0.72378486466E+03 0.  0.
        -15    1    3    3    0    0  0.68489725971E+02 -0.12988406799E+02  0.82701026821E+02  0.10816192080E+03  0.00000000000E+00 0. -1.
        -15    1    3    3    0    0  0.11988380895E+03 -0.59943748731E+02  0.11015328623E+02  0.13448686971E+03  0.00000000000E+00 0.  1.
         15    1    3    3    0    0 -0.31470864346E+02 -0.34293701455E+02  0.26785094130E+02  0.53702090553E+02  0.00000000000E+00 0.  1.
         15    1    3    3    0    0 -0.74912910457E+02  0.52666534149E+02  0.18522303456E+03  0.20662352360E+03  0.00000000000E+00 0. -1.
        -16    1    3    3    0    0 -0.82530199684E+02  0.15108759858E+03  0.15738696803E+03  0.23325812742E+03  0.00000000000E+00 0.  1.
         16    1    1    2    0    0 -0.61558989417E+02 -0.23011057592E+03  0.32434305444E+03  0.40241620654E+03  0.00000000000E+00 0. -1.
    9900018    1    3    3    0    0  0.62099428989E+02  0.13358230018E+03  0.42990708888E+02  0.17850476029E+03  0.91187600000E+02 0.  0.
<mgrwt>
<rscale>  0 0.10223767E+04</rscale>
<asrwt>0</asrwt>
<pdfrwt beam="1">  1        1 0.16519990E+00 0.10223767E+04</pdfrwt>
<pdfrwt beam="2">  1       -1 0.37439099E-01 0.10223767E+04</pdfrwt>
<totfact> 0.91226529E+01</totfact>
</mgrwt>
</event>
<event>
10    1  0.1538339E-013  0.1481099E+04  0.7818608E-02  0.8897120E-01
          2   -1    0    0  501    0  0.00000000000E+00  0.00000000000E+00  0.22987211288E+04  0.22987211288E+04  0.00000000000E+00 0. -1.
         -2   -1    0    0    0  501 -0.00000000000E+00 -0.00000000000E+00 -0.23857335267E+03  0.23857335267E+03  0.00000000000E+00 0.  1.
    9900016    2    1    2    0    0 -0.17919687920E+03 -0.16275799219E+03  0.21535080412E+04  0.22778376938E+04  0.70167370649E+03 0.  0.
        -15    1    3    3    0    0 -0.38413321572E+02 -0.25468413853E+02  0.73333610327E+02  0.86614327810E+02  0.00000000000E+00 0. -1.
        -15    1    3    3    0    0  0.12126561226E+03 -0.52035047082E+02  0.65647376058E+03  0.66960495307E+03  0.00000000000E+00 0.  1.
         15    1    3    3    0    0 -0.10018134714E+02  0.40596276187E+02  0.22115683977E+03  0.22507502847E+03  0.00000000000E+00 0. -1.
         15    1    3    3    0    0 -0.11879651663E+03  0.76750786647E+02  0.17960770056E+03  0.22860932115E+03  0.00000000000E+00 0.  1.
        -16    1    1    2    0    0  0.17919687920E+03  0.16275799219E+03 -0.93360265100E+02  0.25945678761E+03  0.00000000000E+00 0.  1.
         16    1    3    3    0    0 -0.11409003823E+01 -0.13045820532E+03  0.45861756338E+03  0.47681308123E+03  0.00000000000E+00 0. -1.
    9900018    1    3    3    0    0 -0.13209361816E+03 -0.72143388769E+02  0.56431856660E+03  0.59112098212E+03  0.91187600000E+02 0.  0.
<mgrwt>
<rscale>  0 0.14810991E+04</rscale>
<asrwt>0</asrwt>
<pdfrwt beam="1">  1        2 0.35364939E+00 0.14810991E+04</pdfrwt>
<pdfrwt beam="2">  1       -2 0.36703594E-01 0.14810991E+04</pdfrwt>
<totfact> 0.30771097E+01</totfact>
</mgrwt>
</event>
<event>
11    1  0.1538339E-013  0.1524326E+04  0.7818608E-02  0.8868436E-01
         -1   -1    0    0    0  501 -0.00000000000E+00  0.00000000000E+00  0.60522039404E+03  0.60522039404E+03  0.00000000000E+00 0.  1.
          1   -1    0    0  501    0  0.00000000000E+00 -0.00000000000E+00 -0.95980298646E+03  0.95980298646E+03  0.00000000000E+00 0. -1.
    9900016    2    1    2    0    0 -0.31194283601E+03  0.17792145511E+03  0.27273053326E+03  0.84219135661E+03  0.71129456644E+03 0.  0.
         23    2    3    3    0    0 -0.34275486966E+03  0.26647555552E+03  0.32197826297E+02  0.44805423971E+03  0.10595177837E+03 0.  0.
        -15    1    4    4    0    0 -0.18025230373E+03  0.16077568075E+03  0.67990549105E+02  0.25092315016E+03  0.00000000000E+00 0. -1.
        -15    1    3    3    0    0 -0.37263310004E+02  0.40790718033E+02  0.98000132954E+02  0.11250094670E+03  0.00000000000E+00 0. -1.
         15    1    3    3    0    0 -0.26360155034E+02 -0.21313279234E+02  0.72453126557E+02  0.79991056956E+02  0.00000000000E+00 0.  1.
         15    1    4    4    0    0 -0.16250256593E+03  0.10569987477E+03 -0.35792722808E+02  0.19713108954E+03  0.00000000000E+00 0.  1.
        -16    1    3    3    0    0  0.34709434667E+02 -0.28730191827E+02 -0.81515907622E+01  0.45788832801E+02  0.00000000000E+00 0.  1.
         16    1    1    2    0    0  0.31194283601E+03 -0.17792145511E+03 -0.62731312568E+03  0.72283202390E+03  0.00000000000E+00 0. -1.
    9900018    1    3    3    0    0  0.59726064016E+02 -0.79301347377E+02  0.78231038210E+02  0.15585628044E+03  0.91187600000E+02 0.  0.
<mgrwt>
<rscale>  0 0.15243259E+04</rscale>
<asrwt>0</asrwt>
<pdfrwt beam="1">  1        1 0.14766200E+00 0.15243259E+04</pdfrwt>
<pdfrwt beam="2">  1       -1 0.93110830E-01 0.15243259E+04</pdfrwt>
<totfact> 0.17608110E+01</totfact>
</mgrwt>
</event>
<event>
11    1  0.1538339E-013  0.1245087E+04  0.7818608E-02  0.9074283E-01
          4   -1    0    0  501    0  0.00000000000E+00  0.00000000000E+00  0.37563120071E+03  0.37563120071E+03  0.00000000000E+00 0. -1.
         -4   -1    0    0    0  501 -0.00000000000E+00 -0.00000000000E+00 -0.10317570595E+04  0.10317570595E+04  0.00000000000E+00 0.  1.
    9900016    2    1    2    0    0  0.41036336186E+03  0.32020402923E+02 -0.53922612212E+03  0.97949932204E+03  0.70656260597E+03 0.  0.
         23    2    3    3    0    0  0.31596166775E+03 -0.40837398486E+02 -0.22709422725E+03  0.40708057911E+03  0.11244261307E+03 0.  0.
        -15    1    3    3    0    0  0.30561687314E+02  0.91758554902E+01  0.66262624869E+02  0.73545553979E+02  0.00000000000E+00 0.  1.
        -15    1    4    4    0    0  0.26950136933E+03 -0.24976870005E+02 -0.23364320018E+03  0.35755276128E+03  0.00000000000E+00 0.  1.
         15    1    3    3    0    0  0.74703861452E+02 -0.92151286432E+02 -0.18548245621E+03  0.22017326829E+03  0.00000000000E+00 0. -1.
         15    1    4    4    0    0  0.46460298414E+02 -0.15860528481E+02  0.65489729287E+01  0.49527817828E+02  0.00000000000E+00 0. -1.
        -16    1    3    3    0    0  0.12990514844E+02  0.41495870043E+02 -0.12515215493E+02  0.45247003496E+02  0.00000000000E+00 0.  1.
         16    1    1    2    0    0 -0.41036336186E+03 -0.32020402923E+02 -0.11689973667E+03  0.42788893816E+03  0.00000000000E+00 0. -1.
    9900018    1    3    3    0    0 -0.23854369493E+02  0.11433736231E+03 -0.18039684803E+03  0.23345291717E+03  0.91187600000E+02 0.  0.
<mgrwt>
<rscale>  0 0.12450866E+04</rscale>
<asrwt>0</asrwt>
<pdfrwt beam="1">  1        4 0.57789416E-01 0.12450866E+04</pdfrwt>
<pdfrwt beam="2">  1       -4 0.15873185E+00 0.12450866E+04</pdfrwt>
<totfact> 0.14267721E+00</totfact>
</mgrwt>
</event>
