<event>
11    1  0.7228744E-014  0.3966295E+04  0.7818608E-02  0.8011381E-01
         -2   -1    0    0    0  501 -0.00000000000E+00  0.00000000000E+00  0.10674306121E+04  0.10674306121E+04  0.00000000000E+00 0.  1.
          2   -1    0    0  501    0  0.00000000000E+00 -0.00000000000E+00 -0.36844300016E+04  0.36844300016E+04  0.00000000000E+00 0. -1.
    9900016    2    1    2    0    0 -0.11406748257E+03  0.83594072011E+03 -0.10120438472E+04  0.15482522364E+04  0.81304609997E+03 0.  0.
         23    2    3    3    0    0 -0.11661881104E+03 -0.87791174890E+02 -0.69762736723E+01  0.17286668768E+03  0.92341679846E+02 0.  0.
        -15    1    4    4    0    0 -0.71811138486E+02 -0.56664734019E+02 -0.49210138496E+02  0.10387188947E+03  0.00000000000E+00 0.  1.
        -15    1    1    2    0    0 -0.35258783134E+03 -0.65481882130E+02  0.37081949442E+03  0.51586156393E+03  0.00000000000E+00 0.  1.
         15    1    4    4    0    0 -0.44807672558E+02 -0.31126440872E+02  0.42233864824E+02  0.68994798205E+02  0.00000000000E+00 0. -1.
         15    1    1    2    0    0 -0.13086820254E+03 -0.11202628746E+04 -0.12833494686E+04  0.17085377530E+04  0.00000000000E+00 0. -1.
        -16    1    1    2    0    0  0.59752351646E+03  0.34980403662E+03 -0.69242556808E+03  0.97920906046E+03  0.00000000000E+00 0.  1.
         16    1    3    3    0    0 -0.43716066020E+02  0.53787864244E+03 -0.58606876533E+03  0.79668132030E+03  0.00000000000E+00 0. -1.
    9900018    1    3    3    0    0  0.46267394495E+02  0.38585325256E+03 -0.41899880818E+03  0.57870422839E+03  0.91187600000E+02 0.  0.
<mgrwt>
<rscale>  0 0.39662947E+04</rscale>
<asrwt>0</asrwt>
<pdfrwt beam="1">  1        2 0.56683540E+00 0.39662947E+04</pdfrwt>
<pdfrwt beam="2">  1       -2 0.16422009E+00 0.39662947E+04</pdfrwt>
<totfact> 0.11093527E-01</totfact>
</mgrwt>
</event>
<event>
11    1  0.7228744E-014  0.1871198E+04  0.7818608E-02  0.8927822E-01
          2   -1    0    0  501    0  0.00000000000E+00  0.00000000000E+00  0.11549589705E+04  0.11549589705E+04  0.00000000000E+00 0. -1.
         -2   -1    0    0    0  501 -0.00000000000E+00 -0.00000000000E+00 -0.14089594517E+04  0.14089594517E+04  0.00000000000E+00 0.  1.
    9900016    2    1    2    0    0  0.26382672243E+02 -0.35320333118E+03  0.40381997200E+03  0.81239260434E+03  0.60947726393E+03 0.  0.
         23    2    3    3    0    0 -0.25421842570E+03 -0.25417750102E+02  0.12510968660E+03  0.29871976438E+03  0.91148197806E+02 0.  0.
        -15    1    1    2    0    0 -0.43404122219E+03 -0.66977044577E+01 -0.35229467432E+03  0.55906008564E+03  0.00000000000E+00 0.  1.
        -15    1    4    4    0    0 -0.22501806792E+03 -0.21200280768E+02  0.70680399360E+02  0.23680857596E+03  0.00000000000E+00 0. -1.
         15    1    1    2    0    0 -0.41740641415E+02  0.58382212114E+02  0.11269206133E+03  0.13360488211E+03  0.00000000000E+00 0. -1.
         15    1    4    4    0    0 -0.29200357784E+02 -0.42174693349E+01  0.54429287238E+02  0.61911188420E+02  0.00000000000E+00 0.  1.
        -16    1    1    2    0    0  0.67312650992E+02 -0.26525360618E+02 -0.53008336592E+03  0.53499809585E+03  0.00000000000E+00 0.  1.
         16    1    3    3    0    0  0.28060109794E+03 -0.32778558107E+03  0.27871028541E+03  0.51367283997E+03  0.00000000000E+00 0. -1.
    9900018    1    1    2    0    0  0.38208654037E+03  0.32804418414E+03  0.11186552571E+03  0.52386275427E+03  0.91187600000E+02 0.  0.
<mgrwt>
<rscale>  0 0.14364885E+04</rscale>
<asrwt>0</asrwt>
<pdfrwt beam="1">  1        2 0.17768600E+00 0.18711981E+04</pdfrwt>
<pdfrwt beam="2">  1       -2 0.21676299E+00 0.18711981E+04</pdfrwt>
<totfact> 0.19244776E+00</totfact>
</mgrwt>
</event>
<event>
11    1  0.7228744E-014  0.1005525E+04  0.7818608E-02  0.9302505E-01
          2   -1    0    0  501    0  0.00000000000E+00  0.00000000000E+00  0.92155581303E+03  0.92155581303E+03  0.00000000000E+00 0. -1.
         -2   -1    0    0    0  501 -0.00000000000E+00 -0.00000000000E+00 -0.27428656036E+03  0.27428656036E+03  0.00000000000E+00 0.  1.
    9900016    2    1    2    0    0 -0.37449795432E+02 -0.10410936336E+03  0.46203427516E+03  0.79802787437E+03  0.64119542273E+03 0.  0.
         23    2    3    3    0    0 -0.16617493773E+03 -0.15352867409E+02 -0.47115984422E+02  0.19610338895E+03  0.91579488443E+02 0.  0.
        -15    1    1    2    0    0 -0.10037695677E+03  0.52498459233E+02  0.56794912849E+02  0.12671733819E+03  0.00000000000E+00 0.  1.
        -15    1    4    4    0    0 -0.11384241005E+03  0.33595244761E+02 -0.30195035031E+02  0.12247642605E+03  0.00000000000E+00 0. -1.
         15    1    4    4    0    0 -0.52332527676E+02 -0.48948112170E+02 -0.16920949391E+02  0.73626962902E+02  0.00000000000E+00 0.  1.
         15    1    1    2    0    0  0.13514839977E+03 -0.43384640804E+02  0.60611152986E+02  0.15434062617E+03  0.00000000000E+00 0. -1.
        -16    1    1    2    0    0  0.26783524329E+01  0.94995544930E+02  0.67828911670E+02  0.11675653466E+03  0.00000000000E+00 0.  1.
         16    1    3    3    0    0  0.11021038714E+03  0.45503449041E+02  0.36528618804E+03  0.38425368246E+03  0.00000000000E+00 0. -1.
    9900018    1    3    3    0    0  0.18514755159E+02 -0.13425994499E+03  0.14386407154E+03  0.21767080296E+03  0.91187600000E+02 0.  0.
<mgrwt>
<rscale>  0 0.10055255E+04</rscale>
<asrwt>0</asrwt>
<pdfrwt beam="1">  1        2 0.14177782E+00 0.10055255E+04</pdfrwt>
<pdfrwt beam="2">  1       -2 0.42197933E-01 0.10055255E+04</pdfrwt>
<totfact> 0.15055418E+02</totfact>
</mgrwt>
</event>
<event>
11    1  0.7228744E-014  0.2190213E+04  0.7818608E-02  0.8522513E-01
          2   -1    0    0  501    0  0.00000000000E+00  0.00000000000E+00  0.34818990807E+04  0.34818990807E+04  0.00000000000E+00 0. -1.
         -2   -1    0    0    0  501 -0.00000000000E+00 -0.00000000000E+00 -0.34442637684E+03  0.34442637684E+03  0.00000000000E+00 0.  1.
    9900016    2    1    2    0    0 -0.62501263763E+02  0.25846674926E+03  0.17889561236E+04  0.19014492321E+04  0.58688474302E+03 0.  0.
         23    2    3    3    0    0  0.18544931732E+03  0.30673622524E+03  0.12932828681E+04  0.13451207238E+04  0.91052860254E+02 0.  0.
        -15    1    4    4    0    0  0.25804160047E+02  0.57701600022E+02  0.12635751602E+03  0.14128535371E+03  0.00000000000E+00 0.  1.
        -15    1    1    2    0    0  0.30776661751E+03 -0.80651071475E+02  0.30929047357E+03  0.44371779683E+03  0.00000000000E+00 0.  1.
         15    1    1    2    0    0 -0.11379798728E+03  0.10620946496E+02  0.58667905828E+03  0.59770820962E+03  0.00000000000E+00 0. -1.
         15    1    4    4    0    0  0.15964515727E+03  0.24903462522E+03  0.11669253521E+04  0.12038353701E+04  0.00000000000E+00 0. -1.
        -16    1    3    3    0    0 -0.24795058108E+03 -0.48269475988E+02  0.49567325545E+03  0.55632850829E+03  0.00000000000E+00 0.  1.
         16    1    1    2    0    0 -0.25891858003E+01 -0.38435021770E+02 -0.19577559387E+03  0.19952954151E+03  0.00000000000E+00 0. -1.
    9900018    1    1    2    0    0 -0.12887818067E+03 -0.15000160251E+03  0.64832264230E+03  0.68392067751E+03  0.91187600000E+02 0.  0.
<mgrwt>
<rscale>  0 0.21902127E+04</rscale>
<asrwt>0</asrwt>
<pdfrwt beam="1">  1        2 0.53567676E+00 0.21902127E+04</pdfrwt>
<pdfrwt beam="2">  1       -2 0.52988676E-01 0.21902127E+04</pdfrwt>
<totfact> 0.25807400E+00</totfact>
</mgrwt>
</event>
<event>
11    1  0.7228744E-014  0.2300849E+04  0.7818608E-02  0.8477586E-01
          2   -1    0    0  501    0  0.00000000000E+00  0.00000000000E+00  0.22880130052E+04  0.22880130052E+04  0.00000000000E+00 0.  1.
         -2   -1    0    0    0  501 -0.00000000000E+00 -0.00000000000E+00 -0.57843924673E+03  0.57843924673E+03  0.00000000000E+00 0. -1.
    9900016    2    1    2    0    0 -0.32169773846E+03 -0.11995063968E+03  0.10135255793E+04  0.12364735749E+04  0.61947979041E+03 0.  0.
         23    2    3    3    0    0  0.86811713709E+02  0.16730441793E+03  0.29615424574E+03  0.36239287451E+03  0.89967862762E+02 0.  0.
        -15    1    4    4    0    0  0.10550668937E+03  0.14992084912E+03  0.25920141260E+03  0.31747959744E+03  0.00000000000E+00 0.  1.
        -15    1    1    2    0    0  0.47518434249E+03 -0.31562738973E+03  0.60736638457E+03  0.83325550319E+03  0.00000000000E+00 0.  1.
         15    1    4    4    0    0 -0.18694975658E+02  0.17383568817E+02  0.36952833144E+02  0.44913277068E+02  0.00000000000E+00 0. -1.
         15    1    1    2    0    0 -0.16435886096E+03 -0.68609979622E+02  0.28153050382E+02  0.18031571957E+03  0.00000000000E+00 0. -1.
        -16    1    3    3    0    0 -0.40850945217E+03 -0.28725505761E+03  0.71737133353E+03  0.87408070040E+03  0.00000000000E+00 0.  1.
         16    1    1    2    0    0  0.81290658222E+02  0.48115255127E+03  0.87760247640E+02  0.49580017121E+03  0.00000000000E+00 0. -1.
    9900018    1    1    2    0    0 -0.70418401304E+02  0.23035457758E+02 -0.27231503374E+02  0.12060728306E+03  0.91187600000E+02 0.  0.
<mgrwt>
<rscale>  0 0.23008490E+04</rscale>
<asrwt>0</asrwt>
<pdfrwt beam="1">  1        2 0.35200199E+00 0.23008490E+04</pdfrwt>
<pdfrwt beam="2">  1       -2 0.88990655E-01 0.23008490E+04</pdfrwt>
<totfact> 0.45276890E+00</totfact>
</mgrwt>
</event>
<event>
11    1  0.7228744E-014  0.3640434E+04  0.7818608E-02  0.8081292E-01
         -2   -1    0    0    0  501 -0.00000000000E+00  0.00000000000E+00  0.13579454378E+04  0.13579454378E+04  0.00000000000E+00 0.  1.
          2   -1    0    0  501    0  0.00000000000E+00 -0.00000000000E+00 -0.24398551009E+04  0.24398551009E+04  0.00000000000E+00 0. -1.
    9900016    2    1    2    0    0  0.26745978534E+02  0.16545610208E+03 -0.15131747039E+02  0.56093103432E+03  0.53509212890E+03 0.  0.
         23    2    3    3    0    0 -0.23884886110E+01  0.16646906462E+01  0.23965868496E+03  0.25663741316E+03  0.91749662039E+02 0.  0.
        -15    1    1    2    0    0 -0.65946827853E+03  0.41249919807E+03  0.15221737455E+03  0.79260590958E+03  0.00000000000E+00 0.  1.
        -15    1    4    4    0    0 -0.35099456760E+02  0.28486311267E+02  0.84691898589E+02  0.96000830627E+02  0.00000000000E+00 0. -1.
         15    1    4    4    0    0  0.32710968149E+02 -0.26821620621E+02  0.15496678637E+03  0.16063658254E+03  0.00000000000E+00 0.  1.
         15    1    1    2    0    0  0.65169168300E+03  0.36305406052E+03  0.10443692561E+01  0.74599691102E+03  0.00000000000E+00 0. -1.
        -16    1    3    3    0    0  0.29134467145E+02  0.16379141143E+03 -0.25479043200E+03  0.30429362115E+03  0.00000000000E+00 0.  1.
         16    1    1    2    0    0  0.15226895479E+02 -0.37972437214E+03 -0.10297770194E+04  0.10976625924E+04  0.00000000000E+00 0. -1.
    9900018    1    1    2    0    0 -0.34196278483E+02 -0.56128498853E+03 -0.19026264053E+03  0.60060409139E+03  0.91187600000E+02 0.  0.
<mgrwt>
<rscale>  0 0.36404341E+04</rscale>
<asrwt>0</asrwt>
<pdfrwt beam="1">  1        2 0.37536232E+00 0.36404341E+04</pdfrwt>
<pdfrwt beam="2">  1       -2 0.20891468E+00 0.36404341E+04</pdfrwt>
<totfact> 0.35648443E-01</totfact>
</mgrwt>
</event>
<event>
11    1  0.7228744E-014  0.1542852E+04  0.7818608E-02  0.9182320E-01
          2   -1    0    0  501    0  0.00000000000E+00  0.00000000000E+00  0.97628552754E+03  0.97628552754E+03  0.00000000000E+00 0. -1.
         -2   -1    0    0    0  501 -0.00000000000E+00 -0.00000000000E+00 -0.11041637107E+04  0.11041637107E+04  0.00000000000E+00 0.  1.
    9900016    2    1    2    0    0  0.15964097458E+03 -0.34547294739E+03  0.14082997664E+03  0.89814812699E+03  0.80124913576E+03 0.  0.
         23    2    3    3    0    0  0.88631647889E+02  0.15587030207E+03 -0.74546302077E+02  0.21326999626E+03  0.88180610552E+02 0.  0.
        -15    1    4    4    0    0  0.10043966436E+03  0.15407488823E+03 -0.57974301814E+02  0.19284246688E+03  0.00000000000E+00 0.  1.
        -15    1    1    2    0    0 -0.30105874134E+03  0.35446574793E+03 -0.50615078087E+03  0.68736521964E+03  0.00000000000E+00 0.  1.
         15    1    1    2    0    0  0.20381068112E+02 -0.84920292062E+02  0.31877985260E+03  0.33052600256E+03  0.00000000000E+00 0. -1.
         15    1    4    4    0    0 -0.11808016473E+02  0.17954138342E+01 -0.16572000264E+02  0.20427529381E+02  0.00000000000E+00 0. -1.
        -16    1    1    2    0    0  0.12103669865E+03  0.75927491520E+02 -0.81337231584E+02  0.16440988909E+03  0.00000000000E+00 0.  1.
         16    1    3    3    0    0 -0.69003781685E+02 -0.16291153224E+03 -0.90811661713E+02  0.19886791376E+03  0.00000000000E+00 0. -1.
    9900018    1    3    3    0    0  0.14001310838E+03 -0.33843171722E+03  0.30618794043E+03  0.48601021697E+03  0.91187600000E+02 0.  0.
<mgrwt>
<rscale>  0 0.11237792E+04</rscale>
<asrwt>0</asrwt>
<pdfrwt beam="1">  1        2 0.15019777E+00 0.15428523E+04</pdfrwt>
<pdfrwt beam="2">  1       -2 0.16987134E+00 0.15428523E+04</pdfrwt>
<totfact> 0.52945210E+00</totfact>
</mgrwt>
</event>
<event>
11    1  0.7228744E-014  0.1731780E+04  0.7818608E-02  0.9231052E-01
         -2   -1    0    0    0  501 -0.00000000000E+00  0.00000000000E+00  0.26249059387E+03  0.26249059387E+03  0.00000000000E+00 0. -1.
          2   -1    0    0  501    0  0.00000000000E+00 -0.00000000000E+00 -0.37851198244E+04  0.37851198244E+04  0.00000000000E+00 0.  1.
    9900016    2    1    2    0    0  0.52347563255E+03 -0.19749203706E+02 -0.10695126433E+04  0.13461208433E+04  0.62750877414E+03 0.  0.
         23    2    3    3    0    0  0.16205961056E+03 -0.95636160826E+02 -0.92737306400E+03  0.95041384156E+03  0.88634517978E+02 0.  0.
        -15    1    4    4    0    0  0.92850402637E+02 -0.36948788561E+01 -0.41256754479E+03  0.42290285931E+03  0.00000000000E+00 0. -1.
        -15    1    1    2    0    0  0.16498476199E+02  0.14262269176E+03 -0.50434432785E+03  0.52438214401E+03  0.00000000000E+00 0. -1.
         15    1    1    2    0    0 -0.83692768863E+01  0.73583678574E+02 -0.59943620240E+02  0.95277700201E+02  0.00000000000E+00 0.  1.
         15    1    4    4    0    0  0.69209207928E+02 -0.91941281970E+02 -0.51480551921E+03  0.52751098225E+03  0.00000000000E+00 0.  1.
        -16    1    1    2    0    0 -0.56962351652E+03 -0.31049681338E+03 -0.17834766268E+04  0.18978061282E+04  0.00000000000E+00 0.  1.
         16    1    3    3    0    0  0.36141602198E+03  0.75886957120E+02 -0.14213957931E+03  0.39570700172E+03  0.00000000000E+00 0. -1.
    9900018    1    1    2    0    0  0.38018684661E+02  0.11403964676E+03 -0.10535201228E+03  0.18402360256E+03  0.91187600000E+02 0.  0.
<mgrwt>
<rscale>  0 0.10738591E+04</rscale>
<asrwt>0</asrwt>
<pdfrwt beam="1">  1        2 0.58232614E+00 0.17317800E+04</pdfrwt>
<pdfrwt beam="2">  1       -2 0.40383168E-01 0.17317800E+04</pdfrwt>
<totfact> 0.28038380E+00</totfact>
</mgrwt>
</event>
<event>
11    1  0.7228744E-014  0.3868542E+04  0.7818608E-02  0.8031604E-01
         -2   -1    0    0    0  501 -0.00000000000E+00  0.00000000000E+00  0.14092292991E+04  0.14092292991E+04  0.00000000000E+00 0.  1.
          2   -1    0    0  501    0  0.00000000000E+00 -0.00000000000E+00 -0.26549298212E+04  0.26549298212E+04  0.00000000000E+00 0. -1.
    9900016    2    1    2    0    0 -0.16182348768E+01 -0.12114511984E+04 -0.69626148575E+03  0.15338393479E+04  0.63266615502E+03 0.  0.
         23    2    3    3    0    0 -0.24253580413E+02 -0.26343258414E+03  0.84147268864E+02  0.29252841575E+03  0.92234205216E+02 0.  0.
        -15    1    4    4    0    0 -0.26994422949E+02 -0.17768984459E+03  0.11469042111E+02  0.18009419388E+03  0.00000000000E+00 0. -1.
        -15    1    1    2    0    0 -0.78552879497E+02 -0.24793340823E+02  0.42930485208E+03  0.43713604364E+03  0.00000000000E+00 0.  1.
         15    1    4    4    0    0  0.27408425366E+01 -0.85742739546E+02  0.72678226753E+02  0.11243422187E+03  0.00000000000E+00 0.  1.
         15    1    1    2    0    0 -0.39910429099E+03  0.11024874457E+04 -0.23104968309E+03  0.11950509441E+04  0.00000000000E+00 0. -1.
        -16    1    1    2    0    0  0.47927540536E+03  0.13375709354E+03 -0.74769420534E+03  0.89813278470E+03  0.00000000000E+00 0.  1.
         16    1    3    3    0    0  0.40683793155E+02 -0.48815183851E+03 -0.32776614236E+03  0.58938784560E+03  0.00000000000E+00 0. -1.
    9900018    1    3    3    0    0 -0.18048447619E+02 -0.45986677575E+03 -0.45264261226E+03  0.65192308651E+03  0.91187600000E+02 0.  0.
<mgrwt>
<rscale>  0 0.38685423E+04</rscale>
<asrwt>0</asrwt>
<pdfrwt beam="1">  1        2 0.40845074E+00 0.38685423E+04</pdfrwt>
<pdfrwt beam="2">  1       -2 0.21680451E+00 0.38685423E+04</pdfrwt>
<totfact> 0.23319844E-01</totfact>
</mgrwt>
</event>
