<event>
12    1  0.1444053E-010  0.1068588E+04  0.7818608E-02  0.9236361E-01
          1   -1    0    0  501    0  0.00000000000E+00  0.00000000000E+00  0.12048458159E+03  0.12048458159E+03  0.00000000000E+00 0. -1.
         -1   -1    0    0    0  501 -0.00000000000E+00 -0.00000000000E+00 -0.23693481982E+04  0.23693481982E+04  0.00000000000E+00 0.  1.
    9900016    2    1    2    0    0 -0.93167691817E+02  0.96665127633E+02 -0.12229405020E+04  0.14181819065E+04  0.70543042377E+03 0.  0.
         23    2    3    3    0    0 -0.31858974896E+02  0.20238647749E+03 -0.77647816673E+03  0.80830961824E+03  0.92037030424E+02 0.  0.
         23    2    3    3    0    0  0.10162260422E+03 -0.28056759849E+02 -0.39985456759E+03  0.42345692418E+03  0.91201732167E+02 0.  0.
        -15    1    5    5    0    0  0.91481301479E+02  0.70260904980E+01 -0.34893105453E+03  0.36079228828E+03  0.00000000000E+00 0. -1.
        -15    1    4    4    0    0 -0.53418837531E+02  0.10389896922E+03 -0.31550717304E+03  0.33644218559E+03  0.00000000000E+00 0.  1.
         15    1    4    4    0    0  0.21559862635E+02  0.98487508269E+02 -0.46097099370E+03  0.47186743265E+03  0.00000000000E+00 0. -1.
         15    1    5    5    0    0  0.10141302739E+02 -0.35082850347E+02 -0.50923513063E+02  0.62664635899E+02  0.00000000000E+00 0.  1.
        -16    1    1    2    0    0  0.12081108618E+03 -0.54255071315E+02 -0.89263844064E+03  0.90240917383E+03  0.00000000000E+00 0.  1.
         16    1    3    3    0    0 -0.16293132114E+03 -0.77664590003E+02 -0.46607767639E+02  0.18641536405E+03  0.00000000000E+00 0. -1.
    9900018    1    1    2    0    0 -0.27643394366E+02 -0.42410056318E+02 -0.13328467396E+03  0.16924169946E+03  0.91187600000E+02 0.  0.
<mgrwt>
<rscale>  0 0.10685877E+04</rscale>
<asrwt>0</asrwt>
<pdfrwt beam="1">  1        1 0.18536089E-01 0.10685877E+04</pdfrwt>
<pdfrwt beam="2">  1       -1 0.36451511E+00 0.10685877E+04</pdfrwt>
<totfact> 0.36712361E+00</totfact>
</mgrwt>
</event>
<event>
12    1  0.1444053E-010  0.2322056E+04  0.7818608E-02  0.8469275E-01
          2   -1    0    0  501    0  0.00000000000E+00  0.00000000000E+00  0.31454364474E+04  0.31454364474E+04  0.00000000000E+00 0.  1.
         -2   -1    0    0    0  501 -0.00000000000E+00 -0.00000000000E+00 -0.42855291036E+03  0.42855291036E+03  0.00000000000E+00 0. -1.
    9900016    2    1    2    0    0  0.42763744776E+03 -0.91897896116E+01  0.12033748550E+04  0.14652467665E+04  0.71824703700E+03 0.  0.
         23    2    3    3    0    0  0.19205167854E+03 -0.15792957167E+03  0.17436617755E+03  0.31570236759E+03  0.86248618466E+02 0.  0.
         23    2    3    3    0    0 -0.39255926405E+01 -0.12096187022E+03  0.29231247992E+03  0.32928470763E+03  0.91294295748E+02 0.  0.
        -15    1    4    4    0    0  0.39639997321E+02 -0.85639188662E+02  0.67264013509E+02  0.11588721903E+03  0.00000000000E+00 0. -1.
        -15    1    5    5    0    0  0.35204147883E+02 -0.45613502967E+02  0.17662182725E+03  0.18578265135E+03  0.00000000000E+00 0.  1.
         15    1    4    4    0    0  0.15241168122E+03 -0.72290383008E+02  0.10710216404E+03  0.19981514855E+03  0.00000000000E+00 0.  1.
         15    1    5    5    0    0 -0.39129740523E+02 -0.75348367254E+02  0.11569065267E+03  0.14350205628E+03  0.00000000000E+00 0. -1.
        -16    1    3    3    0    0  0.23951136186E+03  0.26970165228E+03  0.73669619755E+03  0.82025969131E+03  0.00000000000E+00 0.  1.
         16    1    1    2    0    0 -0.86920075737E+03  0.32135866279E+02  0.50982888951E+03  0.10082004598E+04  0.00000000000E+00 0. -1.
    9900018    1    1    2    0    0  0.44156330961E+03 -0.22946076668E+02  0.10036797925E+04  0.11005421314E+04  0.91187600000E+02 0.  0.
<mgrwt>
<rscale>  0 0.23220559E+04</rscale>
<asrwt>0</asrwt>
<pdfrwt beam="1">  1        2 0.48391329E+00 0.23220559E+04</pdfrwt>
<pdfrwt beam="2">  1       -2 0.65931219E-01 0.23220559E+04</pdfrwt>
<totfact> 0.26989419E+00</totfact>
</mgrwt>
</event>
<event>
12    1  0.1444053E-010  0.1809809E+04  0.7818608E-02  0.8701100E-01
          2   -1    0    0  501    0  0.00000000000E+00  0.00000000000E+00  0.88070919622E+03  0.88070919622E+03  0.00000000000E+00 0. -1.
         -2   -1    0    0    0  501 -0.00000000000E+00 -0.00000000000E+00 -0.92976501043E+03  0.92976501043E+03  0.00000000000E+00 0.  1.
    9900016    2    1    2    0    0  0.12076241334E+03 -0.64713704579E+02  0.25814910195E+03  0.77579066413E+03  0.71863674528E+03 0.  0.
         23    2    3    3    0    0 -0.22365692631E+03 -0.18801863240E+02  0.30365650160E+02  0.24394254487E+03  0.90608839198E+02 0.  0.
         23    2    3    3    0    0  0.10221392376E+03 -0.81782689007E+02  0.23775574982E+03  0.28679786334E+03  0.92677523763E+02 0.  0.
        -15    1    4    4    0    0 -0.91009063336E+02  0.21880908808E+02 -0.21112972174E+02  0.95954058662E+02  0.00000000000E+00 0.  1.
        -15    1    5    5    0    0  0.11585173618E+03 -0.52570901727E+02  0.20129918667E+03  0.23813165904E+03  0.00000000000E+00 0. -1.
         15    1    4    4    0    0 -0.13264786297E+03 -0.40682772048E+02  0.51478622335E+02  0.14798848621E+03  0.00000000000E+00 0. -1.
         15    1    5    5    0    0 -0.13637812421E+02 -0.29211787280E+02  0.36456563155E+02  0.48666204298E+02  0.00000000000E+00 0.  1.
        -16    1    1    2    0    0 -0.42727602919E+03 -0.15972505443E+02 -0.49584216228E+03  0.65473611169E+03  0.00000000000E+00 0.  1.
         16    1    3    3    0    0  0.24220541589E+03  0.35870847668E+02 -0.99722980290E+01  0.24505025592E+03  0.00000000000E+00 0. -1.
    9900018    1    1    2    0    0  0.30651361584E+03  0.80686210021E+02  0.18863724611E+03  0.37994743084E+03  0.91187600000E+02 0.  0.
<mgrwt>
<rscale>  0 0.18098095E+04</rscale>
<asrwt>0</asrwt>
<pdfrwt beam="1">  1        2 0.13549372E+00 0.18098095E+04</pdfrwt>
<pdfrwt beam="2">  1       -2 0.14304077E+00 0.18098095E+04</pdfrwt>
<totfact> 0.96793480E+00</totfact>
</mgrwt>
</event>
<event>
12    1  0.1444053E-010  0.1732790E+04  0.7818608E-02  0.8742881E-01
         -2   -1    0    0    0  501 -0.00000000000E+00  0.00000000000E+00  0.56793243022E+03  0.56793243022E+03  0.00000000000E+00 0.  1.
          2   -1    0    0  501    0  0.00000000000E+00 -0.00000000000E+00 -0.13217064033E+04  0.13217064033E+04  0.00000000000E+00 0. -1.
    9900016    2    1    2    0    0  0.15199698315E+03 -0.17645878835E+03 -0.32966604450E+03  0.82433156516E+03  0.71875033325E+03 0.  0.
         23    2    3    3    0    0 -0.17916234517E+03 -0.61980584700E+02 -0.10823390249E+03  0.23566445051E+03  0.88782975740E+02 0.  0.
         23    2    3    3    0    0  0.11128796894E+03 -0.24457140698E+03 -0.71512299680E+02  0.29245162662E+03  0.90629795106E+02 0.  0.
        -15    1    4    4    0    0 -0.77695091100E+02 -0.14373618487E+02 -0.93822508042E+02  0.12266128609E+03  0.00000000000E+00 0.  1.
        -15    1    5    5    0    0  0.12049425833E+03 -0.19086878764E+03 -0.39183008219E+02  0.22909619926E+03  0.00000000000E+00 0. -1.
         15    1    4    4    0    0 -0.10146725407E+03 -0.47606966213E+02 -0.14411394447E+02  0.11300316442E+03  0.00000000000E+00 0. -1.
         15    1    5    5    0    0 -0.92062893851E+01 -0.53702619345E+02 -0.32329291461E+02  0.63355427354E+02  0.00000000000E+00 0.  1.
        -16    1    1    2    0    0 -0.30485079102E+03  0.30154660540E+03  0.14769606144E+03  0.45351790105E+03  0.00000000000E+00 0.  1.
         16    1    3    3    0    0  0.21987135938E+03  0.13009320333E+03 -0.14991984233E+03  0.29621548803E+03  0.00000000000E+00 0. -1.
    9900018    1    1    2    0    0  0.15285380786E+03 -0.12508781704E+03 -0.57180399003E+03  0.61178936732E+03  0.91187600000E+02 0.  0.
<mgrwt>
<rscale>  0 0.17327896E+04</rscale>
<asrwt>0</asrwt>
<pdfrwt beam="1">  1        2 0.20333944E+00 0.17327896E+04</pdfrwt>
<pdfrwt beam="2">  1       -2 0.87374221E-01 0.17327896E+04</pdfrwt>
<totfact> 0.17243247E+01</totfact>
</mgrwt>
</event>
<event>
12    1  0.1444053E-010  0.1652875E+04  0.7818608E-02  0.8788708E-01
         -2   -1    0    0    0  501 -0.00000000000E+00  0.00000000000E+00  0.57224606729E+03  0.57224606729E+03  0.00000000000E+00 0.  1.
          2   -1    0    0  501    0  0.00000000000E+00 -0.00000000000E+00 -0.11935400415E+04  0.11935400415E+04  0.00000000000E+00 0. -1.
    9900016    2    1    2    0    0 -0.15587044977E+03 -0.73295187620E+01 -0.20743968932E+03  0.75492891150E+03  0.70889852430E+03 0.  0.
         23    2    3    3    0    0 -0.15919856639E+03 -0.22299659107E+03 -0.69454490469E+02  0.29590747690E+03  0.87553671925E+02 0.  0.
         23    2    3    3    0    0  0.10491188842E+03  0.68702794355E+02  0.82445416538E+02  0.17528314341E+03  0.90555813572E+02 0.  0.
        -15    1    4    4    0    0 -0.94591759752E+01 -0.76923999332E+02 -0.29567864503E+02  0.82952011998E+02  0.00000000000E+00 0.  1.
        -15    1    5    5    0    0  0.64706425743E+01  0.93388731819E+01  0.56243265903E+02  0.57379340594E+02  0.00000000000E+00 0. -1.
         15    1    5    5    0    0  0.98441245843E+02  0.59363921173E+02  0.26202150635E+02  0.11790380281E+03  0.00000000000E+00 0.  1.
         15    1    4    4    0    0 -0.14973939042E+03 -0.14607259174E+03 -0.39886625966E+02  0.21295546490E+03  0.00000000000E+00 0. -1.
        -16    1    1    2    0    0  0.40039248419E+03 -0.22699643951E+03 -0.46749591512E+03  0.65604417199E+03  0.00000000000E+00 0.  1.
         16    1    3    3    0    0 -0.10158377180E+03  0.14696427795E+03 -0.22043061539E+03  0.28373829119E+03  0.00000000000E+00 0. -1.
    9900018    1    1    2    0    0 -0.24452203442E+03  0.23432595827E+03  0.53641630226E+02  0.35481302530E+03  0.91187600000E+02 0.  0.
<mgrwt>
<rscale>  0 0.16528746E+04</rscale>
<asrwt>0</asrwt>
<pdfrwt beam="1">  1        2 0.18362154E+00 0.16528746E+04</pdfrwt>
<pdfrwt beam="2">  1       -2 0.88037857E-01 0.16528746E+04</pdfrwt>
<totfact> 0.20296050E+01</totfact>
</mgrwt>
</event>
<event>
12    1  0.1444053E-010  0.2155934E+04  0.7818608E-02  0.8536996E-01
         -2   -1    0    0    0  501 -0.00000000000E+00  0.00000000000E+00  0.11023094889E+04  0.11023094889E+04  0.00000000000E+00 0.  1.
          2   -1    0    0  501    0  0.00000000000E+00 -0.00000000000E+00 -0.10541624801E+04  0.10541624801E+04  0.00000000000E+00 0. -1.
    9900016    2    1    2    0    0  0.31079346430E+03 -0.78113766950E+03 -0.19558859950E+03  0.11201680421E+04  0.71396982158E+03 0.  0.
         23    2    3    3    0    0  0.38625363268E+02 -0.31407389901E+02  0.13642337779E+03  0.17152831450E+03  0.91281333469E+02 0.  0.
         23    2    3    3    0    0 -0.65036933672E+02 -0.85904140837E+02 -0.40054069458E+02  0.14888239073E+03  0.94616666795E+02 0.  0.
        -15    1    5    5    0    0 -0.58667104265E+02 -0.44178138406E+02  0.19408185038E+02  0.75961929163E+02  0.00000000000E+00 0.  1.
        -15    1    4    4    0    0 -0.43329071439E+01 -0.54659462057E+02  0.78579829060E+02  0.95818685087E+02  0.00000000000E+00 0. -1.
         15    1    4    4    0    0  0.42958270412E+02  0.23252072156E+02  0.57843548727E+02  0.75709629411E+02  0.00000000000E+00 0.  1.
         15    1    5    5    0    0 -0.63698294070E+01 -0.41726002431E+02 -0.59462254496E+02  0.72920461568E+02  0.00000000000E+00 0. -1.
        -16    1    3    3    0    0  0.33720503470E+03 -0.66382613877E+03 -0.29195790783E+03  0.79975733687E+03  0.00000000000E+00 0.  1.
         16    1    1    2    0    0 -0.32308669028E+03  0.39412691632E+03 -0.89432709499E+02  0.51741593049E+03  0.00000000000E+00 0. -1.
    9900018    1    1    2    0    0  0.12293225977E+02  0.38701075319E+03  0.33316831773E+03  0.51888799641E+03  0.91187600000E+02 0.  0.
<mgrwt>
<rscale>  0 0.21559344E+04</rscale>
<asrwt>0</asrwt>
<pdfrwt beam="1">  1        2 0.16217884E+00 0.21559344E+04</pdfrwt>
<pdfrwt beam="2">  1       -2 0.16958608E+00 0.21559344E+04</pdfrwt>
<totfact> 0.45797003E+00</totfact>
</mgrwt>
</event>
<event>
12    1  0.1444053E-010  0.1482187E+04  0.7818608E-02  0.8896386E-01
         -2   -1    0    0    0  501 -0.00000000000E+00  0.00000000000E+00  0.18283963597E+04  0.18283963597E+04  0.00000000000E+00 0.  1.
          2   -1    0    0  501    0  0.00000000000E+00 -0.00000000000E+00 -0.30038310855E+03  0.30038310855E+03  0.00000000000E+00 0. -1.
    9900016    2    1    2    0    0  0.77288651586E+02 -0.15033016146E+03  0.43543871211E+03  0.85120895587E+03  0.71160179977E+03 0.  0.
         23    2    3    3    0    0 -0.12275976406E+03 -0.55178463566E+02 -0.29255655024E+02  0.16576236619E+03  0.92231481498E+02 0.  0.
         23    2    3    3    0    0 -0.10234371207E+03 -0.73000795782E+02  0.37117408237E+02  0.16127703968E+03  0.93963982184E+02 0.  0.
        -15    1    4    4    0    0 -0.43219253053E+02 -0.22099868826E+02 -0.57365758244E+02  0.75147443440E+02  0.00000000000E+00 0. -1.
        -15    1    5    5    0    0 -0.53088237455E+02 -0.62443060232E+02 -0.20759242267E+02  0.84548464603E+02  0.00000000000E+00 0. -1.
         15    1    4    4    0    0 -0.79540511010E+02 -0.33078594739E+02  0.28110103221E+02  0.90614922749E+02  0.00000000000E+00 0.  1.
         15    1    5    5    0    0 -0.49255474613E+02 -0.10557735551E+02  0.57876650504E+02  0.76728575074E+02  0.00000000000E+00 0.  1.
        -16    1    1    2    0    0  0.16918448315E+02 -0.41410407639E+02  0.10380009433E+04  0.10389643950E+04  0.00000000000E+00 0.  1.
         16    1    3    3    0    0  0.30239212772E+03 -0.22150902113E+02  0.42757695889E+03  0.52416955000E+03  0.00000000000E+00 0. -1.
    9900018    1    1    2    0    0 -0.94207099901E+02  0.19174056910E+03  0.54573595740E+02  0.23860611739E+03  0.91187600000E+02 0.  0.
<mgrwt>
<rscale>  0 0.14821867E+04</rscale>
<asrwt>0</asrwt>
<pdfrwt beam="1">  1        2 0.46212787E-01 0.14821867E+04</pdfrwt>
<pdfrwt beam="2">  1       -2 0.28129174E+00 0.14821867E+04</pdfrwt>
<totfact> 0.43978958E+00</totfact>
</mgrwt>
</event>
<event>
12    1  0.1444053E-010  0.1072080E+04  0.7818608E-02  0.9232840E-01
          1   -1    0    0  501    0  0.00000000000E+00  0.00000000000E+00  0.62720979115E+03  0.62720979115E+03  0.00000000000E+00 0. -1.
         -1   -1    0    0    0  501 -0.00000000000E+00 -0.00000000000E+00 -0.45812221403E+03  0.45812221403E+03  0.00000000000E+00 0.  1.
    9900016    2    1    2    0    0 -0.11811516501E+02 -0.42621465644E+02  0.83732740488E+02  0.70732888558E+03  0.70096139643E+03 0.  0.
         23    2    3    3    0    0 -0.23653299747E+03 -0.21079338610E+03  0.69804755529E+02  0.33642857543E+03  0.89049267006E+02 0.  0.
         23    2    3    3    0    0  0.85652861183E+02  0.87473411208E+02 -0.93334327503E+02  0.17761933830E+03  0.88596401447E+02 0.  0.
        -15    1    5    5    0    0  0.46495573481E+02  0.17392842976E+02 -0.82953494760E+02  0.96672807102E+02  0.00000000000E+00 0.  1.
        -15    1    4    4    0    0 -0.14596599810E+03 -0.76296345942E+02  0.15509293840E+02  0.16543198965E+03  0.00000000000E+00 0. -1.
         15    1    5    5    0    0  0.39157287702E+02  0.70080568232E+02 -0.10380832743E+02  0.80946531194E+02  0.00000000000E+00 0. -1.
         15    1    4    4    0    0 -0.90566999370E+02 -0.13449704016E+03  0.54295461689E+02  0.17099658578E+03  0.00000000000E+00 0.  1.
        -16    1    3    3    0    0  0.13906861979E+03  0.80698509251E+02  0.10726231246E+03  0.19328097185E+03  0.00000000000E+00 0.  1.
         16    1    1    2    0    0 -0.88858698788E+01 -0.12043078717E+03  0.13744394946E+03  0.18295729673E+03  0.00000000000E+00 0. -1.
    9900018    1    1    2    0    0  0.20697386379E+02  0.16305225281E+03 -0.52089112833E+02  0.19504582287E+03  0.91187600000E+02 0.  0.
<mgrwt>
<rscale>  0 0.10720797E+04</rscale>
<asrwt>0</asrwt>
<pdfrwt beam="1">  1        1 0.96493815E-01 0.10720797E+04</pdfrwt>
<pdfrwt beam="2">  1       -1 0.70480340E-01 0.10720797E+04</pdfrwt>
<totfact> 0.65225950E+01</totfact>
</mgrwt>
</event>
<event>
12    1  0.1444053E-010  0.1399556E+04  0.7818608E-02  0.8954140E-01
          1   -1    0    0  501    0  0.00000000000E+00  0.00000000000E+00  0.55458519410E+03  0.55458519410E+03  0.00000000000E+00 0. -1.
         -1   -1    0    0    0  501 -0.00000000000E+00 -0.00000000000E+00 -0.88298341002E+03  0.88298341002E+03  0.00000000000E+00 0.  1.
    9900016    2    1    2    0    0  0.84473103894E+02 -0.99599499363E+02 -0.11499121994E+03  0.73144528533E+03  0.71044595799E+03 0.  0.
         23    2    3    3    0    0  0.13040998955E+03 -0.12713688845E+03  0.39706225113E+02  0.20806561303E+03  0.92434632214E+02 0.  0.
         23    2    3    3    0    0  0.12826372070E+02 -0.14349677789E+03  0.10888715205E+03  0.20371946746E+03  0.94283447402E+02 0.  0.
        -15    1    4    4    0    0  0.29324811257E+02 -0.85849929537E+02 -0.31247914366E+01  0.90774001114E+02  0.00000000000E+00 0.  1.
        -15    1    5    5    0    0 -0.14889993618E+02 -0.14159896629E+03  0.78654068770E+02  0.16266051057E+03  0.00000000000E+00 0.  1.
         15    1    4    4    0    0  0.10108517829E+03 -0.41286958915E+02  0.42831016550E+02  0.11729161191E+03  0.00000000000E+00 0. -1.
         15    1    5    5    0    0  0.27716365688E+02 -0.18978115967E+01  0.30233083284E+02  0.41058956888E+02  0.00000000000E+00 0. -1.
        -16    1    3    3    0    0 -0.58763257724E+02  0.17103416698E+03 -0.26358459710E+03  0.31966020485E+03  0.00000000000E+00 0.  1.
         16    1    1    2    0    0 -0.67759717648E+02  0.24482842684E+03  0.15628214334E+03  0.29825567262E+03  0.00000000000E+00 0. -1.
    9900018    1    1    2    0    0 -0.16713386246E+02 -0.14522892747E+03 -0.36968913932E+03  0.40786764616E+03  0.91187600000E+02 0.  0.
<mgrwt>
<rscale>  0 0.13995564E+04</rscale>
<asrwt>0</asrwt>
<pdfrwt beam="1">  1        1 0.85320800E-01 0.13995564E+04</pdfrwt>
<pdfrwt beam="2">  1       -1 0.13584360E+00 0.13995564E+04</pdfrwt>
<totfact> 0.16949909E+01</totfact>
</mgrwt>
</event>
<event>
12    1  0.1444053E-010  0.2183943E+04  0.7818608E-02  0.8525141E-01
         -2   -1    0    0    0  501 -0.00000000000E+00  0.00000000000E+00  0.58334969921E+03  0.58334969921E+03  0.00000000000E+00 0.  1.
          2   -1    0    0  501    0  0.00000000000E+00 -0.00000000000E+00 -0.20440605537E+04  0.20440605537E+04  0.00000000000E+00 0. -1.
    9900016    2    1    2    0    0 -0.39712343513E+03 -0.20858685159E+03  0.26082610879E+02  0.84696411072E+03  0.71795014094E+03 0.  0.
         23    2    3    3    0    0 -0.10174682017E+03 -0.10327196527E+03  0.17580848392E+03  0.24463909015E+03  0.89006444612E+02 0.  0.
         23    2    3    3    0    0 -0.27926671147E+03  0.69145546268E+02  0.80919126926E+02  0.31268198589E+03  0.91929954291E+02 0.  0.
        -15    1    5    5    0    0 -0.24277424813E+03  0.30234012974E+02  0.46036304788E+02  0.24894331173E+03  0.00000000000E+00 0. -1.
        -15    1    4    4    0    0 -0.10804915782E+03 -0.11309656856E+03  0.15190523583E+03  0.21803819619E+03  0.00000000000E+00 0. -1.
         15    1    4    4    0    0  0.63023376513E+01  0.98246032916E+01  0.23903248092E+02  0.26600893952E+02  0.00000000000E+00 0.  1.
         15    1    5    5    0    0 -0.36492463337E+02  0.38911533295E+02  0.34882822138E+02  0.63738674163E+02  0.00000000000E+00 0.  1.
        -16    1    1    2    0    0  0.97976316407E+02  0.12236772865E+03  0.83074276712E+02  0.17741069597E+03  0.00000000000E+00 0.  1.
         16    1    3    3    0    0 -0.16109903494E+02 -0.17446043258E+03 -0.23064499997E+03  0.28964303468E+03  0.00000000000E+00 0. -1.
    9900018    1    1    2    0    0  0.29914711873E+03  0.86219122931E+02 -0.15698677421E+04  0.16030354462E+04  0.91187600000E+02 0.  0.
<mgrwt>
<rscale>  0 0.21839433E+04</rscale>
<asrwt>0</asrwt>
<pdfrwt beam="1">  1        2 0.31447085E+00 0.21839433E+04</pdfrwt>
<pdfrwt beam="2">  1       -2 0.89746108E-01 0.21839433E+04</pdfrwt>
<totfact> 0.61465629E+00</totfact>
</mgrwt>
</event>
<event>
12    1  0.1444053E-010  0.1673914E+04  0.7818608E-02  0.8776383E-01
         -1   -1    0    0    0  501 -0.00000000000E+00  0.00000000000E+00  0.34545473238E+03  0.34545473238E+03  0.00000000000E+00 0.  1.
          1   -1    0    0  501    0  0.00000000000E+00 -0.00000000000E+00 -0.20277539639E+04  0.20277539639E+04  0.00000000000E+00 0. -1.
    9900016    2    1    2    0    0 -0.93129519069E+01 -0.11098070204E+03 -0.45234396021E+03  0.84704764056E+03  0.70743989125E+03 0.  0.
         23    2    3    3    0    0  0.24349452505E+02  0.28202235187E+03 -0.22265459985E+03  0.37121740139E+03  0.89987696239E+02 0.  0.
         23    2    3    3    0    0 -0.39934789314E+02 -0.30909789794E+03 -0.21730006110E+03  0.39078370633E+03  0.91412748954E+02 0.  0.
        -15    1    4    4    0    0  0.28826637401E+02  0.63094117608E+02 -0.18394509728E+02  0.71764898723E+02  0.00000000000E+00 0.  1.
        -15    1    5    5    0    0 -0.37234376194E+02 -0.29335249258E+03 -0.17051538224E+03  0.34134671414E+03  0.00000000000E+00 0. -1.
         15    1    4    4    0    0 -0.44771848959E+01  0.21892823426E+03 -0.20426009012E+03  0.29945250267E+03  0.00000000000E+00 0. -1.
         15    1    5    5    0    0 -0.27004131199E+01 -0.15745405361E+02 -0.46784678861E+02  0.49436992193E+02  0.00000000000E+00 0.  1.
        -16    1    3    3    0    0  0.62723849014E+01 -0.83905155968E+02 -0.12389299258E+02  0.85046532830E+02  0.00000000000E+00 0.  1.
         16    1    1    2    0    0 -0.39845189126E+03  0.23635678688E+03 -0.70512233858E+03  0.84369778518E+03  0.00000000000E+00 0. -1.
    9900018    1    1    2    0    0  0.40776484316E+03 -0.12537608484E+03 -0.52483293273E+03  0.68246327054E+03  0.91187600000E+02 0.  0.
<mgrwt>
<rscale>  0 0.16739142E+04</rscale>
<asrwt>0</asrwt>
<pdfrwt beam="1">  1        1 0.31196215E+00 0.16739142E+04</pdfrwt>
<pdfrwt beam="2">  1       -1 0.53146882E-01 0.16739142E+04</pdfrwt>
<totfact> 0.97195594E+00</totfact>
</mgrwt>
</event>
<event>
12    1  0.1458159E-010  0.2016140E+04  0.7818608E-02  0.8599112E-01
          2   -1    0    0  501    0  0.00000000000E+00  0.00000000000E+00  0.36144036833E+03  0.36144036833E+03  0.00000000000E+00 0. -1.
         -2   -1    0    0    0  501 -0.00000000000E+00 -0.00000000000E+00 -0.28115432076E+04  0.28115432076E+04  0.00000000000E+00 0.  1.
    9900016    2    1    2    0    0 -0.32899019234E+03 -0.20469356552E+03 -0.96704571119E+03  0.12574606973E+04  0.70419883226E+03 0.  0.
         23    2    3    3    0    0 -0.31370957866E+03 -0.17673905866E+03 -0.10186291154E+04  0.10841888350E+04  0.90607730153E+02 0.  0.
         23    2    3    3    0    0  0.18076375174E+02  0.26011441138E+02  0.64849077538E+01  0.95433011886E+02  0.89788948760E+02 0.  0.
        -15    1    5    5    0    0 -0.51181118804E+01 -0.13588502625E+02 -0.32256719268E+02  0.35374261982E+02  0.00000000000E+00 0.  1.
        -15    1    4    4    0    0 -0.88632486334E+02 -0.60922841010E+01 -0.24397153118E+03  0.25964387454E+03  0.00000000000E+00 0.  1.
         15    1    4    4    0    0 -0.22507709232E+03 -0.17064677456E+03 -0.77465758419E+03  0.82454496051E+03  0.00000000000E+00 0. -1.
         15    1    5    5    0    0  0.23194487054E+02  0.39599943763E+02  0.38741627022E+02  0.60058749904E+02  0.00000000000E+00 0. -1.
        -16    1    1    2    0    0 -0.81387607696E+02  0.23009186224E+03 -0.14742103815E+04  0.14942765663E+04  0.00000000000E+00 0.  1.
         16    1    3    3    0    0 -0.33356988859E+02 -0.53965948005E+02  0.45098496428E+02  0.77838850389E+02  0.00000000000E+00 0. -1.
    9900018    1    1    2    0    0  0.41037780004E+03 -0.25398296717E+02 -0.88467465259E+01  0.42124631222E+03  0.91187600000E+02 0.  0.
<mgrwt>
<rscale>  0 0.20161401E+04</rscale>
<asrwt>0</asrwt>
<pdfrwt beam="1">  1        2 0.55606211E-01 0.20161401E+04</pdfrwt>
<pdfrwt beam="2">  1       -2 0.43254510E+00 0.20161401E+04</pdfrwt>
<totfact> 0.37542221E-01</totfact>
</mgrwt>
</event>
<event>
12    1  0.1444053E-010  0.1075613E+04  0.7818608E-02  0.9229292E-01
          2   -1    0    0  501    0  0.00000000000E+00  0.00000000000E+00  0.11799419586E+04  0.11799419586E+04  0.00000000000E+00 0. -1.
         -2   -1    0    0    0  501 -0.00000000000E+00 -0.00000000000E+00 -0.24512729509E+03  0.24512729509E+03  0.00000000000E+00 0.  1.
    9900016    2    1    2    0    0 -0.13245985026E+03 -0.14272416104E+03  0.46458937273E+03  0.86645818900E+03  0.70497568040E+03 0.  0.
         23    2    3    3    0    0 -0.10726724574E+03  0.14734269712E+03 -0.47926073554E+02  0.21236920149E+03  0.97916478746E+02 0.  0.
         23    2    3    3    0    0 -0.10278035042E+02 -0.61758724464E+02  0.22155281493E+02  0.11297888826E+03  0.91398001311E+02 0.  0.
        -15    1    4    4    0    0 -0.70836416334E+02  0.35324164067E+02  0.12245073112E+02  0.80097042777E+02  0.00000000000E+00 0. -1.
        -15    1    5    5    0    0  0.19778313107E+02  0.15690553493E+02  0.15524962364E+02  0.29637806846E+02  0.00000000000E+00 0.  1.
         15    1    4    4    0    0 -0.36430829410E+02  0.11201853305E+03 -0.60171146666E+02  0.13227215871E+03  0.00000000000E+00 0.  1.
         15    1    5    5    0    0 -0.30056348149E+02 -0.77449277958E+02  0.66303191297E+01  0.83341081418E+02  0.00000000000E+00 0. -1.
        -16    1    1    2    0    0  0.12641761871E+03  0.10709329311E+03  0.14928636996E+03  0.22301750605E+03  0.00000000000E+00 0.  1.
         16    1    3    3    0    0 -0.14914569470E+02 -0.22830813370E+03  0.49036016479E+03  0.54111009925E+03  0.00000000000E+00 0. -1.
    9900018    1    1    2    0    0  0.60422315437E+01  0.35630867927E+02  0.32093892085E+03  0.33559355867E+03  0.91187600000E+02 0.  0.
<mgrwt>
<rscale>  0 0.10756133E+04</rscale>
<asrwt>0</asrwt>
<pdfrwt beam="1">  1        2 0.18152953E+00 0.10756133E+04</pdfrwt>
<pdfrwt beam="2">  1       -2 0.37711892E-01 0.10756133E+04</pdfrwt>
<totfact> 0.12832866E+02</totfact>
</mgrwt>
</event>
<event>
12    1  0.1444053E-010  0.1324014E+04  0.7818608E-02  0.9010735E-01
         -2   -1    0    0    0  501 -0.00000000000E+00  0.00000000000E+00  0.27256572392E+03  0.27256572392E+03  0.00000000000E+00 0.  1.
          2   -1    0    0  501    0  0.00000000000E+00 -0.00000000000E+00 -0.16078821197E+04  0.16078821197E+04  0.00000000000E+00 0. -1.
    9900016    2    1    2    0    0  0.57558661086E+02 -0.11488217292E+03 -0.30852938503E+03  0.78127188016E+03  0.70617593854E+03 0.  0.
         23    2    3    3    0    0 -0.19299362233E+03  0.24116415288E+02  0.71156972558E+02  0.22677272060E+03  0.92381883062E+02 0.  0.
         23    2    3    3    0    0  0.28035108254E+03 -0.17458277756E+03 -0.27330436095E+03  0.43843309144E+03  0.91937077692E+02 0.  0.
        -15    1    4    4    0    0 -0.14032909294E+02 -0.22735039876E+02  0.23883598370E+02  0.35836166822E+02  0.00000000000E+00 0.  1.
        -15    1    5    5    0    0  0.20404203129E+03 -0.99515809869E+02 -0.22939020880E+03  0.32273272973E+03  0.00000000000E+00 0.  1.
         15    1    5    5    0    0  0.76309051245E+02 -0.75066967688E+02 -0.43914152152E+02  0.11570036171E+03  0.00000000000E+00 0. -1.
         15    1    4    4    0    0 -0.17896071304E+03  0.46851455164E+02  0.47273374188E+02  0.19093655378E+03  0.00000000000E+00 0. -1.
        -16    1    1    2    0    0 -0.79318382042E+02  0.11184069576E+03 -0.10517951960E+03  0.17280763381E+03  0.00000000000E+00 0.  1.
         16    1    3    3    0    0 -0.29798799123E+02  0.35584189345E+02 -0.10638199664E+03  0.11606606812E+03  0.00000000000E+00 0. -1.
    9900018    1    1    2    0    0  0.21759720956E+02  0.30414771609E+01 -0.92160749115E+03  0.92636832965E+03  0.91187600000E+02 0.  0.
<mgrwt>
<rscale>  0 0.13240144E+04</rscale>
<asrwt>0</asrwt>
<pdfrwt beam="1">  1        2 0.24736648E+00 0.13240144E+04</pdfrwt>
<pdfrwt beam="2">  1       -2 0.41933188E-01 0.13240144E+04</pdfrwt>
<totfact> 0.58202850E+01</totfact>
</mgrwt>
</event>
<event>
12    1  0.1444053E-010  0.1765186E+04  0.7818608E-02  0.8725036E-01
          2   -1    0    0  501    0  0.00000000000E+00  0.00000000000E+00  0.98580897270E+03  0.98580897270E+03  0.00000000000E+00 0. -1.
         -2   -1    0    0    0  501 -0.00000000000E+00 -0.00000000000E+00 -0.79018362696E+03  0.79018362696E+03  0.00000000000E+00 0.  1.
    9900016    2    1    2    0    0  0.36613362722E+03  0.18970571549E+03 -0.33515826192E+02  0.83264030659E+03  0.72258181411E+03 0.  0.
         23    2    3    3    0    0 -0.63134927971E+02  0.87862971624E+01  0.53831462446E+02  0.12871840621E+03  0.98017261746E+02 0.  0.
         23    2    3    3    0    0  0.24069328886E+02  0.26694968691E+03 -0.16807535196E+02  0.28372733006E+03  0.91527245392E+02 0.  0.
        -15    1    5    5    0    0  0.53410812134E+02  0.15514673025E+03 -0.31906357999E+02  0.16715632935E+03  0.00000000000E+00 0. -1.
        -15    1    4    4    0    0 -0.40214492107E+02  0.50367272976E+02  0.49059674246E+02  0.80999501230E+02  0.00000000000E+00 0.  1.
         15    1    4    4    0    0 -0.22920435864E+02 -0.41580975813E+02  0.47717882000E+01  0.47718904979E+02  0.00000000000E+00 0. -1.
         15    1    5    5    0    0 -0.29341483248E+02  0.11180295666E+03  0.15098822803E+02  0.11657100071E+03  0.00000000000E+00 0.  1.
        -16    1    3    3    0    0  0.40519922631E+03 -0.86030268587E+02 -0.70539753442E+02  0.42019457032E+03  0.00000000000E+00 0.  1.
         16    1    1    2    0    0 -0.49276464245E+03 -0.38560850125E+03  0.28370324350E+03  0.68702142576E+03  0.00000000000E+00 0. -1.
    9900018    1    1    2    0    0  0.12663101523E+03  0.19590278576E+03 -0.54562071566E+02  0.25633086731E+03  0.91187600000E+02 0.  0.
<mgrwt>
<rscale>  0 0.17651857E+04</rscale>
<asrwt>0</asrwt>
<pdfrwt beam="1">  1        2 0.15166292E+00 0.17651857E+04</pdfrwt>
<pdfrwt beam="2">  1       -2 0.12156671E+00 0.17651857E+04</pdfrwt>
<totfact> 0.12521256E+01</totfact>
</mgrwt>
</event>
<event>
12    1  0.1444053E-010  0.2045896E+04  0.7818608E-02  0.8585459E-01
          2   -1    0    0  501    0  0.00000000000E+00  0.00000000000E+00  0.67094835202E+03  0.67094835202E+03  0.00000000000E+00 0. -1.
         -2   -1    0    0    0  501 -0.00000000000E+00 -0.00000000000E+00 -0.15596164809E+04  0.15596164809E+04  0.00000000000E+00 0.  1.
    9900016    2    1    2    0    0  0.46603688560E+02  0.28563724095E+03 -0.11640186047E+03  0.75122134333E+03  0.68339123227E+03 0.  0.
         23    2    3    3    0    0  0.10057296051E+03  0.30660441568E+03 -0.20942719743E+03  0.39476212565E+03  0.88635189001E+02 0.  0.
         23    2    3    3    0    0  0.84167608540E+02  0.57679488380E+02  0.13371482213E+03  0.19237774532E+03  0.93372552341E+02 0.  0.
        -15    1    4    4    0    0  0.66692978953E+02  0.14932481769E+03 -0.57155453329E+02  0.17324145135E+03  0.00000000000E+00 0.  1.
        -15    1    5    5    0    0  0.67059027840E+02 -0.30248921688E+01  0.36258202145E+02  0.76293645936E+02  0.00000000000E+00 0.  1.
         15    1    4    4    0    0  0.33879981552E+02  0.15727959799E+03 -0.15227174410E+03  0.22152067431E+03  0.00000000000E+00 0. -1.
         15    1    5    5    0    0  0.17108580701E+02  0.60704380549E+02  0.97456619982E+02  0.11608409938E+03  0.00000000000E+00 0. -1.
        -16    1    3    3    0    0 -0.13813688049E+03 -0.78646663102E+02 -0.40689485167E+02  0.16408147236E+03  0.00000000000E+00 0.  1.
         16    1    1    2    0    0  0.48496415139E+03  0.20284953181E+03 -0.24050433859E+03  0.57808346938E+03  0.00000000000E+00 0. -1.
    9900018    1    1    2    0    0 -0.53156783995E+03 -0.48848677276E+03 -0.53176192982E+03  0.90126002021E+03  0.91187600000E+02 0.  0.
<mgrwt>
<rscale>  0 0.20458955E+04</rscale>
<asrwt>0</asrwt>
<pdfrwt beam="1">  1        2 0.10322282E+00 0.20458955E+04</pdfrwt>
<pdfrwt beam="2">  1       -2 0.23994099E+00 0.20458955E+04</pdfrwt>
<totfact> 0.29649478E+00</totfact>
</mgrwt>
</event>
<event>
12    1  0.1444053E-010  0.2934230E+04  0.7818608E-02  0.8262765E-01
          1   -1    0    0  501    0  0.00000000000E+00  0.00000000000E+00  0.17610070173E+04  0.17610070173E+04  0.00000000000E+00 0. -1.
         -1   -1    0    0    0  501 -0.00000000000E+00 -0.00000000000E+00 -0.12222703906E+04  0.12222703906E+04  0.00000000000E+00 0.  1.
    9900016    2    1    2    0    0 -0.28084280359E+03  0.16400198162E+03  0.25079574316E+03  0.82153721238E+03  0.71151637805E+03 0.  0.
         23    2    3    3    0    0 -0.21641424438E+03  0.15196790932E+02 -0.20063475270E+03  0.30921977773E+03  0.91085121310E+02 0.  0.
         23    2    3    3    0    0 -0.68552632656E+02  0.16372833118E+03  0.45481749342E+03  0.49646877993E+03  0.90088108261E+02 0.  0.
        -15    1    4    4    0    0 -0.28265647593E+02  0.52898332009E+01 -0.81206531212E+02  0.86147721273E+02  0.00000000000E+00 0. -1.
        -15    1    5    5    0    0 -0.75095754278E+02  0.70317954096E+02  0.19837591127E+03  0.22346585679E+03  0.00000000000E+00 0.  1.
         15    1    5    5    0    0  0.65431216225E+01  0.93410377087E+02  0.25644158215E+03  0.27300292314E+03  0.00000000000E+00 0. -1.
         15    1    4    4    0    0 -0.18814859679E+03  0.99069577312E+01 -0.11942822149E+03  0.22307205646E+03  0.00000000000E+00 0.  1.
        -16    1    1    2    0    0 -0.15835969078E+03 -0.47403263201E+03 -0.80086894350E+03  0.94402107632E+03  0.00000000000E+00 0.  1.
         16    1    3    3    0    0  0.41240734484E+01 -0.14923140491E+02 -0.33869975636E+01  0.15848654719E+02  0.00000000000E+00 0. -1.
    9900018    1    1    2    0    0  0.43920249437E+03  0.31003065038E+03  0.10888098270E+04  0.12177191191E+04  0.91187600000E+02 0.  0.
<mgrwt>
<rscale>  0 0.29342302E+04</rscale>
<asrwt>0</asrwt>
<pdfrwt beam="1">  1        1 0.27092416E+00 0.29342302E+04</pdfrwt>
<pdfrwt beam="2">  1       -1 0.18804160E+00 0.29342302E+04</pdfrwt>
<totfact> 0.67608285E-01</totfact>
</mgrwt>
</event>
<event>
12    1  0.1444053E-010  0.1316509E+04  0.7818608E-02  0.9016575E-01
          1   -1    0    0  501    0  0.00000000000E+00  0.00000000000E+00  0.56054337363E+03  0.56054337363E+03  0.00000000000E+00 0. -1.
         -1   -1    0    0    0  501 -0.00000000000E+00 -0.00000000000E+00 -0.77299843397E+03  0.77299843397E+03  0.00000000000E+00 0.  1.
    9900016    2    1    2    0    0 -0.11984492183E+03  0.81518331174E+02 -0.67432678974E+01  0.72855307163E+03  0.71395802601E+03 0.  0.
         23    2    3    3    0    0 -0.78251693908E+02 -0.56636614532E+01  0.90093517022E+02  0.15093824639E+03  0.92250245270E+02 0.  0.
         23    2    3    3    0    0 -0.22032107904E+03  0.60431885059E+02  0.13755190850E+03  0.28164646101E+03  0.90613524727E+02 0.  0.
        -15    1    4    4    0    0 -0.87434609403E+01  0.36220552066E+02  0.14344937871E+02  0.39926854918E+02  0.00000000000E+00 0. -1.
        -15    1    5    5    0    0 -0.73435061534E+02  0.49684280725E+02  0.14737771531E+02  0.89880130860E+02  0.00000000000E+00 0.  1.
         15    1    5    5    0    0 -0.14688601751E+03  0.10747604334E+02  0.12281413697E+03  0.19176633015E+03  0.00000000000E+00 0. -1.
         15    1    4    4    0    0 -0.69508232967E+02 -0.41884213519E+02  0.75748579151E+02  0.11101139147E+03  0.00000000000E+00 0.  1.
        -16    1    3    3    0    0  0.17872785112E+03  0.26750107568E+02 -0.23438869342E+03  0.29596836423E+03  0.00000000000E+00 0.  1.
         16    1    1    2    0    0 -0.86212037198E+02 -0.11938303049E+03  0.13165366714E+03  0.19752850781E+03  0.00000000000E+00 0. -1.
    9900018    1    1    2    0    0  0.20605695903E+03  0.37864699320E+02 -0.33736545958E+03  0.40746022816E+03  0.91187600000E+02 0.  0.
<mgrwt>
<rscale>  0 0.13165092E+04</rscale>
<asrwt>0</asrwt>
<pdfrwt beam="1">  1        1 0.86237442E-01 0.13165092E+04</pdfrwt>
<pdfrwt beam="2">  1       -1 0.11892284E+00 0.13165092E+04</pdfrwt>
<totfact> 0.23461212E+01</totfact>
</mgrwt>
</event>
<event>
12    1  0.1444053E-010  0.1030792E+04  0.7818608E-02  0.9275403E-01
          1   -1    0    0  501    0  0.00000000000E+00  0.00000000000E+00  0.74048517705E+03  0.74048517705E+03  0.00000000000E+00 0. -1.
         -1   -1    0    0    0  501 -0.00000000000E+00 -0.00000000000E+00 -0.35872831499E+03  0.35872831499E+03  0.00000000000E+00 0.  1.
    9900016    2    1    2    0    0  0.44517828410E+02 -0.18958910604E+03  0.25765378319E+03  0.77720272039E+03  0.70691776778E+03 0.  0.
         23    2    3    3    0    0  0.22934891175E+03 -0.10504229200E+03 -0.59261620053E+01  0.26645904164E+03  0.85618310241E+02 0.  0.
         23    2    3    3    0    0  0.76101650602E+02 -0.66067167991E+02  0.20169739211E+03  0.24193735565E+03  0.87724079736E+02 0.  0.
        -15    1    4    4    0    0  0.10389081492E+03 -0.83417441692E+02  0.24731027841E+02  0.13551160371E+03  0.00000000000E+00 0.  1.
        -15    1    5    5    0    0  0.70621191418E+02 -0.85257303792E+02  0.18637699713E+03  0.21677764088E+03  0.00000000000E+00 0. -1.
         15    1    5    5    0    0  0.54804591841E+01  0.19190135801E+02  0.15320394973E+02  0.25159714765E+02  0.00000000000E+00 0.  1.
         15    1    4    4    0    0  0.12545809683E+03 -0.21624850304E+02 -0.30657189846E+02  0.13094743793E+03  0.00000000000E+00 0. -1.
        -16    1    3    3    0    0 -0.26093273394E+03 -0.18479646055E+02  0.61882553087E+02  0.26880632310E+03  0.00000000000E+00 0.  1.
         16    1    1    2    0    0 -0.25658385494E+02  0.36359569285E+02  0.13522721300E+03  0.14236140685E+03  0.00000000000E+00 0. -1.
    9900018    1    1    2    0    0 -0.18859442916E+02  0.15322953676E+03 -0.11124134125E+02  0.17964936481E+03  0.91187600000E+02 0.  0.
<mgrwt>
<rscale>  0 0.10307919E+04</rscale>
<asrwt>0</asrwt>
<pdfrwt beam="1">  1        1 0.11392080E+00 0.10307919E+04</pdfrwt>
<pdfrwt beam="2">  1       -1 0.55188972E-01 0.10307919E+04</pdfrwt>
<totfact> 0.82983004E+01</totfact>
</mgrwt>
</event>
<event>
12    1  0.1444053E-010  0.2603024E+04  0.7818608E-02  0.8367175E-01
          1   -1    0    0  501    0  0.00000000000E+00  0.00000000000E+00  0.46573750426E+04  0.46573750426E+04  0.00000000000E+00 0. -1.
         -1   -1    0    0    0  501 -0.00000000000E+00 -0.00000000000E+00 -0.36370989971E+03  0.36370989971E+03  0.00000000000E+00 0.  1.
    9900016    2    1    2    0    0 -0.16839152383E+03  0.35684980160E+03  0.98597244583E+03  0.12765515090E+04  0.70833932899E+03 0.  0.
         23    2    3    3    0    0 -0.14274257577E+03  0.95529145605E+02  0.31860881424E+03  0.37229134810E+03  0.87109188729E+02 0.  0.
         23    2    3    3    0    0  0.66643911005E+02  0.37915504465E+03  0.63904559012E+03  0.75192885598E+03  0.93903032200E+02 0.  0.
        -15    1    4    4    0    0 -0.78772339565E+02  0.57236340938E+02  0.25943878799E+03  0.27710930139E+03  0.00000000000E+00 0. -1.
        -15    1    5    5    0    0 -0.21412150118E+02  0.10324948972E+03  0.19726056052E+03  0.22367535858E+03  0.00000000000E+00 0. -1.
         15    1    4    4    0    0 -0.63970236202E+02  0.38292804667E+02  0.59170026254E+02  0.95182046710E+02  0.00000000000E+00 0.  1.
         15    1    5    5    0    0  0.88056061123E+02  0.27590555493E+03  0.44178502960E+03  0.52825349741E+03  0.00000000000E+00 0.  1.
        -16    1    1    2    0    0  0.29106569848E+03 -0.12410045028E+03 -0.95074054461E+02  0.33039255201E+03  0.00000000000E+00 0.  1.
         16    1    3    3    0    0 -0.92292859070E+02 -0.11783438865E+03  0.28318041469E+02  0.15233130492E+03  0.00000000000E+00 0. -1.
    9900018    1    1    2    0    0 -0.12267417465E+03 -0.23274935132E+03  0.34027667515E+04  0.34141408813E+04  0.91187600000E+02 0.  0.
<mgrwt>
<rscale>  0 0.26030239E+04</rscale>
<asrwt>0</asrwt>
<pdfrwt beam="1">  1        1 0.71651920E+00 0.26030239E+04</pdfrwt>
<pdfrwt beam="2">  1       -1 0.55955372E-01 0.26030239E+04</pdfrwt>
<totfact> 0.62712461E-02</totfact>
</mgrwt>
</event>
<event>
12    1  0.1444053E-010  0.1163392E+04  0.7818608E-02  0.9145517E-01
         -2   -1    0    0    0  501 -0.00000000000E+00  0.00000000000E+00  0.14855361952E+03  0.14855361952E+03  0.00000000000E+00 0.  1.
          2   -1    0    0  501    0  0.00000000000E+00 -0.00000000000E+00 -0.22777634762E+04  0.22777634762E+04  0.00000000000E+00 0. -1.
    9900016    2    1    2    0    0 -0.87416670618E+02 -0.16670698387E+03 -0.10991539111E+04  0.13206695786E+04  0.70752803684E+03 0.  0.
         23    2    3    3    0    0 -0.22857728951E+03 -0.35765384613E+03 -0.83679662336E+03  0.94277491223E+03  0.91826441381E+02 0.  0.
         23    2    3    3    0    0  0.13556914916E+03  0.20094787410E+03 -0.25859871590E+03  0.36583599176E+03  0.90573918403E+02 0.  0.
        -15    1    4    4    0    0 -0.37519674418E+02 -0.10556735344E+03 -0.15576322745E+03  0.19187072499E+03  0.00000000000E+00 0. -1.
        -15    1    5    5    0    0  0.80873512983E+02  0.15621326466E+03 -0.12869209283E+03  0.21795587607E+03  0.00000000000E+00 0. -1.
         15    1    4    4    0    0 -0.19105761509E+03 -0.25208649269E+03 -0.68103339591E+03  0.75090418725E+03  0.00000000000E+00 0.  1.
         15    1    5    5    0    0  0.54695636177E+02  0.44734609440E+02 -0.12990662308E+03  0.14788011569E+03  0.00000000000E+00 0.  1.
        -16    1    3    3    0    0  0.55914697333E+01 -0.10001011844E+02 -0.37585717966E+01  0.12058674622E+02  0.00000000000E+00 0.  1.
         16    1    1    2    0    0  0.18193214082E+03  0.54577415868E+02 -0.77283887233E+03  0.79583787342E+03  0.00000000000E+00 0. -1.
    9900018    1    1    2    0    0 -0.94515470204E+02  0.11212956801E+03 -0.25721707328E+03  0.30980964367E+03  0.91187600000E+02 0.  0.
<mgrwt>
<rscale>  0 0.11633916E+04</rscale>
<asrwt>0</asrwt>
<pdfrwt beam="1">  1        2 0.35042516E+00 0.11633916E+04</pdfrwt>
<pdfrwt beam="2">  1       -2 0.22854402E-01 0.11633916E+04</pdfrwt>
<totfact> 0.78193094E+01</totfact>
</mgrwt>
</event>
<event>
12    1  0.1444053E-010  0.1038241E+04  0.7818608E-02  0.9267569E-01
          1   -1    0    0  501    0  0.00000000000E+00  0.00000000000E+00  0.21574150375E+04  0.21574150375E+04  0.00000000000E+00 0. -1.
         -1   -1    0    0    0  501 -0.00000000000E+00 -0.00000000000E+00 -0.12491159849E+03  0.12491159849E+03  0.00000000000E+00 0.  1.
    9900016    2    1    2    0    0 -0.10347230293E+02  0.89483163784E+02  0.14754768556E+04  0.16408728038E+04  0.71226210437E+03 0.  0.
         23    2    3    3    0    0  0.24888956360E+03  0.16817712618E+03  0.52104354916E+03  0.60866231098E+03  0.93562107947E+02 0.  0.
         23    2    3    3    0    0  0.83314007001E-01  0.37240275995E+02  0.36290236904E+03  0.37601195900E+03  0.91104438752E+02 0.  0.
        -15    1    5    5    0    0 -0.42754688394E+02  0.59158622542E+01  0.20284054087E+03  0.20738188403E+03  0.00000000000E+00 0. -1.
        -15    1    4    4    0    0  0.56188226274E+02  0.68436735447E+02  0.90959621443E+02  0.12694233440E+03  0.00000000000E+00 0.  1.
         15    1    4    4    0    0  0.19270133732E+03  0.99740390737E+02  0.43008392772E+03  0.48171997658E+03  0.00000000000E+00 0. -1.
         15    1    5    5    0    0  0.42838002401E+02  0.31324413741E+02  0.16006182817E+03  0.16863007497E+03  0.00000000000E+00 0.  1.
        -16    1    3    3    0    0 -0.25932010790E+03 -0.11593423839E+03  0.59153093736E+03  0.65619853387E+03  0.00000000000E+00 0.  1.
         16    1    1    2    0    0  0.12439477011E+03  0.78770489302E+01  0.13164998020E+03  0.18129485381E+03  0.00000000000E+00 0. -1.
    9900018    1    1    2    0    0 -0.11404753982E+03 -0.97360212714E+02  0.42537660320E+03  0.46015897829E+03  0.91187600000E+02 0.  0.
<mgrwt>
<rscale>  0 0.10382411E+04</rscale>
<asrwt>0</asrwt>
<pdfrwt beam="1">  1        1 0.33190998E+00 0.10382411E+04</pdfrwt>
<pdfrwt beam="2">  1       -1 0.19217171E-01 0.10382411E+04</pdfrwt>
<totfact> 0.51251066E+01</totfact>
</mgrwt>
</event>
<event>
12    1  0.1444053E-010  0.1979883E+04  0.7818608E-02  0.8616084E-01
         -2   -1    0    0    0  501 -0.00000000000E+00  0.00000000000E+00  0.81225306106E+03  0.81225306106E+03  0.00000000000E+00 0.  1.
          2   -1    0    0  501    0  0.00000000000E+00 -0.00000000000E+00 -0.12065008643E+04  0.12065008643E+04  0.00000000000E+00 0. -1.
    9900016    2    1    2    0    0  0.21397968757E+03  0.53386381111E+03 -0.28447275525E+03  0.95827809117E+03  0.71174031502E+03 0.  0.
         23    2    3    3    0    0  0.71629048069E+01  0.73182598342E+02  0.13132872142E+03  0.17586133973E+03  0.90955911498E+02 0.  0.
         23    2    3    3    0    0 -0.76327196863E+02  0.55575273966E+02  0.75270170303E+01  0.13165692752E+03  0.91446369639E+02 0.  0.
        -15    1    4    4    0    0 -0.39268448994E+02  0.13928089214E+02  0.48223336696E+02  0.63729843540E+02  0.00000000000E+00 0. -1.
        -15    1    5    5    0    0 -0.58146713862E+01  0.32470909390E+02  0.38979880420E+02  0.51064678962E+02  0.00000000000E+00 0.  1.
         15    1    5    5    0    0 -0.70512525477E+02  0.23104364577E+02 -0.31452863389E+02  0.80592248555E+02  0.00000000000E+00 0. -1.
         15    1    4    4    0    0  0.46431353800E+02  0.59254509128E+02  0.83105384725E+02  0.11213149619E+03  0.00000000000E+00 0.  1.
        -16    1    1    2    0    0 -0.40623305980E+03 -0.60160430965E+03  0.12484736829E+03  0.73657308506E+03  0.00000000000E+00 0.  1.
         16    1    3    3    0    0  0.28314397962E+03  0.40510593880E+03 -0.42332849370E+03  0.65075982392E+03  0.00000000000E+00 0. -1.
    9900018    1    1    2    0    0  0.19225337224E+03  0.67740498538E+02 -0.23462241622E+03  0.32390274909E+03  0.91187600000E+02 0.  0.
<mgrwt>
<rscale>  0 0.19798828E+04</rscale>
<asrwt>0</asrwt>
<pdfrwt beam="1">  1        2 0.18561552E+00 0.19798828E+04</pdfrwt>
<pdfrwt beam="2">  1       -2 0.12496201E+00 0.19798828E+04</pdfrwt>
<totfact> 0.83836020E+00</totfact>
</mgrwt>
</event>
<event>
12    1  0.1444053E-010  0.9104637E+03  0.7818608E-02  0.9412595E-01
          1   -1    0    0  501    0  0.00000000000E+00  0.00000000000E+00  0.21627784219E+03  0.21627784219E+03  0.00000000000E+00 0. -1.
         -1   -1    0    0    0  501 -0.00000000000E+00 -0.00000000000E+00 -0.95819350753E+03  0.95819350753E+03  0.00000000000E+00 0.  1.
    9900016    2    1    2    0    0  0.71359694786E+02  0.44803841666E+02 -0.50773685557E+03  0.87550142450E+03  0.70824179454E+03 0.  0.
         23    2    3    3    0    0 -0.11939057795E+03  0.89212589248E+02 -0.16344798834E+01  0.17486287072E+03  0.91440449732E+02 0.  0.
         23    2    3    3    0    0 -0.12024409648E+03  0.56144225361E+01 -0.71259675514E+02  0.16369536393E+03  0.85018035374E+02 0.  0.
        -15    1    4    4    0    0 -0.39322107620E+02  0.82155294011E+02 -0.17980679680E+02  0.92838705955E+02  0.00000000000E+00 0. -1.
        -15    1    5    5    0    0 -0.34364925731E+02 -0.37419615135E+02 -0.31186759010E+02  0.59613670034E+02  0.00000000000E+00 0.  1.
         15    1    5    5    0    0 -0.85879170753E+02  0.43034037671E+02 -0.40072916504E+02  0.10408169390E+03  0.00000000000E+00 0. -1.
         15    1    4    4    0    0 -0.80068470329E+02  0.70572952375E+01  0.16346199796E+02  0.82024164761E+02  0.00000000000E+00 0.  1.
        -16    1    3    3    0    0  0.31099436922E+03 -0.50023170119E+02 -0.43484270017E+03  0.53694318985E+03  0.00000000000E+00 0.  1.
         16    1    1    2    0    0 -0.70257686491E+02 -0.12407788099E+02 -0.39467347147E+02  0.81533840872E+02  0.00000000000E+00 0. -1.
    9900018    1    1    2    0    0 -0.11020082949E+01 -0.32396053567E+02 -0.19471146262E+03  0.21743608436E+03  0.91187600000E+02 0.  0.
<mgrwt>
<rscale>  0 0.91046367E+03</rscale>
<asrwt>0</asrwt>
<pdfrwt beam="1">  1        1 0.33273514E-01 0.91046367E+03</pdfrwt>
<pdfrwt beam="2">  1       -1 0.14741439E+00 0.91046367E+03</pdfrwt>
<totfact> 0.49515438E+01</totfact>
</mgrwt>
</event>
<event>
12    1  0.1444053E-010  0.1954346E+04  0.7818608E-02  0.8628268E-01
          2   -1    0    0  501    0  0.00000000000E+00  0.00000000000E+00  0.13874791546E+04  0.13874791546E+04  0.00000000000E+00 0. -1.
         -2   -1    0    0    0  501 -0.00000000000E+00 -0.00000000000E+00 -0.68820272881E+03  0.68820272881E+03  0.00000000000E+00 0.  1.
    9900016    2    1    2    0    0  0.12946700110E+03 -0.50279926337E+03  0.55936852299E+03  0.10394577467E+04  0.70569856103E+03 0.  0.
         23    2    3    3    0    0  0.16782620172E+03 -0.48952512460E+03  0.12842177342E+03  0.54142822321E+03  0.94084469524E+02 0.  0.
         23    2    3    3    0    0  0.64447543564E+02  0.55451886834E+02  0.22484043612E+03  0.25767082135E+03  0.92804271652E+02 0.  0.
        -15    1    4    4    0    0 -0.96017898143E+01 -0.64840220977E+02  0.20611515001E+02  0.68711594179E+02  0.00000000000E+00 0. -1.
        -15    1    5    5    0    0  0.71688183769E+02  0.29736811595E+02  0.21601750851E+03  0.22953657147E+03  0.00000000000E+00 0. -1.
         15    1    5    5    0    0 -0.72406402043E+01  0.25715075239E+02  0.88229276058E+01  0.28134249886E+02  0.00000000000E+00 0.  1.
         15    1    4    4    0    0  0.17742799154E+03 -0.42468490362E+03  0.10781025841E+03  0.47271662903E+03  0.00000000000E+00 0.  1.
        -16    1    1    2    0    0  0.13370644072E+03  0.30129685053E+03 -0.32175092178E+03  0.46063093697E+03  0.00000000000E+00 0.  1.
         16    1    3    3    0    0 -0.10280674419E+03 -0.68726025607E+02  0.20610631346E+03  0.24035870214E+03  0.00000000000E+00 0. -1.
    9900018    1    1    2    0    0 -0.26317344182E+03  0.20150241284E+03  0.46165882454E+03  0.57559319969E+03  0.91187600000E+02 0.  0.
<mgrwt>
<rscale>  0 0.19543459E+04</rscale>
<asrwt>0</asrwt>
<pdfrwt beam="1">  1        2 0.21345833E+00 0.19543459E+04</pdfrwt>
<pdfrwt beam="2">  1       -2 0.10587734E+00 0.19543459E+04</pdfrwt>
<totfact> 0.98861866E+00</totfact>
</mgrwt>
</event>
<event>
12    1  0.1444053E-010  0.2070310E+04  0.7818608E-02  0.8574436E-01
         -2   -1    0    0    0  501 -0.00000000000E+00  0.00000000000E+00  0.51086139291E+03  0.51086139291E+03  0.00000000000E+00 0.  1.
          2   -1    0    0  501    0  0.00000000000E+00 -0.00000000000E+00 -0.20975278917E+04  0.20975278917E+04  0.00000000000E+00 0. -1.
    9900016    2    1    2    0    0 -0.20735056881E+03 -0.61786637296E+03 -0.74625298119E+03  0.12195706101E+04  0.71112997957E+03 0.  0.
         23    2    3    3    0    0 -0.17707279684E+03 -0.38816827311E+03 -0.38668044817E+02  0.43802713595E+03  0.91340957437E+02 0.  0.
         23    2    3    3    0    0 -0.80648720401E+02 -0.20143037247E+03 -0.36688865052E+03  0.43598558311E+03  0.91639160558E+02 0.  0.
        -15    1    4    4    0    0 -0.12913788042E+03 -0.35492980637E+03 -0.38943554409E+02  0.37969508824E+03  0.00000000000E+00 0. -1.
        -15    1    5    5    0    0 -0.48096109050E+02 -0.18146165624E+03 -0.34279119654E+03  0.39082908389E+03  0.00000000000E+00 0. -1.
         15    1    4    4    0    0 -0.47934916419E+02 -0.33238466744E+02  0.27550959139E+00  0.58332047702E+02  0.00000000000E+00 0.  1.
         15    1    5    5    0    0 -0.32552611352E+02 -0.19968716233E+02 -0.24097453979E+02  0.45156499223E+02  0.00000000000E+00 0.  1.
        -16    1    1    2    0    0  0.85325149580E+02  0.62393536618E+03 -0.10581923583E+03  0.63857140007E+03  0.00000000000E+00 0.  1.
         16    1    3    3    0    0  0.50370948433E+02 -0.28267727374E+02 -0.34069628586E+03  0.34555789103E+03  0.00000000000E+00 0. -1.
    9900018    1    1    2    0    0  0.12202541923E+03 -0.60689932192E+01 -0.73459428179E+03  0.75024727447E+03  0.91187600000E+02 0.  0.
<mgrwt>
<rscale>  0 0.20703101E+04</rscale>
<asrwt>0</asrwt>
<pdfrwt beam="1">  1        2 0.32269659E+00 0.20703101E+04</pdfrwt>
<pdfrwt beam="2">  1       -2 0.78594062E-01 0.20703101E+04</pdfrwt>
<totfact> 0.78323007E+00</totfact>
</mgrwt>
</event>
<event>
12    1  0.1444053E-010  0.2116729E+04  0.7818608E-02  0.8553910E-01
         -1   -1    0    0    0  501 -0.00000000000E+00  0.00000000000E+00  0.65355910446E+03  0.65355910446E+03  0.00000000000E+00 0.  1.
          1   -1    0    0  501    0  0.00000000000E+00 -0.00000000000E+00 -0.17139002840E+04  0.17139002840E+04  0.00000000000E+00 0. -1.
    9900016    2    1    2    0    0  0.49554352712E+03 -0.30708548526E+03 -0.53517832155E+03  0.10596889126E+04  0.70474099719E+03 0.  0.
         23    2    3    3    0    0  0.34435968068E+03 -0.23989663284E+03 -0.30316720477E+03  0.52568055339E+03  0.91080766601E+02 0.  0.
         23    2    3    3    0    0  0.20808424839E+03 -0.15523514268E+01  0.55685114731E+02  0.23348393819E+03  0.90069157699E+02 0.  0.
        -15    1    4    4    0    0  0.54570632731E+02 -0.23937960388E+01 -0.43275213701E+02  0.69688078873E+02  0.00000000000E+00 0.  1.
        -15    1    5    5    0    0  0.99195867990E+01  0.24069245279E+02  0.13259430452E+02  0.29215394340E+02  0.00000000000E+00 0.  1.
         15    1    5    5    0    0  0.19816466159E+03 -0.25621596706E+02  0.42425684279E+02  0.20426854385E+03  0.00000000000E+00 0. -1.
         15    1    4    4    0    0  0.28978904795E+03 -0.23750283680E+03 -0.25989199106E+03  0.45599247452E+03  0.00000000000E+00 0. -1.
        -16    1    1    2    0    0 -0.75829025530E+03  0.43747918200E+03 -0.29453453638E+03  0.92365726278E+03  0.00000000000E+00 0.  1.
         16    1    3    3    0    0 -0.56900401945E+02 -0.65636500994E+02 -0.28769623151E+03  0.30052442102E+03  0.00000000000E+00 0. -1.
    9900018    1    1    2    0    0  0.26274672818E+03 -0.13039369674E+03 -0.23062832159E+03  0.38411321304E+03  0.91187600000E+02 0.  0.
<mgrwt>
<rscale>  0 0.21167287E+04</rscale>
<asrwt>0</asrwt>
<pdfrwt beam="1">  1        1 0.26367696E+00 0.21167287E+04</pdfrwt>
<pdfrwt beam="2">  1       -1 0.10054756E+00 0.21167287E+04</pdfrwt>
<totfact> 0.40302291E+00</totfact>
</mgrwt>
</event>
<event>
12    1  0.1444053E-010  0.9355361E+03  0.7818608E-02  0.9382218E-01
         -2   -1    0    0    0  501 -0.00000000000E+00  0.00000000000E+00  0.94384378949E+02  0.94384378949E+02  0.00000000000E+00 0.  1.
          2   -1    0    0  501    0  0.00000000000E+00 -0.00000000000E+00 -0.23182538276E+04  0.23182538276E+04  0.00000000000E+00 0. -1.
    9900016    2    1    2    0    0  0.79529722156E+02 -0.22234056905E+02 -0.16277013119E+04  0.17783729115E+04  0.71160334569E+03 0.  0.
         23    2    3    3    0    0  0.20987093185E+03 -0.10283828853E+03 -0.10100213379E+04  0.10408924897E+04  0.93233848380E+02 0.  0.
         23    2    3    3    0    0 -0.14955995831E+03 -0.11311869180E+03 -0.30792664840E+03  0.37163201866E+03  0.90152742239E+02 0.  0.
        -15    1    5    5    0    0 -0.26736604946E+02 -0.37941042943E+02 -0.21733770006E+02  0.51251590632E+02  0.00000000000E+00 0.  1.
        -15    1    4    4    0    0  0.86296178306E+02 -0.81932903995E+02 -0.36828287195E+03  0.38703010854E+03  0.00000000000E+00 0. -1.
         15    1    5    5    0    0 -0.12282335336E+03 -0.75177648861E+02 -0.28619287840E+03  0.32038042803E+03  0.00000000000E+00 0. -1.
         15    1    4    4    0    0  0.12357475355E+03 -0.20905384530E+02 -0.64173846594E+03  0.65386238115E+03  0.00000000000E+00 0.  1.
        -16    1    3    3    0    0  0.19218748610E+02  0.19372292342E+03 -0.30975332561E+03  0.36584840315E+03  0.00000000000E+00 0.  1.
         16    1    1    2    0    0 -0.33774505277E+02  0.20141589425E+02 -0.47159854618E+03  0.47323523705E+03  0.00000000000E+00 0. -1.
    9900018    1    1    2    0    0 -0.45755216880E+02  0.20924674808E+01 -0.12456959061E+03  0.16103005803E+03  0.91187600000E+02 0.  0.
<mgrwt>
<rscale>  0 0.93553610E+03</rscale>
<asrwt>0</asrwt>
<pdfrwt beam="1">  1        2 0.35665442E+00 0.93553610E+03</pdfrwt>
<pdfrwt beam="2">  1       -2 0.14520674E-01 0.93553610E+03</pdfrwt>
<totfact> 0.16634010E+02</totfact>
</mgrwt>
</event>
<event>
12    1  0.1444053E-010  0.2362873E+04  0.7818608E-02  0.8453536E-01
          2   -1    0    0  501    0  0.00000000000E+00  0.00000000000E+00  0.28574273582E+04  0.28574273582E+04  0.00000000000E+00 0. -1.
         -2   -1    0    0    0  501 -0.00000000000E+00 -0.00000000000E+00 -0.48847843621E+03  0.48847843621E+03  0.00000000000E+00 0.  1.
    9900016    2    1    2    0    0  0.19614716353E+03  0.64308536619E+03  0.11904640647E+04  0.15394015819E+04  0.70747441171E+03 0.  0.
         23    2    3    3    0    0 -0.21240451060E+03  0.35510764994E+03  0.52031596226E+03  0.67099087604E+03  0.91010636646E+02 0.  0.
         23    2    3    3    0    0  0.17770652090E+03  0.26874504469E+02  0.21316716543E+03  0.29369690865E+03  0.92281022823E+02 0.  0.
        -15    1    4    4    0    0 -0.63307400916E+02  0.11855257056E+03  0.10611094964E+03  0.17123689039E+03  0.00000000000E+00 0.  1.
        -15    1    5    5    0    0  0.17306968887E+03  0.45007941684E+02  0.20795030321E+03  0.27426658678E+03  0.00000000000E+00 0.  1.
         15    1    4    4    0    0 -0.14909710969E+03  0.23655507938E+03  0.41420501263E+03  0.49975398566E+03  0.00000000000E+00 0. -1.
         15    1    5    5    0    0  0.46368320279E+01 -0.18133437215E+02  0.52168622212E+01  0.19430321869E+02  0.00000000000E+00 0. -1.
        -16    1    3    3    0    0  0.23084515324E+03  0.26110321178E+03  0.45698093697E+03  0.57471379723E+03  0.00000000000E+00 0.  1.
         16    1    1    2    0    0 -0.30571920588E+03 -0.92412235919E+03  0.11236833230E+04  0.14866507922E+04  0.00000000000E+00 0. -1.
    9900018    1    1    2    0    0  0.10957204235E+03  0.28103699301E+03  0.54801534313E+02  0.31985342027E+03  0.91187600000E+02 0.  0.
<mgrwt>
<rscale>  0 0.23628725E+04</rscale>
<asrwt>0</asrwt>
<pdfrwt beam="1">  1        2 0.43960420E+00 0.23628725E+04</pdfrwt>
<pdfrwt beam="2">  1       -2 0.75150530E-01 0.23628725E+04</pdfrwt>
<totfact> 0.30603136E+00</totfact>
</mgrwt>
</event>
<event>
12    1  0.1444053E-010  0.2085592E+04  0.7818608E-02  0.8567617E-01
          1   -1    0    0  501    0  0.00000000000E+00  0.00000000000E+00  0.17983962321E+04  0.17983962321E+04  0.00000000000E+00 0. -1.
         -1   -1    0    0    0  501 -0.00000000000E+00 -0.00000000000E+00 -0.60466279499E+03  0.60466279499E+03  0.00000000000E+00 0.  1.
    9900016    2    1    2    0    0  0.50840045204E+03  0.83376129777E+02  0.44426278594E+03  0.98597957870E+03  0.71369721029E+03 0.  0.
         23    2    3    3    0    0  0.19092176348E+03 -0.18740479667E+02  0.30698189730E+03  0.37348058823E+03  0.91910495412E+02 0.  0.
         23    2    3    3    0    0  0.29579083174E+03 -0.14341255858E+03  0.12798182803E+03  0.36583847880E+03  0.96948781138E+02 0.  0.
        -15    1    5    5    0    0  0.25046510166E+03 -0.88595941569E+02  0.12755837339E+03  0.29470857916E+03  0.00000000000E+00 0.  1.
        -15    1    4    4    0    0  0.14170384454E+03  0.13023008238E+02  0.15406207771E+03  0.20972530150E+03  0.00000000000E+00 0.  1.
         15    1    5    5    0    0  0.45325730081E+02 -0.54816617015E+02  0.42345464011E+00  0.71129899635E+02  0.00000000000E+00 0. -1.
         15    1    4    4    0    0  0.49217918940E+02 -0.31763487906E+02  0.15291981959E+03  0.16375528673E+03  0.00000000000E+00 0. -1.
        -16    1    3    3    0    0  0.21687856823E+02  0.24552916803E+03  0.92990606070E+01  0.24666051166E+03  0.00000000000E+00 0.  1.
         16    1    1    2    0    0 -0.67638435081E+03 -0.31346253801E+03  0.82157823068E+03  0.11093896258E+04  0.00000000000E+00 0. -1.
    9900018    1    1    2    0    0  0.16798389877E+03  0.23008640824E+03 -0.72107579505E+02  0.30768982258E+03  0.91187600000E+02 0.  0.
<mgrwt>
<rscale>  0 0.20855918E+04</rscale>
<asrwt>0</asrwt>
<pdfrwt beam="1">  1        1 0.27667634E+00 0.20855918E+04</pdfrwt>
<pdfrwt beam="2">  1       -1 0.93025046E-01 0.20855918E+04</pdfrwt>
<totfact> 0.42206729E+00</totfact>
</mgrwt>
</event>
<event>
12    1  0.1444053E-010  0.1248928E+04  0.7818608E-02  0.9071076E-01
         -1   -1    0    0    0  501 -0.00000000000E+00  0.00000000000E+00  0.76126407582E+03  0.76126407582E+03  0.00000000000E+00 0.  1.
          1   -1    0    0  501    0  0.00000000000E+00 -0.00000000000E+00 -0.51224700061E+03  0.51224700061E+03  0.00000000000E+00 0. -1.
    9900016    2    1    2    0    0  0.58588665350E+02  0.22672790802E+03  0.20428013761E+03  0.77340609224E+03  0.70822908222E+03 0.  0.
         23    2    3    3    0    0 -0.22227614554E+03  0.16907707457E+03 -0.80852993361E+02  0.30469922813E+03  0.91162882056E+02 0.  0.
         23    2    3    3    0    0  0.12671321740E+03  0.76090463070E+02  0.25693325135E+03  0.31091596790E+03  0.93851187595E+02 0.  0.
        -15    1    5    5    0    0  0.13631271155E+03  0.50652372024E+02  0.23320054698E+03  0.27482596900E+03  0.00000000000E+00 0. -1.
        -15    1    4    4    0    0 -0.97994972738E+02  0.26687674060E+02 -0.49979452469E+02  0.11319537225E+03  0.00000000000E+00 0. -1.
         15    1    4    4    0    0 -0.12428117280E+03  0.14238940051E+03 -0.30873540892E+02  0.19150385588E+03  0.00000000000E+00 0.  1.
         15    1    5    5    0    0 -0.95994941588E+01  0.25438091046E+02  0.23732704372E+02  0.36089998906E+02  0.00000000000E+00 0.  1.
        -16    1    3    3    0    0  0.15415159349E+03 -0.18439629616E+02  0.28199879617E+02  0.15779089621E+03  0.00000000000E+00 0.  1.
         16    1    1    2    0    0 -0.63993910444E+02 -0.32358837176E+02 -0.17726615077E+03  0.19122134589E+03  0.00000000000E+00 0. -1.
    9900018    1    1    2    0    0  0.54052450940E+01 -0.19436907085E+03  0.22200308836E+03  0.30888363830E+03  0.91187600000E+02 0.  0.
<mgrwt>
<rscale>  0 0.12489279E+04</rscale>
<asrwt>0</asrwt>
<pdfrwt beam="1">  1        1 0.78807231E-01 0.12489279E+04</pdfrwt>
<pdfrwt beam="2">  1       -1 0.11711755E+00 0.12489279E+04</pdfrwt>
<totfact> 0.27777016E+01</totfact>
</mgrwt>
</event>
<event>
12    1  0.1444053E-010  0.2148088E+04  0.7818608E-02  0.8540351E-01
         -2   -1    0    0    0  501 -0.00000000000E+00  0.00000000000E+00  0.14981735920E+04  0.14981735920E+04  0.00000000000E+00 0.  1.
          2   -1    0    0  501    0  0.00000000000E+00 -0.00000000000E+00 -0.76998451484E+03  0.76998451484E+03  0.00000000000E+00 0. -1.
    9900016    2    1    2    0    0  0.24875183281E+03 -0.13826572170E+03  0.29961388168E+03  0.81823715380E+03  0.70622140837E+03 0.  0.
         23    2    3    3    0    0 -0.31682846913E+02 -0.27223561021E+03  0.15126654571E+02  0.28894401910E+03  0.90243006590E+02 0.  0.
         23    2    3    3    0    0  0.57251967684E+02  0.53105765464E+02  0.26520197913E+03  0.29113047990E+03  0.91251610759E+02 0.  0.
        -15    1    5    5    0    0  0.13302049660E+02  0.64696772016E+02  0.10042103291E+03  0.12019567665E+03  0.00000000000E+00 0.  1.
        -15    1    4    4    0    0  0.14185459062E+02 -0.12769343850E+03 -0.27567294541E+02  0.13140318570E+03  0.00000000000E+00 0. -1.
         15    1    4    4    0    0 -0.45868305974E+02 -0.14454217172E+03  0.42693949112E+02  0.15754083340E+03  0.00000000000E+00 0.  1.
         15    1    5    5    0    0  0.43949918024E+02 -0.11591006552E+02  0.16478094621E+03  0.17093480325E+03  0.00000000000E+00 0. -1.
        -16    1    1    2    0    0 -0.56458406985E+03  0.54704516565E+03  0.48281171162E+03  0.92256204890E+03  0.00000000000E+00 0.  1.
         16    1    3    3    0    0  0.22318271204E+03  0.80864123046E+02  0.19285247978E+02  0.23816265479E+03  0.00000000000E+00 0. -1.
    9900018    1    1    2    0    0  0.31583223704E+03 -0.40877944394E+03 -0.54236516102E+02  0.52735890418E+03  0.91187600000E+02 0.  0.
<mgrwt>
<rscale>  0 0.21480880E+04</rscale>
<asrwt>0</asrwt>
<pdfrwt beam="1">  1        2 0.11845916E+00 0.21480880E+04</pdfrwt>
<pdfrwt beam="2">  1       -2 0.23048824E+00 0.21480880E+04</pdfrwt>
<totfact> 0.28227349E+00</totfact>
</mgrwt>
</event>
<event>
12    1  0.1444053E-010  0.1717637E+04  0.7818608E-02  0.8751369E-01
         -1   -1    0    0    0  501 -0.00000000000E+00  0.00000000000E+00  0.50522381069E+03  0.50522381069E+03  0.00000000000E+00 0.  1.
          1   -1    0    0  501    0  0.00000000000E+00 -0.00000000000E+00 -0.14598855691E+04  0.14598855691E+04  0.00000000000E+00 0. -1.
    9900016    2    1    2    0    0  0.12385695089E+03 -0.22741073115E+03 -0.11379497328E+03  0.76092237255E+03  0.70639746331E+03 0.  0.
         23    2    3    3    0    0  0.22042071154E+03 -0.87585296605E+02 -0.34489590987E+03  0.42856944977E+03  0.91989729709E+02 0.  0.
         23    2    3    3    0    0 -0.41334263244E+02 -0.11314540876E+02  0.86517606900E+02  0.13118213366E+03  0.88808308921E+02 0.  0.
        -15    1    4    4    0    0  0.85126280893E+02 -0.81707778088E+02 -0.17944726107E+03  0.21476490450E+03  0.00000000000E+00 0.  1.
        -15    1    5    5    0    0 -0.76605508160E+01 -0.37133250494E+02  0.36602081394E+01  0.38091461703E+02  0.00000000000E+00 0.  1.
         15    1    4    4    0    0  0.13529443065E+03 -0.58775185174E+01 -0.16544864880E+03  0.21380454526E+03  0.00000000000E+00 0. -1.
         15    1    5    5    0    0 -0.33673712429E+02  0.25818709619E+02  0.82857398761E+02  0.93090671952E+02  0.00000000000E+00 0. -1.
        -16    1    3    3    0    0 -0.55229497403E+02 -0.12851089367E+03  0.14458332969E+03  0.20117078913E+03  0.00000000000E+00 0.  1.
         16    1    1    2    0    0 -0.15440661638E+03  0.33153982710E+03 -0.95472313090E+03  0.10223777760E+04  0.00000000000E+00 0. -1.
    9900018    1    1    2    0    0  0.30549665493E+02 -0.10412909594E+03  0.11385634581E+03  0.18180923123E+03  0.91187600000E+02 0.  0.
<mgrwt>
<rscale>  0 0.17176367E+04</rscale>
<asrwt>0</asrwt>
<pdfrwt beam="1">  1        1 0.22459778E+00 0.17176367E+04</pdfrwt>
<pdfrwt beam="2">  1       -1 0.77726742E-01 0.17176367E+04</pdfrwt>
<totfact> 0.10992315E+01</totfact>
</mgrwt>
</event>
