<event>
11    1  0.1624838E-014  0.2903006E+04  0.7818608E-02  0.8271984E-01
         -2   -1    0    0    0  501 -0.00000000000E+00  0.00000000000E+00  0.11789040188E+04  0.11789040188E+04  0.00000000000E+00 0.  1.
          2   -1    0    0  501    0  0.00000000000E+00 -0.00000000000E+00 -0.17871350753E+04  0.17871350753E+04  0.00000000000E+00 0. -1.
         23    2    1    2    0    0  0.28238505996E+03  0.21557884201E+02  0.18157121137E+03  0.34858482630E+03  0.91308334055E+02 0.  0.
    9900016    2    1    2    0    0 -0.33594503029E+01 -0.52342348539E+02 -0.46212239417E+03  0.21859718537E+04  0.21359224777E+04 0.  0.
        -15    1    4    4    0    0 -0.10276418013E+03  0.27094613163E+03 -0.20325705897E+03  0.35395722197E+03  0.00000000000E+00 0. -1.
        -15    1    3    3    0    0  0.10922432897E+03 -0.22911545817E+01  0.12235746450E+03  0.16403216924E+03  0.00000000000E+00 0. -1.
         15    1    4    4    0    0 -0.31092193544E+03  0.31943169471E+03 -0.60194641349E+02  0.44981379745E+03  0.00000000000E+00 0.  1.
         15    1    3    3    0    0  0.17316073099E+03  0.23849038783E+02  0.59213746876E+02  0.18455265706E+03  0.00000000000E+00 0.  1.
        -16    1    4    4    0    0  0.76575431665E+03 -0.56815992440E+03 -0.29028271773E+03  0.99671933330E+03  0.00000000000E+00 0.  1.
         16    1    1    2    0    0 -0.27902560965E+03  0.30784464337E+02 -0.32767987367E+03  0.43148241412E+03  0.00000000000E+00 0. -1.
    9900018    1    4    4    0    0 -0.35542765138E+03 -0.74560250478E+02  0.91612023870E+02  0.38548150102E+03  0.91187600000E+02 0.  0.
<mgrwt>
<rscale>  0 0.29030058E+04</rscale>
<asrwt>0</asrwt>
<pdfrwt beam="1">  1        2 0.27494386E+00 0.29030058E+04</pdfrwt>
<pdfrwt beam="2">  1       -2 0.18136985E+00 0.29030058E+04</pdfrwt>
<totfact> 0.13430697E+00</totfact>
</mgrwt>
</event>
<event>
12    1  0.1624838E-014  0.2514341E+04  0.7818608E-02  0.9111901E-01
         -2   -1    0    0    0  501 -0.00000000000E+00  0.00000000000E+00  0.15162865905E+04  0.15162865905E+04  0.00000000000E+00 0.  1.
          2   -1    0    0  501    0  0.00000000000E+00 -0.00000000000E+00 -0.11909705261E+04  0.11909705261E+04  0.00000000000E+00 0. -1.
         23    2    1    2    0    0  0.55714454074E+01 -0.91786104023E+02  0.13132879657E+03  0.18544404505E+03  0.93201454602E+02 0.  0.
    9900016    2    1    2    0    0 -0.10332354684E+03 -0.21089466781E+03 -0.17028424992E+03  0.20382173090E+04  0.20174688986E+04 0.  0.
         23    2    4    4    0    0  0.13145772853E+03 -0.16477229849E+03 -0.19019026457E+03  0.29448853969E+03  0.78231186473E+02 0.  0.
        -15    1    3    3    0    0  0.11336119537E+00 -0.69034281157E+02  0.20271913803E+02  0.71949255138E+02  0.00000000000E+00 0.  1.
        -15    1    5    5    0    0  0.37679249962E+02 -0.65190702769E+02 -0.11758135537E+03  0.13962424122E+03  0.00000000000E+00 0.  1.
         15    1    5    5    0    0  0.93778478565E+02 -0.99581595719E+02 -0.72608909197E+02  0.15486429848E+03  0.00000000000E+00 0. -1.
         15    1    3    3    0    0  0.54580842120E+01 -0.22751822866E+02  0.11105688277E+03  0.11349478991E+03  0.00000000000E+00 0. -1.
        -16    1    1    2    0    0  0.97752101429E+02  0.30268077183E+03  0.36427151774E+03  0.48359576260E+03  0.00000000000E+00 0.  1.
         16    1    4    4    0    0 -0.89015640751E+03  0.32245092093E+03  0.19431019507E+03  0.96649339271E+03  0.00000000000E+00 0. -1.
    9900018    1    4    4    0    0  0.65537513215E+03 -0.36857329025E+03 -0.17440418042E+03  0.77723537662E+03  0.91187600000E+02 0.  0.
<mgrwt>
<rscale>  0 0.12010928E+04</rscale>
<asrwt>0</asrwt>
<pdfrwt beam="1">  1        2 0.18322623E+00 0.25143409E+04</pdfrwt>
<pdfrwt beam="2">  1       -2 0.23327486E+00 0.25143409E+04</pdfrwt>
<totfact> 0.13850328E+00</totfact>
</mgrwt>
</event>
<event>
10    1  0.1624838E-014  0.1641451E+04  0.7818608E-02  0.9154024E-01
          2   -1    0    0  501    0  0.00000000000E+00  0.00000000000E+00  0.15470883508E+04  0.15470883508E+04  0.00000000000E+00 0. -1.
         -2   -1    0    0    0  501 -0.00000000000E+00 -0.00000000000E+00 -0.10622549730E+04  0.10622549730E+04  0.00000000000E+00 0.  1.
         23    2    1    2    0    0 -0.33353024952E+03 -0.14384885408E+03 -0.89729938651E+02  0.38527137906E+03  0.91911117199E+02 0.  0.
        -15    1    1    2    0    0  0.39868042525E+01 -0.20290456521E+03 -0.30128936186E+03  0.36326496771E+03  0.00000000000E+00 0.  1.
        -15    1    3    3    0    0 -0.15236335352E+03 -0.10425132688E+03 -0.74915733036E+02  0.19923678804E+03  0.00000000000E+00 0. -1.
         15    1    3    3    0    0 -0.18116689600E+03 -0.39597527199E+02 -0.14814205615E+02  0.18603459102E+03  0.00000000000E+00 0.  1.
         15    1    1    2    0    0 -0.15191655620E+03 -0.12528104374E+03 -0.23988105401E+03  0.31034964160E+03  0.00000000000E+00 0. -1.
        -16    1    1    2    0    0  0.17212463360E+03  0.16561609974E+02 -0.90881526731E+02  0.19534745537E+03  0.00000000000E+00 0.  1.
         16    1    1    2    0    0  0.25427353387E+03  0.37078108241E+03  0.10774272282E+04  0.11674686605E+04  0.00000000000E+00 0. -1.
    9900018    1    1    2    0    0  0.55061834003E+02  0.84691770646E+02  0.12918803092E+03  0.18764121963E+03  0.91187600000E+02 0.  0.
<mgrwt>
<rscale>  0 0.11540843E+04</rscale>
<asrwt>0</asrwt>
<pdfrwt beam="1">  1        2 0.23801359E+00 0.16414511E+04</pdfrwt>
<pdfrwt beam="2">  1       -2 0.16342384E+00 0.16414511E+04</pdfrwt>
<totfact> 0.26547573E+00</totfact>
</mgrwt>
</event>
<event>
11    1  0.1624838E-014  0.2444393E+04  0.7818608E-02  0.9095927E-01
         -2   -1    0    0    0  501 -0.00000000000E+00  0.00000000000E+00  0.14558928239E+04  0.14558928239E+04  0.00000000000E+00 0.  1.
          2   -1    0    0  501    0  0.00000000000E+00 -0.00000000000E+00 -0.12792335939E+04  0.12792335939E+04  0.00000000000E+00 0. -1.
         23    2    1    2    0    0 -0.98963921347E+02 -0.69194342956E+02 -0.21147318668E+03  0.26011047490E+03  0.91404790041E+02 0.  0.
         23    2    1    2    0    0 -0.83721904896E+02 -0.74264585580E+03  0.16432710743E+03  0.77474890276E+03  0.12124454458E+03 0.  0.
        -15    1    4    4    0    0 -0.99962593713E+02 -0.72107041955E+03  0.16904236704E+03  0.74733552836E+03  0.00000000000E+00 0.  1.
        -15    1    3    3    0    0 -0.52389001851E+02  0.59424215371E+01 -0.12838990455E+03  0.13879440723E+03  0.00000000000E+00 0.  1.
         15    1    4    4    0    0  0.16240688817E+02 -0.21575436249E+02 -0.47152596158E+01  0.27413374397E+02  0.00000000000E+00 0. -1.
         15    1    3    3    0    0 -0.46574919495E+02 -0.75136764493E+02 -0.83083282125E+02  0.12131606766E+03  0.00000000000E+00 0. -1.
        -16    1    1    2    0    0 -0.12375833478E+03  0.19306811175E+03  0.44358283621E+03  0.49935673999E+03  0.00000000000E+00 0.  1.
         16    1    1    2    0    0 -0.26451970048E+03  0.32467256796E+03  0.16105061945E+03  0.44868725228E+03  0.00000000000E+00 0. -1.
    9900018    1    1    2    0    0  0.57096386151E+03  0.29409951905E+03 -0.38082814635E+03  0.75222304784E+03  0.91187600000E+02 0.  0.
<mgrwt>
<rscale>  0 0.12195350E+04</rscale>
<asrwt>0</asrwt>
<pdfrwt beam="1">  1        2 0.19680517E+00 0.24443930E+04</pdfrwt>
<pdfrwt beam="2">  1       -2 0.22398351E+00 0.24443930E+04</pdfrwt>
<totfact> 0.14069083E+00</totfact>
</mgrwt>
</event>
