<event>
13    1  0.3081398E-012  0.4602622E+04  0.7818608E-02  0.7892913E-01
         -2   -1    0    0    0  501 -0.00000000000E+00  0.00000000000E+00  0.22689040881E+04  0.22689040881E+04  0.00000000000E+00 0.  1.
          2   -1    0    0  501    0  0.00000000000E+00 -0.00000000000E+00 -0.23341808999E+04  0.23341808999E+04  0.00000000000E+00 0. -1.
    9900016    2    1    2    0    0  0.80300170361E+03 -0.80027860541E+03 -0.73671229896E+03  0.22900083943E+04  0.18482791598E+04 0.  0.
         24    2    3    3    0    0  0.14281667588E+02 -0.89865494272E+02  0.58330183626E+03  0.59613608484E+03  0.82809578976E+02 0.  0.
    9900016    2    1    2    0    0 -0.80300170361E+03  0.80027860541E+03  0.67143548716E+03  0.23130765936E+04  0.19011154968E+04 0.  0.
         23    2    5    5    0    0 -0.14129545677E+03  0.34766630742E+03 -0.63488481501E+03  0.74121678131E+03  0.74076454713E+02 0.  0.
        -15    1    6    6    0    0 -0.10661298069E+03  0.27199228032E+03 -0.54726431443E+03  0.62035824976E+03  0.00000000000E+00 0. -1.
        -15    1    4    4    0    0  0.35073833839E+02 -0.90289562085E+02  0.53257371721E+03  0.54131057916E+03  0.00000000000E+00 0.  1.
         15    1    3    3    0    0  0.78872003602E+03 -0.71041311113E+03 -0.13200141352E+04  0.16938723095E+04  0.00000000000E+00 0. -1.
         15    1    6    6    0    0 -0.34682476079E+02  0.75674027097E+02 -0.87620500585E+02  0.12085853154E+03  0.00000000000E+00 0.  1.
        -16    1    5    5    0    0 -0.55581716884E+03  0.37560487981E+03  0.12153434340E+04  0.13881899774E+04  0.00000000000E+00 0.  1.
         16    1    4    4    0    0 -0.20792166251E+02  0.42406781331E+00  0.50728119048E+02  0.54825505680E+02  0.00000000000E+00 0. -1.
    9900018    1    5    5    0    0 -0.10588907800E+03  0.77007418183E+02  0.90976868174E+02  0.18366983484E+03  0.91187600000E+02 0.  0.
<mgrwt>
<rscale>  0 0.46026221E+04</rscale>
<asrwt>0</asrwt>
<pdfrwt beam="1">  1        2 0.35910476E+00 0.46026221E+04</pdfrwt>
<pdfrwt beam="2">  1       -2 0.34906217E+00 0.46026221E+04</pdfrwt>
<totfact> 0.51379799E-02</totfact>
</mgrwt>
</event>
<event>
13    1  0.3081398E-012  0.4948286E+04  0.7818608E-02  0.7836534E-01
          2   -1    0    0  501    0  0.00000000000E+00  0.00000000000E+00  0.33432232195E+04  0.33432232195E+04  0.00000000000E+00 0.  1.
         -2   -1    0    0    0  501 -0.00000000000E+00 -0.00000000000E+00 -0.18309827119E+04  0.18309827119E+04  0.00000000000E+00 0. -1.
    9900016    2    1    2    0    0  0.15052216651E+04  0.34401784427E+02  0.12582221048E+03  0.23808879747E+04  0.18400871108E+04 0.  0.
        -24    2    3    3    0    0 -0.19283238172E+03 -0.51185179710E+02 -0.51936620861E+03  0.56237738345E+03  0.81992760052E+02 0.  0.
    9900016    2    1    2    0    0 -0.14790558804E+04 -0.55057796681E+02  0.12888495781E+04  0.26556729333E+04  0.17890857540E+04 0.  0.
         23    2    5    5    0    0  0.22595093943E+03  0.35619349723E+01  0.86577634347E+03  0.89798254801E+03  0.75746057420E+02 0.  0.
        -15    1    6    6    0    0  0.12525096013E+03  0.93121596559E+01  0.33636855377E+03  0.35905197854E+03  0.00000000000E+00 0. -1.
        -15    1    3    3    0    0  0.16980540468E+04  0.85586964136E+02  0.64518841909E+03  0.18185105912E+04  0.00000000000E+00 0.  1.
         15    1    4    4    0    0 -0.70703860093E+02 -0.53570875205E+02 -0.27885539287E+03  0.29262468220E+03  0.00000000000E+00 0. -1.
         15    1    6    6    0    0  0.10069997931E+03 -0.57502246836E+01  0.52940778970E+03  0.53893056947E+03  0.00000000000E+00 0.  1.
        -16    1    4    4    0    0 -0.12212852163E+03  0.23856954955E+01 -0.24051081574E+03  0.26975270124E+03  0.00000000000E+00 0.  1.
         16    1    5    5    0    0 -0.17050068198E+04 -0.58619731654E+02  0.42307323464E+03  0.17576903853E+04  0.00000000000E+00 0. -1.
    9900018    1    1    2    0    0 -0.26165784683E+02  0.20656012255E+02  0.97568719038E+02  0.13764502337E+03  0.91187600000E+02 0.  0.
<mgrwt>
<rscale>  0 0.49482861E+04</rscale>
<asrwt>0</asrwt>
<pdfrwt beam="1">  1        2 0.51434203E+00 0.49482861E+04</pdfrwt>
<pdfrwt beam="2">  1       -2 0.28168965E+00 0.49482861E+04</pdfrwt>
<totfact> 0.31278520E-02</totfact>
</mgrwt>
</event>
<event>
13    1  0.3081398E-012  0.5735033E+04  0.7818608E-02  0.7724151E-01
          2   -1    0    0  501    0  0.00000000000E+00  0.00000000000E+00  0.30434064273E+04  0.30434064273E+04  0.00000000000E+00 0. -1.
         -2   -1    0    0    0  501 -0.00000000000E+00 -0.00000000000E+00 -0.27017915096E+04  0.27017915096E+04  0.00000000000E+00 0.  1.
    9900016    2    1    2    0    0 -0.13901019425E+03  0.42224878412E+03  0.23002760379E+04  0.29816340916E+04  0.18442489355E+04 0.  0.
         24    2    3    3    0    0 -0.26977230674E+03 -0.79223621881E+02 -0.24666812062E+03  0.38250003382E+03  0.80047700740E+02 0.  0.
    9900016    2    1    2    0    0  0.13901019425E+03 -0.42224878412E+03 -0.19586611201E+04  0.27635638452E+04  0.18982396776E+04 0.  0.
         23    2    5    5    0    0 -0.22871424935E+03 -0.41623257380E+03  0.19419228401E+03  0.52356011575E+03  0.10413831326E+03 0.  0.
        -15    1    6    6    0    0 -0.10953983487E+03 -0.28232084094E+03  0.88649578657E+02  0.31553570392E+03  0.00000000000E+00 0.  1.
        -15    1    4    4    0    0 -0.20576580074E+03 -0.71807466248E+02 -0.14374767552E+03  0.26107330615E+03  0.00000000000E+00 0.  1.
         15    1    6    6    0    0 -0.11917441448E+03 -0.13391173286E+03  0.10554270535E+03  0.20802441183E+03  0.00000000000E+00 0. -1.
         15    1    3    3    0    0  0.13076211250E+03  0.50147240600E+03  0.25469441585E+04  0.25991340578E+04  0.00000000000E+00 0. -1.
        -16    1    5    5    0    0  0.32333952984E+03 -0.21506985914E+02 -0.20995115311E+04  0.21243727712E+04  0.00000000000E+00 0.  1.
         16    1    4    4    0    0 -0.64006506001E+02 -0.74161556338E+01 -0.10292044510E+03  0.12142672768E+03  0.00000000000E+00 0. -1.
    9900018    1    5    5    0    0  0.44384913761E+02  0.15490775593E+02 -0.53341873066E+02  0.11563095829E+03  0.91187600000E+02 0.  0.
<mgrwt>
<rscale>  0 0.57350326E+04</rscale>
<asrwt>0</asrwt>
<pdfrwt beam="1">  1        2 0.46821638E+00 0.57350326E+04</pdfrwt>
<pdfrwt beam="2">  1       -2 0.41566023E+00 0.57350326E+04</pdfrwt>
<totfact> 0.65870809E-03</totfact>
</mgrwt>
</event>
<event>
13    1  0.3081398E-012  0.4604703E+04  0.7818608E-02  0.7892558E-01
         -2   -1    0    0    0  501 -0.00000000000E+00  0.00000000000E+00  0.29089232283E+04  0.29089232283E+04  0.00000000000E+00 0.  1.
          2   -1    0    0  501    0  0.00000000000E+00 -0.00000000000E+00 -0.18222628925E+04  0.18222628925E+04  0.00000000000E+00 0. -1.
    9900016    2    1    2    0    0  0.69532647559E+03 -0.97425266523E+03  0.11752880583E+04  0.24901868680E+04  0.18404025250E+04 0.  0.
        -24    2    3    3    0    0  0.11859825194E+03 -0.44879609775E+03 -0.47243943976E+03  0.66707799679E+03  0.79438950468E+02 0.  0.
    9900016    2    1    2    0    0 -0.69532647559E+03  0.97425266523E+03 -0.88627722469E+02  0.22409992528E+04  0.18925051161E+04 0.  0.
         23    2    5    5    0    0  0.54809764836E+03  0.35589690331E+02  0.20343542392E+03  0.59544321138E+03  0.10718669728E+03 0.  0.
        -15    1    6    6    0    0  0.16516686176E+03  0.31423315034E+02  0.15449096684E+02  0.16883776693E+03  0.00000000000E+00 0.  1.
        -15    1    3    3    0    0  0.57672822365E+03 -0.52545656748E+03  0.16477274981E+04  0.18231088712E+04  0.00000000000E+00 0.  1.
         15    1    6    6    0    0  0.38293078659E+03  0.41663752965E+01  0.18798632724E+03  0.42660544445E+03  0.00000000000E+00 0. -1.
         15    1    4    4    0    0  0.14931235672E+02 -0.17237647968E+03 -0.20977703162E+03  0.27192461371E+03  0.00000000000E+00 0. -1.
        -16    1    4    4    0    0  0.10366701626E+03 -0.27641961807E+03 -0.26266240814E+03  0.39515338308E+03  0.00000000000E+00 0.  1.
         16    1    5    5    0    0 -0.12233631854E+04  0.84547659189E+03 -0.25791805381E+03  0.15092944952E+04  0.00000000000E+00 0. -1.
    9900018    1    5    5    0    0 -0.20060938517E+02  0.93186383005E+02 -0.34145092584E+02  0.13626154620E+03  0.91187600000E+02 0.  0.
<mgrwt>
<rscale>  0 0.46047032E+04</rscale>
<asrwt>0</asrwt>
<pdfrwt beam="1">  1        2 0.28034814E+00 0.46047032E+04</pdfrwt>
<pdfrwt beam="2">  1       -2 0.44752665E+00 0.46047032E+04</pdfrwt>
<totfact> 0.22744724E-02</totfact>
</mgrwt>
</event>
<event>
12    1  0.3081398E-012  0.4528445E+04  0.7818608E-02  0.7905676E-01
          2   -1    0    0  501    0  0.00000000000E+00  0.00000000000E+00  0.18228163471E+04  0.18228163471E+04  0.00000000000E+00 0. -1.
         -2   -1    0    0    0  501 -0.00000000000E+00 -0.00000000000E+00 -0.28125176477E+04  0.28125176477E+04  0.00000000000E+00 0.  1.
    9900016    2    1    2    0    0  0.38412680573E+03 -0.63424984962E+03  0.57696482196E+03  0.20674451173E+04  0.18416336858E+04 0.  0.
         24    2    3    3    0    0  0.57986278384E+03  0.36693921598E+03 -0.26987387675E+03  0.74161409499E+03  0.79210606752E+02 0.  0.
    9900016    2    1    2    0    0 -0.38412680573E+03  0.63424984962E+03 -0.15666661226E+04  0.25678888774E+04  0.18946726030E+04 0.  0.
        -15    1    4    4    0    0  0.17517507601E+03  0.87017631430E+02 -0.10900200848E+03  0.22391921152E+03  0.00000000000E+00 0.  1.
        -15    1    5    5    0    0  0.11890382825E+02 -0.66474200285E+01  0.20688687082E+02  0.24770772494E+02  0.00000000000E+00 0. -1.
         15    1    5    5    0    0 -0.29646561406E+03  0.43818087433E+03  0.29559660032E+03  0.60602944571E+03  0.00000000000E+00 0.  1.
         15    1    3    3    0    0 -0.19573597811E+03 -0.10011890656E+04  0.84683869871E+03  0.13258310224E+04  0.00000000000E+00 0. -1.
        -16    1    5    5    0    0 -0.40345658602E+02  0.18529091163E+03 -0.17671464236E+04  0.17772920346E+04  0.00000000000E+00 0.  1.
         16    1    4    4    0    0  0.40468770783E+03  0.27992158455E+03 -0.16087186827E+03  0.51769488346E+03  0.00000000000E+00 0. -1.
    9900018    1    5    5    0    0 -0.59205915901E+02  0.17425483697E+02 -0.11580498641E+03  0.15979662459E+03  0.91187600000E+02 0.  0.
<mgrwt>
<rscale>  0 0.45284448E+04</rscale>
<asrwt>0</asrwt>
<pdfrwt beam="1">  1        2 0.28043328E+00 0.45284448E+04</pdfrwt>
<pdfrwt beam="2">  1       -2 0.43269502E+00 0.45284448E+04</pdfrwt>
<totfact> 0.28652787E-02</totfact>
</mgrwt>
</event>
<event>
13    1  0.3081398E-012  0.4596182E+04  0.7818608E-02  0.7894011E-01
         -2   -1    0    0    0  501 -0.00000000000E+00  0.00000000000E+00  0.19680300262E+04  0.19680300262E+04  0.00000000000E+00 0.  1.
          2   -1    0    0  501    0  0.00000000000E+00 -0.00000000000E+00 -0.26835073166E+04  0.26835073166E+04  0.00000000000E+00 0. -1.
    9900016    2    1    2    0    0  0.12376299689E+03  0.59938383514E+03  0.84170172780E+03  0.21238302347E+04  0.18513818639E+04 0.  0.
        -24    2    3    3    0    0  0.34899844263E+03 -0.26762339127E+03 -0.39520601236E+03  0.59661928193E+03  0.79652889833E+02 0.  0.
    9900016    2    1    2    0    0 -0.12999782717E+03 -0.56229226545E+03 -0.14533200476E+04  0.23844712123E+04  0.18001365990E+04 0.  0.
         23    2    5    5    0    0  0.51564586057E+03  0.44094236187E+03 -0.41297669637E+03  0.80154677404E+03  0.10773420641E+03 0.  0.
        -15    1    6    6    0    0  0.81644988629E+02  0.39036004688E+02 -0.89877758760E+02  0.12754499343E+03  0.00000000000E+00 0. -1.
        -15    1    3    3    0    0 -0.22523544574E+03  0.86700722641E+03  0.12369077402E+04  0.15272109528E+04  0.00000000000E+00 0.  1.
         15    1    6    6    0    0  0.43400087194E+03  0.40190635718E+03 -0.32309893761E+03  0.67400178061E+03  0.00000000000E+00 0.  1.
         15    1    4    4    0    0  0.20493390919E+03 -0.16052004367E+03 -0.18059231316E+03  0.31682514914E+03  0.00000000000E+00 0. -1.
        -16    1    4    4    0    0  0.14406453344E+03 -0.10710334760E+03 -0.21461369920E+03  0.27979413279E+03  0.00000000000E+00 0.  1.
         16    1    5    5    0    0 -0.64564368774E+03 -0.10032346273E+04 -0.10403433512E+04  0.15829244383E+04  0.00000000000E+00 0. -1.
    9900018    1    1    2    0    0  0.62348302779E+01 -0.37091569694E+02 -0.10385897059E+03  0.14323589570E+03  0.91187600000E+02 0.  0.
<mgrwt>
<rscale>  0 0.45961823E+04</rscale>
<asrwt>0</asrwt>
<pdfrwt beam="1">  1        2 0.41284728E+00 0.45961823E+04</pdfrwt>
<pdfrwt beam="2">  1       -2 0.30277385E+00 0.45961823E+04</pdfrwt>
<totfact> 0.62412183E-02</totfact>
</mgrwt>
</event>
<event>
12    1  0.3081398E-012  0.4320885E+04  0.7818608E-02  0.7942768E-01
         -1   -1    0    0    0  501 -0.00000000000E+00  0.00000000000E+00  0.18713755932E+04  0.18713755932E+04  0.00000000000E+00 0.  1.
          1   -1    0    0  501    0  0.00000000000E+00 -0.00000000000E+00 -0.24941607082E+04  0.24941607082E+04  0.00000000000E+00 0. -1.
    9900016    2    1    2    0    0 -0.63301486271E+03  0.40545331950E+03  0.47927554102E+03  0.20525615661E+04  0.18488384807E+04 0.  0.
        -24    2    3    3    0    0  0.14381110380E+03  0.47704599086E+03 -0.55966161651E+03  0.75334083422E+03  0.77761021997E+02 0.  0.
    9900016    2    1    2    0    0  0.63301486271E+03 -0.40545331950E+03 -0.11020606560E+04  0.23129747354E+04  0.18895010522E+04 0.  0.
        -15    1    5    5    0    0  0.20926577292E+03 -0.63525948185E+02  0.35347979206E+03  0.41566293220E+03  0.00000000000E+00 0. -1.
        -15    1    3    3    0    0 -0.77682596650E+03 -0.71592671361E+02  0.10389371575E+04  0.12992207319E+04  0.00000000000E+00 0.  1.
         15    1    4    4    0    0  0.55566227284E+02  0.31181918402E+03 -0.34047219300E+03  0.46501626138E+03  0.00000000000E+00 0. -1.
         15    1    5    5    0    0 -0.42583981263E+02 -0.13507647495E+02  0.13893625775E+03  0.14594223418E+03  0.00000000000E+00 0.  1.
        -16    1    4    4    0    0  0.88244876512E+02  0.16522680685E+03 -0.21918942350E+03  0.28832457285E+03  0.00000000000E+00 0.  1.
         16    1    5    5    0    0  0.47586302281E+03 -0.33714878406E+03 -0.15341832000E+04  0.16412900445E+04  0.00000000000E+00 0. -1.
    9900018    1    5    5    0    0 -0.95299517709E+01  0.87290602409E+01 -0.60293505804E+02  0.11007952448E+03  0.91187600000E+02 0.  0.
<mgrwt>
<rscale>  0 0.43208849E+04</rscale>
<asrwt>0</asrwt>
<pdfrwt beam="1">  1        1 0.38371703E+00 0.43208849E+04</pdfrwt>
<pdfrwt beam="2">  1       -1 0.28790394E+00 0.43208849E+04</pdfrwt>
<totfact> 0.41246008E-02</totfact>
</mgrwt>
</event>
<event>
12    1  0.3081398E-012  0.5239752E+04  0.7818608E-02  0.7792551E-01
         -2   -1    0    0    0  501 -0.00000000000E+00  0.00000000000E+00  0.15625263546E+04  0.15625263546E+04  0.00000000000E+00 0.  1.
          2   -1    0    0  501    0  0.00000000000E+00 -0.00000000000E+00 -0.43927257069E+04  0.43927257069E+04  0.00000000000E+00 0. -1.
    9900016    2    1    2    0    0 -0.34322996062E+03  0.85068805482E+03 -0.32057789854E+04  0.38103009342E+04  0.18438810519E+04 0.  0.
         24    2    3    3    0    0 -0.75470109317E+03 -0.31417053189E+03 -0.11853332798E+04  0.14420938341E+04  0.79641565099E+02 0.  0.
    9900016    2    1    2    0    0  0.34322996062E+03 -0.85068805482E+03  0.37557963313E+03  0.21449511274E+04  0.19021772539E+04 0.  0.
        -15    1    4    4    0    0 -0.28072580925E+03 -0.15462011505E+03 -0.49329111855E+03  0.58826056097E+03  0.00000000000E+00 0.  1.
        -15    1    5    5    0    0  0.13797187936E+03  0.45994634039E+03  0.26705182708E+03  0.54945750871E+03  0.00000000000E+00 0.  1.
         15    1    3    3    0    0  0.41147113254E+03  0.11648585867E+04 -0.20204457056E+04  0.23682071001E+04  0.00000000000E+00 0. -1.
         15    1    5    5    0    0  0.95303453969E+02  0.97029265075E+02  0.31353864673E+02  0.13957253114E+03  0.00000000000E+00 0. -1.
        -16    1    5    5    0    0  0.97386995729E+02 -0.13108789555E+04  0.10774288778E+03  0.13188996902E+04  0.00000000000E+00 0.  1.
         16    1    4    4    0    0 -0.47397528392E+03 -0.15955041684E+03 -0.69204216130E+03  0.85383327313E+03  0.00000000000E+00 0. -1.
    9900018    1    5    5    0    0  0.12567631563E+02 -0.96784704768E+02 -0.30568946392E+02  0.13702139730E+03  0.91187600000E+02 0.  0.
<mgrwt>
<rscale>  0 0.52397518E+04</rscale>
<asrwt>0</asrwt>
<pdfrwt beam="1">  1        2 0.67580396E+00 0.52397518E+04</pdfrwt>
<pdfrwt beam="2">  1       -2 0.24038867E+00 0.52397518E+04</pdfrwt>
<totfact> 0.81317819E-03</totfact>
</mgrwt>
</event>
<event>
12    1  0.3081398E-012  0.3908604E+04  0.7818608E-02  0.8023242E-01
          2   -1    0    0  501    0  0.00000000000E+00  0.00000000000E+00  0.31525559716E+04  0.31525559716E+04  0.00000000000E+00 0. -1.
         -2   -1    0    0    0  501 -0.00000000000E+00 -0.00000000000E+00 -0.12114919759E+04  0.12114919759E+04  0.00000000000E+00 0.  1.
    9900016    2    1    2    0    0  0.27321225108E+03 -0.49840308993E+03  0.91865853866E+03  0.21314769215E+04  0.18374465386E+04 0.  0.
        -24    2    3    3    0    0 -0.76795929435E+03 -0.24569105355E+02  0.45973442851E+03  0.89893151837E+03  0.79730867497E+02 0.  0.
    9900016    2    1    2    0    0 -0.21237151052E+03  0.42925231750E+03  0.92515954894E+03  0.20705359370E+04  0.17893685100E+04 0.  0.
        -15    1    3    3    0    0  0.10411715454E+04 -0.47383398458E+03  0.45892411015E+03  0.12325454032E+04  0.00000000000E+00 0.  1.
        -15    1    5    5    0    0 -0.27463267112E+03 -0.31008857517E+03 -0.41875426924E+02  0.41633109406E+03  0.00000000000E+00 0. -1.
         15    1    5    5    0    0 -0.67111230115E+02 -0.23687910024E+03 -0.35702749876E+02  0.24877763502E+03  0.00000000000E+00 0.  1.
         15    1    4    4    0    0 -0.43633070670E+03  0.70384842128E+00  0.30328520936E+03  0.53138206522E+03  0.00000000000E+00 0. -1.
        -16    1    4    4    0    0 -0.33162858765E+03 -0.25272953776E+02  0.15644921915E+03  0.36754945315E+03  0.00000000000E+00 0.  1.
         16    1    5    5    0    0  0.12937239072E+03  0.97621999292E+03  0.10027377257E+04  0.14054272079E+04  0.00000000000E+00 0. -1.
    9900018    1    1    2    0    0 -0.60840740563E+02  0.69150772433E+02  0.97245908083E+02  0.16203508902E+03  0.91187600000E+02 0.  0.
<mgrwt>
<rscale>  0 0.39086040E+04</rscale>
<asrwt>0</asrwt>
<pdfrwt beam="1">  1        2 0.48500861E+00 0.39086040E+04</pdfrwt>
<pdfrwt beam="2">  1       -2 0.18638338E+00 0.39086040E+04</pdfrwt>
<totfact> 0.18123775E-01</totfact>
</mgrwt>
</event>
<event>
13    1  0.3081398E-012  0.4070350E+04  0.7818608E-02  0.7990503E-01
          3   -1    0    0  501    0  0.00000000000E+00  0.00000000000E+00  0.18772124940E+04  0.18772124940E+04  0.00000000000E+00 0. -1.
         -3   -1    0    0    0  501 -0.00000000000E+00 -0.00000000000E+00 -0.22064293090E+04  0.22064293090E+04  0.00000000000E+00 0.  1.
    9900016    2    1    2    0    0  0.13987854301E+03  0.74702093082E+03 -0.49012555634E+03  0.20385090656E+04  0.18269345559E+04 0.  0.
        -24    2    3    3    0    0 -0.36013580944E+03 -0.32852778497E+03  0.33222678420E+03  0.59522019476E+03  0.79272551169E+02 0.  0.
    9900016    2    1    2    0    0 -0.11531737602E+03 -0.69955507208E+03  0.16751562118E+03  0.19392314251E+04  0.17971871468E+04 0.  0.
         23    2    5    5    0    0  0.43907067276E+01 -0.27741788685E+03 -0.81447585487E+03  0.86366781136E+03  0.74640524982E+02 0.  0.
        -15    1    6    6    0    0 -0.28039867382E+02 -0.21454674339E+03 -0.62750242666E+03  0.66375886791E+03  0.00000000000E+00 0.  1.
        -15    1    3    3    0    0  0.50001435245E+03  0.10755487158E+04 -0.82235234054E+03  0.14432888708E+04  0.00000000000E+00 0.  1.
         15    1    6    6    0    0  0.32430574109E+02 -0.62871143464E+02 -0.18697342820E+03  0.19990894345E+03  0.00000000000E+00 0. -1.
         15    1    4    4    0    0 -0.14633117911E+03 -0.18426795687E+03  0.14325854884E+03  0.27548231472E+03  0.00000000000E+00 0. -1.
        -16    1    4    4    0    0 -0.21380463033E+03 -0.14425982810E+03  0.18896823537E+03  0.31973788004E+03  0.00000000000E+00 0.  1.
         16    1    5    5    0    0 -0.11970808275E+03 -0.42213718523E+03  0.98199147605E+03  0.10755636138E+04  0.00000000000E+00 0. -1.
    9900018    1    1    2    0    0 -0.24561166987E+02 -0.47465858747E+02 -0.66068798692E+01  0.10590131220E+03  0.91187600000E+02 0.  0.
<mgrwt>
<rscale>  0 0.40703497E+04</rscale>
<asrwt>0</asrwt>
<pdfrwt beam="1">  1        3 0.28880192E+00 0.40703497E+04</pdfrwt>
<pdfrwt beam="2">  1       -3 0.33945066E+00 0.40703497E+04</pdfrwt>
<totfact> 0.20609460E-03</totfact>
</mgrwt>
</event>
<event>
13    1  0.3081398E-012  0.4426565E+04  0.7818608E-02  0.7923621E-01
          2   -1    0    0  501    0  0.00000000000E+00  0.00000000000E+00  0.29094275439E+04  0.29094275439E+04  0.00000000000E+00 0. -1.
         -2   -1    0    0    0  501 -0.00000000000E+00 -0.00000000000E+00 -0.16837059048E+04  0.16837059048E+04  0.00000000000E+00 0.  1.
    9900016    2    1    2    0    0  0.35331875952E+03  0.17727870857E+03  0.17712453275E+04  0.25894815498E+04  0.18471174301E+04 0.  0.
         24    2    3    3    0    0 -0.12287633278E+03  0.21815854833E+03 -0.33733520491E+03  0.42741198832E+03  0.78703379349E+02 0.  0.
    9900016    2    1    2    0    0 -0.35331875952E+03 -0.17727870857E+03 -0.54552368837E+03  0.20036518988E+04  0.18869983971E+04 0.  0.
         23    2    5    5    0    0  0.10302034907E+03  0.25229440571E+03 -0.10545124959E+04  0.10915617591E+04  0.72421063942E+02 0.  0.
        -15    1    4    4    0    0 -0.75730863371E+02  0.68598967627E+02 -0.16787848711E+03  0.19653032453E+03  0.00000000000E+00 0.  1.
        -15    1    6    6    0    0  0.89841671119E+02  0.16652132534E+03 -0.61051122758E+03  0.63915947670E+03  0.00000000000E+00 0.  1.
         15    1    6    6    0    0  0.13178677950E+02  0.85773080365E+02 -0.44400126830E+03  0.45240228240E+03  0.00000000000E+00 0. -1.
         15    1    3    3    0    0  0.47619509230E+03 -0.40879839761E+02  0.21085805324E+04  0.21620695615E+04  0.00000000000E+00 0. -1.
        -16    1    5    5    0    0 -0.39163385677E+03 -0.41518419340E+03  0.54951893032E+03  0.79229164264E+03  0.00000000000E+00 0.  1.
         16    1    4    4    0    0 -0.47145469406E+02  0.14955958070E+03 -0.16945671780E+03  0.23088166379E+03  0.00000000000E+00 0. -1.
    9900018    1    5    5    0    0 -0.64705251823E+02 -0.14388920872E+02 -0.40530122810E+02  0.11979849709E+03  0.91187600000E+02 0.  0.
<mgrwt>
<rscale>  0 0.44265654E+04</rscale>
<asrwt>0</asrwt>
<pdfrwt beam="1">  1        2 0.44760424E+00 0.44265654E+04</pdfrwt>
<pdfrwt beam="2">  1       -2 0.25903168E+00 0.44265654E+04</pdfrwt>
<totfact> 0.85427399E-02</totfact>
</mgrwt>
</event>
<event>
13    1  0.3081398E-012  0.4418133E+04  0.7818608E-02  0.7925128E-01
         -2   -1    0    0    0  501 -0.00000000000E+00  0.00000000000E+00  0.31292201683E+04  0.31292201683E+04  0.00000000000E+00 0.  1.
          2   -1    0    0  501    0  0.00000000000E+00 -0.00000000000E+00 -0.15594857393E+04  0.15594857393E+04  0.00000000000E+00 0. -1.
    9900016    2    1    2    0    0 -0.19657326199E+03 -0.19955157150E+03  0.19882337714E+04  0.27299182374E+04  0.18495724306E+04 0.  0.
        -24    2    3    3    0    0  0.56527957029E+03 -0.97185909801E+02 -0.20040774379E+02  0.57955428725E+03  0.80594327247E+02 0.  0.
    9900016    2    1    2    0    0  0.15811613408E+03  0.17723635225E+03 -0.38417940695E+03  0.18516897894E+04  0.17957582864E+04 0.  0.
         23    2    5    5    0    0 -0.35447443976E+03 -0.23616832148E+03  0.55293903065E+03  0.70633242740E+03  0.10833430605E+03 0.  0.
        -15    1    6    6    0    0 -0.11011821652E+03 -0.13246525598E+03  0.24924176862E+03  0.30297611271E+03  0.00000000000E+00 0. -1.
        -15    1    3    3    0    0 -0.76185283227E+03 -0.10236566170E+03  0.20082745458E+04  0.21503639502E+04  0.00000000000E+00 0.  1.
         15    1    6    6    0    0 -0.24435622325E+03 -0.10370306549E+03  0.30369726203E+03  0.40335631469E+03  0.00000000000E+00 0.  1.
         15    1    4    4    0    0  0.18988872851E+03 -0.71206792985E+02 -0.14336486610E+01  0.20280579857E+03  0.00000000000E+00 0. -1.
        -16    1    4    4    0    0  0.37539084177E+03 -0.25979116816E+02 -0.18607125718E+02  0.37674848868E+03  0.00000000000E+00 0.  1.
         16    1    5    5    0    0  0.51259057385E+03  0.41340467372E+03 -0.93711843760E+03  0.11453573620E+04  0.00000000000E+00 0. -1.
    9900018    1    1    2    0    0  0.38457127903E+02  0.22315219255E+02 -0.34319935469E+02  0.10709788075E+03  0.91187600000E+02 0.  0.
<mgrwt>
<rscale>  0 0.44181327E+04</rscale>
<asrwt>0</asrwt>
<pdfrwt beam="1">  1        2 0.23992088E+00 0.44181327E+04</pdfrwt>
<pdfrwt beam="2">  1       -2 0.48141849E+00 0.44181327E+04</pdfrwt>
<totfact> 0.19429039E-02</totfact>
</mgrwt>
</event>
<event>
13    1  0.3081398E-012  0.5272205E+04  0.7818608E-02  0.7787836E-01
          2   -1    0    0  501    0  0.00000000000E+00  0.00000000000E+00  0.29436544611E+04  0.29436544611E+04  0.00000000000E+00 0. -1.
         -2   -1    0    0    0  501 -0.00000000000E+00 -0.00000000000E+00 -0.23606834372E+04  0.23606834372E+04  0.00000000000E+00 0.  1.
    9900016    2    1    2    0    0  0.96920878152E+03  0.31486836698E+03 -0.12737936549E+04  0.24623153703E+04  0.18444345900E+04 0.  0.
        -24    2    3    3    0    0 -0.38619611065E+03 -0.15119707567E+03  0.14410114758E+03  0.44618911201E+03  0.79445524552E+02 0.  0.
    9900016    2    1    2    0    0 -0.93106623045E+03 -0.30614544087E+03  0.17552142253E+04  0.27000414848E+04  0.18024532411E+04 0.  0.
         23    2    5    5    0    0  0.34233199683E+03  0.34838306663E+03  0.98404917421E+02  0.51030001717E+03  0.11027521291E+03 0.  0.
        -15    1    6    6    0    0  0.90032934756E+02  0.31306809228E+02  0.24356462378E+02  0.98383346682E+02  0.00000000000E+00 0.  1.
        -15    1    3    3    0    0  0.13554048922E+04  0.46606544264E+03 -0.14178948025E+04  0.20161262583E+04  0.00000000000E+00 0.  1.
         15    1    4    4    0    0 -0.30367334099E+03 -0.15066669160E+03  0.10510983995E+03  0.35491693175E+03  0.00000000000E+00 0. -1.
         15    1    6    6    0    0  0.25229906207E+03  0.31707625740E+03  0.74048455043E+02  0.41191667049E+03  0.00000000000E+00 0. -1.
        -16    1    4    4    0    0 -0.82522769663E+02 -0.53038406770E+00  0.38991307627E+02  0.91272180266E+02  0.00000000000E+00 0.  1.
         16    1    5    5    0    0 -0.12733982273E+04 -0.65452850750E+03  0.16568093078E+04  0.21897414676E+04  0.00000000000E+00 0. -1.
    9900018    1    1    2    0    0 -0.38142551064E+02 -0.87229261051E+01  0.10155045353E+03  0.14198104327E+03  0.91187600000E+02 0.  0.
<mgrwt>
<rscale>  0 0.52722050E+04</rscale>
<asrwt>0</asrwt>
<pdfrwt beam="1">  1        2 0.45286992E+00 0.52722050E+04</pdfrwt>
<pdfrwt beam="2">  1       -2 0.36318207E+00 0.52722050E+04</pdfrwt>
<totfact> 0.17262800E-02</totfact>
</mgrwt>
</event>
<event>
13    1  0.3081398E-012  0.6039763E+04  0.7818608E-02  0.7685491E-01
          1   -1    0    0  501    0  0.00000000000E+00  0.00000000000E+00  0.25531157715E+04  0.25531157715E+04  0.00000000000E+00 0. -1.
         -1   -1    0    0    0  501 -0.00000000000E+00 -0.00000000000E+00 -0.35719823174E+04  0.35719823174E+04  0.00000000000E+00 0.  1.
    9900016    2    1    2    0    0 -0.16189159868E+03  0.49887127467E+03 -0.28580694863E+04  0.34369443977E+04  0.18354683778E+04 0.  0.
        -24    2    3    3    0    0  0.38412784542E+03  0.76393107221E+03 -0.48266552457E+03  0.98522297980E+03  0.80953237138E+02 0.  0.
    9900016    2    1    2    0    0  0.16189159868E+03 -0.49887127467E+03  0.18392029405E+04  0.26881536911E+04  0.18890265674E+04 0.  0.
         23    2    5    5    0    0 -0.22890966179E+03  0.21041949750E+03 -0.25255338619E+03  0.40779041462E+03  0.76379389817E+02 0.  0.
        -15    1    3    3    0    0 -0.54601944409E+03 -0.26505979753E+03 -0.23754039618E+04  0.24517214179E+04  0.00000000000E+00 0.  1.
        -15    1    6    6    0    0 -0.92151521879E+02  0.10920196800E+03 -0.15844159359E+03  0.21335583277E+03  0.00000000000E+00 0. -1.
         15    1    4    4    0    0  0.36161827530E+02  0.31763214535E+02 -0.30815948013E+02  0.57150697458E+02  0.00000000000E+00 0. -1.
         15    1    6    6    0    0 -0.13675813991E+03  0.10121752950E+03 -0.94111792599E+02  0.19443458184E+03  0.00000000000E+00 0.  1.
        -16    1    4    4    0    0  0.34796601788E+03  0.73216785767E+03 -0.45184957656E+03  0.92807228234E+03  0.00000000000E+00 0.  1.
         16    1    5    5    0    0  0.35073919193E+03 -0.71401604315E+03  0.19587716489E+04  0.21141483541E+04  0.00000000000E+00 0. -1.
    9900018    1    5    5    0    0  0.40062068540E+02  0.47252709756E+01  0.13298467771E+03  0.16621492238E+03  0.91187600000E+02 0.  0.
<mgrwt>
<rscale>  0 0.60397630E+04</rscale>
<asrwt>0</asrwt>
<pdfrwt beam="1">  1        1 0.39278704E+00 0.60397630E+04</pdfrwt>
<pdfrwt beam="2">  1       -1 0.54953574E+00 0.60397630E+04</pdfrwt>
<totfact> 0.63686037E-04</totfact>
</mgrwt>
</event>
<event>
13    1  0.3081398E-012  0.4925095E+04  0.7818608E-02  0.7840167E-01
         -2   -1    0    0    0  501 -0.00000000000E+00  0.00000000000E+00  0.17325001638E+04  0.17325001638E+04  0.00000000000E+00 0.  1.
          2   -1    0    0  501    0  0.00000000000E+00 -0.00000000000E+00 -0.35002253005E+04  0.35002253005E+04  0.00000000000E+00 0. -1.
    9900016    2    1    2    0    0 -0.11219008567E+04 -0.93068567622E+03 -0.15716415997E+04  0.28282573607E+04  0.18450325255E+04 0.  0.
        -24    2    3    3    0    0  0.48421127387E+03 -0.46250072545E+03 -0.52829588875E+03  0.85661753641E+03  0.79558650234E+02 0.  0.
    9900016    2    1    2    0    0  0.10209651117E+04  0.91444525107E+03 -0.14504760608E+03  0.22582777459E+04  0.17889101970E+04 0.  0.
         23    2    5    5    0    0  0.94824633955E+02 -0.50516566126E+03  0.12048528163E+03  0.54260323089E+03  0.12536948017E+03 0.  0.
        -15    1    3    3    0    0 -0.16061121306E+04 -0.46818495077E+03 -0.10433457110E+04  0.19716398243E+04  0.00000000000E+00 0.  1.
        -15    1    6    6    0    0  0.95871239151E+02 -0.42985787297E+03  0.14455483368E+03  0.46353552765E+03  0.00000000000E+00 0. -1.
         15    1    6    6    0    0 -0.10466051957E+01 -0.75307788288E+02 -0.24069552049E+02  0.79067703237E+02  0.00000000000E+00 0.  1.
         15    1    4    4    0    0  0.29708139461E+03 -0.33103981540E+03 -0.32864955337E+03  0.55304180975E+03  0.00000000000E+00 0. -1.
        -16    1    4    4    0    0  0.18712987926E+03 -0.13146091004E+03 -0.19964633539E+03  0.30357572666E+03  0.00000000000E+00 0.  1.
         16    1    5    5    0    0  0.92614047775E+03  0.14196109123E+04 -0.26553288771E+03  0.17156745150E+04  0.00000000000E+00 0. -1.
    9900018    1    1    2    0    0  0.10093574503E+03  0.16240425147E+02 -0.51035930880E+02  0.14619035765E+03  0.91187600000E+02 0.  0.
<mgrwt>
<rscale>  0 0.49250953E+04</rscale>
<asrwt>0</asrwt>
<pdfrwt beam="1">  1        2 0.53849620E+00 0.49250953E+04</pdfrwt>
<pdfrwt beam="2">  1       -2 0.26653849E+00 0.49250953E+04</pdfrwt>
<totfact> 0.30226462E-02</totfact>
</mgrwt>
</event>
<event>
12    1  0.3081398E-012  0.4570873E+04  0.7818608E-02  0.7898345E-01
          2   -1    0    0  501    0  0.00000000000E+00  0.00000000000E+00  0.32168458897E+04  0.32168458897E+04  0.00000000000E+00 0. -1.
         -2   -1    0    0    0  501 -0.00000000000E+00 -0.00000000000E+00 -0.16237083041E+04  0.16237083041E+04  0.00000000000E+00 0.  1.
    9900016    2    1    2    0    0 -0.98741319810E+03  0.17991847882E+03 -0.94803707056E+02  0.21189470796E+04  0.18637578975E+04 0.  0.
        -24    2    3    3    0    0 -0.25487146637E+03 -0.73744831155E+03 -0.43546667317E+03  0.89655987695E+03  0.73477295350E+02 0.  0.
    9900016    2    1    2    0    0  0.98741319810E+03 -0.17991847882E+03  0.16879412927E+04  0.27216071142E+04  0.18843152586E+04 0.  0.
        -15    1    3    3    0    0 -0.73254173173E+03  0.91736679038E+03  0.34066296611E+03  0.12223872027E+04  0.00000000000E+00 0.  1.
        -15    1    5    5    0    0  0.43405981657E+03 -0.21987470226E+03 -0.54780542522E+02  0.48964652240E+03  0.00000000000E+00 0.  1.
         15    1    4    4    0    0 -0.17300717238E+03 -0.57437278196E+03 -0.31108148471E+03  0.67572721158E+03  0.00000000000E+00 0. -1.
         15    1    5    5    0    0  0.52729463459E+03 -0.28001765092E+02  0.10190254118E+03  0.53778049278E+03  0.00000000000E+00 0. -1.
        -16    1    4    4    0    0 -0.81864293990E+02 -0.16307552960E+03 -0.12438518846E+03  0.22083266537E+03  0.00000000000E+00 0.  1.
         16    1    5    5    0    0 -0.27268543469E+02  0.99364404222E+02  0.15441513850E+04  0.15475853315E+04  0.00000000000E+00 0. -1.
    9900018    1    5    5    0    0  0.53327290407E+02 -0.31406415693E+02  0.96667908966E+02  0.14659476753E+03  0.91187600000E+02 0.  0.
<mgrwt>
<rscale>  0 0.45708727E+04</rscale>
<asrwt>0</asrwt>
<pdfrwt beam="1">  1        2 0.49489937E+00 0.45708727E+04</pdfrwt>
<pdfrwt beam="2">  1       -2 0.24980128E+00 0.45708727E+04</pdfrwt>
<totfact> 0.61318054E-02</totfact>
</mgrwt>
</event>
<event>
12    1  0.3081398E-012  0.5292157E+04  0.7818608E-02  0.7784954E-01
         -2   -1    0    0    0  501 -0.00000000000E+00  0.00000000000E+00  0.13944973769E+04  0.13944973769E+04  0.00000000000E+00 0.  1.
          2   -1    0    0  501    0  0.00000000000E+00 -0.00000000000E+00 -0.50209714381E+04  0.50209714381E+04  0.00000000000E+00 0. -1.
    9900016    2    1    2    0    0 -0.36092025081E+03  0.28827877932E+03  0.40916256853E+03  0.19344855075E+04  0.18334263250E+04 0.  0.
        -24    2    3    3    0    0 -0.56534503879E+02 -0.25515620898E+03 -0.65038355301E+03  0.70541665135E+03  0.79454671825E+02 0.  0.
    9900016    2    1    2    0    0  0.36092025081E+03 -0.28827877932E+03 -0.40356366297E+04  0.44809833076E+04  0.18919514564E+04 0.  0.
        -15    1    5    5    0    0 -0.33557166939E+03 -0.21146009076E+03 -0.60768365441E+03  0.72567426516E+03  0.00000000000E+00 0. -1.
        -15    1    3    3    0    0 -0.30438574693E+03  0.54343498830E+03  0.10595461215E+04  0.12290688561E+04  0.00000000000E+00 0.  1.
         15    1    4    4    0    0 -0.14979241952E+02 -0.19611416375E+03 -0.52637170667E+03  0.56191842513E+03  0.00000000000E+00 0. -1.
         15    1    5    5    0    0 -0.29207326092E+03 -0.11622691095E+03 -0.24662808004E+03  0.39955086589E+03  0.00000000000E+00 0.  1.
        -16    1    4    4    0    0 -0.41555261926E+02 -0.59042045223E+02 -0.12401184633E+03  0.14349822622E+03  0.00000000000E+00 0.  1.
         16    1    5    5    0    0  0.93173086951E+03  0.70726547329E+02 -0.30048663258E+04  0.31467993729E+04  0.00000000000E+00 0. -1.
    9900018    1    5    5    0    0  0.56834311609E+02 -0.31318324943E+02 -0.17645856950E+03  0.20895880359E+03  0.91187600000E+02 0.  0.
<mgrwt>
<rscale>  0 0.52921570E+04</rscale>
<asrwt>0</asrwt>
<pdfrwt beam="1">  1        2 0.77245714E+00 0.52921570E+04</pdfrwt>
<pdfrwt beam="2">  1       -2 0.21453806E+00 0.52921570E+04</pdfrwt>
<totfact> 0.24128219E-03</totfact>
</mgrwt>
</event>
<event>
13    1  0.3081398E-012  0.4293744E+04  0.7818608E-02  0.7947776E-01
         -2   -1    0    0    0  501 -0.00000000000E+00  0.00000000000E+00  0.14513470003E+04  0.14513470003E+04  0.00000000000E+00 0.  1.
          2   -1    0    0  501    0  0.00000000000E+00 -0.00000000000E+00 -0.31757111993E+04  0.31757111993E+04  0.00000000000E+00 0. -1.
    9900016    2    1    2    0    0  0.55909535343E+03  0.45158170144E+03 -0.77325310989E+02  0.20083861532E+04  0.18737988391E+04 0.  0.
        -24    2    3    3    0    0  0.13732897431E+03 -0.33501135657E+03 -0.78559236490E+03  0.86897501711E+03  0.82887636959E+02 0.  0.
    9900016    2    1    2    0    0 -0.58764666980E+03 -0.40901480946E+03 -0.15679507637E+04  0.24875338454E+04  0.17935253864E+04 0.  0.
         23    2    5    5    0    0 -0.27348809986E+03  0.20347041936E+03  0.31926353197E+03  0.47870046249E+03  0.10501893934E+03 0.  0.
        -15    1    3    3    0    0  0.42176637912E+03  0.78659305801E+03  0.70826705391E+03  0.11394111361E+04  0.00000000000E+00 0.  1.
        -15    1    6    6    0    0 -0.18190328232E+03  0.18073712578E+03  0.19235808234E+03  0.32055630487E+03  0.00000000000E+00 0. -1.
         15    1    4    4    0    0  0.27014481270E+02 -0.11596549637E+03 -0.34146012211E+03  0.36162521143E+03  0.00000000000E+00 0. -1.
         15    1    6    6    0    0 -0.91584817547E+02  0.22733293580E+02  0.12690544963E+03  0.15814415761E+03  0.00000000000E+00 0.  1.
        -16    1    4    4    0    0  0.11031449304E+03 -0.21904586020E+03 -0.44413224278E+03  0.50734980568E+03  0.00000000000E+00 0.  1.
         16    1    5    5    0    0 -0.31415856994E+03 -0.61248522882E+03 -0.18872142957E+04  0.20088333829E+04  0.00000000000E+00 0. -1.
    9900018    1    1    2    0    0  0.28551316374E+02 -0.42566891980E+02 -0.79088124287E+02  0.13113820098E+03  0.91187600000E+02 0.  0.
<mgrwt>
<rscale>  0 0.42937438E+04</rscale>
<asrwt>0</asrwt>
<pdfrwt beam="1">  1        2 0.48857095E+00 0.42937438E+04</pdfrwt>
<pdfrwt beam="2">  1       -2 0.22328416E+00 0.42937438E+04</pdfrwt>
<totfact> 0.97532964E-02</totfact>
</mgrwt>
</event>
<event>
13    1  0.3081398E-012  0.6315026E+04  0.7818608E-02  0.7652524E-01
          1   -1    0    0  501    0  0.00000000000E+00  0.00000000000E+00  0.18841188933E+04  0.18841188933E+04  0.00000000000E+00 0. -1.
         -1   -1    0    0    0  501 -0.00000000000E+00 -0.00000000000E+00 -0.52915380671E+04  0.52915380671E+04  0.00000000000E+00 0.  1.
    9900016    2    1    2    0    0 -0.17079767464E+04  0.18932063528E+04 -0.13561281392E+04  0.33994974891E+04  0.17933445813E+04 0.  0.
        -24    2    3    3    0    0  0.24015208642E+03  0.66447893267E+00  0.15064325436E+03  0.29349028908E+03  0.75958498873E+02 0.  0.
    9900016    2    1    2    0    0  0.17079767464E+04 -0.18932063528E+04 -0.20512910346E+04  0.37761594714E+04  0.18841896359E+04 0.  0.
         23    2    5    5    0    0  0.40748876147E+03  0.30797302832E+03 -0.87046289394E+02  0.52381564324E+03  0.76884944582E+02 0.  0.
        -15    1    3    3    0    0 -0.19481288329E+04  0.18925418739E+04 -0.15067713936E+04  0.31060072000E+04  0.00000000000E+00 0.  1.
        -15    1    6    6    0    0  0.39080080814E+03  0.27226755751E+03 -0.88178622638E+02  0.48438658529E+03  0.00000000000E+00 0.  1.
         15    1    6    6    0    0  0.16687953330E+02  0.35705470811E+02  0.11323332445E+01  0.39429057949E+02  0.00000000000E+00 0. -1.
         15    1    4    4    0    0  0.84547698239E+02  0.16886510625E+01  0.97487008604E+02  0.12905379369E+03  0.00000000000E+00 0. -1.
        -16    1    4    4    0    0  0.15560438818E+03 -0.10241721298E+01  0.53156245759E+02  0.16443649538E+03  0.00000000000E+00 0.  1.
         16    1    5    5    0    0  0.11948489617E+04 -0.21089623039E+04 -0.18590998007E+04  0.30547730045E+04  0.00000000000E+00 0. -1.
    9900018    1    5    5    0    0  0.10563902332E+03 -0.92217077249E+02 -0.10514494454E+03  0.19757082360E+03  0.91187600000E+02 0.  0.
<mgrwt>
<rscale>  0 0.63150255E+04</rscale>
<asrwt>0</asrwt>
<pdfrwt beam="1">  1        1 0.28986445E+00 0.63150255E+04</pdfrwt>
<pdfrwt beam="2">  1       -1 0.81408276E+00 0.63150255E+04</pdfrwt>
<totfact> 0.13219979E-04</totfact>
</mgrwt>
</event>
<event>
13    1  0.3081398E-012  0.4683336E+04  0.7818608E-02  0.7879303E-01
          1   -1    0    0  501    0  0.00000000000E+00  0.00000000000E+00  0.18963693649E+04  0.18963693649E+04  0.00000000000E+00 0. -1.
         -1   -1    0    0    0  501 -0.00000000000E+00 -0.00000000000E+00 -0.28915304248E+04  0.28915304248E+04  0.00000000000E+00 0.  1.
    9900016    2    1    2    0    0  0.81808766423E+03 -0.11501537553E+04 -0.41771504270E+03  0.23500388075E+04  0.18319594572E+04 0.  0.
        -24    2    3    3    0    0  0.13949322102E+03  0.35632779749E+03 -0.57000545981E+03  0.69077105985E+03  0.76358201482E+02 0.  0.
    9900016    2    1    2    0    0 -0.78872616514E+03  0.10766298136E+04 -0.55202025551E+03  0.23144530595E+04  0.18085203573E+04 0.  0.
         23    2    5    5    0    0 -0.45849271807E+03 -0.21491588635E+02 -0.98233492822E+03  0.10896692168E+04  0.10825724008E+03 0.  0.
        -15    1    3    3    0    0  0.67859444321E+03 -0.15064815528E+04  0.15229041711E+03  0.16592677477E+04  0.00000000000E+00 0.  1.
        -15    1    6    6    0    0 -0.29897861897E+03 -0.22773089124E+02 -0.75120205892E+03  0.80883333358E+03  0.00000000000E+00 0.  1.
         15    1    6    6    0    0 -0.15951409911E+03  0.12815004890E+01 -0.23113286930E+03  0.28083588326E+03  0.00000000000E+00 0. -1.
         15    1    4    4    0    0  0.88014989133E+02  0.28070644822E+03 -0.38643539466E+03  0.48566970529E+03  0.00000000000E+00 0. -1.
        -16    1    4    4    0    0  0.51478231887E+02  0.75621349263E+02 -0.18357006515E+03  0.20510135456E+03  0.00000000000E+00 0.  1.
         16    1    5    5    0    0 -0.33023344706E+03  0.10981214022E+04  0.43031467271E+03  0.12247838426E+04  0.00000000000E+00 0. -1.
    9900018    1    1    2    0    0 -0.29361499095E+02  0.73523941746E+02 -0.25425761684E+02  0.12340792272E+03  0.91187600000E+02 0.  0.
<mgrwt>
<rscale>  0 0.46833363E+04</rscale>
<asrwt>0</asrwt>
<pdfrwt beam="1">  1        1 0.29174913E+00 0.46833363E+04</pdfrwt>
<pdfrwt beam="2">  1       -1 0.44485083E+00 0.46833363E+04</pdfrwt>
<totfact> 0.91206133E-03</totfact>
</mgrwt>
</event>
<event>
13    1  0.3081398E-012  0.4437683E+04  0.7818608E-02  0.7921638E-01
          2   -1    0    0  501    0  0.00000000000E+00  0.00000000000E+00  0.16742652316E+04  0.16742652316E+04  0.00000000000E+00 0. -1.
         -2   -1    0    0    0  501 -0.00000000000E+00 -0.00000000000E+00 -0.29405480674E+04  0.29405480674E+04  0.00000000000E+00 0.  1.
    9900016    2    1    2    0    0 -0.92298625481E+03 -0.53235018563E+03 -0.11678522488E+04  0.24382826214E+04  0.18563520464E+04 0.  0.
        -24    2    3    3    0    0  0.58838968289E+02 -0.52497180239E+03  0.34405986125E+03  0.63553099189E+03  0.80405447809E+02 0.  0.
    9900016    2    1    2    0    0  0.92298625481E+03  0.53235018563E+03 -0.98430586987E+02  0.21765306776E+04  0.18953355543E+04 0.  0.
         23    2    5    5    0    0 -0.96957828712E+02 -0.16329907413E+03 -0.72740769865E+03  0.75559660200E+03  0.75742040743E+02 0.  0.
        -15    1    6    6    0    0 -0.39519097406E+01 -0.68923544540E+02 -0.19192316020E+03  0.20396218277E+03  0.00000000000E+00 0. -1.
        -15    1    3    3    0    0 -0.98182522310E+03 -0.73783832419E+01 -0.15119121100E+04  0.18027516295E+04  0.00000000000E+00 0.  1.
         15    1    4    4    0    0  0.72737889147E+02 -0.30212212530E+03  0.18957692343E+03  0.36401646805E+03  0.00000000000E+00 0. -1.
         15    1    6    6    0    0 -0.93005918972E+02 -0.94375529590E+02 -0.53548453845E+03  0.55163441922E+03  0.00000000000E+00 0.  1.
        -16    1    4    4    0    0 -0.13898920858E+02 -0.22284967709E+03  0.15448293782E+03  0.27151452385E+03  0.00000000000E+00 0.  1.
         16    1    5    5    0    0  0.93157692818E+03  0.64720555306E+03  0.59469297980E+03  0.12807694333E+04  0.00000000000E+00 0. -1.
    9900018    1    5    5    0    0  0.88367155343E+02  0.48443706697E+02  0.34284131862E+02  0.14016464231E+03  0.91187600000E+02 0.  0.
<mgrwt>
<rscale>  0 0.44376829E+04</rscale>
<asrwt>0</asrwt>
<pdfrwt beam="1">  1        2 0.25757927E+00 0.44376829E+04</pdfrwt>
<pdfrwt beam="2">  1       -2 0.45239201E+00 0.44376829E+04</pdfrwt>
<totfact> 0.25865292E-02</totfact>
</mgrwt>
</event>
<event>
13    1  0.3663377E-012  0.4943248E+04  0.7818608E-02  0.7837322E-01
          1   -1    0    0  501    0  0.00000000000E+00  0.00000000000E+00  0.29485870127E+04  0.29485870127E+04  0.00000000000E+00 0. -1.
         -1   -1    0    0    0  501 -0.00000000000E+00 -0.00000000000E+00 -0.20718146903E+04  0.20718146903E+04  0.00000000000E+00 0.  1.
    9900016    2    1    2    0    0  0.58370334268E+03  0.23857439430E+02 -0.10921448429E+04  0.22239413228E+04  0.18471209705E+04 0.  0.
        -24    2    3    3    0    0  0.30466297358E+03  0.40376368765E+03  0.40584791721E+03  0.65353545350E+03  0.80940806425E+02 0.  0.
    9900016    2    1    2    0    0 -0.58370334268E+03 -0.23857439430E+02  0.19689171653E+04  0.27964603801E+04  0.18979665656E+04 0.  0.
         23    2    5    5    0    0  0.85562447700E+02  0.68152560754E+02 -0.33244568018E+03  0.36637232285E+03  0.10836440689E+03 0.  0.
        -15    1    3    3    0    0  0.27904036910E+03 -0.37990624822E+03 -0.14979927601E+04  0.15704058693E+04  0.00000000000E+00 0.  1.
        -15    1    6    6    0    0  0.30701995114E+02  0.86371784018E+02 -0.15880563614E+03  0.18336283061E+03  0.00000000000E+00 0. -1.
         15    1    4    4    0    0  0.21132896966E+03  0.22519759732E+03  0.21755952281E+03  0.37776452616E+03  0.00000000000E+00 0. -1.
         15    1    6    6    0    0  0.54860452586E+02 -0.18219223264E+02 -0.17364004404E+03  0.18300949224E+03  0.00000000000E+00 0.  1.
        -16    1    4    4    0    0  0.93334003918E+02  0.17856609033E+03  0.18828839440E+03  0.27577092734E+03  0.00000000000E+00 0.  1.
         16    1    5    5    0    0 -0.61515196794E+03 -0.31492337580E+02  0.21451107358E+04  0.22317938480E+04  0.00000000000E+00 0. -1.
    9900018    1    5    5    0    0 -0.54113822438E+02 -0.60517662604E+02  0.15625210970E+03  0.19829420931E+03  0.91187600000E+02 0.  0.
<mgrwt>
<rscale>  0 0.49432483E+04</rscale>
<asrwt>0</asrwt>
<pdfrwt beam="1">  1        1 0.45362877E+00 0.49432483E+04</pdfrwt>
<pdfrwt beam="2">  1       -1 0.31874072E+00 0.49432483E+04</pdfrwt>
<totfact> 0.11784952E-02</totfact>
</mgrwt>
</event>
<event>
13    1  0.3081398E-012  0.4770446E+04  0.7818608E-02  0.7864928E-01
          2   -1    0    0  501    0  0.00000000000E+00  0.00000000000E+00  0.15093881417E+04  0.15093881417E+04  0.00000000000E+00 0. -1.
         -2   -1    0    0    0  501 -0.00000000000E+00 -0.00000000000E+00 -0.37692675461E+04  0.37692675461E+04  0.00000000000E+00 0.  1.
    9900016    2    1    2    0    0 -0.12380794150E+04  0.18904291302E+03 -0.19979191014E+04  0.29925461076E+04  0.18425725520E+04 0.  0.
        -24    2    3    3    0    0 -0.25172375364E+03 -0.65445633412E+03 -0.12939402334E+03  0.71751326428E+03  0.80028305792E+02 0.  0.
    9900016    2    1    2    0    0  0.12380794150E+04 -0.18904291302E+03 -0.26196030303E+03  0.22861095802E+04  0.18944909478E+04 0.  0.
         23    2    5    5    0    0 -0.20883958865E+03 -0.39105811684E+03 -0.56548735087E+03  0.72807160083E+03  0.11735368513E+03 0.  0.
        -15    1    3    3    0    0 -0.98635566140E+03  0.84349924714E+03 -0.18685250781E+04  0.22750328433E+04  0.00000000000E+00 0.  1.
        -15    1    6    6    0    0 -0.18687215362E+03 -0.24844849715E+03 -0.34331697191E+03  0.46315699361E+03  0.00000000000E+00 0. -1.
         15    1    6    6    0    0 -0.21967435033E+02 -0.14260961969E+03 -0.22217037896E+03  0.26491460722E+03  0.00000000000E+00 0.  1.
         15    1    4    4    0    0 -0.14796086805E+03 -0.46753821071E+03 -0.67994700681E+02  0.49508350434E+03  0.00000000000E+00 0. -1.
        -16    1    4    4    0    0 -0.10376288559E+03 -0.18691812341E+03 -0.61399322656E+02  0.22242975995E+03  0.00000000000E+00 0.  1.
         16    1    5    5    0    0  0.13605859378E+04  0.26230272334E+03  0.30466534651E+03  0.14187380964E+04  0.00000000000E+00 0. -1.
    9900018    1    5    5    0    0  0.86333065893E+02 -0.60287519522E+02 -0.11382986710E+01  0.13929988297E+03  0.91187600000E+02 0.  0.
<mgrwt>
<rscale>  0 0.47704456E+04</rscale>
<asrwt>0</asrwt>
<pdfrwt beam="1">  1        2 0.23221356E+00 0.47704456E+04</pdfrwt>
<pdfrwt beam="2">  1       -2 0.57988731E+00 0.47704456E+04</pdfrwt>
<totfact> 0.57669920E-03</totfact>
</mgrwt>
</event>
<event>
13    1  0.3081398E-012  0.4936243E+04  0.7818608E-02  0.7838418E-01
         -1   -1    0    0    0  501 -0.00000000000E+00  0.00000000000E+00  0.31463641418E+04  0.31463641418E+04  0.00000000000E+00 0.  1.
          1   -1    0    0  501    0  0.00000000000E+00 -0.00000000000E+00 -0.19360836241E+04  0.19360836241E+04  0.00000000000E+00 0. -1.
    9900016    2    1    2    0    0 -0.12157034803E+04 -0.64730614247E+03 -0.25838548679E+03  0.23162695585E+04  0.18442888639E+04 0.  0.
         24    2    3    3    0    0 -0.24403328106E+03 -0.11382960484E+04 -0.36359906280E+03  0.12225218909E+04  0.84174575200E+02 0.  0.
    9900016    2    1    2    0    0  0.12157034803E+04  0.64730614247E+03  0.14686660045E+04  0.27661782074E+04  0.18967925158E+04 0.  0.
         23    2    5    5    0    0  0.21758430324E+02 -0.22798818655E+03 -0.31603671069E+03  0.40436259781E+03  0.10572542505E+03 0.  0.
        -15    1    6    6    0    0  0.34158342594E+02 -0.42567913397E+02 -0.13192138496E+03  0.14276579223E+03  0.00000000000E+00 0. -1.
        -15    1    4    4    0    0 -0.21271434380E+03 -0.92391049200E+03 -0.32637898469E+03  0.10026870055E+04  0.00000000000E+00 0.  1.
         15    1    3    3    0    0 -0.97167019928E+03  0.49098990592E+03  0.10521357601E+03  0.10937476676E+04  0.00000000000E+00 0. -1.
         15    1    6    6    0    0 -0.12399912271E+02 -0.18542027315E+03 -0.18411532573E+03  0.26159680558E+03  0.00000000000E+00 0.  1.
        -16    1    5    5    0    0  0.11388927054E+04  0.88124602240E+03  0.16511147583E+04  0.21908562462E+04  0.00000000000E+00 0.  1.
         16    1    4    4    0    0 -0.31318937265E+02 -0.21438555639E+03 -0.37220078111E+02  0.21983488539E+03  0.00000000000E+00 0. -1.
    9900018    1    5    5    0    0  0.55052344645E+02 -0.59516933767E+01  0.13358795687E+03  0.17095936336E+03  0.91187600000E+02 0.  0.
<mgrwt>
<rscale>  0 0.49362431E+04</rscale>
<asrwt>0</asrwt>
<pdfrwt beam="1">  1        1 0.29785902E+00 0.49362431E+04</pdfrwt>
<pdfrwt beam="2">  1       -1 0.48405602E+00 0.49362431E+04</pdfrwt>
<totfact> 0.45527730E-03</totfact>
</mgrwt>
</event>
