<event>
11    1  0.2069685E-009  0.2595186E+04  0.7818608E-02  0.8369838E-01
         -2   -1    0    0    0  501 -0.00000000000E+00  0.00000000000E+00  0.10426057763E+04  0.10426057763E+04  0.00000000000E+00 0.  1.
          2   -1    0    0  501    0  0.00000000000E+00 -0.00000000000E+00 -0.16149419866E+04  0.16149419866E+04  0.00000000000E+00 0. -1.
    9900016    2    1    2    0    0  0.26461657504E+03  0.20419310094E+03 -0.58953686257E+02  0.20449480809E+04  0.20165863141E+04 0.  0.
        -24    2    3    3    0    0 -0.19246727178E+03  0.14426776807E+03 -0.11167426907E+01  0.24816308671E+03  0.61047775375E+02 0.  0.
        -15    1    3    3    0    0  0.18272512467E+03  0.33709645984E+03  0.50988804809E+03  0.63797203387E+03  0.00000000000E+00 0.  1.
        -15    1    3    3    0    0  0.12970804378E+03 -0.43886132701E+03 -0.70548522606E+03  0.84091191283E+03  0.00000000000E+00 0.  1.
         15    1    4    4    0    0 -0.53561525844E+02  0.63673980037E+02  0.21618876991E+02  0.85968532771E+02  0.00000000000E+00 0. -1.
         15    1    3    3    0    0  0.45692821511E+02 -0.90634803402E+01  0.80624106102E+02  0.93114054247E+02  0.00000000000E+00 0. -1.
        -16    1    4    4    0    0 -0.13890574594E+03  0.80593788038E+02 -0.22735619682E+02  0.16219455394E+03  0.00000000000E+00 0.  1.
         16    1    1    2    0    0 -0.26461657504E+03 -0.20419310094E+03 -0.51338252413E+03  0.61259968196E+03  0.00000000000E+00 0. -1.
    9900018    1    3    3    0    0  0.98957856859E+02  0.17075368038E+03  0.57136128300E+02  0.22478699328E+03  0.91187600000E+02 0.  0.
<mgrwt>
<rscale>  0 0.25951862E+04</rscale>
<asrwt>0</asrwt>
<pdfrwt beam="1">  1        2 0.24845261E+00 0.25951862E+04</pdfrwt>
<pdfrwt beam="2">  1       -2 0.16040089E+00 0.25951862E+04</pdfrwt>
<totfact> 0.24222028E+00</totfact>
</mgrwt>
</event>
<event>
11    1  0.2069685E-009  0.2871199E+04  0.7818608E-02  0.8281499E-01
         -1   -1    0    0    0  501 -0.00000000000E+00  0.00000000000E+00  0.13803158904E+04  0.13803158904E+04  0.00000000000E+00 0.  1.
          1   -1    0    0  501    0  0.00000000000E+00 -0.00000000000E+00 -0.14930972851E+04  0.14930972851E+04  0.00000000000E+00 0. -1.
    9900016    2    1    2    0    0  0.10933053438E+03 -0.59956613501E+03 -0.47016703769E+03  0.21669025855E+04  0.20255806712E+04 0.  0.
         24    2    3    3    0    0  0.25238468688E+03 -0.17795901324E+03  0.97601906629E+02  0.32804112817E+03  0.52128773514E+02 0.  0.
        -15    1    4    4    0    0  0.13644911549E+03 -0.89770708733E+02  0.78210730031E+02  0.18109130171E+03  0.00000000000E+00 0.  1.
        -15    1    3    3    0    0  0.62333084405E+03 -0.31222016380E+03 -0.21567542041E+02  0.69748686776E+03  0.00000000000E+00 0.  1.
         15    1    3    3    0    0 -0.87335734278E+02 -0.62441219261E+02  0.98382430382E+02  0.14562121738E+03  0.00000000000E+00 0. -1.
         15    1    3    3    0    0 -0.13439744064E+03 -0.14106409788E+03 -0.21234343085E+03  0.28818654443E+03  0.00000000000E+00 0. -1.
        -16    1    1    2    0    0 -0.10933053438E+03  0.59956613501E+03  0.35738564303E+03  0.70651059004E+03  0.00000000000E+00 0.  1.
         16    1    4    4    0    0  0.11593557139E+03 -0.88188304510E+02  0.19391176598E+02  0.14694982646E+03  0.00000000000E+00 0. -1.
    9900018    1    3    3    0    0 -0.54465182164E+03  0.94118359179E+02 -0.43224040181E+03  0.70756682773E+03  0.91187600000E+02 0.  0.
<mgrwt>
<rscale>  0 0.28711990E+04</rscale>
<asrwt>0</asrwt>
<pdfrwt beam="1">  1        1 0.22970727E+00 0.28711990E+04</pdfrwt>
<pdfrwt beam="2">  1       -1 0.21235629E+00 0.28711990E+04</pdfrwt>
<totfact> 0.70526065E-01</totfact>
</mgrwt>
</event>
<event>
11    1  0.2069685E-009  0.2812469E+04  0.7818608E-02  0.8299408E-01
          2   -1    0    0  501    0  0.00000000000E+00  0.00000000000E+00  0.15351829024E+04  0.15351829024E+04  0.00000000000E+00 0. -1.
         -2   -1    0    0    0  501 -0.00000000000E+00 -0.00000000000E+00 -0.12881169716E+04  0.12881169716E+04  0.00000000000E+00 0.  1.
    9900016    2    1    2    0    0 -0.30578939985E+03  0.60281675141E+03  0.25724253204E+03  0.21472830428E+04  0.20218198616E+04 0.  0.
        -24    2    3    3    0    0 -0.37725080861E+03 -0.46124431994E+00  0.15490390786E+03  0.41203967115E+03  0.58847978614E+02 0.  0.
        -15    1    3    3    0    0  0.48504991870E+03  0.45744760771E+02  0.49194759673E+03  0.69237160882E+03  0.00000000000E+00 0.  1.
        -15    1    3    3    0    0 -0.32751484600E+03  0.61863513442E+02 -0.43275307616E+02  0.33610388408E+03  0.00000000000E+00 0.  1.
         15    1    3    3    0    0 -0.19710586031E+03  0.38996951865E+03 -0.26182573256E+03  0.50939146035E+03  0.00000000000E+00 0. -1.
         15    1    4    4    0    0 -0.35710668645E+03 -0.13083437131E+02  0.13894929687E+03  0.38341005325E+03  0.00000000000E+00 0. -1.
        -16    1    4    4    0    0 -0.20144122156E+02  0.12622192811E+02  0.15954610994E+02  0.28629617894E+02  0.00000000000E+00 0.  1.
         16    1    1    2    0    0  0.30578939985E+03 -0.60281675141E+03 -0.10176601237E+02  0.67601683119E+03  0.00000000000E+00 0. -1.
    9900018    1    3    3    0    0  0.11103219637E+03  0.10570020286E+03 -0.84507932376E+02  0.19737641841E+03  0.91187600000E+02 0.  0.
<mgrwt>
<rscale>  0 0.28124688E+04</rscale>
<asrwt>0</asrwt>
<pdfrwt beam="1">  1        2 0.23618198E+00 0.28124688E+04</pdfrwt>
<pdfrwt beam="2">  1       -2 0.19817184E+00 0.28124688E+04</pdfrwt>
<totfact> 0.14415802E+00</totfact>
</mgrwt>
</event>
<event>
11    1  0.2069685E-009  0.2842991E+04  0.7818608E-02  0.8290044E-01
         -1   -1    0    0    0  501 -0.00000000000E+00  0.00000000000E+00  0.23481163524E+04  0.23481163524E+04  0.00000000000E+00 0.  1.
          1   -1    0    0  501    0  0.00000000000E+00 -0.00000000000E+00 -0.86054082854E+03  0.86054082854E+03  0.00000000000E+00 0. -1.
    9900016    2    1    2    0    0  0.14886428470E+03  0.19621856110E+03  0.41834825005E+03  0.21114291909E+04  0.20548614725E+04 0.  0.
         24    2    3    3    0    0 -0.56119133330E+02  0.16037180686E+03 -0.27950366861E+03  0.33954186089E+03  0.91092815119E+02 0.  0.
        -15    1    4    4    0    0 -0.44144110561E+02  0.61109700249E+02 -0.19347464430E+03  0.20764280857E+03  0.00000000000E+00 0.  1.
        -15    1    3    3    0    0 -0.14446521941E+03 -0.13900310662E+03  0.18711583656E+03  0.27423420567E+03  0.00000000000E+00 0.  1.
         15    1    3    3    0    0 -0.16210207330E+03 -0.33217682864E+03 -0.26408436033E+02  0.37056164554E+03  0.00000000000E+00 0. -1.
         15    1    3    3    0    0 -0.52531510852E+02  0.19768850086E+03  0.41956946528E+03  0.46677493420E+03  0.00000000000E+00 0. -1.
        -16    1    1    2    0    0 -0.14886428470E+03 -0.19621856110E+03  0.10692272738E+04  0.10972279900E+04  0.00000000000E+00 0.  1.
         16    1    4    4    0    0 -0.11975022769E+02  0.99262106613E+02 -0.86029024309E+02  0.13189905232E+03  0.00000000000E+00 0. -1.
    9900018    1    3    3    0    0  0.56408222159E+03  0.30933818864E+03  0.11757505285E+03  0.66031654463E+03  0.91187600000E+02 0.  0.
<mgrwt>
<rscale>  0 0.28429914E+04</rscale>
<asrwt>0</asrwt>
<pdfrwt beam="1">  1        1 0.13239090E+00 0.28429914E+04</pdfrwt>
<pdfrwt beam="2">  1       -1 0.36124867E+00 0.28429914E+04</pdfrwt>
<totfact> 0.22129143E-01</totfact>
</mgrwt>
</event>
<event>
11    1  0.2069685E-009  0.3287260E+04  0.7818608E-02  0.8166145E-01
         -1   -1    0    0    0  501 -0.00000000000E+00  0.00000000000E+00  0.77638065976E+03  0.77638065976E+03  0.00000000000E+00 0.  1.
          1   -1    0    0  501    0  0.00000000000E+00 -0.00000000000E+00 -0.34796325715E+04  0.34796325715E+04  0.00000000000E+00 0. -1.
    9900016    2    1    2    0    0 -0.47395709507E+02  0.98551103652E+03 -0.15232819928E+04  0.27178951064E+04  0.20231380139E+04 0.  0.
         24    2    3    3    0    0 -0.35052102449E+03  0.12067161967E+03 -0.91964648274E+03  0.99392681425E+03  0.68660253821E+02 0.  0.
        -15    1    4    4    0    0 -0.20821847051E+03  0.35806108255E+02 -0.50706408167E+03  0.54931866141E+03  0.00000000000E+00 0.  1.
        -15    1    3    3    0    0 -0.57601416933E+02 -0.33181357717E+02  0.12392671881E+03  0.14062985945E+03  0.00000000000E+00 0.  1.
         15    1    3    3    0    0 -0.22422160582E+03  0.28948372276E+03 -0.21214889206E+03  0.42318235628E+03  0.00000000000E+00 0. -1.
         15    1    3    3    0    0  0.68509240225E+03  0.48077105010E+03 -0.33691324925E+03  0.90222111467E+03  0.00000000000E+00 0. -1.
        -16    1    1    2    0    0  0.47395709507E+02 -0.98551103652E+03 -0.11799699190E+04  0.15381181249E+04  0.00000000000E+00 0.  1.
         16    1    4    4    0    0 -0.14230255398E+03  0.84865511414E+02 -0.41258240107E+03  0.44460815284E+03  0.00000000000E+00 0. -1.
    9900018    1    3    3    0    0 -0.10014406452E+03  0.12776600171E+03 -0.17850008754E+03  0.25793496176E+03  0.91187600000E+02 0.  0.
<mgrwt>
<rscale>  0 0.32872599E+04</rscale>
<asrwt>0</asrwt>
<pdfrwt beam="1">  1        1 0.53532808E+00 0.32872599E+04</pdfrwt>
<pdfrwt beam="2">  1       -1 0.11944318E+00 0.32872599E+04</pdfrwt>
<totfact> 0.13466490E-01</totfact>
</mgrwt>
</event>
<event>
11    1  0.2069685E-009  0.2301086E+04  0.7818608E-02  0.8477493E-01
          1   -1    0    0  501    0  0.00000000000E+00  0.00000000000E+00  0.57902234699E+03  0.57902234699E+03  0.00000000000E+00 0. -1.
         -1   -1    0    0    0  501 -0.00000000000E+00 -0.00000000000E+00 -0.22861793191E+04  0.22861793191E+04  0.00000000000E+00 0.  1.
    9900016    2    1    2    0    0  0.23154852702E+03 -0.69487766288E+02 -0.14301246812E+04  0.24975195205E+04  0.20332004036E+04 0.  0.
        -24    2    3    3    0    0  0.82136600475E+02 -0.40486669207E+03  0.18886315832E+03  0.45703091111E+03  0.50443053529E+02 0.  0.
        -15    1    3    3    0    0 -0.73009964753E+02 -0.22283774986E+03 -0.50643623160E+03  0.55809029233E+03  0.00000000000E+00 0.  1.
        -15    1    3    3    0    0  0.16754065471E+02  0.11781001078E+03 -0.52567463364E+03  0.53897469124E+03  0.00000000000E+00 0.  1.
         15    1    3    3    0    0  0.82344042165E+02  0.46958954353E+02 -0.50431046402E+03  0.51314201620E+03  0.00000000000E+00 0. -1.
         15    1    4    4    0    0  0.46313407720E+02 -0.31185347880E+03  0.15825655933E+03  0.35276431586E+03  0.00000000000E+00 0. -1.
        -16    1    4    4    0    0  0.35823192755E+02 -0.93013213272E+02  0.30606598993E+02  0.10426659525E+03  0.00000000000E+00 0.  1.
         16    1    1    2    0    0 -0.23154852702E+03  0.69487766288E+02 -0.27703229091E+03  0.36768214566E+03  0.00000000000E+00 0. -1.
    9900018    1    3    3    0    0  0.12332378366E+03  0.39344771052E+03 -0.82566510294E+02  0.43028160958E+03  0.91187600000E+02 0.  0.
<mgrwt>
<rscale>  0 0.23010858E+04</rscale>
<asrwt>0</asrwt>
<pdfrwt beam="1">  1        1 0.89080360E-01 0.23010858E+04</pdfrwt>
<pdfrwt beam="2">  1       -1 0.35171990E+00 0.23010858E+04</pdfrwt>
<totfact> 0.49346534E-01</totfact>
</mgrwt>
</event>
<event>
10    1  0.2069685E-009  0.2705878E+04  0.7818608E-02  0.8333100E-01
          2   -1    0    0  501    0  0.00000000000E+00  0.00000000000E+00  0.96818261838E+03  0.96818261838E+03  0.00000000000E+00 0. -1.
         -2   -1    0    0    0  501 -0.00000000000E+00 -0.00000000000E+00 -0.18905982062E+04  0.18905982062E+04  0.00000000000E+00 0.  1.
    9900016    2    1    2    0    0  0.32523331427E+03 -0.27017315332E+02 -0.19090945241E+03  0.20577765361E+04  0.20227434858E+04 0.  0.
        -15    1    3    3    0    0 -0.90331393848E+02  0.14372139350E+03 -0.86346790511E+02  0.19045043423E+03  0.00000000000E+00 0.  1.
        -15    1    3    3    0    0  0.10209910079E+03 -0.25445657541E+02  0.94317332293E+01  0.10564405076E+03  0.00000000000E+00 0.  1.
         15    1    3    3    0    0 -0.15771972266E+03 -0.37335627853E+03 -0.37420370689E+03  0.55163288144E+03  0.00000000000E+00 0. -1.
         15    1    3    3    0    0  0.12252424077E+03  0.27370311486E+03  0.52584218413E+02  0.30445144881E+03  0.00000000000E+00 0. -1.
        -16    1    1    2    0    0 -0.32523331427E+03  0.27017315332E+02 -0.73150613538E+03  0.80100428847E+03  0.00000000000E+00 0.  1.
         16    1    3    3    0    0  0.38093222209E+03 -0.30485191254E+03 -0.93382899830E+02  0.49675387506E+03  0.00000000000E+00 0. -1.
    9900018    1    3    3    0    0 -0.32271132868E+02  0.25921202492E+03  0.30100799318E+03  0.40884384578E+03  0.91187600000E+02 0.  0.
<mgrwt>
<rscale>  0 0.27058783E+04</rscale>
<asrwt>0</asrwt>
<pdfrwt beam="1">  1        2 0.14895117E+00 0.27058783E+04</pdfrwt>
<pdfrwt beam="2">  1       -2 0.29086126E+00 0.27058783E+04</pdfrwt>
<totfact> 0.83727766E-01</totfact>
</mgrwt>
</event>
