<event>
11    1  0.6481576E-011  0.3902008E+04  0.7818608E-02  0.8024612E-01
         -1   -1    0    0    0  501 -0.00000000000E+00  0.00000000000E+00  0.11517284349E+04  0.11517284349E+04  0.00000000000E+00 0.  1.
          1   -1    0    0  501    0  0.00000000000E+00 -0.00000000000E+00 -0.33049604514E+04  0.33049604514E+04  0.00000000000E+00 0. -1.
    9900016    2    1    2    0    0 -0.90595031270E+03  0.34355049592E+03 -0.74057177184E+03  0.25153637791E+04  0.21999626087E+04 0.  0.
        -24    2    3    3    0    0  0.99351555560E+02  0.23289242392E+03  0.63926063688E+03  0.69444413093E+03  0.97410863944E+02 0.  0.
        -15    1    3    3    0    0 -0.77549901444E+02  0.53444602867E+02 -0.16158676479E+03  0.18703100103E+03  0.00000000000E+00 0. -1.
        -15    1    3    3    0    0 -0.87576170852E+03 -0.13818416240E+03 -0.99161212736E+03  0.13301684269E+04  0.00000000000E+00 0.  1.
         15    1    4    4    0    0  0.90814961101E+02  0.90245082141E+02  0.28431366890E+03  0.31181051030E+03  0.00000000000E+00 0. -1.
         15    1    3    3    0    0 -0.51990258296E+02  0.19539763153E+03 -0.22663351658E+03  0.30372022027E+03  0.00000000000E+00 0.  1.
        -16    1    4    4    0    0  0.85365944588E+01  0.14264734178E+03  0.35494696798E+03  0.38263362063E+03  0.00000000000E+00 0.  1.
         16    1    1    2    0    0  0.16456655657E+03  0.23556802190E+03 -0.70278923516E+03  0.75926751119E+03  0.00000000000E+00 0. -1.
    9900018    1    1    2    0    0  0.74138375613E+03 -0.57911851782E+03 -0.70987100948E+03  0.11820575959E+04  0.91187600000E+02 0.  0.
<mgrwt>
<rscale>  0 0.39020082E+04</rscale>
<asrwt>0</asrwt>
<pdfrwt beam="1">  1        1 0.50845545E+00 0.39020082E+04</pdfrwt>
<pdfrwt beam="2">  1       -1 0.17718899E+00 0.39020082E+04</pdfrwt>
<totfact> 0.60835940E-02</totfact>
</mgrwt>
</event>
<event>
11    1  0.6481576E-011  0.3119475E+04  0.7818608E-02  0.8210413E-01
         -1   -1    0    0    0  501 -0.00000000000E+00  0.00000000000E+00  0.10111344250E+04  0.10111344250E+04  0.00000000000E+00 0.  1.
          1   -1    0    0  501    0  0.00000000000E+00 -0.00000000000E+00 -0.24059919970E+04  0.24059919970E+04  0.00000000000E+00 0. -1.
    9900016    2    1    2    0    0 -0.53416060245E+02 -0.15097898483E+03 -0.10491795845E+04  0.24402277306E+04  0.21973360343E+04 0.  0.
        -24    2    3    3    0    0 -0.44949348714E+03  0.72623026537E+03 -0.98275526687E+03  0.13057045725E+04  0.97988380590E+02 0.  0.
        -15    1    3    3    0    0 -0.11589850882E+03 -0.10802722171E+03  0.58940997061E+01  0.15854679242E+03  0.00000000000E+00 0. -1.
        -15    1    3    3    0    0  0.52163768528E+03 -0.59277011868E+03 -0.10417396763E+03  0.79645119363E+03  0.00000000000E+00 0.  1.
         15    1    4    4    0    0 -0.15551377230E+03  0.22780076647E+03 -0.38638999900E+03  0.47473672062E+03  0.00000000000E+00 0. -1.
         15    1    3    3    0    0 -0.96617495648E+01 -0.17641190981E+03  0.31855550332E+02  0.17952517209E+03  0.00000000000E+00 0.  1.
        -16    1    4    4    0    0 -0.29397971483E+03  0.49842949891E+03 -0.59636526787E+03  0.83096785187E+03  0.00000000000E+00 0.  1.
         16    1    1    2    0    0 -0.11379857465E+03 -0.18783332137E+02 -0.60335464023E+03  0.61427986378E+03  0.00000000000E+00 0. -1.
    9900018    1    1    2    0    0  0.16721463489E+03  0.16976231697E+03  0.25767665272E+03  0.36261882761E+03  0.91187600000E+02 0.  0.
<mgrwt>
<rscale>  0 0.31194752E+04</rscale>
<asrwt>0</asrwt>
<pdfrwt beam="1">  1        1 0.37015261E+00 0.31194752E+04</pdfrwt>
<pdfrwt beam="2">  1       -1 0.15555914E+00 0.31194752E+04</pdfrwt>
<totfact> 0.41877611E-01</totfact>
</mgrwt>
</event>
<event>
11    1  0.6481576E-011  0.3425589E+04  0.7818608E-02  0.8131654E-01
          2   -1    0    0  501    0  0.00000000000E+00  0.00000000000E+00  0.31964441247E+04  0.31964441247E+04  0.00000000000E+00 0. -1.
         -2   -1    0    0    0  501 -0.00000000000E+00 -0.00000000000E+00 -0.91779043723E+03  0.91779043723E+03  0.00000000000E+00 0.  1.
    9900016    2    1    2    0    0  0.35749462815E+03 -0.25999667415E+03  0.18078199947E+04  0.28846777528E+04  0.22040308357E+04 0.  0.
         24    2    3    3    0    0  0.14480833601E+03 -0.51605907691E+02 -0.20557705976E+03  0.27301043462E+03  0.92952385790E+02 0.  0.
        -15    1    3    3    0    0  0.81026429711E+03  0.61246419630E+02  0.70128225399E+03  0.10733481052E+04  0.00000000000E+00 0.  1.
        -15    1    4    4    0    0  0.34987625222E+02 -0.40719437547E+02 -0.20378508652E+02  0.57423776676E+02  0.00000000000E+00 0.  1.
         15    1    3    3    0    0  0.61430006722E+02  0.37583359030E+02  0.79814148027E+02  0.10750094338E+03  0.00000000000E+00 0. -1.
         15    1    3    3    0    0 -0.65900801169E+03 -0.30722054512E+03  0.12323006524E+04  0.14308182696E+04  0.00000000000E+00 0. -1.
        -16    1    1    2    0    0 -0.42671553340E+03 -0.36350371971E+01 -0.22087943797E+03  0.48050711343E+03  0.00000000000E+00 0.  1.
         16    1    4    4    0    0  0.10982071079E+03 -0.10886470144E+02 -0.18519855111E+03  0.21558665794E+03  0.00000000000E+00 0. -1.
    9900018    1    1    2    0    0  0.69220905243E+02  0.26363171135E+03  0.69171313077E+03  0.74904969570E+03  0.91187600000E+02 0.  0.
<mgrwt>
<rscale>  0 0.34255895E+04</rscale>
<asrwt>0</asrwt>
<pdfrwt beam="1">  1        2 0.49176063E+00 0.34255895E+04</pdfrwt>
<pdfrwt beam="2">  1       -2 0.14119853E+00 0.34255895E+04</pdfrwt>
<totfact> 0.37821482E-01</totfact>
</mgrwt>
</event>
<event>
11    1  0.6481576E-011  0.4018994E+04  0.7818608E-02  0.8000726E-01
         -2   -1    0    0    0  501 -0.00000000000E+00  0.00000000000E+00  0.13773172453E+04  0.13773172453E+04  0.00000000000E+00 0.  1.
          2   -1    0    0  501    0  0.00000000000E+00 -0.00000000000E+00 -0.29318433316E+04  0.29318433316E+04  0.00000000000E+00 0. -1.
    9900016    2    1    2    0    0 -0.17122590808E+03  0.92976924102E+03 -0.10362608845E+04  0.26077308241E+04  0.21983253347E+04 0.  0.
        -24    2    3    3    0    0  0.13159751359E+03  0.73310908770E+03 -0.15101511501E+04  0.16865225306E+04  0.95052143994E+02 0.  0.
        -15    1    3    3    0    0 -0.35825586389E+03 -0.41968984931E+02  0.54737553274E+03  0.65553690480E+03  0.00000000000E+00 0.  1.
        -15    1    3    3    0    0  0.10608443697E+01  0.68715880869E+02 -0.51587705157E+02  0.85931885803E+02  0.00000000000E+00 0. -1.
         15    1    4    4    0    0  0.11831242858E+03  0.39250795905E+03 -0.83476681265E+03  0.92999782805E+03  0.00000000000E+00 0. -1.
         15    1    3    3    0    0  0.54371597844E+02  0.16991325739E+03 -0.21897562000E+02  0.17973950292E+03  0.00000000000E+00 0.  1.
        -16    1    4    4    0    0  0.13285085005E+02  0.34060112865E+03 -0.67538433740E+03  0.75652470252E+03  0.00000000000E+00 0.  1.
         16    1    1    2    0    0  0.19631697912E+03 -0.96505743078E+03 -0.88316692592E+03  0.13228227470E+04  0.00000000000E+00 0. -1.
    9900018    1    1    2    0    0 -0.25091071035E+02  0.35288189764E+02  0.36490172407E+03  0.37860700575E+03  0.91187600000E+02 0.  0.
<mgrwt>
<rscale>  0 0.40189941E+04</rscale>
<asrwt>0</asrwt>
<pdfrwt beam="1">  1        2 0.45105282E+00 0.40189941E+04</pdfrwt>
<pdfrwt beam="2">  1       -2 0.21189496E+00 0.40189941E+04</pdfrwt>
<totfact> 0.16830930E-01</totfact>
</mgrwt>
</event>
<event>
11    1  0.6481576E-011  0.2750389E+04  0.7818608E-02  0.8318838E-01
         -2   -1    0    0    0  501 -0.00000000000E+00  0.00000000000E+00  0.15569627127E+04  0.15569627127E+04  0.00000000000E+00 0.  1.
          2   -1    0    0  501    0  0.00000000000E+00 -0.00000000000E+00 -0.12146469156E+04  0.12146469156E+04  0.00000000000E+00 0. -1.
    9900016    2    1    2    0    0  0.12801142390E+03 -0.88756041047E+02  0.62996520867E+03  0.22883366683E+04  0.21943937623E+04 0.  0.
         24    2    3    3    0    0  0.19527824443E+03 -0.94605890848E+03 -0.10568675510E+03  0.97409098162E+03  0.67249529437E+02 0.  0.
        -15    1    4    4    0    0  0.88471306377E+02 -0.39286179566E+03 -0.11540017781E+02  0.40286565323E+03  0.00000000000E+00 0.  1.
        -15    1    3    3    0    0 -0.24483394744E+02 -0.91448794153E+02  0.86997842799E+02  0.12857271570E+03  0.00000000000E+00 0.  1.
         15    1    3    3    0    0 -0.28403793291E+02  0.96799976854E+03  0.63497109652E+03  0.11580235839E+04  0.00000000000E+00 0. -1.
         15    1    3    3    0    0 -0.14379632493E+02 -0.19248106956E+02  0.13683024446E+02  0.27649387154E+02  0.00000000000E+00 0. -1.
        -16    1    1    2    0    0  0.16600827656E+02 -0.11789578353E+03 -0.72103069606E+02  0.13918999928E+03  0.00000000000E+00 0.  1.
         16    1    4    4    0    0  0.10680693805E+03 -0.55319711282E+03 -0.94146737317E+02  0.57122532839E+03  0.00000000000E+00 0. -1.
    9900018    1    1    2    0    0 -0.14461225155E+03  0.20665182458E+03 -0.21554634197E+03  0.34408296068E+03  0.91187600000E+02 0.  0.
<mgrwt>
<rscale>  0 0.27503890E+04</rscale>
<asrwt>0</asrwt>
<pdfrwt beam="1">  1        2 0.18686875E+00 0.27503890E+04</pdfrwt>
<pdfrwt beam="2">  1       -2 0.23953273E+00 0.27503890E+04</pdfrwt>
<totfact> 0.12094041E+00</totfact>
</mgrwt>
</event>
<event>
11    1  0.6481576E-011  0.3613214E+04  0.7818608E-02  0.8087471E-01
          2   -1    0    0  501    0  0.00000000000E+00  0.00000000000E+00  0.11501816238E+04  0.11501816238E+04  0.00000000000E+00 0. -1.
         -2   -1    0    0    0  501 -0.00000000000E+00 -0.00000000000E+00 -0.28376644218E+04  0.28376644218E+04  0.00000000000E+00 0.  1.
    9900016    2    1    2    0    0  0.11892475635E+03  0.74528151589E+03 -0.12156321047E+04  0.26238708521E+04  0.21993974627E+04 0.  0.
        -24    2    3    3    0    0 -0.44681473795E+02  0.12766031922E+04 -0.13311528797E+04  0.18471496112E+04  0.91003037068E+02 0.  0.
        -15    1    3    3    0    0  0.33886188999E+03 -0.39457466552E+03  0.29778896524E+02  0.52096384696E+03  0.00000000000E+00 0.  1.
        -15    1    3    3    0    0 -0.86015962091E+02 -0.13541119077E+02  0.46201458421E+02  0.98573233692E+02  0.00000000000E+00 0. -1.
         15    1    4    4    0    0  0.15761766227E+02  0.62917712409E+03 -0.61813573474E+03  0.88215875744E+03  0.00000000000E+00 0. -1.
         15    1    3    3    0    0 -0.89239697759E+02 -0.12320589167E+03  0.39540420137E+02  0.15718416022E+03  0.00000000000E+00 0.  1.
        -16    1    4    4    0    0 -0.60443240023E+02  0.64742606807E+03 -0.71301714499E+03  0.96499085381E+03  0.00000000000E+00 0.  1.
         16    1    1    2    0    0  0.31672860611E+03 -0.62712733930E+03  0.28897501104E+01  0.70257672910E+03  0.00000000000E+00 0. -1.
    9900018    1    1    2    0    0 -0.43565336245E+03 -0.11815417659E+03 -0.47474044343E+03  0.66139846438E+03  0.91187600000E+02 0.  0.
<mgrwt>
<rscale>  0 0.36132143E+04</rscale>
<asrwt>0</asrwt>
<pdfrwt beam="1">  1        2 0.17695102E+00 0.36132143E+04</pdfrwt>
<pdfrwt beam="2">  1       -2 0.43656375E+00 0.36132143E+04</pdfrwt>
<totfact> 0.70330540E-02</totfact>
</mgrwt>
</event>
