<event>
12    1  0.1363442E-008  0.4331280E+04  0.7818608E-02  0.7940859E-01
         -2   -1    0    0    0  501 -0.00000000000E+00  0.00000000000E+00  0.28492383547E+04  0.28492383547E+04  0.00000000000E+00 0.  1.
          2   -1    0    0  501    0  0.00000000000E+00 -0.00000000000E+00 -0.16460530448E+04  0.16460530448E+04  0.00000000000E+00 0. -1.
    9900016    2    1    2    0    0 -0.14128197739E+03 -0.11343550541E+04  0.19439089058E+04  0.31331631267E+04  0.21751338715E+04 0.  0.
        -24    2    3    3    0    0  0.50751260322E+03  0.73566575427E+02  0.55294962162E+03  0.75840156036E+03  0.80240633512E+02 0.  0.
         23    2    3    3    0    0  0.73825131006E+01 -0.78637075389E+02 -0.45917908774E+01  0.12100821418E+03  0.91562067644E+02 0.  0.
        -15    1    5    5    0    0  0.31635666540E+02 -0.31542257486E+02  0.33434677915E+02  0.55799705124E+02  0.00000000000E+00 0.  1.
        -15    1    3    3    0    0 -0.40518818892E+03  0.16220625712E+03  0.47724530753E+03  0.64672360545E+03  0.00000000000E+00 0.  1.
         15    1    5    5    0    0 -0.24253153439E+02 -0.47094817903E+02 -0.38026468792E+02  0.65208509060E+02  0.00000000000E+00 0. -1.
         15    1    4    4    0    0  0.38207470165E+03  0.89667773746E+02  0.42551132050E+03  0.57886204848E+03  0.00000000000E+00 0. -1.
        -16    1    4    4    0    0  0.12543790157E+03 -0.16101198319E+02  0.12743830111E+03  0.17953951188E+03  0.00000000000E+00 0.  1.
         16    1    1    2    0    0  0.14128197739E+03  0.11343550541E+04 -0.74072359587E+03  0.13621282727E+04  0.00000000000E+00 0. -1.
    9900018    1    3    3    0    0 -0.25098890479E+03 -0.12914908112E+04  0.91830576753E+03  0.16070297467E+04  0.91187600000E+02 0.  0.
<mgrwt>
<rscale>  0 0.43312804E+04</rscale>
<asrwt>0</asrwt>
<pdfrwt beam="1">  1        2 0.25323893E+00 0.43312804E+04</pdfrwt>
<pdfrwt beam="2">  1       -2 0.43834436E+00 0.43312804E+04</pdfrwt>
<totfact> 0.33483740E-02</totfact>
</mgrwt>
</event>
<event>
12    1  0.1363442E-008  0.3573268E+04  0.7818608E-02  0.8096643E-01
         -1   -1    0    0    0  501 -0.00000000000E+00  0.00000000000E+00  0.22006545550E+04  0.22006545550E+04  0.00000000000E+00 0.  1.
          1   -1    0    0  501    0  0.00000000000E+00 -0.00000000000E+00 -0.14505054167E+04  0.14505054167E+04  0.00000000000E+00 0. -1.
    9900016    2    1    2    0    0 -0.10104475159E+04 -0.36486947634E+03  0.74103444669E+03  0.25768150574E+04  0.22218708044E+04 0.  0.
        -24    2    3    3    0    0 -0.37854452591E+02  0.92476694172E+02  0.88153316082E+02  0.15520411228E+03  0.79576446170E+02 0.  0.
         23    2    3    3    0    0  0.42755347442E+03  0.16350765960E+02 -0.18672139565E+03  0.47554162435E+03  0.90584964888E+02 0.  0.
        -15    1    3    3    0    0 -0.66640171358E+03 -0.20682953214E+03 -0.11745025809E+03  0.70757632970E+03  0.00000000000E+00 0.  1.
        -15    1    5    5    0    0  0.22004924883E+03 -0.35133566624E+02 -0.10890137311E+03  0.24802328213E+03  0.00000000000E+00 0. -1.
         15    1    5    5    0    0  0.20750422559E+03  0.51484332584E+02 -0.77820022538E+02  0.22751834222E+03  0.00000000000E+00 0.  1.
         15    1    4    4    0    0 -0.22761492034E+02  0.17226921169E+02  0.71054338634E+02  0.76573960139E+02  0.00000000000E+00 0. -1.
        -16    1    4    4    0    0 -0.15092960557E+02  0.75249773002E+02  0.17098977448E+02  0.78630152137E+02  0.00000000000E+00 0.  1.
         16    1    1    2    0    0  0.10104475159E+04  0.36486947634E+03  0.91146915251E+01  0.10743449143E+04  0.00000000000E+00 0. -1.
    9900018    1    3    3    0    0 -0.73374482420E+03 -0.26686740433E+03  0.95705278434E+03  0.12384929911E+04  0.91187600000E+02 0.  0.
<mgrwt>
<rscale>  0 0.35732682E+04</rscale>
<asrwt>0</asrwt>
<pdfrwt beam="1">  1        1 0.22315468E+00 0.35732682E+04</pdfrwt>
<pdfrwt beam="2">  1       -1 0.33856224E+00 0.35732682E+04</pdfrwt>
<totfact> 0.10615381E-01</totfact>
</mgrwt>
</event>
<event>
12    1  0.1363442E-008  0.2698232E+04  0.7818608E-02  0.8335579E-01
          2   -1    0    0  501    0  0.00000000000E+00  0.00000000000E+00  0.22196128032E+04  0.22196128032E+04  0.00000000000E+00 0.  1.
         -2   -1    0    0    0  501 -0.00000000000E+00 -0.00000000000E+00 -0.82001428199E+03  0.82001428199E+03  0.00000000000E+00 0. -1.
    9900016    2    1    2    0    0  0.21946965865E+03  0.21138697912E+03  0.15378230815E+04  0.27050267040E+04  0.22044088218E+04 0.  0.
         24    2    3    3    0    0 -0.51890118640E+03  0.21540378538E+02  0.15221841096E+04  0.16102785095E+04  0.78930256705E+02 0.  0.
         23    2    3    3    0    0  0.18457423197E+03 -0.10793481123E+03 -0.49661274265E+02  0.23690089734E+03  0.89096702626E+02 0.  0.
        -15    1    4    4    0    0 -0.18330985179E+03  0.25192789597E+02  0.64746509466E+03  0.67338564524E+03  0.00000000000E+00 0.  1.
        -15    1    5    5    0    0  0.64735624237E+02  0.22859433652E-01  0.88144199696E+01  0.65332959273E+02  0.00000000000E+00 0.  1.
         15    1    3    3    0    0  0.39755334736E+03  0.32093348470E+03 -0.18912299335E+03  0.54480682101E+03  0.00000000000E+00 0. -1.
         15    1    5    5    0    0  0.11983860773E+03 -0.10795767066E+03 -0.58475694235E+02  0.17156793807E+03  0.00000000000E+00 0. -1.
        -16    1    1    2    0    0 -0.21946965865E+03 -0.21138697912E+03 -0.13822456026E+03  0.33460038116E+03  0.00000000000E+00 0.  1.
         16    1    4    4    0    0 -0.33559133460E+03 -0.36524110586E+01  0.87471901497E+03  0.93689286427E+03  0.00000000000E+00 0. -1.
    9900018    1    3    3    0    0  0.15624326572E+03 -0.23152072887E+02  0.25442323945E+03  0.31304047618E+03  0.91187600000E+02 0.  0.
<mgrwt>
<rscale>  0 0.26982322E+04</rscale>
<asrwt>0</asrwt>
<pdfrwt beam="1">  1        2 0.34147889E+00 0.26982322E+04</pdfrwt>
<pdfrwt beam="2">  1       -2 0.12615604E+00 0.26982322E+04</pdfrwt>
<totfact> 0.20692350E+00</totfact>
</mgrwt>
</event>
<event>
12    1  0.1363442E-008  0.3611362E+04  0.7818608E-02  0.8087894E-01
         -1   -1    0    0    0  501 -0.00000000000E+00  0.00000000000E+00  0.19925511949E+04  0.19925511949E+04  0.00000000000E+00 0.  1.
          1   -1    0    0  501    0  0.00000000000E+00 -0.00000000000E+00 -0.16363364607E+04  0.16363364607E+04  0.00000000000E+00 0. -1.
    9900016    2    1    2    0    0 -0.87111715776E+03 -0.67054034070E+03 -0.46616839228E+02  0.24581004300E+04  0.21980935247E+04 0.  0.
         24    2    3    3    0    0  0.54433321977E+03  0.98032993634E+02  0.10561717346E+03  0.56899677154E+03  0.81812081660E+02 0.  0.
         23    2    3    3    0    0 -0.81036429449E+01 -0.10445175803E+03  0.69753644652E+02  0.15589229690E+03  0.91983686082E+02 0.  0.
        -15    1    5    5    0    0 -0.33726654569E+01 -0.12135108964E+03  0.56506288032E+02  0.13390452724E+03  0.00000000000E+00 0.  1.
        -15    1    4    4    0    0  0.91557284586E+02  0.21844066123E+02 -0.12374117464E+02  0.94936917838E+02  0.00000000000E+00 0.  1.
         15    1    3    3    0    0 -0.12594702937E+04 -0.34706107080E+03  0.48132992312E+01  0.13064225869E+04  0.00000000000E+00 0. -1.
         15    1    5    5    0    0 -0.47309774880E+01  0.16899331611E+02  0.13247356620E+02  0.21987769653E+02  0.00000000000E+00 0. -1.
        -16    1    1    2    0    0  0.87111715776E+03  0.67054034070E+03  0.40283157340E+03  0.11707872256E+04  0.00000000000E+00 0.  1.
         16    1    4    4    0    0  0.45277593519E+03  0.76188927511E+02  0.11799129092E+03  0.47405985370E+03  0.00000000000E+00 0. -1.
    9900018    1    3    3    0    0 -0.14787644086E+03 -0.31706050551E+03 -0.22680095657E+03  0.42678877470E+03  0.91187600000E+02 0.  0.
<mgrwt>
<rscale>  0 0.36113622E+04</rscale>
<asrwt>0</asrwt>
<pdfrwt beam="1">  1        1 0.25174407E+00 0.36113622E+04</pdfrwt>
<pdfrwt beam="2">  1       -1 0.30654634E+00 0.36113622E+04</pdfrwt>
<totfact> 0.12750912E-01</totfact>
</mgrwt>
</event>
<event>
12    1  0.1363442E-008  0.3174780E+04  0.7818608E-02  0.8195510E-01
         -1   -1    0    0    0  501 -0.00000000000E+00  0.00000000000E+00  0.14937397268E+04  0.14937397268E+04  0.00000000000E+00 0.  1.
          1   -1    0    0  501    0  0.00000000000E+00 -0.00000000000E+00 -0.16869112506E+04  0.16869112506E+04  0.00000000000E+00 0. -1.
    9900016    2    1    2    0    0  0.62848451792E+03  0.46388398167E+03 -0.40448968222E+03  0.23714312904E+04  0.22022473350E+04 0.  0.
        -24    2    3    3    0    0 -0.84538176634E+02  0.14809165737E+03 -0.10482077967E+04  0.10649913232E+04  0.79931791610E+02 0.  0.
         23    2    3    3    0    0  0.42762133911E+03  0.42969411302E+03  0.44206974484E+03  0.75593844927E+03  0.92305142623E+02 0.  0.
        -15    1    5    5    0    0  0.36042423179E+03  0.35445472435E+03  0.32305913441E+03  0.59992581441E+03  0.00000000000E+00 0.  1.
        -15    1    3    3    0    0  0.20798926391E+03 -0.22188937734E+03  0.23694103528E+03  0.38553272738E+03  0.00000000000E+00 0.  1.
         15    1    5    5    0    0  0.67197107324E+02  0.75239388677E+02  0.11901061043E+03  0.15601263486E+03  0.00000000000E+00 0. -1.
         15    1    4    4    0    0 -0.62285881444E+02  0.40321693615E+02 -0.31821966582E+03  0.32675545246E+03  0.00000000000E+00 0. -1.
        -16    1    4    4    0    0 -0.22252295190E+02  0.10776996376E+03 -0.72998813085E+03  0.73823587078E+03  0.00000000000E+00 0.  1.
         16    1    1    2    0    0 -0.62848451792E+03 -0.46388398167E+03  0.21131815845E+03  0.80921968698E+03  0.00000000000E+00 0. -1.
    9900018    1    3    3    0    0  0.77412091538E+02  0.10798758861E+03 -0.35292665679E+02  0.16496879055E+03  0.91187600000E+02 0.  0.
<mgrwt>
<rscale>  0 0.31747796E+04</rscale>
<asrwt>0</asrwt>
<pdfrwt beam="1">  1        1 0.25952481E+00 0.31747796E+04</pdfrwt>
<pdfrwt beam="2">  1       -1 0.22980611E+00 0.31747796E+04</pdfrwt>
<totfact> 0.38620681E-01</totfact>
</mgrwt>
</event>
<event>
12    1  0.1363442E-008  0.3303945E+04  0.7818608E-02  0.8161892E-01
         -2   -1    0    0    0  501 -0.00000000000E+00  0.00000000000E+00  0.74929944517E+03  0.74929944517E+03  0.00000000000E+00 0.  1.
          2   -1    0    0  501    0  0.00000000000E+00 -0.00000000000E+00 -0.36420859342E+04  0.36420859342E+04  0.00000000000E+00 0. -1.
    9900016    2    1    2    0    0 -0.58980609366E+03 -0.37942279760E+03 -0.28785108541E+04  0.36899321157E+04  0.21995320851E+04 0.  0.
         24    2    3    3    0    0 -0.86030049800E+03  0.45313203622E+02 -0.18667680007E+04  0.20575285766E+04  0.80192528175E+02 0.  0.
         23    2    3    3    0    0  0.26174314647E+03  0.40450519983E+02 -0.37365232543E+03  0.46690856956E+03  0.90784540167E+02 0.  0.
        -15    1    4    4    0    0 -0.78065499249E+03  0.22950239228E+02 -0.16496081739E+04  0.18251454896E+04  0.00000000000E+00 0.  1.
        -15    1    5    5    0    0  0.34947768892E+02  0.80769161730E+01 -0.10221523142E+02  0.37296952432E+02  0.00000000000E+00 0.  1.
         15    1    5    5    0    0  0.22679537758E+03  0.32373603810E+02 -0.36343080229E+03  0.42961161712E+03  0.00000000000E+00 0. -1.
         15    1    3    3    0    0 -0.13178023558E+03 -0.56720110204E+03 -0.97490926107E+02  0.59041307685E+03  0.00000000000E+00 0. -1.
        -16    1    1    2    0    0  0.58980609366E+03  0.37942279760E+03 -0.14275634916E+02  0.70145326374E+03  0.00000000000E+00 0.  1.
         16    1    4    4    0    0 -0.79645505505E+02  0.22362964394E+02 -0.21715982686E+03  0.23238308700E+03  0.00000000000E+00 0. -1.
    9900018    1    3    3    0    0  0.14053149345E+03  0.10201458083E+03 -0.54059960187E+03  0.57508189268E+03  0.91187600000E+02 0.  0.
<mgrwt>
<rscale>  0 0.33039449E+04</rscale>
<asrwt>0</asrwt>
<pdfrwt beam="1">  1        2 0.56032091E+00 0.33039449E+04</pdfrwt>
<pdfrwt beam="2">  1       -2 0.11527684E+00 0.33039449E+04</pdfrwt>
<totfact> 0.31452157E-01</totfact>
</mgrwt>
</event>
<event>
12    1  0.1363442E-008  0.3396647E+04  0.7818608E-02  0.8138730E-01
         -2   -1    0    0    0  501 -0.00000000000E+00  0.00000000000E+00  0.16336305433E+04  0.16336305433E+04  0.00000000000E+00 0.  1.
          2   -1    0    0  501    0  0.00000000000E+00 -0.00000000000E+00 -0.17655781849E+04  0.17655781849E+04  0.00000000000E+00 0. -1.
    9900016    2    1    2    0    0 -0.43063974326E+03  0.22368163381E+03 -0.95956184822E+03  0.24398186424E+04  0.21900849311E+04 0.  0.
         24    2    3    3    0    0 -0.28987833221E+03  0.23422058092E+03  0.38115084816E+03  0.53903773276E+03  0.79981124446E+02 0.  0.
         23    2    3    3    0    0  0.17411921287E+03 -0.38083612793E+03 -0.36300312816E+03  0.56174010340E+03  0.91798780428E+02 0.  0.
        -15    1    5    5    0    0  0.26526802276E+01 -0.96333095011E+02 -0.87863799291E+02  0.13041146089E+03  0.00000000000E+00 0.  1.
        -15    1    4    4    0    0 -0.15022715343E+03  0.87205118011E+02  0.13419742671E+03  0.21950371197E+03  0.00000000000E+00 0.  1.
         15    1    3    3    0    0 -0.22860164560E+03  0.55859405956E+03 -0.92852634550E+03  0.11074507709E+04  0.00000000000E+00 0. -1.
         15    1    5    5    0    0  0.17146653264E+03 -0.28450303292E+03 -0.27513932887E+03  0.43132864251E+03  0.00000000000E+00 0. -1.
        -16    1    1    2    0    0  0.43063974326E+03 -0.22368163381E+03  0.82761420666E+03  0.95939008586E+03  0.00000000000E+00 0.  1.
         16    1    4    4    0    0 -0.13965117878E+03  0.14701546291E+03  0.24695342146E+03  0.31953402079E+03  0.00000000000E+00 0. -1.
    9900018    1    3    3    0    0 -0.86278978315E+02 -0.18829687874E+03 -0.49183222723E+02  0.23159003527E+03  0.91187600000E+02 0.  0.
<mgrwt>
<rscale>  0 0.33966468E+04</rscale>
<asrwt>0</asrwt>
<pdfrwt beam="1">  1        2 0.27162741E+00 0.33966468E+04</pdfrwt>
<pdfrwt beam="2">  1       -2 0.25132778E+00 0.33966468E+04</pdfrwt>
<totfact> 0.47124550E-01</totfact>
</mgrwt>
</event>
<event>
12    1  0.1363442E-008  0.2594554E+04  0.7818608E-02  0.8370053E-01
         -2   -1    0    0    0  501 -0.00000000000E+00  0.00000000000E+00  0.47762397237E+03  0.47762397237E+03  0.00000000000E+00 0. -1.
          2   -1    0    0  501    0  0.00000000000E+00 -0.00000000000E+00 -0.35235409742E+04  0.35235409742E+04  0.00000000000E+00 0.  1.
    9900016    2    1    2    0    0  0.23091969416E+03  0.22137693382E+03 -0.23492359121E+04  0.32345514894E+04  0.22002459669E+04 0.  0.
         24    2    3    3    0    0  0.16931413224E+03 -0.17494570725E+03 -0.17643582958E+03  0.31099907606E+03  0.79483001255E+02 0.  0.
         23    2    3    3    0    0  0.71303032671E+02 -0.29287988743E+03 -0.37890894218E+03  0.49226955928E+03  0.88851458043E+02 0.  0.
        -15    1    5    5    0    0  0.50939152849E+02 -0.16277316805E+03 -0.14511726969E+03  0.22393955321E+03  0.00000000000E+00 0.  1.
        -15    1    4    4    0    0  0.12814042857E+02  0.69929440183E+01 -0.19079636323E+02  0.24023602615E+02  0.00000000000E+00 0.  1.
         15    1    5    5    0    0  0.20363879822E+02 -0.13010671938E+03 -0.23379167249E+03  0.26833000607E+03  0.00000000000E+00 0. -1.
         15    1    3    3    0    0  0.28967011451E+03  0.90635493344E+03 -0.18155247328E+04  0.20497604972E+04  0.00000000000E+00 0. -1.
        -16    1    1    2    0    0 -0.23091969416E+03 -0.22137693382E+03 -0.69668108971E+03  0.76661345719E+03  0.00000000000E+00 0.  1.
         16    1    4    4    0    0  0.15650008939E+03 -0.18193865127E+03 -0.15735619326E+03  0.28697547345E+03  0.00000000000E+00 0. -1.
    9900018    1    3    3    0    0 -0.29936758527E+03 -0.21715240495E+03  0.21633592367E+02  0.38152235688E+03  0.91187600000E+02 0.  0.
<mgrwt>
<rscale>  0 0.25945540E+04</rscale>
<asrwt>0</asrwt>
<pdfrwt beam="1">  1        2 0.54208325E+00 0.25945540E+04</pdfrwt>
<pdfrwt beam="2">  1       -2 0.73480608E-01 0.25945540E+04</pdfrwt>
<totfact> 0.11580960E+00</totfact>
</mgrwt>
</event>
<event>
12    1  0.1363442E-008  0.2766223E+04  0.7818608E-02  0.8313832E-01
          1   -1    0    0  501    0  0.00000000000E+00  0.00000000000E+00  0.18697966615E+04  0.18697966615E+04  0.00000000000E+00 0. -1.
         -1   -1    0    0    0  501 -0.00000000000E+00 -0.00000000000E+00 -0.10231045640E+04  0.10231045640E+04  0.00000000000E+00 0.  1.
    9900016    2    1    2    0    0  0.16633961945E+03 -0.32159612250E+03  0.10568625296E+04  0.24742551393E+04  0.22076881919E+04 0.  0.
         24    2    3    3    0    0  0.92627260090E+02 -0.47741706724E+03 -0.32004484749E+03  0.58769138153E+03  0.80284432579E+02 0.  0.
         23    2    3    3    0    0  0.44196319433E+02 -0.23749830298E+03 -0.90198498249E+02  0.27309718682E+03  0.89930783341E+02 0.  0.
        -15    1    4    4    0    0 -0.47306234601E+01 -0.21112075077E+02 -0.34347739187E+02  0.40593912101E+02  0.00000000000E+00 0.  1.
        -15    1    5    5    0    0  0.34876752070E+02 -0.26511003386E+02 -0.31311022262E+02  0.53847945649E+02  0.00000000000E+00 0. -1.
         15    1    3    3    0    0 -0.10325789176E+03  0.47512890276E+03  0.98118213374E+03  0.10950470520E+04  0.00000000000E+00 0. -1.
         15    1    5    5    0    0  0.93195673627E+01 -0.21098729959E+03 -0.58887475987E+02  0.21924924117E+03  0.00000000000E+00 0.  1.
        -16    1    1    2    0    0 -0.16633961945E+03  0.32159612250E+03 -0.21017043207E+03  0.41864608624E+03  0.00000000000E+00 0.  1.
         16    1    4    4    0    0  0.97357883550E+02 -0.45630499216E+03 -0.28569710831E+03  0.54709746943E+03  0.00000000000E+00 0. -1.
    9900018    1    3    3    0    0  0.13277393169E+03 -0.81809655037E+02  0.48592374162E+03  0.51841951898E+03  0.91187600000E+02 0.  0.
<mgrwt>
<rscale>  0 0.27662231E+04</rscale>
<asrwt>0</asrwt>
<pdfrwt beam="1">  1        1 0.28766102E+00 0.27662231E+04</pdfrwt>
<pdfrwt beam="2">  1       -1 0.15740070E+00 0.27662231E+04</pdfrwt>
<totfact> 0.96995367E-01</totfact>
</mgrwt>
</event>
<event>
12    1  0.1363442E-008  0.2775727E+04  0.7818608E-02  0.8310844E-01
         -2   -1    0    0    0  501 -0.00000000000E+00  0.00000000000E+00  0.17405255594E+04  0.17405255594E+04  0.00000000000E+00 0.  1.
          2   -1    0    0  501    0  0.00000000000E+00 -0.00000000000E+00 -0.11066571214E+04  0.11066571214E+04  0.00000000000E+00 0. -1.
    9900016    2    1    2    0    0  0.31304154369E+03  0.40395706941E+03  0.60601191682E+03  0.23353699144E+04  0.21967079624E+04 0.  0.
        -24    2    3    3    0    0 -0.18359521377E+03  0.33443473081E+03 -0.62841557982E+03  0.73926014127E+03  0.77753609648E+02 0.  0.
         23    2    3    3    0    0 -0.40173611198E+02 -0.12852594096E+03 -0.35828398366E+02  0.16756953465E+03  0.93075444005E+02 0.  0.
        -15    1    5    5    0    0  0.15620452981E+02 -0.85753868552E+02 -0.42457138852E+02  0.96955315287E+02  0.00000000000E+00 0. -1.
        -15    1    3    3    0    0  0.21749611396E+03  0.22478725805E+03  0.72447284683E+03  0.78911011701E+03  0.00000000000E+00 0.  1.
         15    1    4    4    0    0 -0.33808007397E+01  0.46114604074E+02 -0.48427938324E+02  0.66957088742E+02  0.00000000000E+00 0. -1.
         15    1    5    5    0    0 -0.55794064179E+02 -0.42772072412E+02  0.66287404864E+01  0.70614219365E+02  0.00000000000E+00 0.  1.
        -16    1    4    4    0    0 -0.18021441303E+03  0.28832012674E+03 -0.57998764150E+03  0.67230305252E+03  0.00000000000E+00 0.  1.
         16    1    1    2    0    0 -0.31304154369E+03 -0.40395706941E+03  0.27856521157E+02  0.51181276633E+03  0.00000000000E+00 0. -1.
    9900018    1    3    3    0    0  0.31931425470E+03 -0.26738978480E+02  0.54578304817E+03  0.63943012151E+03  0.91187600000E+02 0.  0.
<mgrwt>
<rscale>  0 0.27757269E+04</rscale>
<asrwt>0</asrwt>
<pdfrwt beam="1">  1        2 0.17025494E+00 0.27757269E+04</pdfrwt>
<pdfrwt beam="2">  1       -2 0.26777316E+00 0.27757269E+04</pdfrwt>
<totfact> 0.94095413E-01</totfact>
</mgrwt>
</event>
<event>
12    1  0.1363442E-008  0.2551568E+04  0.7818608E-02  0.8384841E-01
          2   -1    0    0  501    0  0.00000000000E+00  0.00000000000E+00  0.35805255634E+04  0.35805255634E+04  0.00000000000E+00 0. -1.
         -2   -1    0    0    0  501 -0.00000000000E+00 -0.00000000000E+00 -0.45457693599E+03  0.45457693599E+03  0.00000000000E+00 0.  1.
    9900016    2    1    2    0    0 -0.23527058706E+02  0.26607727705E+03  0.30295836411E+04  0.37511362154E+04  0.21957448003E+04 0.  0.
         24    2    3    3    0    0  0.31217031075E+03 -0.45236058038E+03  0.70395713545E+03  0.89669744002E+03  0.80188857092E+02 0.  0.
         23    2    3    3    0    0  0.10850342598E+02 -0.38667215840E+03  0.88820807159E+03  0.97309736384E+03  0.91497612240E+02 0.  0.
        -15    1    5    5    0    0 -0.10262235656E+02 -0.14775822099E+01  0.39324341974E+02  0.40668176767E+02  0.00000000000E+00 0.  1.
        -15    1    4    4    0    0  0.16211958356E+03 -0.26094195229E+03  0.33245101342E+03  0.45265565076E+03  0.00000000000E+00 0.  1.
         15    1    5    5    0    0  0.21112578254E+02 -0.38519457620E+03  0.84888372962E+03  0.93242918707E+03  0.00000000000E+00 0. -1.
         15    1    3    3    0    0 -0.10671374981E+02  0.43206293620E+03  0.35087488895E+03  0.55669151850E+03  0.00000000000E+00 0. -1.
        -16    1    1    2    0    0  0.23527058706E+02 -0.26607727705E+03  0.96364986250E+02  0.28396628396E+03  0.00000000000E+00 0.  1.
         16    1    4    4    0    0  0.15005072719E+03 -0.19141862808E+03  0.37150612203E+03  0.44404178926E+03  0.00000000000E+00 0. -1.
    9900018    1    3    3    0    0 -0.33587633707E+03  0.67304707963E+03  0.10865435451E+04  0.13246498930E+04  0.91187600000E+02 0.  0.
<mgrwt>
<rscale>  0 0.25515676E+04</rscale>
<asrwt>0</asrwt>
<pdfrwt beam="1">  1        2 0.55085007E+00 0.25515676E+04</pdfrwt>
<pdfrwt beam="2">  1       -2 0.69934916E-01 0.25515676E+04</pdfrwt>
<totfact> 0.11808908E+00</totfact>
</mgrwt>
</event>
<event>
12    1  0.1363442E-008  0.3646108E+04  0.7818608E-02  0.8080011E-01
          1   -1    0    0  501    0  0.00000000000E+00  0.00000000000E+00  0.24526842718E+04  0.24526842718E+04  0.00000000000E+00 0. -1.
         -1   -1    0    0    0  501 -0.00000000000E+00 -0.00000000000E+00 -0.13550562805E+04  0.13550562805E+04  0.00000000000E+00 0.  1.
    9900016    2    1    2    0    0 -0.69130068139E+03 -0.85790494673E+03  0.41968791086E+03  0.25141021630E+04  0.22205121512E+04 0.  0.
         24    2    3    3    0    0 -0.46088077111E+03 -0.73478578951E+02 -0.62814972643E+03  0.78598694208E+03  0.73438461036E+02 0.  0.
         23    2    3    3    0    0  0.57975144699E+02  0.11220364023E+03 -0.10179375147E+03  0.18439232391E+03  0.87680026194E+02 0.  0.
        -15    1    4    4    0    0 -0.11487480956E+03  0.10317402757E+02 -0.17750071085E+03  0.21168177300E+03  0.00000000000E+00 0.  1.
        -15    1    5    5    0    0  0.75580107595E+02  0.82710102145E+02 -0.51067231733E+02  0.12313072654E+03  0.00000000000E+00 0. -1.
         15    1    5    5    0    0 -0.17604962896E+02  0.29493538089E+02 -0.50726519741E+02  0.61261597372E+02  0.00000000000E+00 0.  1.
         15    1    3    3    0    0 -0.15856863543E+03 -0.83179659699E+03  0.10362607221E+04  0.13382323696E+04  0.00000000000E+00 0. -1.
        -16    1    1    2    0    0  0.69130068139E+03  0.85790494673E+03  0.67794008042E+03  0.12936383893E+04  0.00000000000E+00 0.  1.
         16    1    4    4    0    0 -0.34600596155E+03 -0.83795981709E+02 -0.45064901558E+03  0.57430516908E+03  0.00000000000E+00 0. -1.
    9900018    1    3    3    0    0 -0.12982641954E+03 -0.64833411014E+02  0.11337066666E+03  0.20549052739E+03  0.91187600000E+02 0.  0.
<mgrwt>
<rscale>  0 0.36461076E+04</rscale>
<asrwt>0</asrwt>
<pdfrwt beam="1">  1        1 0.37733604E+00 0.36461076E+04</pdfrwt>
<pdfrwt beam="2">  1       -1 0.20847020E+00 0.36461076E+04</pdfrwt>
<totfact> 0.15503647E-01</totfact>
</mgrwt>
</event>
<event>
12    1  0.1363442E-008  0.3081540E+04  0.7818608E-02  0.8220823E-01
          2   -1    0    0  501    0  0.00000000000E+00  0.00000000000E+00  0.26304131125E+04  0.26304131125E+04  0.00000000000E+00 0. -1.
         -2   -1    0    0    0  501 -0.00000000000E+00 -0.00000000000E+00 -0.90250899558E+03  0.90250899558E+03  0.00000000000E+00 0.  1.
    9900016    2    1    2    0    0 -0.39873237325E+03  0.57559902202E+03  0.16369941247E+04  0.28268297867E+04  0.21956582473E+04 0.  0.
         24    2    3    3    0    0  0.10005104675E+03 -0.12838424572E+02 -0.62399056852E+01  0.12854788754E+03  0.79439196041E+02 0.  0.
         23    2    3    3    0    0  0.24433038307E+03  0.30994520448E+03 -0.31778006532E+03  0.51477442836E+03  0.90802953167E+02 0.  0.
        -15    1    5    5    0    0  0.19983189335E+03  0.22751399962E+03 -0.19432217788E+03  0.35980065931E+03  0.00000000000E+00 0. -1.
        -15    1    4    4    0    0  0.91844122022E+02 -0.39885981715E+02 -0.48978289243E+01  0.10025080057E+03  0.00000000000E+00 0.  1.
         15    1    3    3    0    0 -0.37229273101E+03  0.28447030695E+03  0.15637673059E+04  0.16324501279E+04  0.00000000000E+00 0. -1.
         15    1    5    5    0    0  0.44498489723E+02  0.82431204866E+02 -0.12345788744E+03  0.15497376905E+03  0.00000000000E+00 0.  1.
        -16    1    1    2    0    0  0.39873237325E+03 -0.57559902202E+03  0.90909992214E+02  0.70609232137E+03  0.00000000000E+00 0.  1.
         16    1    4    4    0    0  0.82069247255E+01  0.27047557143E+02 -0.13420767609E+01  0.28297086968E+02  0.00000000000E+00 0. -1.
    9900018    1    3    3    0    0 -0.37082107206E+03 -0.59780648453E+01  0.39724678977E+03  0.55105734286E+03  0.91187600000E+02 0.  0.
<mgrwt>
<rscale>  0 0.30815395E+04</rscale>
<asrwt>0</asrwt>
<pdfrwt beam="1">  1        2 0.40467894E+00 0.30815395E+04</pdfrwt>
<pdfrwt beam="2">  1       -2 0.13884754E+00 0.30815395E+04</pdfrwt>
<totfact> 0.91091687E-01</totfact>
</mgrwt>
</event>
<event>
12    1  0.1363442E-008  0.3341126E+04  0.7818608E-02  0.8152509E-01
          2   -1    0    0  501    0  0.00000000000E+00  0.00000000000E+00  0.25833462912E+04  0.25833462912E+04  0.00000000000E+00 0. -1.
         -2   -1    0    0    0  501 -0.00000000000E+00 -0.00000000000E+00 -0.10802970295E+04  0.10802970295E+04  0.00000000000E+00 0.  1.
    9900016    2    1    2    0    0  0.30225844491E+03 -0.47671306232E+02  0.20608059100E+04  0.30274631578E+04  0.21965835864E+04 0.  0.
         24    2    3    3    0    0  0.10292308125E+04  0.26406469021E+03  0.86815251985E+03  0.13743863833E+04  0.78758534521E+02 0.  0.
         23    2    3    3    0    0 -0.18388738894E+03 -0.14957221595E+03 -0.33027731302E+02  0.25575032773E+03  0.90171944097E+02 0.  0.
        -15    1    5    5    0    0 -0.44936317952E+02 -0.16796828630E+02  0.26174969018E+02  0.54649200600E+02  0.00000000000E+00 0. -1.
        -15    1    4    4    0    0  0.54632920228E+03  0.10055883729E+03  0.46391206430E+03  0.72374172218E+03  0.00000000000E+00 0.  1.
         15    1    5    5    0    0 -0.13895107099E+03 -0.13277538732E+03 -0.59202700320E+02  0.20110112713E+03  0.00000000000E+00 0.  1.
         15    1    3    3    0    0 -0.70142869750E+02 -0.14105305298E+03  0.14552790385E+03  0.21446294955E+03  0.00000000000E+00 0. -1.
        -16    1    1    2    0    0 -0.30225844491E+03  0.47671306232E+02 -0.55775664830E+03  0.63618016291E+03  0.00000000000E+00 0.  1.
         16    1    4    4    0    0  0.48290161025E+03  0.16350585292E+03  0.40424045555E+03  0.65064466110E+03  0.00000000000E+00 0. -1.
    9900018    1    3    3    0    0 -0.47294210894E+03 -0.21110727512E+02  0.10801532176E+04  0.11828634972E+04  0.91187600000E+02 0.  0.
<mgrwt>
<rscale>  0 0.33411264E+04</rscale>
<asrwt>0</asrwt>
<pdfrwt beam="1">  1        2 0.39743789E+00 0.33411264E+04</pdfrwt>
<pdfrwt beam="2">  1       -2 0.16619954E+00 0.33411264E+04</pdfrwt>
<totfact> 0.58783332E-01</totfact>
</mgrwt>
</event>
<event>
12    1  0.1363442E-008  0.2681223E+04  0.7818608E-02  0.8341123E-01
          2   -1    0    0  501    0  0.00000000000E+00  0.00000000000E+00  0.15891260941E+04  0.15891260941E+04  0.00000000000E+00 0. -1.
         -2   -1    0    0    0  501 -0.00000000000E+00 -0.00000000000E+00 -0.11309608323E+04  0.11309608323E+04  0.00000000000E+00 0.  1.
    9900016    2    1    2    0    0  0.51713239284E+02  0.41841667549E+03  0.24368754791E+03  0.22470674096E+04  0.21936685139E+04 0.  0.
        -24    2    3    3    0    0 -0.55770214961E+03  0.11397330595E+03  0.84619365428E+02  0.58152761267E+03  0.83620124009E+02 0.  0.
         23    2    3    3    0    0  0.60552295975E+02 -0.83152547987E+02  0.10084198607E+03  0.17038182737E+03  0.90994143554E+02 0.  0.
        -15    1    5    5    0    0  0.28202242355E+02 -0.94375452912E+02  0.53912291384E+02  0.11228814607E+03  0.00000000000E+00 0.  1.
        -15    1    3    3    0    0  0.57708982640E+03 -0.15092980758E+03  0.51075819251E+03  0.78529383403E+03  0.00000000000E+00 0.  1.
         15    1    4    4    0    0 -0.34135596836E+03  0.43839496820E+02  0.18389998706E+02  0.34465053412E+03  0.00000000000E+00 0. -1.
         15    1    5    5    0    0  0.32350053620E+02  0.11222904925E+02  0.46929694683E+02  0.58093681302E+02  0.00000000000E+00 0. -1.
        -16    1    4    4    0    0 -0.21634618125E+03  0.70133809129E+02  0.66229366722E+02  0.23687707855E+03  0.00000000000E+00 0.  1.
         16    1    1    2    0    0 -0.51713239284E+02 -0.41841667549E+03  0.21447771390E+03  0.47301951673E+03  0.00000000000E+00 0. -1.
    9900018    1    3    3    0    0 -0.28226733483E+02  0.53852572511E+03 -0.45253199609E+03  0.70986413557E+03  0.91187600000E+02 0.  0.
<mgrwt>
<rscale>  0 0.26812231E+04</rscale>
<asrwt>0</asrwt>
<pdfrwt beam="1">  1        2 0.24448094E+00 0.26812231E+04</pdfrwt>
<pdfrwt beam="2">  1       -2 0.17399397E+00 0.26812231E+04</pdfrwt>
<totfact> 0.19848145E+00</totfact>
</mgrwt>
</event>
<event>
12    1  0.1363442E-008  0.3201389E+04  0.7818608E-02  0.8188450E-01
         -2   -1    0    0    0  501 -0.00000000000E+00  0.00000000000E+00  0.10158907500E+04  0.10158907500E+04  0.00000000000E+00 0.  1.
          2   -1    0    0  501    0  0.00000000000E+00 -0.00000000000E+00 -0.25221438153E+04  0.25221438153E+04  0.00000000000E+00 0. -1.
    9900016    2    1    2    0    0 -0.59375615590E+03 -0.48264374440E+03 -0.73558736754E+03  0.24520249087E+04  0.22103949920E+04 0.  0.
         24    2    3    3    0    0  0.54582601582E+03  0.11539304467E+03 -0.69870206138E+03  0.89718505711E+03  0.74262115723E+02 0.  0.
         23    2    3    3    0    0 -0.14073494472E+03  0.72347127288E+02 -0.12294744737E+03  0.22011072452E+03  0.91061653504E+02 0.  0.
        -15    1    5    5    0    0 -0.11981548735E+03  0.57471096322E+02 -0.13698843578E+03  0.19085206171E+03  0.00000000000E+00 0. -1.
        -15    1    4    4    0    0  0.45527534043E+03  0.80913498753E+02 -0.53679263633E+03  0.70849768122E+03  0.00000000000E+00 0.  1.
         15    1    3    3    0    0 -0.88193011989E+03 -0.40866732656E+03  0.23360865618E+03  0.99969131456E+03  0.00000000000E+00 0. -1.
         15    1    5    5    0    0 -0.20919457372E+02  0.14876030966E+02  0.14040988404E+02  0.29258662809E+02  0.00000000000E+00 0.  1.
        -16    1    1    2    0    0  0.59375615590E+03  0.48264374440E+03 -0.77066569775E+03  0.10860096567E+04  0.00000000000E+00 0.  1.
         16    1    4    4    0    0  0.90550675387E+02  0.34479545914E+02 -0.16190942505E+03  0.18868737589E+03  0.00000000000E+00 0. -1.
    9900018    1    3    3    0    0 -0.11691710710E+03 -0.26171658979E+03 -0.14754651497E+03  0.33503781246E+03  0.91187600000E+02 0.  0.
<mgrwt>
<rscale>  0 0.32013888E+04</rscale>
<asrwt>0</asrwt>
<pdfrwt beam="1">  1        2 0.38802212E+00 0.32013888E+04</pdfrwt>
<pdfrwt beam="2">  1       -2 0.15629089E+00 0.32013888E+04</pdfrwt>
<totfact> 0.76369821E-01</totfact>
</mgrwt>
</event>
<event>
12    1  0.1363442E-008  0.2440050E+04  0.7818608E-02  0.8424660E-01
          2   -1    0    0  501    0  0.00000000000E+00  0.00000000000E+00  0.15576512465E+04  0.15576512465E+04  0.00000000000E+00 0. -1.
         -2   -1    0    0    0  501 -0.00000000000E+00 -0.00000000000E+00 -0.95558038262E+03  0.95558038262E+03  0.00000000000E+00 0.  1.
    9900016    2    1    2    0    0  0.24152372597E+02  0.16890327296E+03  0.40071255770E+03  0.22493058437E+04  0.22067384467E+04 0.  0.
         24    2    3    3    0    0  0.36811719928E+03 -0.11792637057E+03 -0.32866321697E+02  0.39611610895E+03  0.80067942316E+02 0.  0.
         23    2    3    3    0    0  0.21679612172E+03  0.25052550227E+02 -0.23234317441E+03  0.33119134069E+03  0.89867484600E+02 0.  0.
        -15    1    4    4    0    0  0.36073523261E+03 -0.12414347342E+03 -0.22813769299E+02  0.38218055695E+03  0.00000000000E+00 0.  1.
        -15    1    5    5    0    0  0.16596010549E+03 -0.92228555432E+01 -0.20537835257E+03  0.26421219764E+03  0.00000000000E+00 0.  1.
         15    1    5    5    0    0  0.50836016230E+02  0.34275405771E+02 -0.26964821843E+02  0.66979143051E+02  0.00000000000E+00 0. -1.
         15    1    3    3    0    0 -0.14438728813E+03 -0.48230353632E+03  0.32473562440E+03  0.59909733422E+03  0.00000000000E+00 0. -1.
        -16    1    1    2    0    0 -0.24152372597E+02 -0.16890327296E+03  0.20135830619E+03  0.26392578538E+03  0.00000000000E+00 0.  1.
         16    1    4    4    0    0  0.73819666671E+01  0.62171028558E+01 -0.10052552398E+02  0.13935551999E+02  0.00000000000E+00 0. -1.
    9900018    1    3    3    0    0 -0.41637366027E+03  0.74408062961E+03  0.34118642940E+03  0.92290105988E+03  0.91187600000E+02 0.  0.
<mgrwt>
<rscale>  0 0.24400500E+04</rscale>
<asrwt>0</asrwt>
<pdfrwt beam="1">  1        2 0.23963865E+00 0.24400500E+04</pdfrwt>
<pdfrwt beam="2">  1       -2 0.14701237E+00 0.24400500E+04</pdfrwt>
<totfact> 0.33366405E+00</totfact>
</mgrwt>
</event>
<event>
12    1  0.1363442E-008  0.2537427E+04  0.7818608E-02  0.8389772E-01
          1   -1    0    0  501    0  0.00000000000E+00  0.00000000000E+00  0.23277767122E+04  0.23277767122E+04  0.00000000000E+00 0. -1.
         -1   -1    0    0    0  501 -0.00000000000E+00 -0.00000000000E+00 -0.69148962074E+03  0.69148962074E+03  0.00000000000E+00 0.  1.
    9900016    2    1    2    0    0 -0.12509699952E+03  0.56426732950E+01  0.10823918511E+04  0.24513921952E+04  0.21959213274E+04 0.  0.
        -24    2    3    3    0    0 -0.15870837088E+02 -0.11093890934E+03  0.22335074443E+02  0.13943155049E+03  0.79893533195E+02 0.  0.
         23    2    3    3    0    0  0.25151666620E+01  0.16644220179E+03 -0.21411002854E+03  0.28610634172E+03  0.91128490895E+02 0.  0.
        -15    1    5    5    0    0  0.21087355546E+02  0.86772838445E+02 -0.17269117451E+03  0.19441307520E+03  0.00000000000E+00 0. -1.
        -15    1    3    3    0    0 -0.26118182081E+03 -0.76091564320E+03  0.44406206803E+03  0.91891222642E+03  0.00000000000E+00 0.  1.
         15    1    4    4    0    0 -0.90147082823E+01 -0.10077105812E+02  0.35024522123E+02  0.37543710218E+02  0.00000000000E+00 0. -1.
         15    1    5    5    0    0 -0.18572188884E+02  0.79669363350E+02 -0.41418854025E+02  0.91693266521E+02  0.00000000000E+00 0.  1.
        -16    1    4    4    0    0 -0.68561288054E+01 -0.10086180353E+03 -0.12689447680E+02  0.10188784027E+03  0.00000000000E+00 0.  1.
         16    1    1    2    0    0  0.12509699952E+03 -0.56426732950E+01  0.55389524034E+03  0.56787413775E+03  0.00000000000E+00 0. -1.
    9900018    1    3    3    0    0  0.14944049172E+03  0.71105502404E+03  0.83010473718E+03  0.11069420766E+04  0.91187600000E+02 0.  0.
<mgrwt>
<rscale>  0 0.25374266E+04</rscale>
<asrwt>0</asrwt>
<pdfrwt beam="1">  1        1 0.35811949E+00 0.25374266E+04</pdfrwt>
<pdfrwt beam="2">  1       -1 0.10638302E+00 0.25374266E+04</pdfrwt>
<totfact> 0.13020244E+00</totfact>
</mgrwt>
</event>
<event>
12    1  0.1363442E-008  0.2546868E+04  0.7818608E-02  0.8386476E-01
          1   -1    0    0  501    0  0.00000000000E+00  0.00000000000E+00  0.12282644712E+04  0.12282644712E+04  0.00000000000E+00 0. -1.
         -1   -1    0    0    0  501 -0.00000000000E+00 -0.00000000000E+00 -0.13202650633E+04  0.13202650633E+04  0.00000000000E+00 0.  1.
    9900016    2    1    2    0    0 -0.38397462417E+02 -0.13674426566E+03 -0.37312691141E+03  0.22335607000E+04  0.21975887580E+04 0.  0.
        -24    2    3    3    0    0 -0.40379028669E+03 -0.40482101522E+03  0.66933856170E+03  0.88391858474E+03  0.79820450257E+02 0.  0.
         23    2    3    3    0    0  0.22351164939E+02  0.14855759083E+03 -0.73029276998E+03  0.75130814130E+03  0.92560579778E+02 0.  0.
        -15    1    5    5    0    0  0.52686541760E+02  0.49487414222E+02 -0.32998861326E+03  0.33781261186E+03  0.00000000000E+00 0.  1.
        -15    1    3    3    0    0  0.24219439056E+03 -0.53267050775E+01 -0.78175518143E+01  0.24237906411E+03  0.00000000000E+00 0.  1.
         15    1    4    4    0    0 -0.19379310447E+03 -0.17398739287E+03  0.36175606947E+03  0.44575198711E+03  0.00000000000E+00 0. -1.
         15    1    5    5    0    0 -0.30335376821E+02  0.99070176609E+02 -0.40030415672E+03  0.41349552944E+03  0.00000000000E+00 0. -1.
        -16    1    4    4    0    0 -0.20999718222E+03 -0.23083362235E+03  0.30758249223E+03  0.43816659762E+03  0.00000000000E+00 0.  1.
         16    1    1    2    0    0  0.38397462417E+02  0.13674426566E+03  0.28112631927E+03  0.31496883448E+03  0.00000000000E+00 0. -1.
    9900018    1    3    3    0    0  0.10084726877E+03  0.12484586381E+03 -0.30435515132E+03  0.35595490987E+03  0.91187600000E+02 0.  0.
<mgrwt>
<rscale>  0 0.25468684E+04</rscale>
<asrwt>0</asrwt>
<pdfrwt beam="1">  1        1 0.18896377E+00 0.25468684E+04</pdfrwt>
<pdfrwt beam="2">  1       -1 0.20311770E+00 0.25468684E+04</pdfrwt>
<totfact> 0.12915712E+00</totfact>
</mgrwt>
</event>
<event>
12    1  0.1363442E-008  0.2543395E+04  0.7818608E-02  0.8387687E-01
         -2   -1    0    0    0  501 -0.00000000000E+00  0.00000000000E+00  0.88112538625E+03  0.88112538625E+03  0.00000000000E+00 0.  1.
          2   -1    0    0  501    0  0.00000000000E+00 -0.00000000000E+00 -0.18353962546E+04  0.18353962546E+04  0.00000000000E+00 0. -1.
    9900016    2    1    2    0    0  0.24363878676E+03  0.20178202621E+03 -0.76499293144E+03  0.23478727809E+04  0.21970927531E+04 0.  0.
        -24    2    3    3    0    0 -0.23659324199E+02  0.34505516921E+03 -0.13321809695E+04  0.13787338432E+04  0.81105126295E+02 0.  0.
         23    2    3    3    0    0 -0.72764098143E+02  0.82464883912E+02 -0.98606720124E+02  0.17425221272E+03  0.92441750995E+02 0.  0.
        -15    1    3    3    0    0  0.21346559453E+03 -0.12026838506E+03  0.35091561484E+03  0.42798809940E+03  0.00000000000E+00 0.  1.
        -15    1    5    5    0    0 -0.83833081421E+02  0.45787076020E+02 -0.96653303959E+02  0.13589077613E+03  0.00000000000E+00 0.  1.
         15    1    4    4    0    0 -0.25917249479E+02  0.22131903409E+03 -0.70204900352E+03  0.73656406511E+03  0.00000000000E+00 0. -1.
         15    1    5    5    0    0  0.11068983278E+02  0.36677807892E+02 -0.19534161651E+01  0.38361436590E+02  0.00000000000E+00 0. -1.
        -16    1    4    4    0    0  0.22579252794E+01  0.12373613512E+03 -0.63013196596E+03  0.64216977809E+03  0.00000000000E+00 0.  1.
         16    1    1    2    0    0 -0.24363878676E+03 -0.20178202621E+03 -0.18927793690E+03  0.36864885991E+03  0.00000000000E+00 0. -1.
    9900018    1    3    3    0    0  0.12659661458E+03 -0.10546964185E+03  0.31487914332E+03  0.36689862561E+03  0.91187600000E+02 0.  0.
<mgrwt>
<rscale>  0 0.25433948E+04</rscale>
<asrwt>0</asrwt>
<pdfrwt beam="1">  1        2 0.28236865E+00 0.25433948E+04</pdfrwt>
<pdfrwt beam="2">  1       -2 0.13555775E+00 0.25433948E+04</pdfrwt>
<totfact> 0.28614254E+00</totfact>
</mgrwt>
</event>
<event>
12    1  0.1363442E-008  0.2488842E+04  0.7818608E-02  0.8406971E-01
         -1   -1    0    0    0  501 -0.00000000000E+00  0.00000000000E+00  0.55042491669E+03  0.55042491669E+03  0.00000000000E+00 0.  1.
          1   -1    0    0  501    0  0.00000000000E+00 -0.00000000000E+00 -0.28134338118E+04  0.28134338118E+04  0.00000000000E+00 0. -1.
    9900016    2    1    2    0    0 -0.19747547008E+03  0.51859215046E+02 -0.22555736693E+04  0.31595520423E+04  0.22030593706E+04 0.  0.
         24    2    3    3    0    0  0.17587856279E+03  0.42398760673E+03 -0.35874589339E+03  0.58941208098E+03  0.89494277312E+02 0.  0.
         23    2    3    3    0    0  0.27637630004E+02  0.65298380019E+02  0.20206725561E+03  0.23285282069E+03  0.91441474664E+02 0.  0.
        -15    1    5    5    0    0  0.28036600339E+02 -0.12534156395E+02  0.25594225246E+02  0.39977748824E+02  0.00000000000E+00 0.  1.
        -15    1    4    4    0    0  0.10490939800E+03  0.24628778908E+03 -0.15257111601E+03  0.30812595197E+03  0.00000000000E+00 0.  1.
         15    1    5    5    0    0 -0.39897033514E+00  0.77832536413E+02  0.17647303037E+03  0.19287507187E+03  0.00000000000E+00 0. -1.
         15    1    3    3    0    0 -0.25188805371E+03 -0.42393581957E+03 -0.41562351372E+03  0.64491245598E+03  0.00000000000E+00 0. -1.
        -16    1    1    2    0    0  0.19747547008E+03 -0.51859215046E+02 -0.74352258297E+01  0.20430668626E+03  0.00000000000E+00 0.  1.
         16    1    4    4    0    0  0.70969164785E+02  0.17769981765E+03 -0.20617477738E+03  0.28128612901E+03  0.00000000000E+00 0. -1.
    9900018    1    3    3    0    0 -0.14910360917E+03 -0.13490952136E+02 -0.16832715178E+04  0.16923746846E+04  0.91187600000E+02 0.  0.
<mgrwt>
<rscale>  0 0.24888424E+04</rscale>
<asrwt>0</asrwt>
<pdfrwt beam="1">  1        1 0.43283597E+00 0.24888424E+04</pdfrwt>
<pdfrwt beam="2">  1       -1 0.84680757E-01 0.24888424E+04</pdfrwt>
<totfact> 0.10004390E+00</totfact>
</mgrwt>
</event>
<event>
12    1  0.1363442E-008  0.2354963E+04  0.7818608E-02  0.8456560E-01
          2   -1    0    0  501    0  0.00000000000E+00  0.00000000000E+00  0.36572917453E+04  0.36572917453E+04  0.00000000000E+00 0. -1.
         -2   -1    0    0    0  501 -0.00000000000E+00 -0.00000000000E+00 -0.37909542617E+03  0.37909542617E+03  0.00000000000E+00 0.  1.
    9900016    2    1    2    0    0  0.10489392928E+03 -0.18138212440E+02  0.32467034141E+04  0.39253757567E+04  0.22036696759E+04 0.  0.
        -24    2    3    3    0    0 -0.28806187339E+03  0.65234989839E+02  0.13557908064E+03  0.33432590024E+03  0.78465748349E+02 0.  0.
         23    2    3    3    0    0 -0.49873948999E+03  0.60497032426E+02  0.17529282985E+04  0.18257745865E+04  0.91072781273E+02 0.  0.
        -15    1    3    3    0    0  0.85987012850E+03 -0.31377000211E+03  0.12231661460E+04  0.15277315447E+04  0.00000000000E+00 0.  1.
        -15    1    5    5    0    0 -0.71837870825E+02  0.25262720225E+02  0.38076348356E+03  0.38830363780E+03  0.00000000000E+00 0.  1.
         15    1    5    5    0    0 -0.42690161916E+03  0.35234312201E+02  0.13721648149E+04  0.14374709487E+04  0.00000000000E+00 0. -1.
         15    1    4    4    0    0 -0.30300258426E+02  0.14289606247E+01 -0.94356629698E+01  0.31767582924E+02  0.00000000000E+00 0. -1.
        -16    1    4    4    0    0 -0.25776161497E+03  0.63806029215E+02  0.14501474361E+03  0.30255831732E+03  0.00000000000E+00 0.  1.
         16    1    1    2    0    0 -0.10489392928E+03  0.18138212440E+02  0.31492905006E+02  0.11101141480E+03  0.00000000000E+00 0. -1.
    9900018    1    3    3    0    0  0.31825164160E+02  0.16989976740E+03  0.13502988906E+03  0.23754372518E+03  0.91187600000E+02 0.  0.
<mgrwt>
<rscale>  0 0.23549629E+04</rscale>
<asrwt>0</asrwt>
<pdfrwt beam="1">  1        2 0.56266024E+00 0.23549629E+04</pdfrwt>
<pdfrwt beam="2">  1       -2 0.58322376E-01 0.23549629E+04</pdfrwt>
<totfact> 0.15619217E+00</totfact>
</mgrwt>
</event>
<event>
12    1  0.1363442E-008  0.3470871E+04  0.7818608E-02  0.8120728E-01
          1   -1    0    0  501    0  0.00000000000E+00  0.00000000000E+00  0.17456481147E+04  0.17456481147E+04  0.00000000000E+00 0. -1.
         -1   -1    0    0    0  501 -0.00000000000E+00 -0.00000000000E+00 -0.17252826896E+04  0.17252826896E+04  0.00000000000E+00 0.  1.
    9900016    2    1    2    0    0  0.44888689890E+03  0.90839558012E+03  0.24418870754E+03  0.24332512585E+04  0.21987272646E+04 0.  0.
        -24    2    3    3    0    0  0.61429978128E+03  0.59374645397E+03  0.65527179240E+03  0.10796530728E+04  0.79815804968E+02 0.  0.
         23    2    3    3    0    0 -0.19315488124E+03  0.79584678959E+02  0.28336413860E+03  0.36185940739E+03  0.83692690253E+02 0.  0.
        -15    1    5    5    0    0 -0.14497075048E+03  0.21720601343E+02  0.21459419197E+03  0.25988260858E+03  0.00000000000E+00 0.  1.
        -15    1    3    3    0    0 -0.29883935928E+03  0.15918753293E+03 -0.46555552188E+03  0.57566272873E+03  0.00000000000E+00 0.  1.
         15    1    4    4    0    0  0.16965372301E+03  0.21046066148E+03  0.22697336029E+03  0.35297731095E+03  0.00000000000E+00 0. -1.
         15    1    5    5    0    0 -0.48184130757E+02  0.57864077617E+02  0.68769946630E+02  0.10197679881E+03  0.00000000000E+00 0. -1.
        -16    1    4    4    0    0  0.44464605827E+03  0.38328579249E+03  0.42829843211E+03  0.72667576182E+03  0.00000000000E+00 0.  1.
         16    1    1    2    0    0 -0.44888689890E+03 -0.90839558012E+03 -0.22382328244E+03  0.10376795458E+04  0.00000000000E+00 0. -1.
    9900018    1    3    3    0    0  0.32658135813E+03  0.75876914256E+02 -0.22889170159E+03  0.41607604960E+03  0.91187600000E+02 0.  0.
<mgrwt>
<rscale>  0 0.34708711E+04</rscale>
<asrwt>0</asrwt>
<pdfrwt beam="1">  1        1 0.26856125E+00 0.34708711E+04</pdfrwt>
<pdfrwt beam="2">  1       -1 0.26542811E+00 0.34708711E+04</pdfrwt>
<totfact> 0.20072247E-01</totfact>
</mgrwt>
</event>
<event>
12    1  0.1363442E-008  0.3488399E+04  0.7818608E-02  0.8116545E-01
         -2   -1    0    0    0  501 -0.00000000000E+00  0.00000000000E+00  0.13908274350E+04  0.13908274350E+04  0.00000000000E+00 0.  1.
          2   -1    0    0  501    0  0.00000000000E+00 -0.00000000000E+00 -0.21873544284E+04  0.21873544284E+04  0.00000000000E+00 0. -1.
    9900016    2    1    2    0    0  0.10449652745E+04 -0.10738918682E+03 -0.49109330288E+03  0.24842099251E+04  0.21969618698E+04 0.  0.
        -24    2    3    3    0    0 -0.53614681237E+01  0.39463265682E+03  0.84237711436E+02  0.41126145777E+03  0.79223200226E+02 0.  0.
         23    2    3    3    0    0  0.16518745228E+03 -0.22272200953E+03 -0.92651824825E+02  0.30561942442E+03  0.89033050134E+02 0.  0.
        -15    1    3    3    0    0  0.53075642979E+03  0.55675186930E+03 -0.35007722346E+03  0.84512075713E+03  0.00000000000E+00 0.  1.
        -15    1    5    5    0    0  0.13206648782E+03 -0.19480318964E+03 -0.42168137460E+02  0.23909828882E+03  0.00000000000E+00 0.  1.
         15    1    4    4    0    0  0.18179411155E+02  0.33957098434E+03  0.88004501202E+02  0.35126021213E+03  0.00000000000E+00 0. -1.
         15    1    5    5    0    0  0.33120964466E+02 -0.27918819884E+02 -0.50483687364E+02  0.66521135595E+02  0.00000000000E+00 0. -1.
        -16    1    4    4    0    0 -0.23540879279E+02  0.55061672476E+02 -0.37667897654E+01  0.60001245639E+02  0.00000000000E+00 0.  1.
         16    1    1    2    0    0 -0.10449652745E+04  0.10738918682E+03 -0.30543369053E+03  0.10939719383E+04  0.00000000000E+00 0. -1.
    9900018    1    3    3    0    0  0.35438286059E+03 -0.83605170341E+03 -0.13260196602E+03  0.92220828582E+03  0.91187600000E+02 0.  0.
<mgrwt>
<rscale>  0 0.34883994E+04</rscale>
<asrwt>0</asrwt>
<pdfrwt beam="1">  1        2 0.33651606E+00 0.34883994E+04</pdfrwt>
<pdfrwt beam="2">  1       -2 0.21397345E+00 0.34883994E+04</pdfrwt>
<totfact> 0.46616658E-01</totfact>
</mgrwt>
</event>
<event>
12    1  0.1363442E-008  0.2408280E+04  0.7818608E-02  0.8436410E-01
         -2   -1    0    0    0  501 -0.00000000000E+00  0.00000000000E+00  0.11297962498E+04  0.11297962498E+04  0.00000000000E+00 0. -1.
          2   -1    0    0  501    0  0.00000000000E+00 -0.00000000000E+00 -0.12833757382E+04  0.12833757382E+04  0.00000000000E+00 0.  1.
    9900016    2    1    2    0    0  0.32591204698E+02 -0.17573713826E+03 -0.70349917609E+02  0.22160098977E+04  0.22076695920E+04 0.  0.
        -24    2    3    3    0    0  0.58401909864E+02  0.10822780301E+03  0.22308565663E+03  0.26698420073E+03  0.79933177257E+02 0.  0.
         23    2    3    3    0    0  0.32323862848E+03  0.29129468742E+03  0.55361646461E+03  0.70988588324E+03  0.90060932018E+02 0.  0.
        -15    1    5    5    0    0  0.11059806407E+03  0.14359953039E+03  0.18098367899E+03  0.25614029157E+03  0.00000000000E+00 0.  1.
        -15    1    3    3    0    0 -0.50424357715E+03 -0.41606791219E+03 -0.53165829732E+03  0.84263553080E+03  0.00000000000E+00 0.  1.
         15    1    4    4    0    0 -0.12231558466E+01  0.78418519282E+02  0.10088657132E+03  0.12778521256E+03  0.00000000000E+00 0. -1.
         15    1    5    5    0    0  0.21264056441E+03  0.14769515703E+03  0.37263278562E+03  0.45374559167E+03  0.00000000000E+00 0. -1.
        -16    1    4    4    0    0  0.59625065711E+02  0.29809283729E+02  0.12219908530E+03  0.13919898816E+03  0.00000000000E+00 0.  1.
         16    1    1    2    0    0 -0.32591204698E+02  0.17573713826E+03 -0.83229570810E+02  0.19716209028E+03  0.00000000000E+00 0. -1.
    9900018    1    3    3    0    0  0.15519424351E+03 -0.15919171650E+03 -0.31539374153E+03  0.39650428297E+03  0.91187600000E+02 0.  0.
<mgrwt>
<rscale>  0 0.24082800E+04</rscale>
<asrwt>0</asrwt>
<pdfrwt beam="1">  1        2 0.19744242E+00 0.24082800E+04</pdfrwt>
<pdfrwt beam="2">  1       -2 0.17381481E+00 0.24082800E+04</pdfrwt>
<totfact> 0.30429905E+00</totfact>
</mgrwt>
</event>
