<event>
11    1  0.2735266E-010  0.3782014E+04  0.7818608E-02  0.8380774E-01
          1   -1    0    0  501    0  0.00000000000E+00  0.00000000000E+00  0.26144984665E+04  0.26144984665E+04  0.00000000000E+00 0. -1.
         -1   -1    0    0    0  501 -0.00000000000E+00 -0.00000000000E+00 -0.23565944432E+04  0.23565944432E+04  0.00000000000E+00 0.  1.
    9900016    2    1    2    0    0 -0.29332108575E+03  0.12331553705E+03  0.65130491007E+03  0.23127859318E+04  0.21962551535E+04 0.  0.
         24    2    3    3    0    0  0.25532184264E+03 -0.20377235708E+03  0.13352839327E+04  0.13769318529E+04  0.79029929401E+02 0.  0.
        -15    1    1    2    0    0  0.24338468210E+03  0.13429505527E+03  0.84547782530E+02  0.29055049971E+03  0.00000000000E+00 0.  1.
        -15    1    4    4    0    0  0.44604053141E+02 -0.89369472701E+01  0.26308123049E+03  0.26698525131E+03  0.00000000000E+00 0.  1.
         15    1    1    2    0    0 -0.42907792933E+03 -0.53319463606E+02  0.73926444738E+03  0.85642440286E+03  0.00000000000E+00 0. -1.
         15    1    3    3    0    0 -0.54864292839E+03  0.32708789412E+03 -0.68397902268E+03  0.93585407881E+03  0.00000000000E+00 0. -1.
        -16    1    1    2    0    0  0.50685038273E+03 -0.19814212297E+03 -0.12841321072E+04  0.13946873772E+04  0.00000000000E+00 0.  1.
         16    1    4    4    0    0  0.21071778950E+03 -0.19483540981E+03  0.10722027023E+04  0.11099466016E+04  0.00000000000E+00 0. -1.
    9900018    1    1    2    0    0 -0.27836049740E+02 -0.61490057381E+01  0.66918990562E+02  0.11664469824E+03  0.91187600000E+02 0.  0.
<mgrwt>
<rscale>  0 0.25633029E+04</rscale>
<asrwt>0</asrwt>
<pdfrwt beam="1">  1        1 0.40223053E+00 0.37820135E+04</pdfrwt>
<pdfrwt beam="2">  1       -1 0.36255299E+00 0.37820135E+04</pdfrwt>
<totfact> 0.11088277E-02</totfact>
</mgrwt>
</event>
<event>
11    1  0.2735266E-010  0.4243874E+04  0.7818608E-02  0.8352038E-01
          2   -1    0    0  501    0  0.00000000000E+00  0.00000000000E+00  0.16089827455E+04  0.16089827455E+04  0.00000000000E+00 0. -1.
         -2   -1    0    0    0  501 -0.00000000000E+00 -0.00000000000E+00 -0.44481855608E+04  0.44481855608E+04  0.00000000000E+00 0.  1.
    9900016    2    1    2    0    0 -0.95021003353E+03 -0.11515029267E+04 -0.21978746419E+04  0.34502990870E+04  0.22011480528E+04 0.  0.
         24    2    3    3    0    0 -0.76305295959E+03 -0.17545170492E+04 -0.11701149475E+04  0.22440885781E+04  0.78642616898E+02 0.  0.
        -15    1    4    4    0    0 -0.42882239213E+03 -0.10086730832E+04 -0.62580902758E+03  0.12621200306E+04  0.00000000000E+00 0.  1.
        -15    1    1    2    0    0 -0.15021910386E+03  0.22090261138E+03  0.54041834713E+02  0.27255139474E+03  0.00000000000E+00 0.  1.
         15    1    1    2    0    0  0.16228152257E+03 -0.30857768053E+03  0.31079720841E+03  0.46706571512E+03  0.00000000000E+00 0. -1.
         15    1    3    3    0    0 -0.18715707394E+03  0.60301412250E+03 -0.10277596944E+04  0.12062105089E+04  0.00000000000E+00 0. -1.
        -16    1    1    2    0    0  0.76121075998E+03  0.10030117794E+04 -0.74703106795E+03  0.14640798705E+04  0.00000000000E+00 0.  1.
         16    1    4    4    0    0 -0.33423056747E+03 -0.74584396601E+03 -0.54430591990E+03  0.98196854751E+03  0.00000000000E+00 0. -1.
    9900018    1    1    2    0    0  0.17693685485E+03  0.23616621646E+03 -0.25913614862E+03  0.40317223902E+03  0.91187600000E+02 0.  0.
<mgrwt>
<rscale>  0 0.26481171E+04</rscale>
<asrwt>0</asrwt>
<pdfrwt beam="1">  1        2 0.24753581E+00 0.42438740E+04</pdfrwt>
<pdfrwt beam="2">  1       -2 0.68433624E+00 0.42438740E+04</pdfrwt>
<totfact> 0.21310438E-03</totfact>
</mgrwt>
</event>
<event>
11    1  0.2735266E-010  0.4520761E+04  0.7818608E-02  0.8290075E-01
          1   -1    0    0  501    0  0.00000000000E+00  0.00000000000E+00  0.30682901458E+04  0.30682901458E+04  0.00000000000E+00 0. -1.
         -1   -1    0    0    0  501 -0.00000000000E+00 -0.00000000000E+00 -0.31257284442E+04  0.31257284442E+04  0.00000000000E+00 0.  1.
    9900016    2    1    2    0    0 -0.78399501649E+03 -0.33743821985E+03  0.87693451925E+03  0.25167910334E+04  0.21992521948E+04 0.  0.
         24    2    3    3    0    0 -0.31932513361E+02  0.83118905501E+03  0.74740361203E+03  0.11210596939E+04  0.79169105882E+02 0.  0.
        -15    1    1    2    0    0 -0.15765643383E+03 -0.71309514622E+02 -0.24750722508E+03  0.30199408019E+03  0.00000000000E+00 0. -1.
        -15    1    4    4    0    0 -0.22663116594E+02  0.81174333855E+03  0.73885587527E+03  0.10978838140E+04  0.00000000000E+00 0.  1.
         15    1    1    2    0    0 -0.51093757874E+03  0.13270784345E+03 -0.10749774506E+04  0.11975997246E+04  0.00000000000E+00 0.  1.
         15    1    3    3    0    0 -0.75206250313E+03 -0.11686272749E+04  0.12953090722E+03  0.13957313395E+04  0.00000000000E+00 0. -1.
        -16    1    1    2    0    0  0.80341343460E+03 -0.63232922664E+03  0.17235350042E+03  0.10368312914E+04  0.00000000000E+00 0.  1.
         16    1    4    4    0    0 -0.92693967671E+01  0.19445716460E+02  0.85477367607E+01  0.23175879893E+02  0.00000000000E+00 0. -1.
    9900018    1    1    2    0    0  0.64917559445E+03  0.90836911766E+03  0.21575835757E+03  0.11408024604E+04  0.91187600000E+02 0.  0.
<mgrwt>
<rscale>  0 0.28428892E+04</rscale>
<asrwt>0</asrwt>
<pdfrwt beam="1">  1        1 0.47204464E+00 0.45207612E+04</pdfrwt>
<pdfrwt beam="2">  1       -1 0.48088130E+00 0.45207612E+04</pdfrwt>
<totfact> 0.75812149E-04</totfact>
</mgrwt>
</event>
