<event>
11    1  0.5621029E-011  0.3723492E+04  0.7818608E-02  0.8062776E-01
         -2   -1    0    0    0  501 -0.00000000000E+00  0.00000000000E+00  0.10492817271E+04  0.10492817271E+04  0.00000000000E+00 0.  1.
          2   -1    0    0  501    0  0.00000000000E+00 -0.00000000000E+00 -0.33033058640E+04  0.33033058640E+04  0.00000000000E+00 0. -1.
    9900016    2    1    2    0    0  0.44587456799E+03 -0.63053210528E+03 -0.47893040783E+03  0.20506606592E+04  0.18383307475E+04 0.  0.
         24    2    3    3    0    0  0.74420173442E+03  0.37766848893E+03  0.83199378739E+02  0.84235978442E+03  0.78601276963E+02 0.  0.
        -15    1    1    2    0    0 -0.30504769994E+03  0.11493868341E+03 -0.55706107930E+03  0.64543167435E+03  0.00000000000E+00 0. -1.
        -15    1    4    4    0    0  0.18309277893E+03  0.13110049890E+03  0.15124832000E+02  0.22569684768E+03  0.00000000000E+00 0.  1.
         15    1    3    3    0    0 -0.19839400163E+03 -0.75816274374E+03 -0.38289555558E+03  0.87222699589E+03  0.00000000000E+00 0. -1.
         15    1    1    2    0    0 -0.42606599511E+03  0.50080680813E+03 -0.12024070078E+04  0.13704460236E+04  0.00000000000E+00 0.  1.
        -16    1    1    2    0    0  0.28523912706E+03  0.14786613743E+02 -0.15625641962E+02  0.28604923394E+03  0.00000000000E+00 0.  1.
         16    1    4    4    0    0  0.56110895549E+03  0.24656799003E+03  0.68074546739E+02  0.61666293674E+03  0.00000000000E+00 0. -1.
    9900018    1    3    3    0    0 -0.99933164798E+02 -0.25003785048E+03 -0.17923423099E+03  0.33607387886E+03  0.91187600000E+02 0.  0.
<mgrwt>
<rscale>  0 0.37234922E+04</rscale>
<asrwt>0</asrwt>
<pdfrwt beam="1">  1        2 0.50820089E+00 0.37234922E+04</pdfrwt>
<pdfrwt beam="2">  1       -2 0.16142796E+00 0.37234922E+04</pdfrwt>
<totfact> 0.21955291E-01</totfact>
</mgrwt>
</event>
<event>
11    1  0.5621029E-011  0.4550793E+04  0.7818608E-02  0.7901804E-01
          2   -1    0    0  501    0  0.00000000000E+00  0.00000000000E+00  0.24599251321E+04  0.24599251321E+04  0.00000000000E+00 0. -1.
         -2   -1    0    0    0  501 -0.00000000000E+00 -0.00000000000E+00 -0.21047105086E+04  0.21047105086E+04  0.00000000000E+00 0.  1.
    9900016    2    1    2    0    0 -0.33526782643E+03  0.24439076181E+03 -0.18265285769E+03  0.19567433991E+04  0.19035102583E+04 0.  0.
         24    2    3    3    0    0 -0.68414380838E+03  0.76476128762E+03  0.20653173093E+03  0.10497922980E+04  0.80597365830E+02 0.  0.
        -15    1    1    2    0    0  0.88209359574E+03  0.90324785646E+02 -0.17171622569E+03  0.90318001567E+03  0.00000000000E+00 0.  1.
        -15    1    4    4    0    0 -0.52116964733E+03  0.53371722191E+03  0.16524784055E+03  0.76405413622E+03  0.00000000000E+00 0.  1.
         15    1    1    2    0    0 -0.86592567808E+02 -0.71868010488E+03  0.82156264312E+03  0.10949723935E+04  0.00000000000E+00 0. -1.
         15    1    3    3    0    0  0.26339171866E+03 -0.49227614058E+03 -0.69583638947E+02  0.56263032165E+03  0.00000000000E+00 0. -1.
        -16    1    1    2    0    0 -0.46023320150E+03  0.38396455742E+03 -0.11197893626E+03  0.60973983246E+03  0.00000000000E+00 0.  1.
         16    1    4    4    0    0 -0.16297416105E+03  0.23104406571E+03  0.41283890378E+02  0.28573816174E+03  0.00000000000E+00 0. -1.
    9900018    1    3    3    0    0  0.85484263292E+02 -0.28094385237E+02 -0.31960094967E+03  0.34432077947E+03  0.91187600000E+02 0.  0.
<mgrwt>
<rscale>  0 0.45507935E+04</rscale>
<asrwt>0</asrwt>
<pdfrwt beam="1">  1        2 0.37845002E+00 0.45507935E+04</pdfrwt>
<pdfrwt beam="2">  1       -2 0.32380161E+00 0.45507935E+04</pdfrwt>
<totfact> 0.62850523E-02</totfact>
</mgrwt>
</event>
<event>
11    1  0.5621029E-011  0.3518843E+04  0.7818608E-02  0.8276027E-01
          2   -1    0    0  501    0  0.00000000000E+00  0.00000000000E+00  0.30571574186E+04  0.30571574186E+04  0.00000000000E+00 0. -1.
         -2   -1    0    0    0  501 -0.00000000000E+00 -0.00000000000E+00 -0.37672486180E+04  0.37672486180E+04  0.00000000000E+00 0.  1.
    9900016    2    1    2    0    0 -0.10145689815E+03 -0.13817131558E+04  0.10993191842E+04  0.25571472230E+04  0.18469094467E+04 0.  0.
        -24    2    3    3    0    0  0.70384965400E+03 -0.11139494322E+03  0.30422114484E+03  0.77863933861E+03  0.76912585781E+02 0.  0.
        -15    1    1    2    0    0 -0.59332335980E+02  0.48704064598E+03 -0.24509028138E+04  0.24995306599E+04  0.00000000000E+00 0.  1.
        -15    1    3    3    0    0 -0.34498029541E+02 -0.46165160295E+03  0.15771833725E+03  0.48906787919E+03  0.00000000000E+00 0.  1.
         15    1    1    2    0    0 -0.35645225295E+03 -0.19880945019E+03  0.22146840696E+02  0.40874672925E+03  0.00000000000E+00 0. -1.
         15    1    4    4    0    0  0.14895112684E+03 -0.42356055331E+02  0.38673175350E+02  0.15961230560E+03  0.00000000000E+00 0. -1.
        -16    1    4    4    0    0  0.55489852716E+03 -0.69038887884E+02  0.26554796949E+03  0.61902703300E+03  0.00000000000E+00 0.  1.
         16    1    1    2    0    0  0.51724148709E+03  0.10934819600E+04  0.61934558946E+03  0.13589814245E+04  0.00000000000E+00 0. -1.
    9900018    1    3    3    0    0 -0.77080852261E+03 -0.80866660965E+03  0.63737970207E+03  0.12894400052E+04  0.91187600000E+02 0.  0.
<mgrwt>
<rscale>  0 0.28894381E+04</rscale>
<asrwt>0</asrwt>
<pdfrwt beam="1">  1        2 0.47033191E+00 0.35188428E+04</pdfrwt>
<pdfrwt beam="2">  1       -2 0.57957671E+00 0.35188428E+04</pdfrwt>
<totfact> 0.74222384E-04</totfact>
</mgrwt>
</event>
<event>
11    1  0.5621029E-011  0.3324580E+04  0.7818608E-02  0.8393726E-01
          1   -1    0    0  501    0  0.00000000000E+00  0.00000000000E+00  0.29117597254E+04  0.29117597254E+04  0.00000000000E+00 0. -1.
         -1   -1    0    0    0  501 -0.00000000000E+00 -0.00000000000E+00 -0.17540504681E+04  0.17540504681E+04  0.00000000000E+00 0.  1.
    9900016    2    1    2    0    0  0.93221176533E+02 -0.46056025787E+03  0.27898789979E+03  0.19150582182E+04  0.18354312278E+04 0.  0.
        -24    2    3    3    0    0  0.55720715100E+03 -0.81767755394E+03  0.18375138769E+03  0.10094687092E+04  0.78651833921E+02 0.  0.
        -15    1    1    2    0    0 -0.28917625419E+03 -0.71425735649E+03 -0.13369586400E+03  0.78208763022E+03  0.00000000000E+00 0.  1.
        -15    1    3    3    0    0  0.88024738546E+02  0.12325285084E+03 -0.18371936147E+03  0.23810170855E+03  0.00000000000E+00 0.  1.
         15    1    4    4    0    0  0.35326363576E+03 -0.55279673294E+03  0.89290006460E+02  0.66208166381E+03  0.00000000000E+00 0. -1.
         15    1    1    2    0    0 -0.32658844647E+03 -0.33292226820E+02  0.36985508632E+02  0.33035785685E+03  0.00000000000E+00 0. -1.
        -16    1    4    4    0    0  0.20394351524E+03 -0.26488082099E+03  0.94461381233E+02  0.34738704536E+03  0.00000000000E+00 0.  1.
         16    1    1    2    0    0  0.52254352413E+03  0.12081098412E+04  0.97543171283E+03  0.16383064882E+04  0.00000000000E+00 0. -1.
    9900018    1    3    3    0    0 -0.55201071301E+03  0.23386444522E+03  0.27895587357E+03  0.66748780050E+03  0.91187600000E+02 0.  0.
<mgrwt>
<rscale>  0 0.25261576E+04</rscale>
<asrwt>0</asrwt>
<pdfrwt beam="1">  1        1 0.44796304E+00 0.33245800E+04</pdfrwt>
<pdfrwt beam="2">  1       -1 0.26985392E+00 0.33245800E+04</pdfrwt>
<totfact> 0.28638894E-02</totfact>
</mgrwt>
</event>
<event>
11    1  0.5621029E-011  0.3126221E+04  0.7818608E-02  0.8482530E-01
         -2   -1    0    0    0  501 -0.00000000000E+00  0.00000000000E+00  0.20390108468E+04  0.20390108468E+04  0.00000000000E+00 0.  1.
          2   -1    0    0  501    0  0.00000000000E+00 -0.00000000000E+00 -0.19901604047E+04  0.19901604047E+04  0.00000000000E+00 0. -1.
    9900016    2    1    2    0    0 -0.73384984818E+03  0.60409565148E+02  0.38490108449E+03  0.20306366870E+04  0.18528765729E+04 0.  0.
        -24    2    3    3    0    0 -0.58179889549E+03 -0.37367104474E+02  0.79109623989E+03  0.98601376321E+03  0.80645056751E+02 0.  0.
        -15    1    1    2    0    0 -0.22341514290E+03 -0.49776940656E+03  0.30091806355E+03  0.62308939098E+03  0.00000000000E+00 0.  1.
        -15    1    3    3    0    0 -0.26457943585E+03 -0.31845648303E+03 -0.43806591714E+03  0.60275912040E+03  0.00000000000E+00 0.  1.
         15    1    4    4    0    0 -0.39028335588E+03 -0.12543357419E+02  0.46698829799E+03  0.60873352475E+03  0.00000000000E+00 0. -1.
         15    1    1    2    0    0  0.13054366581E+03 -0.13800251721E+03 -0.20503198244E+03  0.27950752631E+03  0.00000000000E+00 0. -1.
        -16    1    4    4    0    0 -0.19151553961E+03 -0.24823747055E+02  0.32410794190E+03  0.37728023846E+03  0.00000000000E+00 0.  1.
         16    1    1    2    0    0  0.82672132526E+03  0.57536235862E+03 -0.43193672349E+03  0.10959376472E+04  0.00000000000E+00 0. -1.
    9900018    1    3    3    0    0  0.11252848316E+03  0.41623315265E+03  0.31870761745E+02  0.44186380338E+03  0.91187600000E+02 0.  0.
<mgrwt>
<rscale>  0 0.22883478E+04</rscale>
<asrwt>0</asrwt>
<pdfrwt beam="1">  1        2 0.30617853E+00 0.31262205E+04</pdfrwt>
<pdfrwt beam="2">  1       -2 0.31369397E+00 0.31262205E+04</pdfrwt>
<totfact> 0.14572462E-01</totfact>
</mgrwt>
</event>
<event>
11    1  0.5726142E-011  0.3267428E+04  0.7818608E-02  0.8420209E-01
         -2   -1    0    0    0  501 -0.00000000000E+00  0.00000000000E+00  0.22748549139E+04  0.22748549139E+04  0.00000000000E+00 0.  1.
          2   -1    0    0  501    0  0.00000000000E+00 -0.00000000000E+00 -0.28551900642E+04  0.28551900642E+04  0.00000000000E+00 0. -1.
    9900016    2    1    2    0    0 -0.12363423632E+04  0.49047061247E+03 -0.93120110374E+03  0.24555876747E+04  0.18421920290E+04 0.  0.
        -24    2    3    3    0    0 -0.15260589290E+04  0.29387251051E+03 -0.24221019446E+03  0.15746391270E+04  0.74871187847E+02 0.  0.
        -15    1    3    3    0    0  0.18398507433E+03  0.12341666254E+03 -0.55847021298E+02  0.22847553470E+03  0.00000000000E+00 0.  1.
        -15    1    1    2    0    0 -0.11864862267E+03 -0.27715056873E+03  0.87529832821E+03  0.92576298088E+03  0.00000000000E+00 0.  1.
         15    1    1    2    0    0  0.48015235957E+03  0.20552341166E+03  0.17726467960E+03  0.55155138271E+03  0.00000000000E+00 0. -1.
         15    1    4    4    0    0 -0.66466501960E+03  0.16525763288E+03 -0.10003231263E+03  0.69216770878E+03  0.00000000000E+00 0. -1.
        -16    1    4    4    0    0 -0.86139390939E+03  0.12861487762E+03 -0.14217788184E+03  0.88247141821E+03  0.00000000000E+00 0.  1.
         16    1    1    2    0    0  0.87483862630E+03 -0.41884345540E+03 -0.70169705445E+03  0.11971429398E+04  0.00000000000E+00 0. -1.
    9900018    1    3    3    0    0  0.10573149146E+03  0.73181439416E+02 -0.63314388798E+03  0.65247301296E+03  0.91187600000E+02 0.  0.
<mgrwt>
<rscale>  0 0.24522163E+04</rscale>
<asrwt>0</asrwt>
<pdfrwt beam="1">  1        2 0.43926000E+00 0.32674278E+04</pdfrwt>
<pdfrwt beam="2">  1       -2 0.34997768E+00 0.32674278E+04</pdfrwt>
<totfact> 0.26415208E-02</totfact>
</mgrwt>
</event>
<event>
11    1  0.5621029E-011  0.4414565E+04  0.7818608E-02  0.8097733E-01
          2   -1    0    0  501    0  0.00000000000E+00  0.00000000000E+00  0.36530594312E+04  0.36530594312E+04  0.00000000000E+00 0. -1.
         -2   -1    0    0    0  501 -0.00000000000E+00 -0.00000000000E+00 -0.27598520456E+04  0.27598520456E+04  0.00000000000E+00 0.  1.
    9900016    2    1    2    0    0 -0.56144114071E+03  0.10504909903E+04 -0.11366520308E+03  0.21904889561E+04  0.18348227743E+04 0.  0.
         24    2    3    3    0    0  0.35652458132E+02 -0.18312382635E+02  0.47236161171E+03  0.48070770266E+03  0.79674098998E+02 0.  0.
        -15    1    1    2    0    0  0.35164278929E+03  0.17964742231E+03 -0.36682369882E+03  0.53896704317E+03  0.00000000000E+00 0.  1.
        -15    1    4    4    0    0  0.22435155511E+02 -0.47382311759E+02  0.21158346025E+03  0.21798160547E+03  0.00000000000E+00 0.  1.
         15    1    3    3    0    0 -0.37722504031E+03  0.54093167426E+03  0.23932695835E+03  0.70155769560E+03  0.00000000000E+00 0. -1.
         15    1    1    2    0    0 -0.70373272743E+03  0.77248022799E+03  0.10084482191E+04  0.14522166728E+04  0.00000000000E+00 0. -1.
        -16    1    1    2    0    0  0.91353107885E+03 -0.20026186406E+04  0.36524806841E+03  0.22312388046E+04  0.00000000000E+00 0.  1.
         16    1    4    4    0    0  0.13217302621E+02  0.29069929123E+02  0.26077815146E+03  0.26272609719E+03  0.00000000000E+00 0. -1.
    9900018    1    3    3    0    0 -0.21986855853E+03  0.52787169872E+03 -0.82535377315E+03  0.10082235578E+04  0.91187600000E+02 0.  0.
<mgrwt>
<rscale>  0 0.35685544E+04</rscale>
<asrwt>0</asrwt>
<pdfrwt beam="1">  1        2 0.56200915E+00 0.44145648E+04</pdfrwt>
<pdfrwt beam="2">  1       -2 0.42459262E+00 0.44145648E+04</pdfrwt>
<totfact> 0.23148860E-03</totfact>
</mgrwt>
</event>
<event>
11    1  0.5621029E-011  0.2747269E+04  0.7818608E-02  0.8472884E-01
         -1   -1    0    0    0  501 -0.00000000000E+00  0.00000000000E+00  0.14748066305E+04  0.14748066305E+04  0.00000000000E+00 0.  1.
          1   -1    0    0  501    0  0.00000000000E+00 -0.00000000000E+00 -0.34244947268E+04  0.34244947268E+04  0.00000000000E+00 0. -1.
    9900016    2    1    2    0    0  0.37474752662E+03  0.32307016078E+03 -0.15489693564E+04  0.24574213347E+04  0.18424992570E+04 0.  0.
        -24    2    3    3    0    0  0.21788821207E+03  0.17053261819E+03 -0.51682287992E+03  0.59139115354E+03  0.77980513245E+02 0.  0.
        -15    1    3    3    0    0  0.99976581198E+02 -0.62041423182E+03 -0.86294067011E+03  0.10675091269E+04  0.00000000000E+00 0.  1.
        -15    1    1    2    0    0 -0.50215478200E+02 -0.94125410516E+03 -0.46856086630E+02  0.94375652452E+03  0.00000000000E+00 0.  1.
         15    1    4    4    0    0  0.19380051605E+02 -0.68515423641E+01 -0.27432317587E+02  0.34279178537E+02  0.00000000000E+00 0. -1.
         15    1    1    2    0    0  0.34711156764E+03  0.11603608798E+03  0.26840674902E+03  0.45386451395E+03  0.00000000000E+00 0. -1.
        -16    1    4    4    0    0  0.19850816046E+03  0.17738416055E+03 -0.48939056233E+03  0.55711197500E+03  0.00000000000E+00 0.  1.
         16    1    1    2    0    0 -0.67164361606E+03  0.50214785639E+03 -0.62226940240E+03  0.10442589841E+04  0.00000000000E+00 0. -1.
    9900018    1    3    3    0    0  0.56882733348E+02  0.77295177442E+03 -0.16920580633E+03  0.79852105434E+03  0.91187600000E+02 0.  0.
<mgrwt>
<rscale>  0 0.23128191E+04</rscale>
<asrwt>0</asrwt>
<pdfrwt beam="1">  1        1 0.52684533E+00 0.27472691E+04</pdfrwt>
<pdfrwt beam="2">  1       -1 0.22689333E+00 0.27472691E+04</pdfrwt>
<totfact> 0.23589262E-02</totfact>
</mgrwt>
</event>
<event>
11    1  0.5621029E-011  0.4879734E+04  0.7818608E-02  0.8071555E-01
         -1   -1    0    0    0  501 -0.00000000000E+00  0.00000000000E+00  0.46615626803E+04  0.46615626803E+04  0.00000000000E+00 0.  1.
          1   -1    0    0  501    0  0.00000000000E+00 -0.00000000000E+00 -0.30403123750E+04  0.30403123750E+04  0.00000000000E+00 0. -1.
    9900016    2    1    2    0    0  0.11571376595E+03 -0.39245432748E+03 -0.70892740857E+03  0.20168155543E+04  0.18432462762E+04 0.  0.
         24    2    3    3    0    0 -0.61781480899E+03 -0.56998185241E+03 -0.18471392730E+03  0.86448912141E+03  0.81533771004E+02 0.  0.
        -15    1    4    4    0    0 -0.16936474995E+03 -0.17605480717E+03 -0.19085234143E+02  0.24503869045E+03  0.00000000000E+00 0.  1.
        -15    1    1    2    0    0  0.30786389216E+03 -0.23498048560E+02 -0.56470959226E+02  0.31388103418E+03  0.00000000000E+00 0.  1.
         15    1    3    3    0    0  0.12686256341E+03  0.33932491617E+03 -0.62418704829E+02  0.36760250740E+03  0.00000000000E+00 0. -1.
         15    1    1    2    0    0 -0.98402778556E+03  0.71256442719E+03 -0.12125853673E+04  0.17165144970E+04  0.00000000000E+00 0. -1.
        -16    1    1    2    0    0  0.56045012745E+03 -0.29661205115E+03  0.35992340404E+04  0.36546639698E+04  0.00000000000E+00 0.  1.
         16    1    4    4    0    0 -0.44845005904E+03 -0.39392704523E+03 -0.16562869316E+03  0.61945043096E+03  0.00000000000E+00 0. -1.
    9900018    1    3    3    0    0  0.60666601152E+03 -0.16179739124E+03 -0.46179477644E+03  0.78472392552E+03  0.91187600000E+02 0.  0.
<mgrwt>
<rscale>  0 0.36838305E+04</rscale>
<asrwt>0</asrwt>
<pdfrwt beam="1">  1        1 0.46774037E+00 0.48797344E+04</pdfrwt>
<pdfrwt beam="2">  1       -1 0.71716349E+00 0.48797344E+04</pdfrwt>
<totfact> 0.66135374E-05</totfact>
</mgrwt>
</event>
<event>
11    1  0.5621029E-011  0.5056219E+04  0.7818608E-02  0.7819893E-01
          2   -1    0    0  501    0  0.00000000000E+00  0.00000000000E+00  0.33473923138E+04  0.33473923138E+04  0.00000000000E+00 0.  1.
         -2   -1    0    0    0  501 -0.00000000000E+00 -0.00000000000E+00 -0.19093480287E+04  0.19093480287E+04  0.00000000000E+00 0. -1.
    9900016    2    1    2    0    0  0.21436853796E+03 -0.53649598807E+03  0.20225462014E+03  0.19430037957E+04  0.18440648045E+04 0.  0.
         24    2    3    3    0    0 -0.18460626808E+02 -0.10413890098E+04 -0.27668913084E+03  0.10805872583E+04  0.79246975997E+02 0.  0.
        -15    1    4    4    0    0  0.26250944562E+02 -0.51352854237E+03 -0.11777648665E+03  0.52751490664E+03  0.00000000000E+00 0.  1.
        -15    1    1    2    0    0 -0.42635561025E+03  0.25024044040E+03  0.39233130065E+03  0.63112853990E+03  0.00000000000E+00 0.  1.
         15    1    3    3    0    0  0.11215026836E+03  0.52524496634E+03  0.26309742574E+03  0.59806371968E+03  0.00000000000E+00 0. -1.
         15    1    1    2    0    0  0.51271591873E+03 -0.23632621532E+03 -0.77308651757E+03  0.95728285110E+03  0.00000000000E+00 0. -1.
        -16    1    1    2    0    0 -0.30072884644E+03  0.52258176299E+03  0.16165448819E+04  0.17253251558E+04  0.00000000000E+00 0.  1.
         16    1    4    4    0    0 -0.44711571370E+02 -0.52786046746E+03 -0.15891264420E+03  0.55307235170E+03  0.00000000000E+00 0. -1.
    9900018    1    3    3    0    0  0.12067889640E+03 -0.20351944579E+02  0.21584632524E+03  0.26435281765E+03  0.91187600000E+02 0.  0.
<mgrwt>
<rscale>  0 0.50562187E+04</rscale>
<asrwt>0</asrwt>
<pdfrwt beam="1">  1        2 0.51498343E+00 0.50562187E+04</pdfrwt>
<pdfrwt beam="2">  1       -2 0.29374585E+00 0.50562187E+04</pdfrwt>
<totfact> 0.26005885E-02</totfact>
</mgrwt>
</event>
<event>
11    1  0.5621029E-011  0.2914809E+04  0.7818608E-02  0.8754343E-01
         -1   -1    0    0    0  501 -0.00000000000E+00  0.00000000000E+00  0.21725770515E+04  0.21725770515E+04  0.00000000000E+00 0.  1.
          1   -1    0    0  501    0  0.00000000000E+00 -0.00000000000E+00 -0.14814018789E+04  0.14814018789E+04  0.00000000000E+00 0. -1.
    9900016    2    1    2    0    0  0.47251184071E+03  0.29052271477E+03  0.50491035553E+00  0.19303636300E+04  0.18489544617E+04 0.  0.
         24    2    3    3    0    0  0.11285745845E+03  0.10506165998E+04  0.61919178629E+01  0.10594613737E+04  0.76733413808E+02 0.  0.
        -15    1    4    4    0    0  0.12616890872E+02  0.10001735210E+03 -0.21972270048E+02  0.10317672852E+03  0.00000000000E+00 0.  1.
        -15    1    1    2    0    0 -0.23957556552E+03  0.12281834191E+02 -0.18389796340E+03  0.30226768929E+03  0.00000000000E+00 0.  1.
         15    1    3    3    0    0  0.31736180559E+03 -0.50291662377E+03  0.16474862417E+01  0.59468173028E+03  0.00000000000E+00 0. -1.
         15    1    1    2    0    0  0.11023672412E+02  0.62450386938E+02 -0.22686623101E+03  0.23556285563E+03  0.00000000000E+00 0. -1.
        -16    1    1    2    0    0 -0.24395994761E+03 -0.36525493590E+03  0.11014344566E+04  0.11857847555E+04  0.00000000000E+00 0.  1.
         16    1    4    4    0    0  0.10024056758E+03  0.95059924775E+03  0.28164187911E+02  0.95628464522E+03  0.00000000000E+00 0. -1.
    9900018    1    3    3    0    0  0.42292576668E+02 -0.25717726130E+03 -0.73344937491E+01  0.27622052596E+03  0.91187600000E+02 0.  0.
<mgrwt>
<rscale>  0 0.17123655E+04</rscale>
<asrwt>0</asrwt>
<pdfrwt beam="1">  1        1 0.22790798E+00 0.29148088E+04</pdfrwt>
<pdfrwt beam="2">  1       -1 0.33424262E+00 0.29148088E+04</pdfrwt>
<totfact> 0.11170165E-01</totfact>
</mgrwt>
</event>
<event>
11    1  0.5621029E-011  0.3012209E+04  0.7818608E-02  0.8401522E-01
         -1   -1    0    0    0  501 -0.00000000000E+00  0.00000000000E+00  0.33954756535E+04  0.33954756535E+04  0.00000000000E+00 0.  1.
          1   -1    0    0  501    0  0.00000000000E+00 -0.00000000000E+00 -0.16841770690E+04  0.16841770690E+04  0.00000000000E+00 0. -1.
    9900016    2    1    2    0    0  0.14643082974E+03  0.39937342199E+03 -0.36336666730E+03  0.19332133473E+04  0.18504965261E+04 0.  0.
        -24    2    3    3    0    0  0.24381038112E+03 -0.52955662276E+03 -0.80513575932E+02  0.59385353688E+03  0.79409500146E+02 0.  0.
        -15    1    3    3    0    0 -0.64611609727E+01  0.10971693413E+04 -0.24318527324E+03  0.11238155486E+04  0.00000000000E+00 0.  1.
        -15    1    1    2    0    0 -0.49382785569E+03 -0.68240628301E+03  0.57642113039E+03  0.10206887898E+04  0.00000000000E+00 0.  1.
         15    1    1    2    0    0 -0.74694056398E+02 -0.51877466179E+03  0.89505624327E+03  0.10372232307E+04  0.00000000000E+00 0. -1.
         15    1    4    4    0    0  0.17250292174E+03 -0.43716321359E+03 -0.82357895893E+02  0.47712865806E+03  0.00000000000E+00 0. -1.
        -16    1    4    4    0    0  0.71307459379E+02 -0.92393409165E+02  0.18443199616E+01  0.11672487882E+03  0.00000000000E+00 0.  1.
         16    1    1    2    0    0  0.42209108235E+03  0.80180752282E+03  0.60318787811E+03  0.10885273546E+04  0.00000000000E+00 0. -1.
    9900018    1    3    3    0    0 -0.90918390404E+02 -0.16823929658E+03 -0.39667818134E+02  0.21554426185E+03  0.91187600000E+02 0.  0.
<mgrwt>
<rscale>  0 0.25041118E+04</rscale>
<asrwt>0</asrwt>
<pdfrwt beam="1">  1        1 0.25910417E+00 0.30122089E+04</pdfrwt>
<pdfrwt beam="2">  1       -1 0.52238087E+00 0.30122089E+04</pdfrwt>
<totfact> 0.42627793E-03</totfact>
</mgrwt>
</event>
<event>
11    1  0.5621029E-011  0.2590457E+04  0.7818608E-02  0.8595796E-01
          2   -1    0    0  501    0  0.00000000000E+00  0.00000000000E+00  0.31980998090E+04  0.31980998090E+04  0.00000000000E+00 0. -1.
         -2   -1    0    0    0  501 -0.00000000000E+00 -0.00000000000E+00 -0.13014150867E+04  0.13014150867E+04  0.00000000000E+00 0.  1.
    9900016    2    1    2    0    0  0.52171508720E+03  0.37996912754E+03  0.67256137076E+03  0.20681890107E+04  0.18462133724E+04 0.  0.
         24    2    3    3    0    0  0.10666343987E+04  0.35458331538E+03  0.15042481148E+03  0.11368366503E+04  0.79571839095E+02 0.  0.
        -15    1    1    2    0    0 -0.20225828436E+03 -0.12434527344E+03  0.15364265703E+03  0.28280068366E+03  0.00000000000E+00 0.  1.
        -15    1    4    4    0    0  0.15214368237E+03  0.22523970910E+02  0.26414180153E+02  0.15605363906E+03  0.00000000000E+00 0.  1.
         15    1    3    3    0    0 -0.47075957283E+03  0.13876131661E+03  0.57845900782E+03  0.75860668474E+03  0.00000000000E+00 0. -1.
         15    1    1    2    0    0 -0.63487778018E+03 -0.11037164329E+03  0.14784461739E+04  0.16127785913E+04  0.00000000000E+00 0. -1.
        -16    1    1    2    0    0  0.31542097734E+03 -0.14525221081E+03 -0.40796547939E+03  0.53574660995E+03  0.00000000000E+00 0.  1.
         16    1    4    4    0    0  0.91449071635E+03  0.33205934447E+03  0.12401063132E+03  0.98078301128E+03  0.00000000000E+00 0. -1.
    9900018    1    3    3    0    0 -0.74159738690E+02 -0.11337550445E+03 -0.56322448538E+02  0.17274567565E+03  0.91187600000E+02 0.  0.
<mgrwt>
<rscale>  0 0.20233169E+04</rscale>
<asrwt>0</asrwt>
<pdfrwt beam="1">  1        2 0.49201535E+00 0.25904574E+04</pdfrwt>
<pdfrwt beam="2">  1       -2 0.20021771E+00 0.25904574E+04</pdfrwt>
<totfact> 0.14673869E-01</totfact>
</mgrwt>
</event>
<event>
11    1  0.5621029E-011  0.3042319E+04  0.7818608E-02  0.8355341E-01
         -2   -1    0    0    0  501 -0.00000000000E+00  0.00000000000E+00  0.26454055116E+04  0.26454055116E+04  0.00000000000E+00 0.  1.
          2   -1    0    0  501    0  0.00000000000E+00 -0.00000000000E+00 -0.24195311341E+04  0.24195311341E+04  0.00000000000E+00 0. -1.
    9900016    2    1    2    0    0  0.49642679124E+03 -0.60084736792E+03 -0.12195248643E+03  0.19990420866E+04  0.18368014962E+04 0.  0.
         24    2    3    3    0    0  0.31318305096E+03  0.35349923243E+03  0.12069224869E+03  0.49411599877E+03  0.80862046747E+02 0.  0.
        -15    1    1    2    0    0 -0.22358414236E+03  0.29022340894E+03  0.59392587720E+03  0.69783052629E+03  0.00000000000E+00 0.  1.
        -15    1    4    4    0    0  0.53872656013E+02  0.25043579747E+02  0.33832961742E+01  0.59505383332E+02  0.00000000000E+00 0.  1.
         15    1    3    3    0    0  0.42320884350E+03 -0.45947598887E+03  0.32935856052E+03  0.70618763155E+03  0.00000000000E+00 0. -1.
         15    1    1    2    0    0  0.99475159157E+02  0.12037319857E+04  0.31672859350E+03  0.12486724961E+04  0.00000000000E+00 0. -1.
        -16    1    1    2    0    0 -0.37231780803E+03 -0.89310802669E+03 -0.56282760678E+03  0.11193915367E+04  0.00000000000E+00 0.  1.
         16    1    4    4    0    0  0.25931039495E+03  0.32845565268E+03  0.11730895251E+03  0.43461061543E+03  0.00000000000E+00 0. -1.
    9900018    1    3    3    0    0 -0.23996510323E+03 -0.49487061148E+03 -0.57200329564E+03  0.79873845625E+03  0.91187600000E+02 0.  0.
<mgrwt>
<rscale>  0 0.26381978E+04</rscale>
<asrwt>0</asrwt>
<pdfrwt beam="1">  1        2 0.37223556E+00 0.30423189E+04</pdfrwt>
<pdfrwt beam="2">  1       -2 0.40698546E+00 0.30423189E+04</pdfrwt>
<totfact> 0.20854050E-02</totfact>
</mgrwt>
</event>
<event>
11    1  0.5621029E-011  0.4374177E+04  0.7818608E-02  0.7933043E-01
          1   -1    0    0  501    0  0.00000000000E+00  0.00000000000E+00  0.41587453293E+04  0.41587453293E+04  0.00000000000E+00 0. -1.
         -1   -1    0    0    0  501 -0.00000000000E+00 -0.00000000000E+00 -0.11501921274E+04  0.11501921274E+04  0.00000000000E+00 0.  1.
    9900016    2    1    2    0    0 -0.44465330764E+03 -0.42587256218E+03  0.26352671542E+03  0.19442031703E+04  0.18252111205E+04 0.  0.
         24    2    3    3    0    0 -0.51054765933E+03 -0.35162490368E+03 -0.56720644176E+03  0.84341438626E+03  0.72977352858E+02 0.  0.
        -15    1    4    4    0    0 -0.18523945264E+03 -0.15355301761E+03 -0.25852270129E+03  0.35316592576E+03  0.00000000000E+00 0.  1.
        -15    1    1    2    0    0  0.80869718329E+03  0.80639705050E+03  0.21582338058E+04  0.24417699518E+04  0.00000000000E+00 0.  1.
         15    1    1    2    0    0 -0.21906209400E+03  0.75930562172E+02  0.22124165528E+03  0.32047078077E+03  0.00000000000E+00 0. -1.
         15    1    3    3    0    0 -0.52165537241E+02 -0.37848573762E+03  0.40690809002E+03  0.55816385639E+03  0.00000000000E+00 0. -1.
        -16    1    1    2    0    0 -0.14498178166E+03 -0.45645505050E+03  0.36555102541E+03  0.60249355375E+03  0.00000000000E+00 0.  1.
         16    1    4    4    0    0 -0.32530820669E+03 -0.19807188607E+03 -0.30868374047E+03  0.49024846050E+03  0.00000000000E+00 0. -1.
    9900018    1    3    3    0    0  0.11805988894E+03  0.30423807912E+03  0.42382506716E+03  0.54262492766E+03  0.91187600000E+02 0.  0.
<mgrwt>
<rscale>  0 0.43741770E+04</rscale>
<asrwt>0</asrwt>
<pdfrwt beam="1">  1        1 0.63980697E+00 0.43741770E+04</pdfrwt>
<pdfrwt beam="2">  1       -1 0.17695264E+00 0.43741770E+04</pdfrwt>
<totfact> 0.11427370E-02</totfact>
</mgrwt>
</event>
<event>
11    1  0.5621029E-011  0.4526422E+04  0.7818608E-02  0.8039064E-01
          2   -1    0    0  501    0  0.00000000000E+00  0.00000000000E+00  0.31240545054E+04  0.31240545054E+04  0.00000000000E+00 0. -1.
         -2   -1    0    0    0  501 -0.00000000000E+00 -0.00000000000E+00 -0.39167256563E+04  0.39167256563E+04  0.00000000000E+00 0.  1.
    9900016    2    1    2    0    0  0.42312783635E+03  0.10147127149E+04 -0.11287237371E+04  0.24195415231E+04  0.18361603546E+04 0.  0.
        -24    2    3    3    0    0 -0.11865110717E+03  0.87088022913E+03 -0.13092359080E+04  0.15788453072E+04  0.78379733972E+02 0.  0.
        -15    1    1    2    0    0  0.97576534056E+03 -0.15202790136E+03 -0.15367657695E+04  0.18267127615E+04  0.00000000000E+00 0.  1.
        -15    1    3    3    0    0  0.48862664999E+02 -0.16961272894E+03  0.17629438856E+03  0.24947093876E+03  0.00000000000E+00 0.  1.
         15    1    1    2    0    0 -0.18102897031E+03  0.29045779377E+03  0.59353396170E+03  0.68514216170E+03  0.00000000000E+00 0. -1.
         15    1    4    4    0    0 -0.18255395500E+02  0.24127130745E+03 -0.41916131791E+03  0.48398482796E+03  0.00000000000E+00 0. -1.
        -16    1    4    4    0    0 -0.10039571167E+03  0.62960892167E+03 -0.89007459006E+03  0.10948604793E+04  0.00000000000E+00 0.  1.
         16    1    1    2    0    0 -0.12178642066E+04 -0.11531426073E+04  0.12792843939E+04  0.21093837154E+04  0.00000000000E+00 0. -1.
    9900018    1    3    3    0    0  0.49291627852E+03  0.31344521467E+03  0.42177823470E+01  0.59122527713E+03  0.91187600000E+02 0.  0.
<mgrwt>
<rscale>  0 0.38332176E+04</rscale>
<asrwt>0</asrwt>
<pdfrwt beam="1">  1        2 0.48062377E+00 0.45264219E+04</pdfrwt>
<pdfrwt beam="2">  1       -2 0.60257317E+00 0.45264219E+04</pdfrwt>
<totfact> 0.50847643E-04</totfact>
</mgrwt>
</event>
<event>
11    1  0.5621029E-011  0.2693423E+04  0.7818608E-02  0.8468290E-01
          2   -1    0    0  501    0  0.00000000000E+00  0.00000000000E+00  0.27580856513E+04  0.27580856513E+04  0.00000000000E+00 0. -1.
         -2   -1    0    0    0  501 -0.00000000000E+00 -0.00000000000E+00 -0.16773059291E+04  0.16773059291E+04  0.00000000000E+00 0.  1.
    9900016    2    1    2    0    0 -0.12356702322E+03 -0.60271015417E+03  0.27662225563E+03  0.19716864108E+04  0.18527004860E+04 0.  0.
         24    2    3    3    0    0  0.30438280449E+03  0.32458657205E+03  0.43256082090E+03  0.62567170838E+03  0.79692461818E+02 0.  0.
        -15    1    1    2    0    0  0.15336885519E+03  0.13522531227E+03 -0.25962620903E+03  0.33047489955E+03  0.00000000000E+00 0.  1.
        -15    1    4    4    0    0  0.26433409870E+03  0.23649340213E+03  0.32624439614E+03  0.48190979550E+03  0.00000000000E+00 0.  1.
         15    1    1    2    0    0 -0.74417400546E+03  0.34289707018E+03  0.11401826423E+04  0.14040618964E+04  0.00000000000E+00 0. -1.
         15    1    3    3    0    0 -0.29315772000E+03 -0.99157637922E+03  0.96900912193E+02  0.10385350025E+04  0.00000000000E+00 0. -1.
        -16    1    1    2    0    0  0.71437217348E+03  0.12458777172E+03 -0.76398966671E+02  0.72916837371E+03  0.00000000000E+00 0.  1.
         16    1    4    4    0    0  0.40048705788E+02  0.88093169925E+02  0.10631642476E+03  0.14376191289E+03  0.00000000000E+00 0. -1.
    9900018    1    3    3    0    0 -0.13479210771E+03  0.64279653004E+02 -0.25283947746E+03  0.30747969989E+03  0.91187600000E+02 0.  0.
<mgrwt>
<rscale>  0 0.23245843E+04</rscale>
<asrwt>0</asrwt>
<pdfrwt beam="1">  1        2 0.42432087E+00 0.26934230E+04</pdfrwt>
<pdfrwt beam="2">  1       -2 0.25804707E+00 0.26934230E+04</pdfrwt>
<totfact> 0.11797542E-01</totfact>
</mgrwt>
</event>
<event>
11    1  0.5621029E-011  0.2996286E+04  0.7818608E-02  0.8527954E-01
          1   -1    0    0  501    0  0.00000000000E+00  0.00000000000E+00  0.39397823558E+04  0.39397823558E+04  0.00000000000E+00 0. -1.
         -1   -1    0    0    0  501 -0.00000000000E+00 -0.00000000000E+00 -0.10036934335E+04  0.10036934335E+04  0.00000000000E+00 0.  1.
    9900016    2    1    2    0    0  0.42193907026E+03 -0.60831530027E+03  0.23624679059E+04  0.30736877436E+04  0.18215986537E+04 0.  0.
        -24    2    3    3    0    0 -0.48939573285E+03 -0.45513845368E+02  0.54972519876E+03  0.74144965319E+03  0.77266426165E+02 0.  0.
        -15    1    1    2    0    0 -0.66974913175E+03 -0.24633498723E+03  0.18294902971E+03  0.73669204752E+03  0.00000000000E+00 0.  1.
        -15    1    3    3    0    0  0.86808876373E+03  0.22062093005E+02  0.97609839447E+03  0.13064581560E+04  0.00000000000E+00 0.  1.
         15    1    1    2    0    0  0.85746179780E+02 -0.58357642046E+02 -0.39379779230E+02  0.11094498071E+03  0.00000000000E+00 0. -1.
         15    1    4    4    0    0 -0.38039837057E+03 -0.31696888236E+02  0.37533807059E+03  0.53533753865E+03  0.00000000000E+00 0. -1.
        -16    1    4    4    0    0 -0.10899736228E+03 -0.13816957132E+02  0.17438712817E+03  0.20611211454E+03  0.00000000000E+00 0.  1.
         16    1    1    2    0    0  0.16206388170E+03  0.91300792955E+03  0.43005176592E+03  0.10221510175E+04  0.00000000000E+00 0. -1.
    9900018    1    3    3    0    0  0.43246039382E+02 -0.58486354791E+03  0.83664431264E+03  0.10257799344E+04  0.91187600000E+02 0.  0.
<mgrwt>
<rscale>  0 0.21772573E+04</rscale>
<asrwt>0</asrwt>
<pdfrwt beam="1">  1        1 0.60612036E+00 0.29962859E+04</pdfrwt>
<pdfrwt beam="2">  1       -1 0.15441438E+00 0.29962859E+04</pdfrwt>
<totfact> 0.28946291E-02</totfact>
</mgrwt>
</event>
