<event>
11    1  0.3586464E-024  0.1356481E+04  0.7818608E-02  0.8985937E-01
         -1   -1    0    0    0  501 -0.00000000000E+00  0.00000000000E+00  0.58056598599E+03  0.58056598599E+03  0.00000000000E+00 0.  1.
          1   -1    0    0  501    0  0.00000000000E+00 -0.00000000000E+00 -0.79234723345E+03  0.79234723345E+03  0.00000000000E+00 0. -1.
    9900016    2    1    2    0    0 -0.23031485352E+03 -0.74079482382E+02  0.21399326477E+03  0.74871839640E+03  0.67546533462E+03 0.  0.
         23    2    3    3    0    0 -0.28952602595E+03 -0.11218783455E+03 -0.15278717730E+03  0.35826124702E+03  0.92713373637E+02 0.  0.
        -15    1    4    4    0    0 -0.88341720232E+02 -0.38656575908E+02 -0.22539284131E+01  0.96455536844E+02  0.00000000000E+00 0.  1.
        -15    1    3    3    0    0  0.42273979774E+01  0.11079070820E+02  0.68085103424E+01  0.13673789415E+02  0.00000000000E+00 0. -1.
         15    1    3    3    0    0 -0.10172278197E+02 -0.80223779631E+01  0.45320595127E+01  0.13724917316E+02  0.00000000000E+00 0.  1.
         15    1    4    4    0    0 -0.20118430571E+03 -0.73531258643E+02 -0.15053324888E+03  0.26180571018E+03  0.00000000000E+00 0. -1.
        -16    1    3    3    0    0  0.65156052640E+02  0.35051659313E+02  0.35543987221E+03  0.36305844264E+03  0.00000000000E+00 0.  1.
         16    1    1    2    0    0  0.27006525430E+03  0.76830237764E+02 -0.44172557511E+03  0.52341151184E+03  0.00000000000E+00 0. -1.
    9900018    1    1    2    0    0 -0.39750400777E+02 -0.27507553829E+01  0.15951062885E+02  0.10078331121E+03  0.91187600000E+02 0.  0.
<mgrwt>
<rscale>  0 0.13564805E+04</rscale>
<asrwt>0</asrwt>
<pdfrwt beam="1">  1        1 0.12189957E+00 0.13564805E+04</pdfrwt>
<pdfrwt beam="2">  1       -1 0.89317844E-01 0.13564805E+04</pdfrwt>
<totfact> 0.26995987E+01</totfact>
</mgrwt>
</event>
<event>
11    1  0.3586464E-024  0.7879479E+03  0.7818608E-02  0.9577628E-01
          3   -1    0    0  501    0  0.00000000000E+00  0.00000000000E+00  0.17503103604E+03  0.17503103604E+03  0.00000000000E+00 0. -1.
         -3   -1    0    0    0  501 -0.00000000000E+00 -0.00000000000E+00 -0.88678819858E+03  0.88678819858E+03  0.00000000000E+00 0.  1.
    9900016    2    1    2    0    0 -0.14281434511E+02  0.82265399059E+01 -0.61850074092E+03  0.91792893455E+03  0.67806985409E+03 0.  0.
         23    2    3    3    0    0 -0.32486539855E+03  0.79090030856E+02 -0.28998138823E+03  0.45201180928E+03  0.91829788473E+02 0.  0.
        -15    1    4    4    0    0 -0.17362719155E+03  0.59648071085E+02 -0.10219795679E+03  0.21011595941E+03  0.00000000000E+00 0. -1.
        -15    1    3    3    0    0  0.83010727885E+00 -0.10069090433E+02 -0.20253090532E+02  0.22633235216E+02  0.00000000000E+00 0.  1.
         15    1    3    3    0    0  0.74294733021E+01 -0.80852294942E+01 -0.16631755737E+02  0.19929458307E+02  0.00000000000E+00 0. -1.
         15    1    4    4    0    0 -0.15123820700E+03  0.19441959771E+02 -0.18778343144E+03  0.24189584986E+03  0.00000000000E+00 0.  1.
        -16    1    3    3    0    0  0.30232438346E+03 -0.52709171023E+02 -0.29163450643E+03  0.42335443175E+03  0.00000000000E+00 0.  1.
         16    1    1    2    0    0  0.38242177506E+00 -0.14335518162E+02 -0.29152465702E+01  0.14633932826E+02  0.00000000000E+00 0. -1.
    9900018    1    1    2    0    0  0.13899012735E+02  0.61089782565E+01 -0.90341175047E+02  0.12925636724E+03  0.91187600000E+02 0.  0.
<mgrwt>
<rscale>  0 0.78794786E+03</rscale>
<asrwt>0</asrwt>
<pdfrwt beam="1">  1        3 0.26927852E-01 0.78794786E+03</pdfrwt>
<pdfrwt beam="2">  1       -3 0.13642895E+00 0.78794786E+03</pdfrwt>
<totfact> 0.14414740E+01</totfact>
</mgrwt>
</event>
<event>
11    1  0.3586464E-024  0.1267407E+04  0.7818608E-02  0.9055818E-01
         -1   -1    0    0    0  501 -0.00000000000E+00  0.00000000000E+00  0.99050281455E+03  0.99050281455E+03  0.00000000000E+00 0.  1.
          1   -1    0    0  501    0  0.00000000000E+00 -0.00000000000E+00 -0.40543078189E+03  0.40543078189E+03  0.00000000000E+00 0. -1.
    9900016    2    1    2    0    0 -0.27858288919E+02  0.19208418613E+03  0.70036000349E+03  0.99101554707E+03  0.67374717900E+03 0.  0.
         23    2    3    3    0    0 -0.53125391397E+02 -0.47069702532E+02 -0.96788474167E+02  0.15120573635E+03  0.91963589886E+02 0.  0.
        -15    1    3    3    0    0 -0.46882764775E+01  0.18196530621E+02  0.18175352625E+02  0.26142630052E+02  0.00000000000E+00 0.  1.
        -15    1    4    4    0    0 -0.71721547800E+02 -0.23513372348E+02 -0.36455571748E+02  0.83820449829E+02  0.00000000000E+00 0. -1.
         15    1    4    4    0    0  0.18596156403E+02 -0.23556330184E+02 -0.60332902419E+02  0.67385286517E+02  0.00000000000E+00 0.  1.
         15    1    3    3    0    0  0.19820895774E+01  0.13484502413E+02  0.10546782698E+02  0.17233546057E+02  0.00000000000E+00 0. -1.
        -16    1    3    3    0    0  0.27973289379E+02  0.20747285563E+03  0.76842634234E+03  0.79643363461E+03  0.00000000000E+00 0.  1.
         16    1    1    2    0    0  0.27423805742E+02 -0.19277403294E+03 -0.20094338878E+03  0.27980732369E+03  0.00000000000E+00 0. -1.
    9900018    1    1    2    0    0  0.43448317650E+00  0.68984680686E+00  0.85655417943E+02  0.12511072568E+03  0.91187600000E+02 0.  0.
<mgrwt>
<rscale>  0 0.12674073E+04</rscale>
<asrwt>0</asrwt>
<pdfrwt beam="1">  1        1 0.62373967E-01 0.12674073E+04</pdfrwt>
<pdfrwt beam="2">  1       -1 0.15238505E+00 0.12674073E+04</pdfrwt>
<totfact> 0.19402156E+01</totfact>
</mgrwt>
</event>
