<event>
11    1  0.1394181E-011  0.1165405E+04  0.7818608E-02  0.9143688E-01
         -1   -1    0    0    0  501 -0.00000000000E+00  0.00000000000E+00  0.79787013202E+03  0.79787013202E+03  0.00000000000E+00 0.  1.
          1   -1    0    0  501    0  0.00000000000E+00 -0.00000000000E+00 -0.42556058817E+03  0.42556058817E+03  0.00000000000E+00 0. -1.
    9900016    2    1    2    0    0  0.32180271239E+03 -0.15511020930E+02  0.70771095154E+02  0.78215641377E+03  0.70919851256E+03 0.  0.
         23    2    3    3    0    0 -0.18793854780E+02  0.93101238286E+02  0.80789546996E+02  0.15468183307E+03  0.91533977467E+02 0.  0.
        -15    1    4    4    0    0 -0.35718305434E+02  0.41942261729E+01  0.44396321773E+02  0.57135122851E+02  0.00000000000E+00 0.  1.
        -15    1    3    3    0    0  0.33482301481E+02 -0.30086842272E+02 -0.30604039432E+02  0.54432433529E+02  0.00000000000E+00 0.  1.
         15    1    4    4    0    0  0.16924450654E+02  0.88907012113E+02  0.36393225223E+02  0.97546710221E+02  0.00000000000E+00 0. -1.
         15    1    3    3    0    0  0.12604627608E+03 -0.21354759460E+03  0.10890624021E+02  0.24821129017E+03  0.00000000000E+00 0. -1.
        -16    1    1    2    0    0 -0.32180271239E+03  0.15511020930E+02  0.30153844869E+03  0.44127430642E+03  0.00000000000E+00 0.  1.
         16    1    3    3    0    0 -0.11130080395E+02  0.88150033547E+02 -0.45910479991E+02  0.10001039584E+03  0.00000000000E+00 0. -1.
    9900018    1    3    3    0    0  0.19219807000E+03  0.46872144114E+02  0.55605443561E+02  0.22482046115E+03  0.91187600000E+02 0.  0.
<mgrwt>
<rscale>  0 0.11654048E+04</rscale>
<asrwt>0</asrwt>
<pdfrwt beam="1">  1        1 0.65470860E-01 0.11654048E+04</pdfrwt>
<pdfrwt beam="2">  1       -1 0.12274925E+00 0.11654048E+04</pdfrwt>
<totfact> 0.32084369E+01</totfact>
</mgrwt>
</event>
<event>
11    1  0.1394181E-011  0.1020919E+04  0.7818608E-02  0.9285894E-01
         -3   -1    0    0    0  501 -0.00000000000E+00  0.00000000000E+00  0.59265185764E+03  0.59265185764E+03  0.00000000000E+00 0.  1.
          3   -1    0    0  501    0  0.00000000000E+00 -0.00000000000E+00 -0.43966593560E+03  0.43966593560E+03  0.00000000000E+00 0. -1.
    9900016    2    1    2    0    0 -0.21447626627E+03 -0.15286354563E+03  0.79509073775E+02  0.75888374341E+03  0.70725915394E+03 0.  0.
         23    2    3    3    0    0 -0.90675330095E+02 -0.70679287955E+02  0.15689602598E+02  0.14744316209E+03  0.90971122795E+02 0.  0.
        -15    1    4    4    0    0 -0.75633311354E+02 -0.23713945280E+02 -0.25420159953E+02  0.83240215756E+02  0.00000000000E+00 0.  1.
        -15    1    3    3    0    0 -0.63164455754E+02 -0.44415730090E+02  0.19689499956E+03  0.21149502690E+03  0.00000000000E+00 0.  1.
         15    1    4    4    0    0 -0.15042018742E+02 -0.46965342675E+02  0.41109762551E+02  0.64202946330E+02  0.00000000000E+00 0. -1.
         15    1    3    3    0    0  0.55944927910E+02 -0.18609548650E+02 -0.14087119846E+03  0.15271163943E+03  0.00000000000E+00 0. -1.
        -16    1    1    2    0    0  0.21447626627E+03  0.15286354563E+03  0.73476848272E+02  0.27343404983E+03  0.00000000000E+00 0.  1.
         16    1    3    3    0    0 -0.86380873593E+02  0.11844371873E+02  0.83760944951E+02  0.12090426116E+03  0.00000000000E+00 0. -1.
    9900018    1    3    3    0    0 -0.30200534735E+02 -0.31003350809E+02 -0.75965274869E+02  0.12632965384E+03  0.91187600000E+02 0.  0.
<mgrwt>
<rscale>  0 0.10209189E+04</rscale>
<asrwt>0</asrwt>
<pdfrwt beam="1">  1        3 0.67640914E-01 0.10209189E+04</pdfrwt>
<pdfrwt beam="2">  1       -3 0.91177208E-01 0.10209189E+04</pdfrwt>
<totfact> 0.59462216E+00</totfact>
</mgrwt>
</event>
<event>
11    1  0.1394181E-011  0.1600145E+04  0.7818608E-02  0.8820459E-01
          1   -1    0    0  501    0  0.00000000000E+00  0.00000000000E+00  0.55067424736E+03  0.55067424736E+03  0.00000000000E+00 0. -1.
         -1   -1    0    0    0  501 -0.00000000000E+00 -0.00000000000E+00 -0.11624215999E+04  0.11624215999E+04  0.00000000000E+00 0.  1.
    9900016    2    1    2    0    0 -0.61976240552E+03 -0.15916966824E+03 -0.28562340505E+03  0.99490558575E+03  0.70626905104E+03 0.  0.
         23    2    3    3    0    0 -0.26151199160E+03 -0.21397340328E+03 -0.30850231151E+03  0.46679119237E+03  0.92451078984E+02 0.  0.
        -15    1    4    4    0    0 -0.19890832076E+03 -0.13656411063E+03 -0.16563985613E+03  0.29266164477E+03  0.00000000000E+00 0. -1.
        -15    1    3    3    0    0 -0.14316387354E+03 -0.12708721745E+02 -0.10559567934E+03  0.17834756457E+03  0.00000000000E+00 0.  1.
         15    1    4    4    0    0 -0.62603670842E+02 -0.77409292647E+02 -0.14286245537E+03  0.17412954760E+03  0.00000000000E+00 0.  1.
         15    1    3    3    0    0 -0.13186156354E+03  0.98755293654E+02  0.91472388946E+02  0.18843374937E+03  0.00000000000E+00 0. -1.
        -16    1    1    2    0    0  0.61976240552E+03  0.15916966824E+03 -0.32612394748E+03  0.71819026149E+03  0.00000000000E+00 0.  1.
         16    1    3    3    0    0  0.16495057201E+02  0.34479076405E+01 -0.54335417918E+00  0.16860314734E+02  0.00000000000E+00 0. -1.
    9900018    1    3    3    0    0 -0.99720034041E+02 -0.34690744510E+02  0.37545551029E+02  0.14447276470E+03  0.91187600000E+02 0.  0.
<mgrwt>
<rscale>  0 0.16001445E+04</rscale>
<asrwt>0</asrwt>
<pdfrwt beam="1">  1        1 0.84719116E-01 0.16001445E+04</pdfrwt>
<pdfrwt beam="2">  1       -1 0.17883409E+00 0.16001445E+04</pdfrwt>
<totfact> 0.78824542E+00</totfact>
</mgrwt>
</event>
<event>
11    1  0.1394181E-011  0.8606056E+03  0.7818608E-02  0.9476212E-01
          2   -1    0    0  501    0  0.00000000000E+00  0.00000000000E+00  0.18429668328E+04  0.18429668328E+04  0.00000000000E+00 0. -1.
         -2   -1    0    0    0  501 -0.00000000000E+00 -0.00000000000E+00 -0.10046871016E+03  0.10046871016E+03  0.00000000000E+00 0.  1.
    9900016    2    1    2    0    0 -0.69421412721E+02  0.79324511979E+02  0.16431254469E+04  0.17985678812E+04  0.72379104595E+03 0.  0.
         23    2    3    3    0    0 -0.44745070119E+02  0.41586338463E+02  0.14875177877E+03  0.18473576647E+03  0.90932210348E+02 0.  0.
        -15    1    4    4    0    0 -0.47909105617E+01  0.49430611537E+02  0.13140739927E+03  0.14047862031E+03  0.00000000000E+00 0. -1.
        -15    1    3    3    0    0 -0.25175140455E+03  0.89014245069E+00  0.69411608681E+03  0.73836082237E+03  0.00000000000E+00 0. -1.
         15    1    3    3    0    0 -0.28614817860E+02  0.27632776179E+02  0.19027152393E+03  0.19438526421E+03  0.00000000000E+00 0.  1.
         15    1    4    4    0    0 -0.39954159558E+02 -0.78442730731E+01  0.17344379499E+02  0.44257146160E+02  0.00000000000E+00 0.  1.
        -16    1    1    2    0    0  0.69421412721E+02 -0.79324511979E+02  0.99372675706E+02  0.14486766175E+03  0.00000000000E+00 0.  1.
         16    1    3    3    0    0  0.16852690326E+03  0.52392134717E+01  0.26879041378E+03  0.31729647495E+03  0.00000000000E+00 0. -1.
    9900018    1    3    3    0    0  0.87162976550E+02  0.39760414140E+01  0.34119564364E+03  0.36378955320E+03  0.91187600000E+02 0.  0.
<mgrwt>
<rscale>  0 0.86060560E+03</rscale>
<asrwt>0</asrwt>
<pdfrwt beam="1">  1        2 0.28353333E+00 0.86060560E+03</pdfrwt>
<pdfrwt beam="2">  1       -2 0.15456726E-01 0.86060560E+03</pdfrwt>
<totfact> 0.27516372E+02</totfact>
</mgrwt>
</event>
<event>
11    1  0.1394181E-011  0.1467592E+04  0.7818608E-02  0.8906295E-01
         -2   -1    0    0    0  501 -0.00000000000E+00  0.00000000000E+00  0.27159733220E+03  0.27159733220E+03  0.00000000000E+00 0.  1.
          2   -1    0    0  501    0  0.00000000000E+00 -0.00000000000E+00 -0.19825540759E+04  0.19825540759E+04  0.00000000000E+00 0. -1.
    9900016    2    1    2    0    0  0.44595373531E+03  0.34278088823E+03 -0.10736341876E+04  0.14041199311E+04  0.70886454330E+03 0.  0.
         23    2    3    3    0    0  0.55432448221E+02  0.11069911318E+03 -0.15923769599E+03  0.22141702509E+03  0.91333483462E+02 0.  0.
        -15    1    4    4    0    0  0.13830401605E+02 -0.11965245120E+02 -0.45511787209E+02  0.49048648037E+02  0.00000000000E+00 0. -1.
        -15    1    3    3    0    0  0.26032946937E+03  0.53410538206E+02 -0.66167252720E+03  0.71304603741E+03  0.00000000000E+00 0.  1.
         15    1    4    4    0    0  0.41602046616E+02  0.12266435830E+03 -0.11372590878E+03  0.17236837706E+03  0.00000000000E+00 0.  1.
         15    1    3    3    0    0 -0.30925165648E+01 -0.26718589458E+02 -0.27412666240E+02  0.38404439219E+02  0.00000000000E+00 0. -1.
        -16    1    3    3    0    0 -0.48209650865E+02 -0.30000287596E+02 -0.36584344964E+02  0.67547035382E+02  0.00000000000E+00 0.  1.
         16    1    1    2    0    0 -0.44595373531E+03 -0.34278088823E+03 -0.63732255604E+03  0.85003147695E+03  0.00000000000E+00 0. -1.
    9900018    1    3    3    0    0  0.18149398515E+03  0.23539011389E+03 -0.18872695322E+03  0.36370539400E+03  0.91187600000E+02 0.  0.
<mgrwt>
<rscale>  0 0.14675918E+04</rscale>
<asrwt>0</asrwt>
<pdfrwt beam="1">  1        2 0.30500833E+00 0.14675918E+04</pdfrwt>
<pdfrwt beam="2">  1       -2 0.41784204E-01 0.14675918E+04</pdfrwt>
<totfact> 0.35928919E+01</totfact>
</mgrwt>
</event>
<event>
11    1  0.1394181E-011  0.8836387E+03  0.7818608E-02  0.9446268E-01
         -1   -1    0    0    0  501 -0.00000000000E+00  0.00000000000E+00  0.16345403035E+03  0.16345403035E+03  0.00000000000E+00 0.  1.
          1   -1    0    0  501    0  0.00000000000E+00 -0.00000000000E+00 -0.11942460079E+04  0.11942460079E+04  0.00000000000E+00 0. -1.
    9900016    2    1    2    0    0 -0.11032363305E+03 -0.11164157257E+03 -0.81861347783E+03  0.10937779655E+04  0.70822811791E+03 0.  0.
         23    2    3    3    0    0 -0.10347089853E+03  0.35640640557E+02  0.21705589620E+02  0.14391788784E+03  0.90910635896E+02 0.  0.
        -15    1    4    4    0    0 -0.27387602984E+02  0.36576988586E+02  0.45211338282E+02  0.64280805848E+02  0.00000000000E+00 0.  1.
        -15    1    3    3    0    0  0.43291208741E+02 -0.93593562379E+02 -0.15058981749E+03  0.18251349760E+03  0.00000000000E+00 0.  1.
         15    1    3    3    0    0 -0.56736253848E+02  0.92626658600E+02 -0.34164415480E+03  0.35849606538E+03  0.00000000000E+00 0. -1.
         15    1    4    4    0    0 -0.76083295545E+02 -0.93634802915E+00 -0.23505748663E+02  0.79637081996E+02  0.00000000000E+00 0. -1.
        -16    1    1    2    0    0  0.11032363305E+03  0.11164157257E+03 -0.21217849972E+03  0.26392207273E+03  0.00000000000E+00 0.  1.
         16    1    3    3    0    0  0.37237175175E+02 -0.91898710380E+02 -0.12213937574E+03  0.15732135040E+03  0.00000000000E+00 0. -1.
    9900018    1    3    3    0    0 -0.30644864583E+02 -0.54416598970E+02 -0.22594571942E+03  0.25152916428E+03  0.91187600000E+02 0.  0.
<mgrwt>
<rscale>  0 0.88363867E+03</rscale>
<asrwt>0</asrwt>
<pdfrwt beam="1">  1        1 0.18373016E+00 0.88363867E+03</pdfrwt>
<pdfrwt beam="2">  1       -1 0.25146773E-01 0.88363867E+03</pdfrwt>
<totfact> 0.15072208E+02</totfact>
</mgrwt>
</event>
<event>
11    1  0.1394181E-011  0.9484307E+03  0.7818608E-02  0.9366987E-01
         -2   -1    0    0    0  501 -0.00000000000E+00  0.00000000000E+00  0.14826691927E+04  0.14826691927E+04  0.00000000000E+00 0.  1.
          2   -1    0    0  501    0  0.00000000000E+00 -0.00000000000E+00 -0.15167252479E+03  0.15167252479E+03  0.00000000000E+00 0. -1.
    9900016    2    1    2    0    0 -0.12651356879E+03  0.63232949722E+02  0.78690270706E+03  0.10721652974E+04  0.71436577861E+03 0.  0.
         23    2    3    3    0    0  0.18058330362E+03  0.73010291909E+02  0.90223692018E+02  0.23365262312E+03  0.92262676182E+02 0.  0.
        -15    1    3    3    0    0 -0.83953259565E+01 -0.59374809819E+01  0.26441952515E+02  0.28370971628E+02  0.00000000000E+00 0.  1.
        -15    1    4    4    0    0  0.30049923371E+02  0.12090066327E+02  0.60409190433E+02  0.68545152179E+02  0.00000000000E+00 0.  1.
         15    1    4    4    0    0  0.15053338025E+03  0.60920225582E+02  0.29814501585E+02  0.16510747094E+03  0.00000000000E+00 0. -1.
         15    1    3    3    0    0 -0.22721864179E+02 -0.75937963518E+02  0.80900854580E+02  0.11325990326E+03  0.00000000000E+00 0. -1.
        -16    1    1    2    0    0  0.12651356879E+03 -0.63232949722E+02  0.54409396081E+03  0.56217642000E+03  0.00000000000E+00 0.  1.
         16    1    3    3    0    0 -0.19435600913E+03  0.20450142970E+02  0.49990549443E+03  0.53674758499E+03  0.00000000000E+00 0. -1.
    9900018    1    3    3    0    0 -0.81623673145E+02  0.51647959343E+02  0.89430713519E+02  0.16013421445E+03  0.91187600000E+02 0.  0.
<mgrwt>
<rscale>  0 0.94843066E+03</rscale>
<asrwt>0</asrwt>
<pdfrwt beam="1">  1        2 0.23334236E-01 0.94843066E+03</pdfrwt>
<pdfrwt beam="2">  1       -2 0.22810294E+00 0.94843066E+03</pdfrwt>
<totfact> 0.21004495E+01</totfact>
</mgrwt>
</event>
<event>
11    1  0.1394181E-011  0.8912144E+03  0.7818608E-02  0.9436631E-01
          2   -1    0    0  501    0  0.00000000000E+00  0.00000000000E+00  0.63162430904E+03  0.63162430904E+03  0.00000000000E+00 0. -1.
         -2   -1    0    0    0  501 -0.00000000000E+00 -0.00000000000E+00 -0.31437321627E+03  0.31437321627E+03  0.00000000000E+00 0.  1.
    9900016    2    1    2    0    0  0.13348519432E+03 -0.89570714114E+02  0.23262022627E+03  0.76432861357E+03  0.71010199966E+03 0.  0.
         23    2    3    3    0    0  0.10910234433E+03  0.34626048222E+02  0.24475801960E+03  0.28427047443E+03  0.88322872008E+02 0.  0.
        -15    1    4    4    0    0  0.56217457430E+02  0.57520157678E+02  0.99129533163E+02  0.12765435913E+03  0.00000000000E+00 0. -1.
        -15    1    3    3    0    0 -0.13851596434E+02  0.20799598419E+02 -0.12396841080E+03  0.12646207690E+03  0.00000000000E+00 0.  1.
         15    1    3    3    0    0 -0.56483820952E+02  0.31411374419E+02  0.77359014800E+02  0.10080433345E+03  0.00000000000E+00 0. -1.
         15    1    4    4    0    0  0.52884886904E+02 -0.22894109456E+02  0.14562848644E+03  0.15661611530E+03  0.00000000000E+00 0.  1.
        -16    1    3    3    0    0 -0.18918830350E+02 -0.62520307679E+02  0.47906029874E+01  0.65495502831E+02  0.00000000000E+00 0.  1.
         16    1    1    2    0    0 -0.13348519432E+03  0.89570714114E+02  0.84630866497E+02  0.18166891174E+03  0.00000000000E+00 0. -1.
    9900018    1    3    3    0    0  0.11363709772E+03 -0.11388742750E+03  0.29680999688E+02  0.18729622596E+03  0.91187600000E+02 0.  0.
<mgrwt>
<rscale>  0 0.89121437E+03</rscale>
<asrwt>0</asrwt>
<pdfrwt beam="1">  1        2 0.97172971E-01 0.89121437E+03</pdfrwt>
<pdfrwt beam="2">  1       -2 0.48365110E-01 0.89121437E+03</pdfrwt>
<totfact> 0.18930112E+02</totfact>
</mgrwt>
</event>
<event>
11    1  0.1394181E-011  0.2164865E+04  0.7818608E-02  0.8533196E-01
         -2   -1    0    0    0  501 -0.00000000000E+00  0.00000000000E+00  0.73880301724E+03  0.73880301724E+03  0.00000000000E+00 0.  1.
          2   -1    0    0  501    0  0.00000000000E+00 -0.00000000000E+00 -0.15858898835E+04  0.15858898835E+04  0.00000000000E+00 0. -1.
    9900016    2    1    2    0    0 -0.66201388905E+03  0.31719370037E+03 -0.11419699858E+04  0.15335985404E+04  0.71341068238E+03 0.  0.
         23    2    3    3    0    0 -0.69535873498E+01  0.93836031616E+02 -0.33113350847E+03  0.35675213966E+03  0.93643662456E+02 0.  0.
        -15    1    4    4    0    0  0.32068998792E+02  0.24925670522E+01 -0.10369866731E+03  0.10857277364E+03  0.00000000000E+00 0.  1.
        -15    1    3    3    0    0 -0.94605629789E+02  0.16571958879E+03 -0.22823516633E+03  0.29749705620E+03  0.00000000000E+00 0.  1.
         15    1    4    4    0    0 -0.39022586141E+02  0.91343464564E+02 -0.22743484116E+03  0.24817936602E+03  0.00000000000E+00 0. -1.
         15    1    3    3    0    0 -0.66188466237E+01 -0.26616909391E+02 -0.96118706922E+02  0.99955364121E+02  0.00000000000E+00 0. -1.
        -16    1    1    2    0    0  0.66201388905E+03 -0.31719370037E+03  0.29488311952E+03  0.79109436038E+03  0.00000000000E+00 0.  1.
         16    1    3    3    0    0 -0.74666115756E+02  0.67015376116E+02 -0.17092260743E+03  0.19819340859E+03  0.00000000000E+00 0. -1.
    9900018    1    3    3    0    0 -0.47916970953E+03  0.17239613240E+02 -0.31555999669E+03  0.58120057183E+03  0.91187600000E+02 0.  0.
<mgrwt>
<rscale>  0 0.21648651E+04</rscale>
<asrwt>0</asrwt>
<pdfrwt beam="1">  1        2 0.24398306E+00 0.21648651E+04</pdfrwt>
<pdfrwt beam="2">  1       -2 0.11366200E+00 0.21648651E+04</pdfrwt>
<totfact> 0.63172628E+00</totfact>
</mgrwt>
</event>
<event>
11    1  0.1394181E-011  0.9956739E+03  0.7818608E-02  0.9313302E-01
          1   -1    0    0  501    0  0.00000000000E+00  0.00000000000E+00  0.90781916465E+03  0.90781916465E+03  0.00000000000E+00 0. -1.
         -1   -1    0    0    0  501 -0.00000000000E+00 -0.00000000000E+00 -0.27300773015E+03  0.27300773015E+03  0.00000000000E+00 0.  1.
    9900016    2    1    2    0    0 -0.16276102916E+03 -0.25051452112E+02  0.27680224516E+03  0.78675925147E+03  0.71781049657E+03 0.  0.
         23    2    3    3    0    0  0.41374407891E+02  0.13689064364E+03  0.44322836005E+02  0.17480346693E+03  0.90226649680E+02 0.  0.
        -15    1    3    3    0    0  0.40202950013E+02 -0.92597025070E+02  0.69735971931E+02  0.12269308058E+03  0.00000000000E+00 0. -1.
        -15    1    4    4    0    0  0.22693335451E+02  0.99772731896E+02  0.71788752244E+02  0.12499284161E+03  0.00000000000E+00 0.  1.
         15    1    4    4    0    0  0.18681072439E+02  0.37117911748E+02 -0.27465916239E+02  0.49810625321E+02  0.00000000000E+00 0. -1.
         15    1    3    3    0    0 -0.53522000144E+02 -0.72067324885E+02  0.97580892148E+02  0.13259085311E+03  0.00000000000E+00 0.  1.
        -16    1    1    2    0    0  0.16276102916E+03  0.25051452112E+02  0.35800918934E+03  0.39406764333E+03  0.00000000000E+00 0.  1.
         16    1    3    3    0    0 -0.20838301008E+03 -0.46836285874E+02 -0.28873468401E+02  0.21552446205E+03  0.00000000000E+00 0. -1.
    9900018    1    3    3    0    0  0.17566623159E+02  0.49558540075E+02  0.94036013475E+02  0.14114738881E+03  0.91187600000E+02 0.  0.
<mgrwt>
<rscale>  0 0.99567394E+03</rscale>
<asrwt>0</asrwt>
<pdfrwt beam="1">  1        1 0.13966449E+00 0.99567394E+03</pdfrwt>
<pdfrwt beam="2">  1       -1 0.42001190E-01 0.99567394E+03</pdfrwt>
<totfact> 0.10002510E+02</totfact>
</mgrwt>
</event>
<event>
11    1  0.1394181E-011  0.9792896E+03  0.7818608E-02  0.9331556E-01
          1   -1    0    0  501    0  0.00000000000E+00  0.00000000000E+00  0.14873898197E+03  0.14873898197E+03  0.00000000000E+00 0. -1.
         -1   -1    0    0    0  501 -0.00000000000E+00 -0.00000000000E+00 -0.16118978823E+04  0.16118978823E+04  0.00000000000E+00 0.  1.
    9900016    2    1    2    0    0  0.17201742623E+03 -0.14893411157E+03 -0.10237985858E+04  0.12658552453E+04  0.70884031571E+03 0.  0.
         23    2    3    3    0    0  0.12610056366E+03 -0.38722589989E+02 -0.39016023686E+03  0.42160627406E+03  0.90144599247E+02 0.  0.
        -15    1    4    4    0    0  0.80743133098E+00 -0.30131798805E+02 -0.43707803573E+02  0.53093778710E+02  0.00000000000E+00 0.  1.
        -15    1    3    3    0    0  0.86953340304E+01 -0.57247704845E+02 -0.33595153873E+03  0.34090518465E+03  0.00000000000E+00 0.  1.
         15    1    4    4    0    0  0.12529313233E+03 -0.85907911842E+01 -0.34645243329E+03  0.36851249535E+03  0.00000000000E+00 0. -1.
         15    1    3    3    0    0  0.17146189038E+01  0.23150044610E+02  0.41589739491E+01  0.23583077572E+02  0.00000000000E+00 0. -1.
        -16    1    3    3    0    0 -0.11394258925E+03  0.30462006049E+02 -0.37531791530E+01  0.11800395676E+03  0.00000000000E+00 0.  1.
         16    1    1    2    0    0 -0.17201742623E+03  0.14893411157E+03 -0.43936031454E+03  0.49478161901E+03  0.00000000000E+00 0. -1.
    9900018    1    3    3    0    0  0.14944949889E+03 -0.10657586739E+03 -0.29809260500E+03  0.36175675222E+03  0.91187600000E+02 0.  0.
<mgrwt>
<rscale>  0 0.97928964E+03</rscale>
<asrwt>0</asrwt>
<pdfrwt beam="1">  1        1 0.22882922E-01 0.97928964E+03</pdfrwt>
<pdfrwt beam="2">  1       -1 0.24798427E+00 0.97928964E+03</pdfrwt>
<totfact> 0.15939190E+01</totfact>
</mgrwt>
</event>
<event>
11    1  0.1394181E-011  0.1177330E+04  0.7818608E-02  0.9132934E-01
          2   -1    0    0  501    0  0.00000000000E+00  0.00000000000E+00  0.94463385574E+03  0.94463385574E+03  0.00000000000E+00 0.  1.
         -2   -1    0    0    0  501 -0.00000000000E+00 -0.00000000000E+00 -0.36683711685E+03  0.36683711685E+03  0.00000000000E+00 0. -1.
    9900016    2    1    2    0    0  0.35034641032E+03 -0.60796495729E+02  0.52268478988E+03  0.95164303031E+03  0.71132710229E+03 0.  0.
         23    2    3    3    0    0 -0.84208703540E+02  0.73946295989E+02  0.19497212649E+03  0.24679502469E+03  0.10165871167E+03 0.  0.
        -15    1    3    3    0    0  0.54777273718E+02 -0.14062697902E+02 -0.45226690384E+02  0.72413829559E+02  0.00000000000E+00 0. -1.
        -15    1    4    4    0    0 -0.69428447923E+02  0.17899380890E+02  0.16840685290E+03  0.18303432826E+03  0.00000000000E+00 0.  1.
         15    1    3    3    0    0  0.68635658412E+01  0.27065462459E+02 -0.31435002847E+02  0.42045299358E+02  0.00000000000E+00 0.  1.
         15    1    4    4    0    0 -0.14780255617E+02  0.56046915100E+02  0.26565273595E+02  0.63760696432E+02  0.00000000000E+00 0. -1.
        -16    1    1    2    0    0 -0.35034641032E+03  0.60796495729E+02  0.55111949004E+02  0.35982794227E+03  0.00000000000E+00 0.  1.
         16    1    3    3    0    0  0.36676255794E+02  0.23427816890E+01  0.91721579364E+02  0.98810346048E+02  0.00000000000E+00 0. -1.
    9900018    1    3    3    0    0  0.33623801851E+03 -0.15008833796E+03  0.31265277726E+03  0.49157853066E+03  0.91187600000E+02 0.  0.
<mgrwt>
<rscale>  0 0.11773305E+04</rscale>
<asrwt>0</asrwt>
<pdfrwt beam="1">  1        2 0.14532829E+00 0.11773305E+04</pdfrwt>
<pdfrwt beam="2">  1       -2 0.56436480E-01 0.11773305E+04</pdfrwt>
<totfact> 0.79695140E+01</totfact>
</mgrwt>
</event>
<event>
11    1  0.1394181E-011  0.9811199E+03  0.7818608E-02  0.9329498E-01
         -2   -1    0    0    0  501 -0.00000000000E+00  0.00000000000E+00  0.19450502640E+03  0.19450502640E+03  0.00000000000E+00 0. -1.
          2   -1    0    0  501    0  0.00000000000E+00 -0.00000000000E+00 -0.12372381578E+04  0.12372381578E+04  0.00000000000E+00 0.  1.
    9900016    2    1    2    0    0  0.18778829862E+03  0.13736132071E+03 -0.71240733978E+03  0.10277039459E+04  0.70322016825E+03 0.  0.
         23    2    3    3    0    0  0.11233991624E+03  0.27860380742E+03 -0.33312918262E+03  0.45746822680E+03  0.89787459744E+02 0.  0.
        -15    1    3    3    0    0  0.15532639118E+03 -0.81966913708E+02 -0.16593243890E+03  0.24161630123E+03  0.00000000000E+00 0.  1.
        -15    1    4    4    0    0 -0.11059170929E+02  0.43009140413E+02 -0.73007347939E+02  0.85452701969E+02  0.00000000000E+00 0.  1.
         15    1    4    4    0    0  0.12339908717E+03  0.23559466700E+03 -0.26012183468E+03  0.37201552483E+03  0.00000000000E+00 0. -1.
         15    1    3    3    0    0  0.45084543299E+02 -0.57570218006E+02 -0.70092756460E+02  0.10129136466E+03  0.00000000000E+00 0. -1.
        -16    1    1    2    0    0 -0.18778829862E+03 -0.13736132071E+03 -0.33032579165E+03  0.40403923839E+03  0.00000000000E+00 0.  1.
         16    1    3    3    0    0 -0.20054468227E+02  0.83745053628E+01  0.65736575479E+01  0.22705219873E+02  0.00000000000E+00 0. -1.
    9900018    1    3    3    0    0 -0.10490808388E+03 -0.10079860353E+02 -0.14982661934E+03  0.20462283330E+03  0.91187600000E+02 0.  0.
<mgrwt>
<rscale>  0 0.98111985E+03</rscale>
<asrwt>0</asrwt>
<pdfrwt beam="1">  1        2 0.19034433E+00 0.98111985E+03</pdfrwt>
<pdfrwt beam="2">  1       -2 0.29923850E-01 0.98111985E+03</pdfrwt>
<totfact> 0.18503250E+02</totfact>
</mgrwt>
</event>
<event>
11    1  0.1394181E-011  0.1002857E+04  0.7818608E-02  0.9305417E-01
         -1   -1    0    0    0  501 -0.00000000000E+00  0.00000000000E+00  0.22425369561E+03  0.22425369561E+03  0.00000000000E+00 0.  1.
          1   -1    0    0  501    0  0.00000000000E+00 -0.00000000000E+00 -0.11211873770E+04  0.11211873770E+04  0.00000000000E+00 0. -1.
    9900016    2    1    2    0    0 -0.12818021861E+03  0.31620480131E+02 -0.95789004030E+03  0.12000254582E+04  0.71068822129E+03 0.  0.
         23    2    3    3    0    0 -0.20578415629E+03  0.13604254935E+03 -0.32816449377E+03  0.42090582238E+03  0.92817466733E+02 0.  0.
        -15    1    4    4    0    0 -0.56704709210E+02  0.91358815422E+02 -0.14576229906E+03  0.18113118182E+03  0.00000000000E+00 0.  1.
        -15    1    3    3    0    0 -0.46312587730E+02 -0.14822529642E+03 -0.14537468561E+03  0.21271904827E+03  0.00000000000E+00 0.  1.
         15    1    3    3    0    0  0.74557480210E+02  0.52785153443E+02 -0.27640804190E+03  0.29111251417E+03  0.00000000000E+00 0. -1.
         15    1    4    4    0    0 -0.14907944708E+03  0.44683733927E+02 -0.18240219470E+03  0.23977464056E+03  0.00000000000E+00 0. -1.
        -16    1    1    2    0    0  0.12818021861E+03 -0.31620480131E+02  0.60956358934E+02  0.14541561437E+03  0.00000000000E+00 0.  1.
         16    1    3    3    0    0  0.41724964943E+02 -0.64556369220E+01  0.59414717092E+01  0.42637413543E+02  0.00000000000E+00 0. -1.
    9900018    1    3    3    0    0  0.76340802585E+01 -0.25262893216E+01 -0.21388429073E+03  0.23265065986E+03  0.91187600000E+02 0.  0.
<mgrwt>
<rscale>  0 0.10028567E+04</rscale>
<asrwt>0</asrwt>
<pdfrwt beam="1">  1        1 0.17249036E+00 0.10028567E+04</pdfrwt>
<pdfrwt beam="2">  1       -1 0.34500569E-01 0.10028567E+04</pdfrwt>
<totfact> 0.97449311E+01</totfact>
</mgrwt>
</event>
<event>
11    1  0.1394181E-011  0.9735568E+03  0.7818608E-02  0.9338032E-01
          2   -1    0    0  501    0  0.00000000000E+00  0.00000000000E+00  0.58657387389E+03  0.58657387389E+03  0.00000000000E+00 0. -1.
         -2   -1    0    0    0  501 -0.00000000000E+00 -0.00000000000E+00 -0.40396142785E+03  0.40396142785E+03  0.00000000000E+00 0.  1.
    9900016    2    1    2    0    0 -0.17547931329E+03 -0.89291744885E+02  0.25556176068E+03  0.78056480952E+03  0.71077676049E+03 0.  0.
         23    2    3    3    0    0 -0.90913178683E+02 -0.15628969047E+02  0.13964936072E+03  0.19064936275E+03  0.91300409838E+02 0.  0.
        -15    1    3    3    0    0  0.42032483050E+02  0.11812282900E+03  0.54230616550E+02  0.13660414391E+03  0.00000000000E+00 0.  1.
        -15    1    4    4    0    0 -0.33049967011E+02 -0.31517917974E+01 -0.57213241372E+01  0.33689281097E+02  0.00000000000E+00 0.  1.
         15    1    3    3    0    0 -0.52620226726E+02 -0.36828202328E+02  0.31040752510E+02  0.71335356337E+02  0.00000000000E+00 0. -1.
         15    1    4    4    0    0 -0.57863211672E+02 -0.12477177249E+02  0.14537068486E+03  0.15696008166E+03  0.00000000000E+00 0. -1.
        -16    1    1    2    0    0  0.17547931329E+03  0.89291744885E+02 -0.72949314636E+02  0.20997049222E+03  0.00000000000E+00 0.  1.
         16    1    3    3    0    0  0.70754082308E+02  0.62527602803E+02  0.45630210149E+02  0.10487114643E+03  0.00000000000E+00 0. -1.
    9900018    1    3    3    0    0 -0.14473247324E+03 -0.21748500531E+03 -0.14989179249E+02  0.27710480009E+03  0.91187600000E+02 0.  0.
<mgrwt>
<rscale>  0 0.97355682E+03</rscale>
<asrwt>0</asrwt>
<pdfrwt beam="1">  1        2 0.90242135E-01 0.97355682E+03</pdfrwt>
<pdfrwt beam="2">  1       -2 0.62147912E-01 0.97355682E+03</pdfrwt>
<totfact> 0.12255903E+02</totfact>
</mgrwt>
</event>
<event>
11    1  0.1394181E-011  0.1118638E+04  0.7818608E-02  0.9187214E-01
          1   -1    0    0  501    0  0.00000000000E+00  0.00000000000E+00  0.61758023910E+03  0.61758023910E+03  0.00000000000E+00 0. -1.
         -1   -1    0    0    0  501 -0.00000000000E+00 -0.00000000000E+00 -0.50655414484E+03  0.50655414484E+03  0.00000000000E+00 0.  1.
    9900016    2    1    2    0    0 -0.18532706254E+02  0.32665023979E+03  0.16449678229E+03  0.79261823828E+03  0.70295137805E+03 0.  0.
         23    2    3    3    0    0  0.20010465203E+03  0.10840407424E+03  0.37934949900E+02  0.24733694773E+03  0.89124576920E+02 0.  0.
        -15    1    3    3    0    0 -0.44362245526E+02  0.31930808194E+02  0.82445940261E+01  0.55277108017E+02  0.00000000000E+00 0.  1.
        -15    1    4    4    0    0  0.92725942434E+02  0.10031694192E+03  0.25063171808E+02  0.13888755098E+03  0.00000000000E+00 0.  1.
         15    1    3    3    0    0 -0.10313540224E+03 -0.41105031857E+02  0.16354242444E+03  0.19766805364E+03  0.00000000000E+00 0. -1.
         15    1    4    4    0    0  0.10737870960E+03  0.80871323239E+01  0.12871778093E+02  0.10844939675E+03  0.00000000000E+00 0. -1.
        -16    1    3    3    0    0 -0.61396493691E+02  0.16254558838E+03 -0.46962329652E+02  0.17998905007E+03  0.00000000000E+00 0.  1.
         16    1    1    2    0    0  0.18532706254E+02 -0.32665023979E+03 -0.53470688036E+02  0.33151614566E+03  0.00000000000E+00 0. -1.
    9900018    1    3    3    0    0 -0.97432168344E+01  0.64874800832E+02  0.17371435807E+01  0.11234707882E+03  0.91187600000E+02 0.  0.
<mgrwt>
<rscale>  0 0.11186382E+04</rscale>
<asrwt>0</asrwt>
<pdfrwt beam="1">  1        1 0.95012344E-01 0.11186382E+04</pdfrwt>
<pdfrwt beam="2">  1       -1 0.77931407E-01 0.11186382E+04</pdfrwt>
<totfact> 0.53930788E+01</totfact>
</mgrwt>
</event>
<event>
11    1  0.1394181E-011  0.9505134E+03  0.7818608E-02  0.9364551E-01
         -2   -1    0    0    0  501 -0.00000000000E+00  0.00000000000E+00  0.40412533239E+03  0.40412533239E+03  0.00000000000E+00 0.  1.
          2   -1    0    0  501    0  0.00000000000E+00 -0.00000000000E+00 -0.55890816708E+03  0.55890816708E+03  0.00000000000E+00 0. -1.
    9900016    2    1    2    0    0  0.11980045016E+03 -0.15160829592E+03 -0.42767401039E+02  0.73968471252E+03  0.71271817719E+03 0.  0.
         23    2    3    3    0    0  0.90425427277E+01 -0.34031472766E+02  0.35947920258E+02  0.10335411420E+03  0.90276858795E+02 0.  0.
        -15    1    4    4    0    0  0.35022020793E+02 -0.50425331618E+02  0.38599719035E+02  0.72520302803E+02  0.00000000000E+00 0.  1.
        -15    1    3    3    0    0 -0.85656975421E+02  0.82499978435E+01  0.29546062472E+02  0.90984337720E+02  0.00000000000E+00 0.  1.
         15    1    3    3    0    0  0.33785087979E+01 -0.71778919551E+02 -0.35763788020E+02  0.80266282754E+02  0.00000000000E+00 0. -1.
         15    1    4    4    0    0 -0.25979478065E+02  0.16393858852E+02 -0.26517987766E+01  0.30833811398E+02  0.00000000000E+00 0. -1.
        -16    1    1    2    0    0 -0.11980045016E+03  0.15160829592E+03 -0.11201543365E+03  0.22334878694E+03  0.00000000000E+00 0.  1.
         16    1    3    3    0    0 -0.93068075138E+02  0.36921307169E+02  0.68273539147E+02  0.12118632629E+03  0.00000000000E+00 0. -1.
    9900018    1    3    3    0    0  0.28610444919E+03 -0.90969208617E+02 -0.14077113490E+03  0.34389365155E+03  0.91187600000E+02 0.  0.
<mgrwt>
<rscale>  0 0.95051344E+03</rscale>
<asrwt>0</asrwt>
<pdfrwt beam="1">  1        2 0.85985872E-01 0.95051344E+03</pdfrwt>
<pdfrwt beam="2">  1       -2 0.62173128E-01 0.95051344E+03</pdfrwt>
<totfact> 0.12990151E+02</totfact>
</mgrwt>
</event>
<event>
11    1  0.1394181E-011  0.8106126E+03  0.7818608E-02  0.9544782E-01
         -3   -1    0    0    0  501 -0.00000000000E+00  0.00000000000E+00  0.43822964152E+03  0.43822964152E+03  0.00000000000E+00 0.  1.
          3   -1    0    0  501    0  0.00000000000E+00 -0.00000000000E+00 -0.37485638506E+03  0.37485638506E+03  0.00000000000E+00 0. -1.
    9900016    2    1    2    0    0  0.46310812089E+01 -0.59281653028E+02 -0.24043101967E+02  0.70736289278E+03  0.70444902586E+03 0.  0.
         23    2    3    3    0    0  0.51255737124E+02  0.73141169735E+01  0.13708635686E+03  0.17738916654E+03  0.99967996251E+02 0.  0.
        -15    1    4    4    0    0  0.33942367433E+02 -0.26475711937E+02  0.13229326861E+03  0.13912065465E+03  0.00000000000E+00 0.  1.
        -15    1    3    3    0    0 -0.29672337093E+02  0.29201094434E+02  0.52566755965E+02  0.67055315504E+02  0.00000000000E+00 0.  1.
         15    1    4    4    0    0  0.17313369691E+02  0.33789828910E+02  0.47930882494E+01  0.38268511897E+02  0.00000000000E+00 0. -1.
         15    1    3    3    0    0  0.46018659891E+02 -0.29965622356E+02 -0.13010159391E+03  0.14121643077E+03  0.00000000000E+00 0. -1.
        -16    1    1    2    0    0 -0.46310812089E+01  0.59281653028E+02  0.87416358434E+02  0.10572313380E+03  0.00000000000E+00 0.  1.
         16    1    3    3    0    0  0.26191854226E+01 -0.15778139573E+03 -0.78984914112E+02  0.17646655668E+03  0.00000000000E+00 0. -1.
    9900018    1    3    3    0    0 -0.65590164135E+02  0.91950153646E+02 -0.46097067721E+01  0.14523542329E+03  0.91187600000E+02 0.  0.
<mgrwt>
<rscale>  0 0.81061256E+03</rscale>
<asrwt>0</asrwt>
<pdfrwt beam="1">  1        3 0.57670214E-01 0.81061256E+03</pdfrwt>
<pdfrwt beam="2">  1       -3 0.67419944E-01 0.81061256E+03</pdfrwt>
<totfact> 0.16456271E+01</totfact>
</mgrwt>
</event>
<event>
11    1  0.1394181E-011  0.9783064E+03  0.7818608E-02  0.9332663E-01
          3   -1    0    0  501    0  0.00000000000E+00  0.00000000000E+00  0.56774708296E+03  0.56774708296E+03  0.00000000000E+00 0.  1.
         -3   -1    0    0    0  501 -0.00000000000E+00 -0.00000000000E+00 -0.42143912721E+03  0.42143912721E+03  0.00000000000E+00 0. -1.
    9900016    2    1    2    0    0  0.29263085949E+02 -0.20561156130E+03  0.15545396706E+03  0.78130140587E+03  0.73697592131E+03 0.  0.
         23    2    3    3    0    0 -0.13321847283E+03 -0.56044968025E+02  0.16295272861E+03  0.23621899400E+03  0.91420027459E+02 0.  0.
        -15    1    3    3    0    0  0.47325628268E+02  0.18017850446E+02 -0.18221768970E+02  0.53818127894E+02  0.00000000000E+00 0.  1.
        -15    1    4    4    0    0 -0.22933717030E+02 -0.30787081967E+02  0.67760032950E+00  0.38396079683E+02  0.00000000000E+00 0.  1.
         15    1    4    4    0    0 -0.11028475580E+03 -0.25257886058E+02  0.16227512828E+03  0.19782291432E+03  0.00000000000E+00 0. -1.
         15    1    3    3    0    0  0.79863941530E+02 -0.79653910297E+02 -0.33117208511E+02  0.11755740760E+03  0.00000000000E+00 0. -1.
        -16    1    1    2    0    0 -0.29263085949E+02  0.20561156130E+03 -0.91460113099E+01  0.20788480431E+03  0.00000000000E+00 0.  1.
         16    1    3    3    0    0  0.12064033526E+01  0.57881481586E+02 -0.12032151217E+03  0.13352523212E+03  0.00000000000E+00 0. -1.
    9900018    1    3    3    0    0  0.34085585632E+02 -0.14581201501E+03  0.16416172810E+03  0.24018164425E+03  0.91187600000E+02 0.  0.
<mgrwt>
<rscale>  0 0.97830636E+03</rscale>
<asrwt>0</asrwt>
<pdfrwt beam="1">  1        3 0.87345704E-01 0.97830636E+03</pdfrwt>
<pdfrwt beam="2">  1       -3 0.64836789E-01 0.97830636E+03</pdfrwt>
<totfact> 0.72024479E+00</totfact>
</mgrwt>
</event>
<event>
11    1  0.1394181E-011  0.9440202E+03  0.7818608E-02  0.9372167E-01
         -2   -1    0    0    0  501 -0.00000000000E+00  0.00000000000E+00  0.11899397052E+03  0.11899397052E+03  0.00000000000E+00 0.  1.
          2   -1    0    0  501    0  0.00000000000E+00 -0.00000000000E+00 -0.18723094301E+04  0.18723094301E+04  0.00000000000E+00 0. -1.
    9900016    2    1    2    0    0 -0.37811927070E+02 -0.16139517823E+03 -0.10861820031E+04  0.13038841733E+04  0.70202880855E+03 0.  0.
         23    2    3    3    0    0  0.52550624735E+01  0.40768849220E+02 -0.24405206592E+03  0.26397101384E+03  0.91812692602E+02 0.  0.
        -15    1    4    4    0    0  0.44250090145E+02  0.59894040241E+01 -0.14846397971E+03  0.15503385666E+03  0.00000000000E+00 0.  1.
        -15    1    3    3    0    0 -0.14922254909E+03 -0.14323460975E+03 -0.21213692996E+03  0.29628634737E+03  0.00000000000E+00 0.  1.
         15    1    4    4    0    0 -0.38995027672E+02  0.34779445196E+02 -0.95588086205E+02  0.10893715718E+03  0.00000000000E+00 0. -1.
         15    1    3    3    0    0  0.72297570864E+02  0.69869400562E+02 -0.49357093527E+03  0.50370719672E+03  0.00000000000E+00 0. -1.
        -16    1    3    3    0    0  0.23539985675E+02  0.29042426520E+01 -0.55068576503E+02  0.59959266748E+02  0.00000000000E+00 0.  1.
         16    1    1    2    0    0  0.37811927070E+02  0.16139517823E+03 -0.66713345654E+03  0.68741922741E+03  0.00000000000E+00 0. -1.
    9900018    1    3    3    0    0  0.10318003013E+02 -0.13170306091E+03 -0.81353495447E+02  0.17996034856E+03  0.91187600000E+02 0.  0.
<mgrwt>
<rscale>  0 0.94402020E+03</rscale>
<asrwt>0</asrwt>
<pdfrwt beam="1">  1        2 0.28804760E+00 0.94402020E+03</pdfrwt>
<pdfrwt beam="2">  1       -2 0.18306765E-01 0.94402020E+03</pdfrwt>
<totfact> 0.19712145E+02</totfact>
</mgrwt>
</event>
<event>
11    1  0.1394181E-011  0.9460553E+03  0.7818608E-02  0.9369773E-01
         -1   -1    0    0    0  501 -0.00000000000E+00  0.00000000000E+00  0.23636110947E+03  0.23636110947E+03  0.00000000000E+00 0.  1.
          1   -1    0    0  501    0  0.00000000000E+00 -0.00000000000E+00 -0.94666657197E+03  0.94666657197E+03  0.00000000000E+00 0. -1.
    9900016    2    1    2    0    0  0.31960194884E+02  0.24346023957E+02 -0.80868917507E+03  0.10767566231E+04  0.70979747859E+03 0.  0.
         23    2    3    3    0    0 -0.82912652658E+02  0.77772371207E+02 -0.75996702611E+02  0.16342833796E+03  0.89500129311E+02 0.  0.
        -15    1    4    4    0    0  0.14331695482E+02 -0.29619398484E+01  0.22072846242E+01  0.14800090826E+02  0.00000000000E+00 0. -1.
        -15    1    3    3    0    0  0.12113263489E+02 -0.12853573234E+03 -0.16395658898E+03  0.20868619674E+03  0.00000000000E+00 0.  1.
         15    1    3    3    0    0  0.34730599966E+02  0.11860437844E+03 -0.28406439686E+03  0.30978346425E+03  0.00000000000E+00 0. -1.
         15    1    4    4    0    0 -0.97244348140E+02  0.80734311055E+02 -0.78203987235E+02  0.14862824713E+03  0.00000000000E+00 0.  1.
        -16    1    1    2    0    0 -0.31960194884E+02 -0.24346023957E+02  0.98383712567E+02  0.10627105833E+03  0.00000000000E+00 0.  1.
         16    1    3    3    0    0  0.13126257627E+02 -0.12105660722E+03 -0.21188707751E+03  0.24438317128E+03  0.00000000000E+00 0. -1.
    9900018    1    3    3    0    0  0.54902726461E+02  0.77561613868E+02 -0.72784409099E+02  0.15047545288E+03  0.91187600000E+02 0.  0.
<mgrwt>
<rscale>  0 0.94605531E+03</rscale>
<asrwt>0</asrwt>
<pdfrwt beam="1">  1        1 0.14564102E+00 0.94605531E+03</pdfrwt>
<pdfrwt beam="2">  1       -1 0.36363246E-01 0.94605531E+03</pdfrwt>
<totfact> 0.12132784E+02</totfact>
</mgrwt>
</event>
<event>
11    1  0.1394181E-011  0.1288579E+04  0.7818608E-02  0.9038671E-01
          2   -1    0    0  501    0  0.00000000000E+00  0.00000000000E+00  0.15047823994E+04  0.15047823994E+04  0.00000000000E+00 0. -1.
         -2   -1    0    0    0  501 -0.00000000000E+00 -0.00000000000E+00 -0.27585987928E+03  0.27585987928E+03  0.00000000000E+00 0.  1.
    9900016    2    1    2    0    0 -0.67264434733E+02  0.15526600065E+03  0.22000128194E+03  0.75763001093E+03  0.70496144169E+03 0.  0.
         23    2    3    3    0    0 -0.75548180926E+01  0.22094056935E+02  0.26504490248E+03  0.28043399216E+03  0.88595716597E+02 0.  0.
        -15    1    4    4    0    0 -0.43310606761E+02 -0.32886944896E+01  0.89325155268E+02  0.99325764699E+02  0.00000000000E+00 0. -1.
        -15    1    3    3    0    0 -0.11629888192E+03  0.47570695927E+02 -0.93292556749E+02  0.15649888879E+03  0.00000000000E+00 0.  1.
         15    1    4    4    0    0  0.35755788669E+02  0.25382751425E+02  0.17571974722E+03  0.18110822746E+03  0.00000000000E+00 0.  1.
         15    1    3    3    0    0 -0.24995704486E+02  0.33887644154E+02 -0.20775632068E+02  0.46955133445E+02  0.00000000000E+00 0. -1.
        -16    1    3    3    0    0  0.13718673464E+03  0.63423188272E+02  0.69373609401E+02  0.16629912403E+03  0.00000000000E+00 0.  1.
         16    1    1    2    0    0  0.67264434733E+02 -0.15526600065E+03  0.10089212382E+04  0.10230122677E+04  0.00000000000E+00 0. -1.
    9900018    1    3    3    0    0 -0.55601764869E+02 -0.11709584643E+02 -0.34904112426E+00  0.10744287251E+03  0.91187600000E+02 0.  0.
<mgrwt>
<rscale>  0 0.12885792E+04</rscale>
<asrwt>0</asrwt>
<pdfrwt beam="1">  1        2 0.23150498E+00 0.12885792E+04</pdfrwt>
<pdfrwt beam="2">  1       -2 0.42439983E-01 0.12885792E+04</pdfrwt>
<totfact> 0.65099429E+01</totfact>
</mgrwt>
</event>
<event>
11    1  0.1394181E-011  0.1944318E+04  0.7818608E-02  0.8633106E-01
          2   -1    0    0  501    0  0.00000000000E+00  0.00000000000E+00  0.85794241243E+03  0.85794241243E+03  0.00000000000E+00 0. -1.
         -2   -1    0    0    0  501 -0.00000000000E+00 -0.00000000000E+00 -0.11015811551E+04  0.11015811551E+04  0.00000000000E+00 0.  1.
    9900016    2    1    2    0    0  0.24263174872E+03  0.13605522155E+03 -0.93959534240E+03  0.12100325553E+04  0.70990012575E+03 0.  0.
         23    2    3    3    0    0  0.13138707746E+03 -0.16200579588E+03 -0.53668933147E+03  0.58301817176E+03  0.91467524673E+02 0.  0.
        -15    1    3    3    0    0  0.87078173335E+02  0.13054788508E+03 -0.89475288307E+02  0.18064104126E+03  0.00000000000E+00 0.  1.
        -15    1    4    4    0    0  0.62927001896E+02 -0.74178984887E+02 -0.13643153541E+03  0.16755862622E+03  0.00000000000E+00 0. -1.
         15    1    3    3    0    0  0.40248688988E+02  0.19402923278E+02 -0.29111736420E+02  0.53328450140E+02  0.00000000000E+00 0. -1.
         15    1    4    4    0    0  0.68460075561E+02 -0.87826810996E+02 -0.40025779606E+03  0.41545954555E+03  0.00000000000E+00 0.  1.
        -16    1    3    3    0    0 -0.30185822344E+02  0.33622991379E+02  0.24214103553E+02  0.51264141764E+02  0.00000000000E+00 0.  1.
         16    1    1    2    0    0 -0.24263174872E+03 -0.13605522155E+03  0.69595659972E+03  0.74949101228E+03  0.00000000000E+00 0. -1.
    9900018    1    3    3    0    0  0.14103631288E+02  0.11448721770E+03 -0.30853308976E+03  0.34178075034E+03  0.91187600000E+02 0.  0.
<mgrwt>
<rscale>  0 0.19443181E+04</rscale>
<asrwt>0</asrwt>
<pdfrwt beam="1">  1        2 0.13199114E+00 0.19443181E+04</pdfrwt>
<pdfrwt beam="2">  1       -2 0.16947402E+00 0.19443181E+04</pdfrwt>
<totfact> 0.62845584E+00</totfact>
</mgrwt>
</event>
<event>
11    1  0.1394181E-011  0.1227770E+04  0.7818608E-02  0.9088891E-01
          1   -1    0    0  501    0  0.00000000000E+00  0.00000000000E+00  0.26936838044E+04  0.26936838044E+04  0.00000000000E+00 0. -1.
         -1   -1    0    0    0  501 -0.00000000000E+00 -0.00000000000E+00 -0.13990306725E+03  0.13990306725E+03  0.00000000000E+00 0.  1.
    9900016    2    1    2    0    0 -0.35568820585E+03 -0.16194115899E+03  0.14642655128E+04  0.16760971469E+04  0.71588345083E+03 0.  0.
         23    2    3    3    0    0 -0.16735566012E+03  0.55922828942E+02  0.29335546024E+03  0.35328807383E+03  0.87291221114E+02 0.  0.
        -15    1    3    3    0    0 -0.29693425435E+02  0.32056009252E+02  0.15865780773E+03  0.16456484193E+03  0.00000000000E+00 0.  1.
        -15    1    4    4    0    0 -0.14981732774E+03  0.13029304365E+02  0.21849560446E+03  0.26524577967E+03  0.00000000000E+00 0. -1.
         15    1    3    3    0    0  0.23661186527E+02 -0.20562104416E+03  0.20877847223E+03  0.29398693171E+03  0.00000000000E+00 0. -1.
         15    1    4    4    0    0 -0.17538332384E+02  0.42893524577E+02  0.74859855776E+02  0.88042294156E+02  0.00000000000E+00 0.  1.
        -16    1    1    2    0    0  0.35568820585E+03  0.16194115899E+03  0.10895152243E+04  0.11574897247E+04  0.00000000000E+00 0.  1.
         16    1    3    3    0    0 -0.32996605657E+02  0.71645133212E+02  0.85908603379E+02  0.11662799506E+03  0.00000000000E+00 0. -1.
    9900018    1    3    3    0    0 -0.14930370116E+03 -0.11594408624E+03  0.71756516923E+03  0.74762930440E+03  0.91187600000E+02 0.  0.
<mgrwt>
<rscale>  0 0.12277697E+04</rscale>
<asrwt>0</asrwt>
<pdfrwt beam="1">  1        1 0.41441285E+00 0.12277697E+04</pdfrwt>
<pdfrwt beam="2">  1       -1 0.21523551E-01 0.12277697E+04</pdfrwt>
<totfact> 0.17846616E+01</totfact>
</mgrwt>
</event>
<event>
11    1  0.1394181E-011  0.9196274E+03  0.7818608E-02  0.9401373E-01
          1   -1    0    0  501    0  0.00000000000E+00  0.00000000000E+00  0.16616786679E+04  0.16616786679E+04  0.00000000000E+00 0. -1.
         -1   -1    0    0    0  501 -0.00000000000E+00 -0.00000000000E+00 -0.12723798038E+03  0.12723798038E+03  0.00000000000E+00 0.  1.
    9900016    2    1    2    0    0  0.41273556465E+01 -0.12806666937E+03  0.14911671034E+04  0.16536734971E+04  0.70330547979E+03 0.  0.
         23    2    3    3    0    0  0.78168591041E+02  0.25608668094E+02  0.14872320449E+03  0.19152306386E+03  0.88296998421E+02 0.  0.
        -15    1    3    3    0    0 -0.86017546213E+01 -0.44038466536E+02  0.31508109808E+02  0.54828256411E+02  0.00000000000E+00 0.  1.
        -15    1    4    4    0    0  0.23293917817E+02  0.44643601890E+02  0.11201558733E+03  0.12281347484E+03  0.00000000000E+00 0. -1.
         15    1    4    4    0    0  0.54874673225E+02 -0.19034933796E+02  0.36707617158E+02  0.68709589022E+02  0.00000000000E+00 0.  1.
         15    1    3    3    0    0 -0.51863930361E+02 -0.27322593080E+02  0.77008798271E+02  0.96781952741E+02  0.00000000000E+00 0. -1.
        -16    1    1    2    0    0 -0.41273556465E+01  0.12806666937E+03  0.43273584185E+02  0.13524315124E+03  0.00000000000E+00 0.  1.
         16    1    3    3    0    0 -0.23501914507E+02 -0.10393930994E+02 -0.30993164524E+02  0.40261023760E+02  0.00000000000E+00 0. -1.
    9900018    1    3    3    0    0  0.99263640948E+01 -0.71920346855E+02  0.12649201553E+04  0.12702792003E+04  0.91187600000E+02 0.  0.
<mgrwt>
<rscale>  0 0.91962740E+03</rscale>
<asrwt>0</asrwt>
<pdfrwt beam="1">  1        1 0.25564286E+00 0.91962740E+03</pdfrwt>
<pdfrwt beam="2">  1       -1 0.19575075E-01 0.91962740E+03</pdfrwt>
<totfact> 0.10833562E+02</totfact>
</mgrwt>
</event>
<event>
11    1  0.1394181E-011  0.7789772E+03  0.7818608E-02  0.9590955E-01
         -1   -1    0    0    0  501 -0.00000000000E+00  0.00000000000E+00  0.12043627965E+03  0.12043627965E+03  0.00000000000E+00 0.  1.
          1   -1    0    0  501    0  0.00000000000E+00 -0.00000000000E+00 -0.12595985051E+04  0.12595985051E+04  0.00000000000E+00 0. -1.
    9900016    2    1    2    0    0 -0.25413755850E+02  0.28137660140E+02 -0.10469962421E+04  0.12803745851E+04  0.73601654894E+03 0.  0.
         23    2    3    3    0    0  0.35167837959E+02 -0.62605959586E+02 -0.29501483917E+03  0.31816592066E+03  0.95076362656E+02 0.  0.
        -15    1    4    4    0    0  0.21595427558E+02 -0.68957232759E+02 -0.29443228346E+03  0.30316964225E+03  0.00000000000E+00 0. -1.
        -15    1    3    3    0    0 -0.15131211803E+03 -0.82664877282E+02 -0.32634458176E+03  0.36909297615E+03  0.00000000000E+00 0.  1.
         15    1    3    3    0    0  0.98383981093E+02  0.17448206088E+03 -0.13095873452E+03  0.23931900771E+03  0.00000000000E+00 0. -1.
         15    1    4    4    0    0  0.13572410401E+02  0.63512731736E+01 -0.58255571741E+00  0.14996278411E+02  0.00000000000E+00 0.  1.
        -16    1    3    3    0    0  0.31990165951E+02 -0.68334672296E+02 -0.12338114780E+03  0.14462332380E+03  0.00000000000E+00 0.  1.
         16    1    1    2    0    0  0.25413755850E+02 -0.28137660140E+02 -0.92165983351E+02  0.99660199637E+02  0.00000000000E+00 0. -1.
    9900018    1    3    3    0    0 -0.39643622827E+02  0.67261108426E+02 -0.17129693888E+03  0.20917335681E+03  0.91187600000E+02 0.  0.
<mgrwt>
<rscale>  0 0.77897717E+03</rscale>
<asrwt>0</asrwt>
<pdfrwt beam="1">  1        1 0.19378438E+00 0.77897717E+03</pdfrwt>
<pdfrwt beam="2">  1       -1 0.18528659E-01 0.77897717E+03</pdfrwt>
<totfact> 0.22758657E+02</totfact>
</mgrwt>
</event>
<event>
11    1  0.1394181E-011  0.9753217E+03  0.7818608E-02  0.9336033E-01
         -1   -1    0    0    0  501 -0.00000000000E+00  0.00000000000E+00  0.99496451630E+03  0.99496451630E+03  0.00000000000E+00 0.  1.
          1   -1    0    0  501    0  0.00000000000E+00 -0.00000000000E+00 -0.23901666724E+03  0.23901666724E+03  0.00000000000E+00 0. -1.
    9900016    2    1    2    0    0 -0.15951627766E+03  0.15503769779E+03  0.50430678264E+03  0.89811609621E+03  0.70908748451E+03 0.  0.
         23    2    3    3    0    0 -0.62986053413E+02  0.12218851435E+03  0.18498696965E+03  0.24673916327E+03  0.88106525204E+02 0.  0.
        -15    1    3    3    0    0 -0.81590842083E+02 -0.23880899265E+02  0.79148768260E+01  0.85381544474E+02  0.00000000000E+00 0. -1.
        -15    1    4    4    0    0 -0.16541068574E+02  0.43860289560E+02  0.77982177578E+01  0.47519934239E+02  0.00000000000E+00 0. -1.
         15    1    4    4    0    0 -0.46444984839E+02  0.78328224791E+02  0.17718875190E+03  0.19921922903E+03  0.00000000000E+00 0.  1.
         15    1    3    3    0    0 -0.18015717369E+03 -0.58362790113E+02  0.14862073953E+03  0.24073002870E+03  0.00000000000E+00 0.  1.
        -16    1    1    2    0    0  0.15951627766E+03 -0.15503769779E+03  0.25164106642E+03  0.33586508733E+03  0.00000000000E+00 0.  1.
         16    1    3    3    0    0  0.88837545456E+02  0.13355852637E+03  0.80652533390E+02  0.17954058202E+03  0.00000000000E+00 0. -1.
    9900018    1    3    3    0    0  0.76380246069E+02 -0.18465653549E+02  0.82131663243E+02  0.14572477775E+03  0.91187600000E+02 0.  0.
<mgrwt>
<rscale>  0 0.97532170E+03</rscale>
<asrwt>0</asrwt>
<pdfrwt beam="1">  1        1 0.36771795E-01 0.97532170E+03</pdfrwt>
<pdfrwt beam="2">  1       -1 0.15307146E+00 0.97532170E+03</pdfrwt>
<totfact> 0.39115126E+01</totfact>
</mgrwt>
</event>
<event>
11    1  0.1394181E-011  0.8408709E+03  0.7818608E-02  0.9502672E-01
          2   -1    0    0  501    0  0.00000000000E+00  0.00000000000E+00  0.12016998935E+04  0.12016998935E+04  0.00000000000E+00 0. -1.
         -2   -1    0    0    0  501 -0.00000000000E+00 -0.00000000000E+00 -0.14709660159E+03  0.14709660159E+03  0.00000000000E+00 0.  1.
    9900016    2    1    2    0    0  0.50937250604E+02  0.53633866705E+01  0.75730217047E+03  0.10471156601E+04  0.72133297355E+03 0.  0.
         23    2    3    3    0    0 -0.23424721871E+02  0.18373029338E+02  0.53868775023E+02  0.10974307287E+03  0.90859294068E+02 0.  0.
        -15    1    3    3    0    0  0.41040461586E+02  0.27690219396E+02  0.11000362887E+03  0.12063111581E+03  0.00000000000E+00 0. -1.
        -15    1    4    4    0    0 -0.46716512227E+02 -0.19730522775E+02  0.32524807577E+02  0.60246071669E+02  0.00000000000E+00 0.  1.
         15    1    3    3    0    0 -0.10427399011E+03 -0.85687925306E+02  0.18118379816E+03  0.22592709947E+03  0.00000000000E+00 0.  1.
         15    1    4    4    0    0  0.23291790356E+02  0.38103552112E+02  0.21343967446E+02  0.49497001201E+02  0.00000000000E+00 0. -1.
        -16    1    3    3    0    0  0.85802534392E+02  0.14238413857E+03  0.41564140609E+03  0.44765287476E+03  0.00000000000E+00 0.  1.
         16    1    1    2    0    0 -0.50937250604E+02 -0.53633866705E+01  0.29730112148E+03  0.30168083507E+03  0.00000000000E+00 0. -1.
    9900018    1    3    3    0    0  0.51792966608E+02 -0.97396075324E+02 -0.33954376661E+01  0.14316149716E+03  0.91187600000E+02 0.  0.
<mgrwt>
<rscale>  0 0.84087091E+03</rscale>
<asrwt>0</asrwt>
<pdfrwt beam="1">  1        2 0.18487690E+00 0.84087091E+03</pdfrwt>
<pdfrwt beam="2">  1       -2 0.22630247E-01 0.84087091E+03</pdfrwt>
<totfact> 0.32541815E+02</totfact>
</mgrwt>
</event>
<event>
11    1  0.1394181E-011  0.1046267E+04  0.7818608E-02  0.9259206E-01
         -1   -1    0    0    0  501 -0.00000000000E+00  0.00000000000E+00  0.31877801045E+03  0.31877801045E+03  0.00000000000E+00 0.  1.
          1   -1    0    0  501    0  0.00000000000E+00 -0.00000000000E+00 -0.85849322502E+03  0.85849322502E+03  0.00000000000E+00 0. -1.
    9900016    2    1    2    0    0  0.19883063907E+03 -0.11661026742E+03 -0.23240552909E+03  0.79312175898E+03  0.72242523289E+03 0.  0.
         23    2    3    3    0    0  0.78274932727E+01  0.59169676896E+02 -0.63546885971E+02  0.12665166063E+03  0.91870104549E+02 0.  0.
        -15    1    3    3    0    0 -0.51665360858E+02  0.81785038346E+02  0.42447763853E+02  0.10564049728E+03  0.00000000000E+00 0.  1.
        -15    1    4    4    0    0 -0.19418234925E+02  0.74764059840E+01  0.17188183392E+02  0.26988852187E+02  0.00000000000E+00 0. -1.
         15    1    4    4    0    0  0.27245728197E+02  0.51693270913E+02 -0.80735069363E+02  0.99662808448E+02  0.00000000000E+00 0.  1.
         15    1    3    3    0    0  0.76989069951E+02 -0.13008343912E+03 -0.14981466549E+03  0.21282258344E+03  0.00000000000E+00 0. -1.
        -16    1    3    3    0    0  0.12345894603E+03 -0.13395229687E+03 -0.13209898857E+03  0.22502326985E+03  0.00000000000E+00 0.  1.
         16    1    1    2    0    0 -0.19883063907E+03  0.11661026742E+03 -0.30730968548E+03  0.38414947649E+03  0.00000000000E+00 0. -1.
    9900018    1    3    3    0    0  0.42220490667E+02  0.64707533366E+01  0.70607247091E+02  0.12298374777E+03  0.91187600000E+02 0.  0.
<mgrwt>
<rscale>  0 0.10462672E+04</rscale>
<asrwt>0</asrwt>
<pdfrwt beam="1">  1        1 0.13207588E+00 0.10462672E+04</pdfrwt>
<pdfrwt beam="2">  1       -1 0.49042771E-01 0.10462672E+04</pdfrwt>
<totfact> 0.81994115E+01</totfact>
</mgrwt>
</event>
<event>
11    1  0.1394181E-011  0.2107023E+04  0.7818608E-02  0.8558156E-01
         -2   -1    0    0    0  501 -0.00000000000E+00  0.00000000000E+00  0.35071115507E+03  0.35071115507E+03  0.00000000000E+00 0.  1.
          2   -1    0    0  501    0  0.00000000000E+00 -0.00000000000E+00 -0.31646744966E+04  0.31646744966E+04  0.00000000000E+00 0. -1.
    9900016    2    1    2    0    0 -0.25946093072E+03  0.25772021444E+03 -0.12980643276E+03  0.80643050358E+03  0.70692344961E+03 0.  0.
         23    2    3    3    0    0  0.44463011159E+02  0.58143759804E+02  0.73181556795E+01  0.11761890123E+03  0.91776872674E+02 0.  0.
        -15    1    3    3    0    0  0.68914438630E+01 -0.72707364344E+02  0.52688273938E+02  0.90055022286E+02  0.00000000000E+00 0.  1.
        -15    1    4    4    0    0  0.40884048575E+01  0.63922314036E+02  0.30240714117E+02  0.70832747203E+02  0.00000000000E+00 0.  1.
         15    1    3    3    0    0 -0.10117526670E+03  0.19279387432E+02  0.96146987739E+01  0.10344356821E+03  0.00000000000E+00 0. -1.
         15    1    4    4    0    0  0.40374606301E+02 -0.57785542327E+01 -0.22922558437E+02  0.46786154023E+02  0.00000000000E+00 0. -1.
        -16    1    3    3    0    0 -0.17772804520E+03  0.16654721397E+03 -0.25644694490E+03  0.35368102590E+03  0.00000000000E+00 0.  1.
         16    1    1    2    0    0  0.25946093072E+03 -0.25772021444E+03 -0.26841569088E+04  0.27089551481E+04  0.00000000000E+00 0. -1.
    9900018    1    3    3    0    0 -0.31912073830E+02  0.86457217573E+02  0.57019383749E+02  0.14163198595E+03  0.91187600000E+02 0.  0.
<mgrwt>
<rscale>  0 0.21070232E+04</rscale>
<asrwt>0</asrwt>
<pdfrwt beam="1">  1        2 0.48687299E+00 0.21070232E+04</pdfrwt>
<pdfrwt beam="2">  1       -2 0.53955563E-01 0.21070232E+04</pdfrwt>
<totfact> 0.40842855E+00</totfact>
</mgrwt>
</event>
<event>
11    1  0.1394181E-011  0.9892797E+03  0.7818608E-02  0.9320381E-01
          1   -1    0    0  501    0  0.00000000000E+00  0.00000000000E+00  0.81647086433E+03  0.81647086433E+03  0.00000000000E+00 0. -1.
         -1   -1    0    0    0  501 -0.00000000000E+00 -0.00000000000E+00 -0.29966599877E+03  0.29966599877E+03  0.00000000000E+00 0.  1.
    9900016    2    1    2    0    0 -0.49047549722E+02 -0.19077182412E+03  0.55393086837E+03  0.91569262872E+03  0.70203563467E+03 0.  0.
         23    2    3    3    0    0 -0.52877112143E+01 -0.41317280920E+02  0.12780849503E+03  0.16516392898E+03  0.95963714187E+02 0.  0.
        -15    1    3    3    0    0 -0.22463552102E+02  0.19120570910E+02 -0.26322294616E+02  0.39535687661E+02  0.00000000000E+00 0.  1.
        -15    1    4    4    0    0 -0.84320599590E+01 -0.69798485363E+02  0.63405384359E+02  0.94674024736E+02  0.00000000000E+00 0.  1.
         15    1    4    4    0    0  0.31443487447E+01  0.28481204443E+02  0.64403110674E+02  0.70489904242E+02  0.00000000000E+00 0. -1.
         15    1    3    3    0    0  0.42517149378E+02 -0.30632555959E+03  0.14456765441E+03  0.34138374764E+03  0.00000000000E+00 0. -1.
        -16    1    3    3    0    0  0.21911340582E+02  0.17009285749E+02  0.23899060234E+02  0.36614037306E+02  0.00000000000E+00 0.  1.
         16    1    1    2    0    0  0.49047549722E+02  0.19077182412E+03 -0.37126002812E+02  0.20044423438E+03  0.00000000000E+00 0. -1.
    9900018    1    3    3    0    0 -0.85724776365E+02  0.12074115973E+03  0.28397795331E+03  0.33299522714E+03  0.91187600000E+02 0.  0.
<mgrwt>
<rscale>  0 0.98927965E+03</rscale>
<asrwt>0</asrwt>
<pdfrwt beam="1">  1        1 0.12561090E+00 0.98927965E+03</pdfrwt>
<pdfrwt beam="2">  1       -1 0.46102462E-01 0.98927965E+03</pdfrwt>
<totfact> 0.10038821E+02</totfact>
</mgrwt>
</event>
<event>
11    1  0.1394181E-011  0.1314530E+04  0.7818608E-02  0.9018121E-01
          2   -1    0    0  501    0  0.00000000000E+00  0.00000000000E+00  0.21153691525E+04  0.21153691525E+04  0.00000000000E+00 0. -1.
         -2   -1    0    0    0  501 -0.00000000000E+00 -0.00000000000E+00 -0.20421845627E+03  0.20421845627E+03  0.00000000000E+00 0.  1.
    9900016    2    1    2    0    0  0.95520024238E+02  0.24723652294E+03  0.56888528599E+03  0.95140399359E+03  0.71504483573E+03 0.  0.
         23    2    3    3    0    0  0.41917446908E+02  0.24247334480E+03  0.21632816918E+02  0.26324517919E+03  0.90992583797E+02 0.  0.
        -15    1    3    3    0    0 -0.38134497699E+01 -0.21405511630E+02  0.76163955804E+02  0.79206606359E+02  0.00000000000E+00 0. -1.
        -15    1    4    4    0    0 -0.27813900030E+02  0.61435126745E+02  0.15229009255E+02  0.69136174005E+02  0.00000000000E+00 0. -1.
         15    1    4    4    0    0  0.69731346938E+02  0.18103821805E+03  0.64038076624E+01  0.19410900518E+03  0.00000000000E+00 0.  1.
         15    1    3    3    0    0  0.31595211626E+01  0.68063693895E+02  0.20869873918E+03  0.21954000258E+03  0.00000000000E+00 0.  1.
        -16    1    3    3    0    0  0.11851716355E+03  0.28640390325E+02  0.21868648324E+03  0.25038044645E+03  0.00000000000E+00 0.  1.
         16    1    1    2    0    0 -0.95520024238E+02 -0.24723652294E+03  0.13422654102E+04  0.13681836152E+04  0.00000000000E+00 0. -1.
    9900018    1    3    3    0    0 -0.64260657612E+02 -0.70535394450E+02  0.43703290847E+02  0.13903175900E+03  0.91187600000E+02 0.  0.
<mgrwt>
<rscale>  0 0.13145302E+04</rscale>
<asrwt>0</asrwt>
<pdfrwt beam="1">  1        2 0.32544139E+00 0.13145302E+04</pdfrwt>
<pdfrwt beam="2">  1       -2 0.31418226E-01 0.13145302E+04</pdfrwt>
<totfact> 0.53122647E+01</totfact>
</mgrwt>
</event>
<event>
11    1  0.1394181E-011  0.1503640E+04  0.7818608E-02  0.8882036E-01
          1   -1    0    0  501    0  0.00000000000E+00  0.00000000000E+00  0.32342867169E+03  0.32342867169E+03  0.00000000000E+00 0. -1.
         -1   -1    0    0    0  501 -0.00000000000E+00 -0.00000000000E+00 -0.17476293864E+04  0.17476293864E+04  0.00000000000E+00 0.  1.
    9900016    2    1    2    0    0  0.34826239142E+03  0.46909457923E+03 -0.85133980583E+03  0.12528245716E+04  0.70954458955E+03 0.  0.
         23    2    3    3    0    0 -0.37328910114E+01 -0.10398704036E+03 -0.20433565790E+03  0.24699567630E+03  0.91796317912E+02 0.  0.
        -15    1    4    4    0    0  0.23265291471E+02 -0.43521061811E+02 -0.15966522372E+03  0.16711774375E+03  0.00000000000E+00 0. -1.
        -15    1    3    3    0    0  0.13458740573E+03  0.15949150466E+03 -0.74523650634E+02  0.22159667042E+03  0.00000000000E+00 0. -1.
         15    1    3    3    0    0  0.81397654755E+02  0.21376362224E+02 -0.40475723750E+02  0.93385284037E+02  0.00000000000E+00 0.  1.
         15    1    4    4    0    0 -0.26998182482E+02 -0.60465978549E+02 -0.44670434180E+02  0.79877932554E+02  0.00000000000E+00 0.  1.
        -16    1    3    3    0    0  0.69039860289E+02  0.14199760491E+03 -0.13280611584E+03  0.20631841050E+03  0.00000000000E+00 0.  1.
         16    1    1    2    0    0 -0.34826239142E+03 -0.46909457923E+03 -0.57286090885E+03  0.81823348650E+03  0.00000000000E+00 0. -1.
    9900018    1    3    3    0    0  0.66970361661E+02  0.25021614780E+03 -0.39919865770E+03  0.48452853029E+03  0.91187600000E+02 0.  0.
<mgrwt>
<rscale>  0 0.15036402E+04</rscale>
<asrwt>0</asrwt>
<pdfrwt beam="1">  1        1 0.49758259E-01 0.15036402E+04</pdfrwt>
<pdfrwt beam="2">  1       -1 0.26886605E+00 0.15036402E+04</pdfrwt>
<totfact> 0.40429480E+00</totfact>
</mgrwt>
</event>
<event>
11    1  0.1394181E-011  0.1272845E+04  0.7818608E-02  0.9051381E-01
         -2   -1    0    0    0  501 -0.00000000000E+00  0.00000000000E+00  0.44729758378E+03  0.44729758378E+03  0.00000000000E+00 0.  1.
          2   -1    0    0  501    0  0.00000000000E+00 -0.00000000000E+00 -0.90551209082E+03  0.90551209082E+03  0.00000000000E+00 0. -1.
    9900016    2    1    2    0    0  0.16114956837E+03 -0.38941213281E+03 -0.16517897316E+03  0.83950584968E+03  0.70701837735E+03 0.  0.
         23    2    3    3    0    0 -0.56319359223E+02  0.63575709027E+02  0.59454320182E+02  0.13736348663E+03  0.90111987374E+02 0.  0.
        -15    1    4    4    0    0 -0.17471567006E+01  0.66666809797E+02  0.18943043443E+02  0.69327880250E+02  0.00000000000E+00 0.  1.
        -15    1    3    3    0    0  0.88563302766E+02 -0.27772074866E+03 -0.15872151131E+03  0.33191081782E+03  0.00000000000E+00 0.  1.
         15    1    4    4    0    0 -0.54572202522E+02 -0.30911007702E+01  0.40511276739E+02  0.68035606377E+02  0.00000000000E+00 0. -1.
         15    1    3    3    0    0  0.14565199308E+02  0.77897537123E+01  0.26014699032E+01  0.16721032846E+02  0.00000000000E+00 0. -1.
        -16    1    3    3    0    0 -0.70659349061E+02 -0.38399574151E+02 -0.61927550616E+02  0.10150020901E+03  0.00000000000E+00 0.  1.
         16    1    1    2    0    0 -0.16114956837E+03  0.38941213281E+03 -0.29303553387E+03  0.51330382492E+03  0.00000000000E+00 0. -1.
    9900018    1    3    3    0    0  0.18499977459E+03 -0.14465727274E+03 -0.65857013275E+01  0.25201030338E+03  0.91187600000E+02 0.  0.
<mgrwt>
<rscale>  0 0.12728446E+04</rscale>
<asrwt>0</asrwt>
<pdfrwt beam="1">  1        2 0.13930955E+00 0.12728446E+04</pdfrwt>
<pdfrwt beam="2">  1       -2 0.68815014E-01 0.12728446E+04</pdfrwt>
<totfact> 0.55099562E+01</totfact>
</mgrwt>
</event>
<event>
11    1  0.1394181E-011  0.8609437E+03  0.7818608E-02  0.9475765E-01
         -1   -1    0    0    0  501 -0.00000000000E+00  0.00000000000E+00  0.48535557261E+03  0.48535557261E+03  0.00000000000E+00 0.  1.
          1   -1    0    0  501    0  0.00000000000E+00 -0.00000000000E+00 -0.38179433225E+03  0.38179433225E+03  0.00000000000E+00 0. -1.
    9900016    2    1    2    0    0  0.97808663815E+02 -0.21717405980E+02  0.18138661985E+03  0.74028395145E+03  0.71069053918E+03 0.  0.
         23    2    3    3    0    0 -0.33877546128E+02 -0.22547004951E+02  0.17765943913E+03  0.20417150990E+03  0.92016702725E+02 0.  0.
        -15    1    3    3    0    0 -0.14765790177E+01  0.80708948321E+02 -0.17135565380E+03  0.18941719751E+03  0.00000000000E+00 0.  1.
        -15    1    4    4    0    0  0.30293576129E+01 -0.49131678327E+02  0.12636978431E+03  0.13561866100E+03  0.00000000000E+00 0.  1.
         15    1    4    4    0    0 -0.36906903741E+02  0.26584673376E+02  0.51289654817E+02  0.68552848908E+02  0.00000000000E+00 0. -1.
         15    1    3    3    0    0  0.37729569796E+02  0.15700001433E+02  0.17044852155E+03  0.17527894620E+03  0.00000000000E+00 0. -1.
        -16    1    3    3    0    0  0.34926129913E+01 -0.14744800958E+02 -0.98597970229E+01  0.18078249310E+02  0.00000000000E+00 0.  1.
         16    1    1    2    0    0 -0.97808663815E+02  0.21717405980E+02 -0.77825379497E+02  0.12686595341E+03  0.00000000000E+00 0. -1.
    9900018    1    3    3    0    0  0.91940606174E+02 -0.80834549825E+02  0.14494109992E+02  0.15333804853E+03  0.91187600000E+02 0.  0.
<mgrwt>
<rscale>  0 0.86094368E+03</rscale>
<asrwt>0</asrwt>
<pdfrwt beam="1">  1        1 0.58737590E-01 0.86094368E+03</pdfrwt>
<pdfrwt beam="2">  1       -1 0.74670088E-01 0.86094368E+03</pdfrwt>
<totfact> 0.11636619E+02</totfact>
</mgrwt>
</event>
