<event>
11    1  0.2518904E-016  0.1064426E+04  0.7818608E-02  0.9240576E-01
         -3   -1    0    0    0  501 -0.00000000000E+00  0.00000000000E+00  0.50644918931E+03  0.50644918931E+03  0.00000000000E+00 0.  1.
          3   -1    0    0  501    0  0.00000000000E+00 -0.00000000000E+00 -0.55928712246E+03  0.55928712246E+03  0.00000000000E+00 0. -1.
    9900016    2    1    2    0    0 -0.11884077059E+03 -0.27378357500E+03  0.25584745145E+02  0.75714160804E+03  0.69536196384E+03 0.  0.
         24    2    3    3    0    0  0.59434848582E+02 -0.10792489667E+03  0.30568898395E+03  0.33900762094E+03  0.79373343135E+02 0.  0.
        -15    1    4    4    0    0 -0.57203865577E+01 -0.15664913090E+02  0.70944861630E+02  0.72878568292E+02  0.00000000000E+00 0.  1.
        -15    1    4    4    0    0  0.88563100152E+01 -0.33013804926E+02  0.38203963876E+02  0.51262933964E+02  0.00000000000E+00 0.  1.
         15    1    4    4    0    0  0.41744146142E+02 -0.25748890597E+02  0.94190752597E+02  0.10619546591E+03  0.00000000000E+00 0. -1.
         15    1    3    3    0    0 -0.83181548995E+02  0.17123855819E+02 -0.79752576133E+02  0.11650266062E+03  0.00000000000E+00 0. -1.
        -16    1    4    4    0    0  0.14554778983E+02 -0.33497288056E+02  0.10234940585E+03  0.10867065278E+03  0.00000000000E+00 0.  1.
         16    1    1    2    0    0  0.11884077059E+03  0.27378357500E+03 -0.78422678294E+02  0.30859470372E+03  0.00000000000E+00 0. -1.
    9900018    1    3    3    0    0 -0.95094070179E+02 -0.18298253415E+03 -0.20035166267E+03  0.30163132648E+03  0.91187600000E+02 0.  0.
<mgrwt>
<rscale>  0 0.10644257E+04</rscale>
<asrwt>0</asrwt>
<pdfrwt beam="1">  1        3 0.86044172E-01 0.10644257E+04</pdfrwt>
<pdfrwt beam="2">  1       -3 0.77915261E-01 0.10644257E+04</pdfrwt>
<totfact> 0.49698345E+00</totfact>
</mgrwt>
</event>
<event>
11    1  0.2518904E-016  0.1333436E+04  0.7818608E-02  0.9003462E-01
         -2   -1    0    0    0  501 -0.00000000000E+00  0.00000000000E+00  0.14621146842E+03  0.14621146842E+03  0.00000000000E+00 0.  1.
          2   -1    0    0  501    0  0.00000000000E+00 -0.00000000000E+00 -0.30402065867E+04  0.30402065867E+04  0.00000000000E+00 0. -1.
    9900016    2    1    2    0    0 -0.15696601382E+03 -0.16151269133E+03 -0.85046790824E+03  0.11305172459E+04  0.70996401422E+03 0.  0.
         24    2    3    3    0    0 -0.19551407508E+03 -0.24996946905E+02 -0.31348173683E+03  0.37917676536E+03  0.81569719601E+02 0.  0.
        -15    1    4    4    0    0 -0.15335948463E+03 -0.40589533833E+01 -0.24330544579E+03  0.28763370209E+03  0.00000000000E+00 0.  1.
        -15    1    4    4    0    0 -0.33119002341E+02 -0.15930063837E+02 -0.48312137074E+02  0.60701711991E+02  0.00000000000E+00 0.  1.
         15    1    3    3    0    0 -0.19490181503E+03 -0.18498815448E+03 -0.24678077645E+03  0.36483980926E+03  0.00000000000E+00 0. -1.
         15    1    4    4    0    0 -0.10839972175E+02  0.46928782129E+00 -0.32082830021E+01  0.11314517561E+02  0.00000000000E+00 0. -1.
        -16    1    4    4    0    0  0.18043840719E+01 -0.54772175057E+01 -0.18655870970E+02  0.19526833720E+02  0.00000000000E+00 0.  1.
         16    1    1    2    0    0  0.15696601382E+03  0.16151269133E+03 -0.20435272101E+04  0.20559008092E+04  0.00000000000E+00 0. -1.
    9900018    1    3    3    0    0  0.23344987629E+03  0.48472410056E+02 -0.29020539496E+03  0.38650067132E+03  0.91187600000E+02 0.  0.
<mgrwt>
<rscale>  0 0.13334363E+04</rscale>
<asrwt>0</asrwt>
<pdfrwt beam="1">  1        2 0.46772404E+00 0.13334363E+04</pdfrwt>
<pdfrwt beam="2">  1       -2 0.22494075E-01 0.13334363E+04</pdfrwt>
<totfact> 0.28188858E+01</totfact>
</mgrwt>
</event>
<event>
11    1  0.2518904E-016  0.1022451E+04  0.7818608E-02  0.9284258E-01
          2   -1    0    0  501    0  0.00000000000E+00  0.00000000000E+00  0.19112224812E+04  0.19112224812E+04  0.00000000000E+00 0. -1.
         -2   -1    0    0    0  501 -0.00000000000E+00 -0.00000000000E+00 -0.13674561522E+03  0.13674561522E+03  0.00000000000E+00 0.  1.
    9900016    2    1    2    0    0  0.20722877798E+03  0.18522116316E+03  0.11442834316E+04  0.13592051397E+04  0.67882501019E+03 0.  0.
        -24    2    3    3    0    0 -0.51470542960E+02  0.78658486851E+02  0.11696685487E+01  0.12114444619E+03  0.76408339671E+02 0.  0.
        -15    1    4    4    0    0 -0.11361561501E+02  0.29148425072E+01 -0.17927780163E+01  0.11865725414E+02  0.00000000000E+00 0. -1.
        -15    1    3    3    0    0 -0.74273005799E+01  0.16333768285E+03  0.62217514872E+03  0.64330107968E+03  0.00000000000E+00 0. -1.
         15    1    4    4    0    0 -0.16596595214E+02  0.17659957609E+02  0.11023828632E+02  0.26624159577E+02  0.00000000000E+00 0.  1.
         15    1    4    4    0    0 -0.31450338348E+02  0.58484192200E+02  0.58199937000E+01  0.66658809216E+02  0.00000000000E+00 0.  1.
        -16    1    1    2    0    0 -0.20722877798E+03 -0.18522116316E+03  0.63019343446E+03  0.68876295671E+03  0.00000000000E+00 0.  1.
         16    1    4    4    0    0  0.79379521035E+01 -0.40050546507E+00 -0.13881375767E+02  0.15995751980E+02  0.00000000000E+00 0. -1.
    9900018    1    3    3    0    0  0.26612662152E+03 -0.56775006541E+02  0.52093861429E+03  0.59475961388E+03  0.91187600000E+02 0.  0.
<mgrwt>
<rscale>  0 0.10224506E+04</rscale>
<asrwt>0</asrwt>
<pdfrwt beam="1">  1        2 0.29403421E+00 0.10224506E+04</pdfrwt>
<pdfrwt beam="2">  1       -2 0.21037788E-01 0.10224506E+04</pdfrwt>
<totfact> 0.14624588E+02</totfact>
</mgrwt>
</event>
<event>
11    1  0.2518904E-016  0.1583231E+04  0.7818608E-02  0.8830917E-01
         -1   -1    0    0    0  501 -0.00000000000E+00  0.00000000000E+00  0.79145204858E+03  0.79145204858E+03  0.00000000000E+00 0.  1.
          1   -1    0    0  501    0  0.00000000000E+00 -0.00000000000E+00 -0.79177908338E+03  0.79177908338E+03  0.00000000000E+00 0. -1.
    9900016    2    1    2    0    0 -0.89955283792E+02 -0.23542484781E+03  0.58456401756E+03  0.94635252880E+03  0.70025081655E+03 0.  0.
         24    2    3    3    0    0 -0.63895639394E+02  0.40103795116E+02 -0.69075073001E+02  0.12970570927E+03  0.79757370756E+02 0.  0.
        -15    1    4    4    0    0 -0.50008607113E+02  0.22108912035E+02 -0.55752312307E+02  0.78089596646E+02  0.00000000000E+00 0.  1.
        -15    1    4    4    0    0 -0.94546492194E+01 -0.79933732204E+01 -0.15484165885E+02  0.19825332291E+02  0.00000000000E+00 0.  1.
         15    1    4    4    0    0 -0.87033331406E+01  0.18852870110E+02 -0.43661955512E+01  0.21218915682E+02  0.00000000000E+00 0. -1.
         15    1    3    3    0    0 -0.12788671586E+02  0.91938567352E+02  0.23162254555E+03  0.24953006611E+03  0.00000000000E+00 0. -1.
        -16    1    4    4    0    0  0.42709500791E+01  0.71353861911E+01  0.65276007418E+01  0.10571864647E+02  0.00000000000E+00 0.  1.
         16    1    1    2    0    0  0.89955283792E+02  0.23542484781E+03 -0.58489105236E+03  0.63687860317E+03  0.00000000000E+00 0. -1.
    9900018    1    3    3    0    0 -0.13270972812E+02 -0.36746721028E+03  0.42201654501E+03  0.56711675342E+03  0.91187600000E+02 0.  0.
<mgrwt>
<rscale>  0 0.15832311E+04</rscale>
<asrwt>0</asrwt>
<pdfrwt beam="1">  1        1 0.12181217E+00 0.15832311E+04</pdfrwt>
<pdfrwt beam="2">  1       -1 0.12176185E+00 0.15832311E+04</pdfrwt>
<totfact> 0.12903844E+01</totfact>
</mgrwt>
</event>
<event>
11    1  0.2518904E-016  0.1096458E+04  0.7818608E-02  0.9208651E-01
         -1   -1    0    0    0  501 -0.00000000000E+00  0.00000000000E+00  0.48110016079E+03  0.48110016079E+03  0.00000000000E+00 0. -1.
          1   -1    0    0  501    0  0.00000000000E+00 -0.00000000000E+00 -0.62472475643E+03  0.62472475643E+03  0.00000000000E+00 0.  1.
    9900016    2    1    2    0    0 -0.23640506405E+03  0.61499562679E+02  0.10759831743E+03  0.75542157453E+03  0.70669286598E+03 0.  0.
        -24    2    3    3    0    0  0.20948821834E+02 -0.18803447849E+03 -0.16475275525E+03  0.26366313089E+03  0.81110776022E+02 0.  0.
        -15    1    4    4    0    0  0.16039604361E+02 -0.10860620755E+02 -0.20071398333E+02  0.27894139569E+02  0.00000000000E+00 0.  1.
        -15    1    3    3    0    0 -0.65880759024E+02  0.67276563415E+02  0.16933244904E+03  0.19375213210E+03  0.00000000000E+00 0.  1.
         15    1    4    4    0    0 -0.14108648650E+01 -0.73547220980E+02 -0.76292034117E+02  0.10597952030E+03  0.00000000000E+00 0. -1.
         15    1    4    4    0    0  0.98496825081E+01 -0.73386390794E+02 -0.27890499437E+02  0.79123059585E+02  0.00000000000E+00 0. -1.
        -16    1    1    2    0    0  0.23640506405E+03 -0.61499562679E+02 -0.25122291308E+03  0.35040334270E+03  0.00000000000E+00 0.  1.
         16    1    4    4    0    0 -0.35296001701E+01 -0.30240245966E+02 -0.40498823365E+02  0.50666411432E+02  0.00000000000E+00 0. -1.
    9900018    1    3    3    0    0 -0.19147312686E+03  0.18225747776E+03  0.10301862364E+03  0.29800631154E+03  0.91187600000E+02 0.  0.
<mgrwt>
<rscale>  0 0.10964583E+04</rscale>
<asrwt>0</asrwt>
<pdfrwt beam="1">  1        1 0.96111500E-01 0.10964583E+04</pdfrwt>
<pdfrwt beam="2">  1       -1 0.74015410E-01 0.10964583E+04</pdfrwt>
<totfact> 0.59184815E+01</totfact>
</mgrwt>
</event>
<event>
11    1  0.2518904E-016  0.1181039E+04  0.7818608E-02  0.9129617E-01
         -1   -1    0    0    0  501 -0.00000000000E+00  0.00000000000E+00  0.26754254648E+04  0.26754254648E+04  0.00000000000E+00 0.  1.
          1   -1    0    0  501    0  0.00000000000E+00 -0.00000000000E+00 -0.13033939236E+03  0.13033939236E+03  0.00000000000E+00 0. -1.
    9900016    2    1    2    0    0  0.11919022499E+03  0.19797811675E+03  0.24395509998E+04  0.25517190030E+04  0.71165943071E+03 0.  0.
         24    2    3    3    0    0 -0.12953052769E+03 -0.11993377452E+03  0.76266976834E+03  0.78678133063E+03  0.78723686510E+02 0.  0.
        -15    1    4    4    0    0 -0.46212752503E+02 -0.44868055703E+02  0.24132586517E+03  0.24977376587E+03  0.00000000000E+00 0.  1.
        -15    1    4    4    0    0 -0.23958541469E+02 -0.55987289428E+01  0.98988976614E+02  0.10200085767E+03  0.00000000000E+00 0.  1.
         15    1    3    3    0    0  0.17118806020E+03  0.24154236450E+03  0.15383196269E+04  0.15665488630E+04  0.00000000000E+00 0. -1.
         15    1    4    4    0    0 -0.14639294172E+02 -0.79148573380E+01  0.22544592016E+02  0.28021643951E+02  0.00000000000E+00 0. -1.
        -16    1    4    4    0    0 -0.44719939542E+02 -0.61552132535E+02  0.39981033454E+03  0.40698506314E+03  0.00000000000E+00 0.  1.
         16    1    1    2    0    0 -0.11919022499E+03 -0.19797811675E+03  0.10553507264E+03  0.25404585413E+03  0.00000000000E+00 0. -1.
    9900018    1    3    3    0    0  0.77532692476E+02  0.76369526770E+02  0.13856160456E+03  0.19838880935E+03  0.91187600000E+02 0.  0.
<mgrwt>
<rscale>  0 0.11810391E+04</rscale>
<asrwt>0</asrwt>
<pdfrwt beam="1">  1        1 0.20052216E-01 0.11810391E+04</pdfrwt>
<pdfrwt beam="2">  1       -1 0.41160388E+00 0.11810391E+04</pdfrwt>
<totfact> 0.15695073E+00</totfact>
</mgrwt>
</event>
<event>
11    1  0.2518904E-016  0.1503262E+04  0.7818608E-02  0.8882287E-01
          2   -1    0    0  501    0  0.00000000000E+00  0.00000000000E+00  0.61071222451E+03  0.61071222451E+03  0.00000000000E+00 0. -1.
         -2   -1    0    0    0  501 -0.00000000000E+00 -0.00000000000E+00 -0.92506588249E+03  0.92506588249E+03  0.00000000000E+00 0.  1.
    9900016    2    1    2    0    0 -0.10566558871E+03  0.53483714570E+03 -0.41138874739E+03  0.98203466674E+03  0.70564537563E+03 0.  0.
         24    2    3    3    0    0  0.22534234293E+03  0.14370745776E+03 -0.20344947748E+03  0.34518673361E+03  0.79568751680E+02 0.  0.
        -15    1    4    4    0    0  0.14814009474E+02  0.15933947042E+02 -0.34511913939E+02  0.40797276242E+02  0.00000000000E+00 0. -1.
        -15    1    4    4    0    0  0.12733245357E+02  0.18468956759E+02 -0.14094292022E+02  0.26493149466E+02  0.00000000000E+00 0. -1.
         15    1    4    4    0    0  0.24634008211E+02 -0.19216770793E+00 -0.82634876529E+01  0.25983774113E+02  0.00000000000E+00 0.  1.
         15    1    3    3    0    0  0.39006038839E+01  0.21056280482E+03 -0.67622949353E+02  0.22118944993E+03  0.00000000000E+00 0.  1.
        -16    1    4    4    0    0  0.17316107988E+03  0.10949672167E+03 -0.14657978386E+03  0.25191253379E+03  0.00000000000E+00 0.  1.
         16    1    1    2    0    0  0.10566558871E+03 -0.53483714570E+03  0.97035089419E+02  0.55374344026E+03  0.00000000000E+00 0. -1.
    9900018    1    3    3    0    0 -0.33490853552E+03  0.18056688312E+03 -0.14031632056E+03  0.41565848320E+03  0.91187600000E+02 0.  0.
<mgrwt>
<rscale>  0 0.15032618E+04</rscale>
<asrwt>0</asrwt>
<pdfrwt beam="1">  1        2 0.93955727E-01 0.15032618E+04</pdfrwt>
<pdfrwt beam="2">  1       -2 0.14231783E+00 0.15032618E+04</pdfrwt>
<totfact> 0.16125083E+01</totfact>
</mgrwt>
</event>
<event>
11    1  0.2518904E-016  0.1085133E+04  0.7818608E-02  0.9219805E-01
          2   -1    0    0  501    0  0.00000000000E+00  0.00000000000E+00  0.12590752637E+04  0.12590752637E+04  0.00000000000E+00 0. -1.
         -2   -1    0    0    0  501 -0.00000000000E+00 -0.00000000000E+00 -0.23380526990E+03  0.23380526990E+03  0.00000000000E+00 0.  1.
    9900016    2    1    2    0    0 -0.28084696931E+03 -0.13159107389E+03  0.70651742282E+03  0.10481396738E+04  0.70939317454E+03 0.  0.
         24    2    3    3    0    0  0.10133323042E+03 -0.14690245533E+02  0.45174100015E+02  0.13706680175E+03  0.79135212952E+02 0.  0.
        -15    1    4    4    0    0  0.44865367200E+02  0.96044830743E+01 -0.30211783163E+01  0.45981243867E+02  0.00000000000E+00 0.  1.
        -15    1    4    4    0    0  0.26762214437E+02  0.70780130271E+01  0.29839060401E+02  0.40702382186E+02  0.00000000000E+00 0.  1.
         15    1    4    4    0    0  0.24926302637E+02 -0.22852460393E+02  0.55385794070E+01  0.34267059562E+02  0.00000000000E+00 0. -1.
         15    1    3    3    0    0  0.25361227339E+01  0.14959161860E+03  0.16851003775E+03  0.22534355348E+03  0.00000000000E+00 0. -1.
        -16    1    4    4    0    0  0.47793461452E+01 -0.85202812412E+01  0.12817638523E+02  0.16116116136E+02  0.00000000000E+00 0.  1.
         16    1    1    2    0    0  0.28084696931E+03  0.13159107389E+03  0.31875257099E+03  0.44474085984E+03  0.00000000000E+00 0. -1.
    9900018    1    3    3    0    0 -0.38471632246E+03 -0.26649244695E+03  0.49283328505E+03  0.68572931854E+03  0.91187600000E+02 0.  0.
<mgrwt>
<rscale>  0 0.10851330E+04</rscale>
<asrwt>0</asrwt>
<pdfrwt beam="1">  1        2 0.19370388E+00 0.10851330E+04</pdfrwt>
<pdfrwt beam="2">  1       -2 0.35970042E-01 0.10851330E+04</pdfrwt>
<totfact> 0.12607508E+02</totfact>
</mgrwt>
</event>
<event>
11    1  0.2518904E-016  0.1177356E+04  0.7818608E-02  0.9132911E-01
         -2   -1    0    0    0  501 -0.00000000000E+00  0.00000000000E+00  0.74242984702E+03  0.74242984702E+03  0.00000000000E+00 0.  1.
          2   -1    0    0  501    0  0.00000000000E+00 -0.00000000000E+00 -0.46676740805E+03  0.46676740805E+03  0.00000000000E+00 0. -1.
    9900016    2    1    2    0    0 -0.27499423744E+03  0.13753825534E+03  0.40675803562E+03  0.87494486874E+03  0.71101182936E+03 0.  0.
        -24    2    3    3    0    0  0.23065410313E+02 -0.11476380170E+03 -0.11150056544E+03  0.18026911928E+03  0.79761117953E+02 0.  0.
        -15    1    4    4    0    0  0.32957854927E+02 -0.21052091810E+02 -0.18274105233E+02  0.43166580743E+02  0.00000000000E+00 0.  1.
        -15    1    3    3    0    0 -0.21327324144E+03  0.25477539607E+03  0.32510972556E+03  0.46485730242E+03  0.00000000000E+00 0.  1.
         15    1    4    4    0    0 -0.84354012821E+01 -0.19367933566E+02 -0.50446854259E+01  0.21719155058E+02  0.00000000000E+00 0. -1.
         15    1    4    4    0    0 -0.10472676613E+01 -0.25172495943E+02 -0.31807209288E+02  0.40576469588E+02  0.00000000000E+00 0. -1.
        -16    1    1    2    0    0  0.27499423744E+03 -0.13753825534E+03 -0.13109559665E+03  0.33425238633E+03  0.00000000000E+00 0.  1.
         16    1    4    4    0    0 -0.40977567087E+00 -0.49171280381E+02 -0.56374565497E+02  0.74806913888E+02  0.00000000000E+00 0. -1.
    9900018    1    3    3    0    0 -0.84786406316E+02 -0.24733390254E+01  0.19314887550E+03  0.22981844705E+03  0.91187600000E+02 0.  0.
<mgrwt>
<rscale>  0 0.11773565E+04</rscale>
<asrwt>0</asrwt>
<pdfrwt beam="1">  1        2 0.71810371E-01 0.11773565E+04</pdfrwt>
<pdfrwt beam="2">  1       -2 0.11421998E+00 0.11773565E+04</pdfrwt>
<totfact> 0.39501087E+01</totfact>
</mgrwt>
</event>
