<event>
11    1  0.1075864E-015  0.4565570E+04  0.7818608E-02  0.7899257E-01
          2   -1    0    0  501    0  0.00000000000E+00  0.00000000000E+00  0.25290752168E+04  0.25290752168E+04  0.00000000000E+00 0. -1.
         -2   -1    0    0    0  501 -0.00000000000E+00 -0.00000000000E+00 -0.20604790534E+04  0.20604790534E+04  0.00000000000E+00 0.  1.
    9900016    2    1    2    0    0 -0.23238599659E+03  0.34640914596E+03 -0.31014359070E+03  0.20412142174E+04  0.19739209424E+04 0.  0.
         24    2    3    3    0    0 -0.57343863207E+03  0.10606491130E+04 -0.31891696856E+03  0.12496760927E+04  0.78574156106E+02 0.  0.
        -15    1    4    4    0    0 -0.49458346918E+03  0.91756742155E+03 -0.24736897609E+03  0.10713235699E+04  0.00000000000E+00 0.  1.
        -15    1    1    2    0    0 -0.48408102191E+03  0.17155835442E+03  0.18032520290E+03  0.54431965199E+03  0.00000000000E+00 0.  1.
         15    1    3    3    0    0  0.34105263548E+03 -0.71423996708E+03  0.87733778588E+01  0.79153812473E+03  0.00000000000E+00 0. -1.
         15    1    1    2    0    0  0.81921500220E+03 -0.31925989492E+03  0.10759034455E+04  0.13894633224E+04  0.00000000000E+00 0. -1.
        -16    1    1    2    0    0 -0.12943303243E+03 -0.23612216419E+03 -0.41543125448E+03  0.49506536286E+03  0.00000000000E+00 0.  1.
         16    1    4    4    0    0 -0.78855162887E+02  0.14308169149E+03 -0.71547992467E+02  0.17835252278E+03  0.00000000000E+00 0. -1.
    9900018    1    1    2    0    0  0.26685048737E+02  0.37414558725E+02 -0.62057639833E+02  0.11949171555E+03  0.91187600000E+02 0.  0.
<mgrwt>
<rscale>  0 0.45655696E+04</rscale>
<asrwt>0</asrwt>
<pdfrwt beam="1">  1        2 0.38908849E+00 0.45655696E+04</pdfrwt>
<pdfrwt beam="2">  1       -2 0.31699678E+00 0.45655696E+04</pdfrwt>
<totfact> 0.63061264E-02</totfact>
</mgrwt>
</event>
<event>
11    1  0.1075864E-015  0.3186876E+04  0.7818608E-02  0.8292508E-01
          2   -1    0    0  501    0  0.00000000000E+00  0.00000000000E+00  0.36395134037E+04  0.36395134037E+04  0.00000000000E+00 0.  1.
         -2   -1    0    0    0  501 -0.00000000000E+00 -0.00000000000E+00 -0.18464928623E+04  0.18464928623E+04  0.00000000000E+00 0. -1.
    9900016    2    1    2    0    0 -0.10262135762E+04 -0.76083983735E+03  0.12993950100E+04  0.27556642013E+04  0.20671880021E+04 0.  0.
        -24    2    3    3    0    0  0.83826673400E+01  0.34911590778E+03  0.11231248715E+04  0.11788454951E+04  0.79467213880E+02 0.  0.
        -15    1    3    3    0    0 -0.99980587602E+03 -0.10422880355E+04  0.13292931857E+03  0.14503952366E+04  0.00000000000E+00 0.  1.
        -15    1    1    2    0    0  0.18640891746E+03  0.96613241035E+03  0.22392039869E+03  0.10091087473E+04  0.00000000000E+00 0.  1.
         15    1    4    4    0    0  0.56574423331E+01  0.21992562319E+03  0.57384714444E+03  0.61457288548E+03  0.00000000000E+00 0. -1.
         15    1    1    2    0    0  0.93994866145E+03  0.30827782395E+03  0.54561106033E+03  0.11297035594E+04  0.00000000000E+00 0. -1.
        -16    1    4    4    0    0  0.27252250069E+01  0.12919028459E+03  0.54927772704E+03  0.56427260957E+03  0.00000000000E+00 0.  1.
         16    1    1    2    0    0 -0.10014400268E+03 -0.51357039695E+03 -0.27590592759E+03  0.59152975815E+03  0.00000000000E+00 0. -1.
    9900018    1    3    3    0    0 -0.34790367550E+02 -0.67667709676E+02  0.43340819912E+02  0.12642346962E+03  0.91187600000E+02 0.  0.
<mgrwt>
<rscale>  0 0.28349222E+04</rscale>
<asrwt>0</asrwt>
<pdfrwt beam="1">  1        2 0.55992514E+00 0.31868758E+04</pdfrwt>
<pdfrwt beam="2">  1       -2 0.28407582E+00 0.31868758E+04</pdfrwt>
<totfact> 0.20478004E-02</totfact>
</mgrwt>
</event>
<event>
11    1  0.1075864E-015  0.6767765E+04  0.7818608E-02  0.7601872E-01
         -2   -1    0    0    0  501 -0.00000000000E+00  0.00000000000E+00  0.29453531529E+04  0.29453531529E+04  0.00000000000E+00 0. -1.
          2   -1    0    0  501    0  0.00000000000E+00 -0.00000000000E+00 -0.38877033375E+04  0.38877033375E+04  0.00000000000E+00 0.  1.
    9900016    2    1    2    0    0 -0.58088991269E+03  0.12497580717E+03  0.25075333984E+03  0.20775517199E+04  0.19749156611E+04 0.  0.
         24    2    3    3    0    0  0.58147685393E+01  0.95009908162E+03 -0.19205893669E+03  0.97250261996E+03  0.78438729139E+02 0.  0.
        -15    1    1    2    0    0  0.71512508125E+03 -0.40124418608E+03 -0.10649003710E+04  0.13440288609E+04  0.00000000000E+00 0.  1.
        -15    1    4    4    0    0 -0.25576455080E+02  0.36477954875E+03 -0.47210307943E+02  0.36871003162E+03  0.00000000000E+00 0.  1.
         15    1    3    3    0    0 -0.58670468123E+03 -0.82512327445E+03  0.44281227653E+03  0.11050490999E+04  0.00000000000E+00 0. -1.
         15    1    1    2    0    0  0.35957326565E+03  0.11867079473E+04  0.11422250476E+04  0.16858964218E+04  0.00000000000E+00 0. -1.
        -16    1    1    2    0    0 -0.50989849521E+03 -0.91730705251E+03 -0.12469124394E+04  0.16297973296E+04  0.00000000000E+00 0.  1.
         16    1    4    4    0    0  0.31391223620E+02  0.58531953287E+03 -0.14484862874E+03  0.60379258834E+03  0.00000000000E+00 0. -1.
    9900018    1    1    2    0    0  0.16090060995E+02  0.68674840803E+01 -0.23515761686E+02  0.95782158265E+02  0.91187600000E+02 0.  0.
<mgrwt>
<rscale>  0 0.67677646E+04</rscale>
<asrwt>0</asrwt>
<pdfrwt beam="1">  1        2 0.59810821E+00 0.67677646E+04</pdfrwt>
<pdfrwt beam="2">  1       -2 0.45313125E+00 0.67677646E+04</pdfrwt>
<totfact> 0.88403426E-04</totfact>
</mgrwt>
</event>
<event>
11    1  0.1075864E-015  0.2501470E+04  0.7818608E-02  0.8470486E-01
          1   -1    0    0  501    0  0.00000000000E+00  0.00000000000E+00  0.30568087247E+04  0.30568087247E+04  0.00000000000E+00 0.  1.
         -1   -1    0    0    0  501 -0.00000000000E+00 -0.00000000000E+00 -0.16613182269E+04  0.16613182269E+04  0.00000000000E+00 0. -1.
    9900016    2    1    2    0    0 -0.76702391843E+02  0.15619048819E+03  0.95621808122E+03  0.22785166637E+04  0.20608266405E+04 0.  0.
         24    2    3    3    0    0  0.22069310220E+03  0.55375175421E+03 -0.43982211178E+03  0.74504104030E+03  0.79348667734E+02 0.  0.
        -15    1    4    4    0    0  0.13872987300E+03  0.24243847822E+03 -0.21176604271E+03  0.35052425056E+03  0.00000000000E+00 0.  1.
        -15    1    1    2    0    0  0.24643062671E+03  0.59417073080E+01  0.85023142632E+03  0.88524394150E+03  0.00000000000E+00 0.  1.
         15    1    3    3    0    0 -0.28655745203E+03 -0.36523406030E+03  0.13464234202E+04  0.14242075405E+04  0.00000000000E+00 0. -1.
         15    1    1    2    0    0 -0.40144625213E+03  0.14216465125E+03 -0.86291827728E+03  0.96228781280E+03  0.00000000000E+00 0. -1.
        -16    1    1    2    0    0  0.23171801726E+03 -0.30429684674E+03  0.45195926751E+03  0.59207853360E+03  0.00000000000E+00 0.  1.
         16    1    4    4    0    0  0.81963229204E+02  0.31131327599E+03 -0.22805606907E+03  0.39451678974E+03  0.00000000000E+00 0. -1.
    9900018    1    3    3    0    0 -0.10838042016E+02 -0.32327205718E+02  0.49616772818E+02  0.10926808282E+03  0.91187600000E+02 0.  0.
<mgrwt>
<rscale>  0 0.23189529E+04</rscale>
<asrwt>0</asrwt>
<pdfrwt beam="1">  1        1 0.47027826E+00 0.25014702E+04</pdfrwt>
<pdfrwt beam="2">  1       -1 0.25558742E+00 0.25014702E+04</pdfrwt>
<totfact> 0.29504686E-02</totfact>
</mgrwt>
</event>
<event>
11    1  0.1075864E-015  0.6039893E+04  0.7818608E-02  0.7685475E-01
         -2   -1    0    0    0  501 -0.00000000000E+00  0.00000000000E+00  0.25910643789E+04  0.25910643789E+04  0.00000000000E+00 0. -1.
          2   -1    0    0  501    0  0.00000000000E+00 -0.00000000000E+00 -0.35198184176E+04  0.35198184176E+04  0.00000000000E+00 0.  1.
    9900016    2    1    2    0    0  0.35110108425E+01 -0.50541417506E+03  0.23543211091E+03  0.21435756148E+04  0.20697904053E+04 0.  0.
         24    2    3    3    0    0  0.60013262712E+03  0.21451219731E+03 -0.54411536840E+03  0.84162310865E+03  0.78059400161E+02 0.  0.
        -15    1    1    2    0    0  0.74143869362E+03 -0.86545414570E+03 -0.77677620489E+03  0.13791749299E+04  0.00000000000E+00 0.  1.
        -15    1    4    4    0    0  0.51096379121E+03  0.16011253485E+03 -0.47966200589E+03  0.71888501141E+03  0.00000000000E+00 0.  1.
         15    1    1    2    0    0 -0.18843046517E+03  0.13553133263E+04  0.56863405626E+03  0.14817978751E+04  0.00000000000E+00 0. -1.
         15    1    3    3    0    0 -0.58650752883E+03 -0.73362133310E+03  0.75739370147E+03  0.12065805240E+04  0.00000000000E+00 0. -1.
        -16    1    1    2    0    0 -0.55651923930E+03  0.15554994457E+02 -0.95604400098E+03  0.11063343768E+04  0.00000000000E+00 0.  1.
         16    1    4    4    0    0  0.89168835916E+02  0.54399662465E+02 -0.64453362513E+02  0.12273809724E+03  0.00000000000E+00 0. -1.
    9900018    1    3    3    0    0 -0.10114087451E+02  0.13694960733E+02  0.22153777837E+02  0.95371982158E+02  0.91187600000E+02 0.  0.
<mgrwt>
<rscale>  0 0.60398928E+04</rscale>
<asrwt>0</asrwt>
<pdfrwt beam="1">  1        2 0.54151052E+00 0.60398928E+04</pdfrwt>
<pdfrwt beam="2">  1       -2 0.39862529E+00 0.60398928E+04</pdfrwt>
<totfact> 0.39995876E-03</totfact>
</mgrwt>
</event>
<event>
11    1  0.1075864E-015  0.2718213E+04  0.7818608E-02  0.8490944E-01
         -1   -1    0    0    0  501 -0.00000000000E+00  0.00000000000E+00  0.24622923305E+04  0.24622923305E+04  0.00000000000E+00 0.  1.
          1   -1    0    0  501    0  0.00000000000E+00 -0.00000000000E+00 -0.18659170003E+04  0.18659170003E+04  0.00000000000E+00 0. -1.
    9900016    2    1    2    0    0  0.33774225375E+02 -0.47164848038E+03  0.92647488057E+03  0.22315385316E+04  0.19742886127E+04 0.  0.
        -24    2    3    3    0    0  0.61424111434E+02 -0.92349793014E+03  0.13320344348E+04  0.16237466318E+04  0.74940244181E+02 0.  0.
        -15    1    1    2    0    0 -0.37835513107E+03  0.96110296774E+03 -0.20684786692E+03  0.10534028478E+04  0.00000000000E+00 0.  1.
        -15    1    3    3    0    0 -0.27649886059E+02  0.45184944977E+03 -0.40555955423E+03  0.60779189981E+03  0.00000000000E+00 0.  1.
         15    1    1    2    0    0 -0.13167572010E+03 -0.16348059845E+03 -0.27893815200E+03  0.34910012028E+03  0.00000000000E+00 0. -1.
         15    1    4    4    0    0  0.44927686307E+02 -0.74300492921E+03  0.11201304874E+04  0.13449041344E+04  0.00000000000E+00 0. -1.
        -16    1    4    4    0    0  0.16496425127E+02 -0.18049300093E+03  0.21190394741E+03  0.27884249740E+03  0.00000000000E+00 0.  1.
         16    1    1    2    0    0  0.48642044512E+03 -0.32369553776E+03  0.14289358870E+03  0.60149998195E+03  0.00000000000E+00 0. -1.
    9900018    1    1    2    0    0 -0.10163819333E+02 -0.22783511503E+01  0.12792879817E+02  0.92667849199E+02  0.91187600000E+02 0.  0.
<mgrwt>
<rscale>  0 0.22672564E+04</rscale>
<asrwt>0</asrwt>
<pdfrwt beam="1">  1        1 0.28706416E+00 0.27182135E+04</pdfrwt>
<pdfrwt beam="2">  1       -1 0.37881420E+00 0.27182135E+04</pdfrwt>
<totfact> 0.30619216E-02</totfact>
</mgrwt>
</event>
<event>
11    1  0.1075864E-015  0.3226340E+04  0.7818608E-02  0.8355470E-01
         -1   -1    0    0    0  501 -0.00000000000E+00  0.00000000000E+00  0.22649015466E+04  0.22649015466E+04  0.00000000000E+00 0.  1.
          1   -1    0    0  501    0  0.00000000000E+00 -0.00000000000E+00 -0.33317487661E+04  0.33317487661E+04  0.00000000000E+00 0. -1.
    9900016    2    1    2    0    0  0.16932392488E+02  0.32601525204E+03 -0.18326128655E+04  0.27866847298E+04  0.20737813814E+04 0.  0.
        -24    2    3    3    0    0 -0.79203018606E+03  0.51517692933E+03 -0.29214332662E+03  0.99212886371E+03  0.79075121085E+02 0.  0.
        -15    1    3    3    0    0  0.79552612527E+03 -0.21633954652E+03 -0.13833796239E+04  0.16104048557E+04  0.00000000000E+00 0.  1.
        -15    1    1    2    0    0  0.67086961273E+03  0.50980249715E+03  0.12118554403E+04  0.14759939809E+04  0.00000000000E+00 0.  1.
         15    1    1    2    0    0  0.92262578739E+02 -0.17650861375E+03 -0.20235025825E+03  0.28392481607E+03  0.00000000000E+00 0. -1.
         15    1    4    4    0    0 -0.49042299992E+03  0.28567811073E+03 -0.14697492214E+03  0.58628348906E+03  0.00000000000E+00 0. -1.
        -16    1    4    4    0    0 -0.30160718614E+03  0.22949881860E+03 -0.14516840448E+03  0.40584537465E+03  0.00000000000E+00 0.  1.
         16    1    1    2    0    0 -0.78006458396E+03 -0.65930913544E+03 -0.24373953611E+03  0.10500467860E+04  0.00000000000E+00 0. -1.
    9900018    1    3    3    0    0  0.13436453279E+02  0.27177869228E+02 -0.15708991498E+03  0.18415101041E+03  0.91187600000E+02 0.  0.
<mgrwt>
<rscale>  0 0.26378121E+04</rscale>
<asrwt>0</asrwt>
<pdfrwt beam="1">  1        1 0.51257673E+00 0.32263399E+04</pdfrwt>
<pdfrwt beam="2">  1       -1 0.34844639E+00 0.32263399E+04</pdfrwt>
<totfact> 0.42221244E-03</totfact>
</mgrwt>
</event>
<event>
11    1  0.1075864E-015  0.8267324E+04  0.7818608E-02  0.7459211E-01
         -2   -1    0    0    0  501 -0.00000000000E+00  0.00000000000E+00  0.43274148332E+04  0.43274148332E+04  0.00000000000E+00 0.  1.
          2   -1    0    0  501    0  0.00000000000E+00 -0.00000000000E+00 -0.39485838108E+04  0.39485838108E+04  0.00000000000E+00 0. -1.
    9900016    2    1    2    0    0  0.22044646725E+03  0.81447277721E+03 -0.20454720331E+03  0.21701429591E+04  0.19888987794E+04 0.  0.
        -24    2    3    3    0    0  0.16279718493E+03 -0.64028050782E+03 -0.25673923587E+03  0.71331264352E+03  0.80236151798E+02 0.  0.
        -15    1    3    3    0    0  0.57649282323E+02  0.14547532850E+04  0.52192032568E+02  0.14568303156E+04  0.00000000000E+00 0.  1.
        -15    1    1    2    0    0  0.28882358410E+03  0.84032408576E+03  0.16815208081E+04  0.19018611569E+04  0.00000000000E+00 0.  1.
         15    1    4    4    0    0  0.14033489882E+03 -0.55476135352E+03 -0.25052881927E+03  0.62467490143E+03  0.00000000000E+00 0. -1.
         15    1    1    2    0    0  0.13658356250E+04 -0.14856788035E+04 -0.26038806819E+03  0.20348342457E+04  0.00000000000E+00 0. -1.
        -16    1    4    4    0    0  0.22462286114E+02 -0.85519154300E+02 -0.62104166036E+01  0.88637742097E+02  0.00000000000E+00 0.  1.
         16    1    1    2    0    0 -0.18760392381E+04 -0.22375372197E+03 -0.82668257935E+03  0.20622786034E+04  0.00000000000E+00 0. -1.
    9900018    1    1    2    0    0  0.93356178394E+00  0.54635662464E+02 -0.11071934841E+02  0.10688167890E+03  0.91187600000E+02 0.  0.
<mgrwt>
<rscale>  0 0.82673237E+04</rscale>
<asrwt>0</asrwt>
<pdfrwt beam="1">  1        2 0.60747443E+00 0.82673237E+04</pdfrwt>
<pdfrwt beam="2">  1       -2 0.66575613E+00 0.82673237E+04</pdfrwt>
<totfact> 0.65644871E-05</totfact>
</mgrwt>
</event>
<event>
11    1  0.1075864E-015  0.4504028E+04  0.7818608E-02  0.7909932E-01
         -2   -1    0    0    0  501 -0.00000000000E+00  0.00000000000E+00  0.17264044447E+04  0.17264044447E+04  0.00000000000E+00 0. -1.
          2   -1    0    0  501    0  0.00000000000E+00 -0.00000000000E+00 -0.29376470194E+04  0.29376470194E+04  0.00000000000E+00 0.  1.
    9900016    2    1    2    0    0 -0.35409363132E+02 -0.42911333900E+02 -0.60017250758E+03  0.21593755583E+04  0.20735478189E+04 0.  0.
        -24    2    3    3    0    0 -0.93958645580E+03  0.14363296393E+03  0.61340440681E+02  0.95645915640E+03  0.87168411454E+02 0.  0.
        -15    1    3    3    0    0  0.89322026400E+03 -0.16411642663E+03 -0.57594992019E+03  0.10754045528E+04  0.00000000000E+00 0.  1.
        -15    1    1    2    0    0 -0.31808058285E+03 -0.94371281355E+02 -0.11830423449E+04  0.12286864473E+04  0.00000000000E+00 0.  1.
         15    1    1    2    0    0  0.31424336725E+03 -0.43965908433E+03  0.40108897892E+03  0.67299433379E+03  0.00000000000E+00 0. -1.
         15    1    4    4    0    0 -0.16975827179E+03  0.49032881729E+02  0.36584430045E+02  0.18044532372E+03  0.00000000000E+00 0. -1.
        -16    1    4    4    0    0 -0.76982818401E+03  0.94600082198E+02  0.24756010635E+02  0.77601383268E+03  0.00000000000E+00 0.  1.
         16    1    1    2    0    0  0.39246578728E+02  0.57694169959E+03  0.17088329877E+03  0.60299512474E+03  0.00000000000E+00 0. -1.
    9900018    1    3    3    0    0  0.10956828665E+02 -0.22427871195E+02 -0.85563028066E+02  0.12751184912E+03  0.91187600000E+02 0.  0.
<mgrwt>
<rscale>  0 0.45040279E+04</rscale>
<asrwt>0</asrwt>
<pdfrwt beam="1">  1        2 0.45194568E+00 0.45040279E+04</pdfrwt>
<pdfrwt beam="2">  1       -2 0.26560069E+00 0.45040279E+04</pdfrwt>
<totfact> 0.74342588E-02</totfact>
</mgrwt>
</event>
<event>
11    1  0.1075864E-015  0.4465160E+04  0.7818608E-02  0.8077764E-01
          2   -1    0    0  501    0  0.00000000000E+00  0.00000000000E+00  0.34916461869E+04  0.34916461869E+04  0.00000000000E+00 0.  1.
         -2   -1    0    0    0  501 -0.00000000000E+00 -0.00000000000E+00 -0.31774348146E+04  0.31774348146E+04  0.00000000000E+00 0. -1.
    9900016    2    1    2    0    0  0.66495231606E+03  0.17457263090E+04  0.41560581451E+03  0.27462038460E+04  0.19695647850E+04 0.  0.
        -24    2    3    3    0    0  0.45024031882E+03  0.13879545368E+04 -0.65180102752E+03  0.16001413481E+04  0.80458768558E+02 0.  0.
        -15    1    3    3    0    0  0.21471199724E+03  0.35777177212E+03  0.10674068420E+04  0.11460624979E+04  0.00000000000E+00 0.  1.
        -15    1    1    2    0    0  0.86171054872E+03 -0.10358208672E+04  0.32997476628E+03  0.13872106131E+04  0.00000000000E+00 0.  1.
         15    1    1    2    0    0 -0.59998759295E+03 -0.61665862814E+02  0.50473461768E+03  0.78647620728E+03  0.00000000000E+00 0. -1.
         15    1    4    4    0    0  0.29531006500E+03  0.79212776045E+03 -0.39435149396E+03  0.93283842339E+03  0.00000000000E+00 0. -1.
        -16    1    4    4    0    0  0.15493025382E+03  0.59582677639E+03 -0.25744953356E+03  0.66730292473E+03  0.00000000000E+00 0.  1.
         16    1    1    2    0    0 -0.99730954824E+03 -0.79066133609E+03 -0.90886106902E+03  0.15639054083E+04  0.00000000000E+00 0. -1.
    9900018    1    1    2    0    0  0.70634276406E+02  0.14242175713E+03 -0.27242757177E+02  0.18528492685E+03  0.91187600000E+02 0.  0.
<mgrwt>
<rscale>  0 0.36560850E+04</rscale>
<asrwt>0</asrwt>
<pdfrwt beam="1">  1        2 0.53717634E+00 0.44651596E+04</pdfrwt>
<pdfrwt beam="2">  1       -2 0.48883613E+00 0.44651596E+04</pdfrwt>
<totfact> 0.11362586E-03</totfact>
</mgrwt>
</event>
<event>
11    1  0.1075864E-015  0.4658269E+04  0.7818608E-02  0.7883500E-01
         -2   -1    0    0    0  501 -0.00000000000E+00  0.00000000000E+00  0.10920317327E+04  0.10920317327E+04  0.00000000000E+00 0. -1.
          2   -1    0    0  501    0  0.00000000000E+00 -0.00000000000E+00 -0.49676820527E+04  0.49676820527E+04  0.00000000000E+00 0.  1.
    9900016    2    1    2    0    0 -0.26101338074E+03 -0.11278185819E+03 -0.13632607003E+04  0.24930681425E+04  0.20678639447E+04 0.  0.
        -24    2    3    3    0    0 -0.75822645717E+03 -0.79160439219E+03 -0.42305436673E+03  0.11780272158E+04  0.85019114568E+02 0.  0.
        -15    1    1    2    0    0 -0.89212955128E+03 -0.19038206517E+03 -0.20728161146E+04  0.22646649006E+04  0.00000000000E+00 0.  1.
        -15    1    3    3    0    0  0.48483508136E+03  0.64500724049E+03 -0.90086030197E+03  0.12094001323E+04  0.00000000000E+00 0.  1.
         15    1    1    2    0    0  0.63769671753E+03  0.11851529850E+03 -0.37872173220E+03  0.75108796421E+03  0.00000000000E+00 0. -1.
         15    1    4    4    0    0 -0.96160293592E+02 -0.89240041216E+02 -0.23013802132E+02  0.13319242512E+03  0.00000000000E+00 0. -1.
        -16    1    4    4    0    0 -0.66206616357E+03 -0.70236435098E+03 -0.40004056460E+03  0.10448347907E+04  0.00000000000E+00 0.  1.
         16    1    1    2    0    0  0.51544621449E+03  0.18464862486E+03 -0.60851772940E+02  0.55089277810E+03  0.00000000000E+00 0. -1.
    9900018    1    3    3    0    0  0.12377995061E+02  0.33815293507E+02 -0.39346031575E+02  0.10564079435E+03  0.91187600000E+02 0.  0.
<mgrwt>
<rscale>  0 0.46582685E+04</rscale>
<asrwt>0</asrwt>
<pdfrwt beam="1">  1        2 0.76425878E+00 0.46582685E+04</pdfrwt>
<pdfrwt beam="2">  1       -2 0.16800488E+00 0.46582685E+04</pdfrwt>
<totfact> 0.61150731E-03</totfact>
</mgrwt>
</event>
<event>
11    1  0.1075864E-015  0.3103032E+04  0.7818608E-02  0.8353251E-01
          2   -1    0    0  501    0  0.00000000000E+00  0.00000000000E+00  0.29050275951E+04  0.29050275951E+04  0.00000000000E+00 0. -1.
         -2   -1    0    0    0  501 -0.00000000000E+00 -0.00000000000E+00 -0.19497098175E+04  0.19497098175E+04  0.00000000000E+00 0.  1.
    9900016    2    1    2    0    0  0.81027712509E+03  0.74419125801E+03 -0.75616297521E+02  0.22634760854E+04  0.19766730930E+04 0.  0.
        -24    2    3    3    0    0  0.12216369542E+04  0.74497561159E+02 -0.55136911106E+03  0.13447556185E+04  0.80081473523E+02 0.  0.
        -15    1    1    2    0    0  0.45867438406E+03 -0.31918213098E+03 -0.55950969238E+01  0.55882978485E+03  0.00000000000E+00 0.  1.
        -15    1    3    3    0    0 -0.41135982912E+03  0.66969369685E+03  0.47575281354E+03  0.91872046685E+03  0.00000000000E+00 0.  1.
         15    1    1    2    0    0 -0.74233174956E+03 -0.71203756708E+03  0.54810994247E+03  0.11655378297E+04  0.00000000000E+00 0. -1.
         15    1    4    4    0    0  0.73861886745E+03  0.32298089139E+02 -0.37338874700E+03  0.82826333633E+03  0.00000000000E+00 0. -1.
        -16    1    4    4    0    0  0.48301808676E+03  0.42199472021E+02 -0.17798036406E+03  0.51649228220E+03  0.00000000000E+00 0.  1.
         16    1    1    2    0    0 -0.53216101788E+03  0.20869168201E+03  0.47970801151E+03  0.74623544769E+03  0.00000000000E+00 0. -1.
    9900018    1    1    2    0    0  0.55412582845E+01  0.78336758047E+02  0.87112180700E+01  0.12065826502E+03  0.91187600000E+02 0.  0.
<mgrwt>
<rscale>  0 0.26444707E+04</rscale>
<asrwt>0</asrwt>
<pdfrwt beam="1">  1        2 0.44692732E+00 0.31030322E+04</pdfrwt>
<pdfrwt beam="2">  1       -2 0.29995536E+00 0.31030322E+04</pdfrwt>
<totfact> 0.51267024E-02</totfact>
</mgrwt>
</event>
<event>
11    1  0.1075864E-015  0.3009339E+04  0.7818608E-02  0.8443297E-01
         -1   -1    0    0    0  501 -0.00000000000E+00  0.00000000000E+00  0.26746236656E+04  0.26746236656E+04  0.00000000000E+00 0.  1.
          1   -1    0    0  501    0  0.00000000000E+00 -0.00000000000E+00 -0.16825887837E+04  0.16825887837E+04  0.00000000000E+00 0. -1.
    9900016    2    1    2    0    0 -0.30083662484E+03  0.44985586983E+02  0.67279383551E+03  0.21028148284E+04  0.19689216032E+04 0.  0.
         24    2    3    3    0    0 -0.82145120113E+03  0.72858758291E+02  0.11356008716E+04  0.14056729465E+04  0.78972263797E+02 0.  0.
        -15    1    1    2    0    0  0.27010445727E+03  0.10791141444E+02  0.42707230816E+03  0.50543409359E+03  0.00000000000E+00 0.  1.
        -15    1    4    4    0    0 -0.66632849112E+03  0.82996962497E+02  0.88756080821E+03  0.11129448963E+04  0.00000000000E+00 0.  1.
         15    1    3    3    0    0  0.52061457629E+03 -0.27873171307E+02 -0.46280703612E+03  0.69714188183E+03  0.00000000000E+00 0. -1.
         15    1    1    2    0    0 -0.58507179608E+03 -0.54674843175E+03  0.11643782089E+03  0.80919751626E+03  0.00000000000E+00 0. -1.
        -16    1    1    2    0    0  0.61107495700E+03  0.53289911254E+03 -0.21526052021E+03  0.83888685697E+03  0.00000000000E+00 0.  1.
         16    1    4    4    0    0 -0.15512271001E+03 -0.10138204206E+02  0.24804006342E+03  0.29272805026E+03  0.00000000000E+00 0. -1.
    9900018    1    1    2    0    0  0.47290066489E+01 -0.41927409220E+02 -0.90085624468E+01  0.10087915413E+03  0.91187600000E+02 0.  0.
<mgrwt>
<rscale>  0 0.23898937E+04</rscale>
<asrwt>0</asrwt>
<pdfrwt beam="1">  1        1 0.25885981E+00 0.30093394E+04</pdfrwt>
<pdfrwt beam="2">  1       -1 0.41148057E+00 0.30093394E+04</pdfrwt>
<totfact> 0.23980117E-02</totfact>
</mgrwt>
</event>
<event>
11    1  0.1075864E-015  0.2641976E+04  0.7818608E-02  0.8466280E-01
          3   -1    0    0  501    0  0.00000000000E+00  0.00000000000E+00  0.12846121598E+04  0.12846121598E+04  0.00000000000E+00 0. -1.
         -3   -1    0    0    0  501 -0.00000000000E+00 -0.00000000000E+00 -0.35104276652E+04  0.35104276652E+04  0.00000000000E+00 0.  1.
    9900016    2    1    2    0    0 -0.33956305912E+03  0.89016795639E+03 -0.10757722328E+04  0.25101210916E+04  0.20580864743E+04 0.  0.
        -24    2    3    3    0    0 -0.54541975320E+03 -0.39556693272E+02 -0.13076181059E+04  0.14196252895E+04  0.80146195741E+02 0.  0.
        -15    1    3    3    0    0  0.24894240458E+03  0.88243648151E+03  0.29409698873E+03  0.96289122100E+03  0.00000000000E+00 0.  1.
        -15    1    1    2    0    0  0.11325182172E+03 -0.45682483626E+03  0.11132578818E+03  0.48364071092E+03  0.00000000000E+00 0.  1.
         15    1    1    2    0    0  0.42427008304E+03 -0.75069219128E+03 -0.10900631602E+04  0.13898854495E+04  0.00000000000E+00 0. -1.
         15    1    4    4    0    0 -0.38526949015E+03 -0.25621160938E+01 -0.98193780747E+03  0.10548179948E+04  0.00000000000E+00 0. -1.
        -16    1    4    4    0    0 -0.16015026305E+03 -0.36994577179E+02 -0.32568029843E+03  0.36480729472E+03  0.00000000000E+00 0.  1.
         16    1    1    2    0    0 -0.19795884564E+03  0.31734907115E+03 -0.17130590054E+03  0.41139257296E+03  0.00000000000E+00 0. -1.
    9900018    1    3    3    0    0 -0.43085710509E+02  0.47288168152E+02 -0.62251115686E+02  0.12760458101E+03  0.91187600000E+02 0.  0.
<mgrwt>
<rscale>  0 0.23297560E+04</rscale>
<asrwt>0</asrwt>
<pdfrwt beam="1">  1        3 0.19763264E+00 0.26419762E+04</pdfrwt>
<pdfrwt beam="2">  1       -3 0.54006578E+00 0.26419762E+04</pdfrwt>
<totfact> 0.61635875E-04</totfact>
</mgrwt>
</event>
<event>
11    1  0.1075864E-015  0.3129968E+04  0.7818608E-02  0.8367660E-01
          2   -1    0    0  501    0  0.00000000000E+00  0.00000000000E+00  0.34915711061E+04  0.34915711061E+04  0.00000000000E+00 0. -1.
         -2   -1    0    0    0  501 -0.00000000000E+00 -0.00000000000E+00 -0.15309433014E+04  0.15309433014E+04  0.00000000000E+00 0.  1.
    9900016    2    1    2    0    0 -0.73004457365E+03  0.10413028949E+03  0.15802729352E+04  0.26314427158E+04  0.19706394953E+04 0.  0.
        -24    2    3    3    0    0  0.67769439401E+03 -0.31214274583E+02  0.61498233151E+03  0.91918306798E+03  0.80313272786E+02 0.  0.
        -15    1    3    3    0    0 -0.14077389677E+04  0.13534456408E+03  0.96529060371E+03  0.17122596479E+04  0.00000000000E+00 0.  1.
        -15    1    1    2    0    0  0.79081614446E+03 -0.61561976134E+03  0.89138722370E+03  0.13412490624E+04  0.00000000000E+00 0.  1.
         15    1    1    2    0    0  0.15462926069E+03 -0.21119477546E+01 -0.24244248841E+03  0.28756395597E+03  0.00000000000E+00 0. -1.
         15    1    4    4    0    0  0.49158469430E+03 -0.79503086063E+01  0.39942042043E+03  0.63344722853E+03  0.00000000000E+00 0. -1.
        -16    1    4    4    0    0  0.18610969972E+03 -0.23263965977E+02  0.21556191108E+03  0.28573583945E+03  0.00000000000E+00 0.  1.
         16    1    1    2    0    0 -0.13434071417E+03  0.52353247251E+03 -0.32151897480E+03  0.62889436984E+03  0.00000000000E+00 0. -1.
    9900018    1    1    2    0    0 -0.81060117340E+02 -0.99310529026E+01  0.52929109021E+02  0.13336430336E+03  0.91187600000E+02 0.  0.
<mgrwt>
<rscale>  0 0.26015925E+04</rscale>
<asrwt>0</asrwt>
<pdfrwt beam="1">  1        2 0.53716478E+00 0.31299675E+04</pdfrwt>
<pdfrwt beam="2">  1       -2 0.23552974E+00 0.31299675E+04</pdfrwt>
<totfact> 0.52730528E-02</totfact>
</mgrwt>
</event>
<event>
11    1  0.1075864E-015  0.5426442E+04  0.7818608E-02  0.7765893E-01
         -2   -1    0    0    0  501 -0.00000000000E+00  0.00000000000E+00  0.31351511071E+04  0.31351511071E+04  0.00000000000E+00 0. -1.
          2   -1    0    0  501    0  0.00000000000E+00 -0.00000000000E+00 -0.23480743697E+04  0.23480743697E+04  0.00000000000E+00 0.  1.
    9900016    2    1    2    0    0  0.60015840777E+03  0.45464914675E+03 -0.73648333769E+02  0.21224609630E+04  0.19830583706E+04 0.  0.
         24    2    3    3    0    0  0.11927027960E+04  0.47795095097E+03  0.41654432789E+03  0.13530841557E+04  0.79689925030E+02 0.  0.
        -15    1    1    2    0    0 -0.74871442463E+03 -0.10077752267E+04  0.33859987106E+03  0.13003207566E+04  0.00000000000E+00 0.  1.
        -15    1    4    4    0    0  0.80281993469E+03  0.28625559850E+03  0.29512639566E+03  0.90197655437E+03  0.00000000000E+00 0.  1.
         15    1    1    2    0    0 -0.28014387531E+03  0.75494467458E+03  0.10214136766E+04  0.13006567385E+04  0.00000000000E+00 0. -1.
         15    1    3    3    0    0 -0.59254438821E+03 -0.23301804225E+02 -0.49019266166E+03  0.76937680731E+03  0.00000000000E+00 0. -1.
        -16    1    1    2    0    0  0.40846451037E+03 -0.20043007640E+03 -0.48546978035E+03  0.66535432620E+03  0.00000000000E+00 0.  1.
         16    1    4    4    0    0  0.38988286129E+03  0.19169535247E+03  0.12141793223E+03  0.45110760130E+03  0.00000000000E+00 0. -1.
    9900018    1    1    2    0    0  0.20235381803E+02 -0.13885181915E+01 -0.13818696129E+02  0.94432692517E+02  0.91187600000E+02 0.  0.
<mgrwt>
<rscale>  0 0.54264419E+04</rscale>
<asrwt>0</asrwt>
<pdfrwt beam="1">  1        2 0.36124221E+00 0.54264419E+04</pdfrwt>
<pdfrwt beam="2">  1       -2 0.48233094E+00 0.54264419E+04</pdfrwt>
<totfact> 0.64365617E-03</totfact>
</mgrwt>
</event>
<event>
11    1  0.1126289E-015  0.2830485E+04  0.7818608E-02  0.8345851E-01
          2   -1    0    0  501    0  0.00000000000E+00  0.00000000000E+00  0.24669416837E+04  0.24669416837E+04  0.00000000000E+00 0. -1.
         -2   -1    0    0    0  501 -0.00000000000E+00 -0.00000000000E+00 -0.26115550693E+04  0.26115550693E+04  0.00000000000E+00 0.  1.
    9900016    2    1    2    0    0  0.42031024984E+01  0.62558691604E+02 -0.19619904542E+03  0.19806038600E+04  0.19698645458E+04 0.  0.
        -24    2    3    3    0    0 -0.30670367575E+03 -0.88985445719E+03 -0.25066149330E+03  0.97724949142E+03  0.79229316239E+02 0.  0.
        -15    1    3    3    0    0  0.31090677825E+03  0.95241314879E+03  0.54462447878E+02  0.10033543686E+04  0.00000000000E+00 0.  1.
        -15    1    1    2    0    0  0.61546393544E+03  0.48108770011E+03 -0.10314514443E+04  0.12938830368E+04  0.00000000000E+00 0.  1.
         15    1    4    4    0    0 -0.96809925663E+02 -0.18106595463E+03 -0.57140817673E+02  0.21312464587E+03  0.00000000000E+00 0. -1.
         15    1    1    2    0    0 -0.53645049670E+03  0.15479584298E+03  0.77076988180E+03  0.95174949388E+03  0.00000000000E+00 0. -1.
        -16    1    4    4    0    0 -0.20989375009E+03 -0.70878850256E+03 -0.19352067563E+03  0.76412484555E+03  0.00000000000E+00 0.  1.
         16    1    1    2    0    0 -0.10989673621E+03 -0.68826624653E+03  0.26508941707E+03  0.74569438631E+03  0.00000000000E+00 0. -1.
    9900018    1    1    2    0    0  0.26680194967E+02 -0.10175988166E+02  0.47177805272E+02  0.10656597601E+03  0.91187600000E+02 0.  0.
<mgrwt>
<rscale>  0 0.26668209E+04</rscale>
<asrwt>0</asrwt>
<pdfrwt beam="1">  1        2 0.37952949E+00 0.28304854E+04</pdfrwt>
<pdfrwt beam="2">  1       -2 0.40177770E+00 0.28304854E+04</pdfrwt>
<totfact> 0.21504411E-02</totfact>
</mgrwt>
</event>
<event>
11    1  0.1075864E-015  0.4747775E+04  0.7818608E-02  0.7868639E-01
         -1   -1    0    0    0  501 -0.00000000000E+00  0.00000000000E+00  0.18131039102E+04  0.18131039102E+04  0.00000000000E+00 0.  1.
          1   -1    0    0  501    0  0.00000000000E+00 -0.00000000000E+00 -0.31081189622E+04  0.31081189622E+04  0.00000000000E+00 0. -1.
    9900016    2    1    2    0    0  0.26503270403E+03 -0.24567110574E+03 -0.71268340278E+03  0.21229524667E+04  0.19668281361E+04 0.  0.
        -24    2    3    3    0    0 -0.67831785909E+03 -0.26319113654E+03  0.25190303633E+03  0.77363996215E+03  0.75358868213E+02 0.  0.
        -15    1    3    3    0    0  0.94335056312E+03  0.17520030790E+02 -0.96458643911E+03  0.13493125045E+04  0.00000000000E+00 0.  1.
        -15    1    1    2    0    0  0.69161877693E+03 -0.40495589946E+03 -0.38574862706E+03  0.88945366175E+03  0.00000000000E+00 0.  1.
         15    1    4    4    0    0 -0.27598008006E+03 -0.11406806142E+03  0.14220598318E+03  0.33075530060E+03  0.00000000000E+00 0. -1.
         15    1    1    2    0    0 -0.11029842870E+04  0.14572435884E+02 -0.18224616279E+03  0.11180341484E+04  0.00000000000E+00 0. -1.
        -16    1    4    4    0    0 -0.40233777903E+03 -0.14912307512E+03  0.10969705316E+03  0.44288466155E+03  0.00000000000E+00 0.  1.
         16    1    1    2    0    0  0.15021686316E+03  0.63110584957E+03  0.86735365513E+02  0.65450952856E+03  0.00000000000E+00 0. -1.
    9900018    1    1    2    0    0 -0.38840571469E+01  0.49487197471E+01 -0.10107222490E+03  0.13627306692E+03  0.91187600000E+02 0.  0.
<mgrwt>
<rscale>  0 0.47477753E+04</rscale>
<asrwt>0</asrwt>
<pdfrwt beam="1">  1        1 0.47817215E+00 0.47477753E+04</pdfrwt>
<pdfrwt beam="2">  1       -1 0.27893906E+00 0.47477753E+04</pdfrwt>
<totfact> 0.16570472E-02</totfact>
</mgrwt>
</event>
<event>
11    1  0.1075864E-015  0.3087981E+04  0.7818608E-02  0.8269548E-01
          2   -1    0    0  501    0  0.00000000000E+00  0.00000000000E+00  0.17569046361E+04  0.17569046361E+04  0.00000000000E+00 0.  1.
         -2   -1    0    0    0  501 -0.00000000000E+00 -0.00000000000E+00 -0.50314630883E+04  0.50314630883E+04  0.00000000000E+00 0. -1.
    9900016    2    1    2    0    0  0.91677468170E+03 -0.26036139540E+03 -0.10666366171E+04  0.25111731365E+04  0.20639798874E+04 0.  0.
         24    2    3    3    0    0  0.12922047962E+04  0.80094706802E+02 -0.12946515470E+04  0.18327137957E+04  0.80677329222E+02 0.  0.
        -15    1    1    2    0    0 -0.93728439716E+03  0.12705689337E+03 -0.58889688546E+02  0.94768849879E+03  0.00000000000E+00 0.  1.
        -15    1    4    4    0    0  0.56575807445E+03  0.57456140601E+02 -0.61545641550E+03  0.83795584983E+03  0.00000000000E+00 0.  1.
         15    1    3    3    0    0 -0.40924255784E+03 -0.31673413693E+03  0.25189562485E+03  0.57554442962E+03  0.00000000000E+00 0. -1.
         15    1    1    2    0    0 -0.58991367504E+02  0.49293574598E+03 -0.26564862885E+04  0.27024775729E+04  0.00000000000E+00 0. -1.
        -16    1    1    2    0    0  0.79501082963E+02 -0.35963124395E+03  0.50745414202E+03  0.62702851615E+03  0.00000000000E+00 0.  1.
         16    1    4    4    0    0  0.72644672174E+03  0.22638566201E+02 -0.67919513154E+03  0.99475794590E+03  0.00000000000E+00 0. -1.
    9900018    1    3    3    0    0  0.33812443359E+02 -0.23721965274E+02 -0.23880694936E+02  0.10291491120E+03  0.91187600000E+02 0.  0.
<mgrwt>
<rscale>  0 0.29112172E+04</rscale>
<asrwt>0</asrwt>
<pdfrwt beam="1">  1        2 0.27029302E+00 0.30879807E+04</pdfrwt>
<pdfrwt beam="2">  1       -2 0.77407124E+00 0.30879807E+04</pdfrwt>
<totfact> 0.79551041E-04</totfact>
</mgrwt>
</event>
<event>
11    1  0.1075864E-015  0.3012268E+04  0.7818608E-02  0.8333082E-01
          1   -1    0    0  501    0  0.00000000000E+00  0.00000000000E+00  0.27578290732E+04  0.27578290732E+04  0.00000000000E+00 0. -1.
         -1   -1    0    0    0  501 -0.00000000000E+00 -0.00000000000E+00 -0.22440606585E+04  0.22440606585E+04  0.00000000000E+00 0.  1.
    9900016    2    1    2    0    0 -0.14094225195E+03  0.41834598096E+03  0.18654712344E+03  0.20301857390E+04  0.19728092222E+04 0.  0.
         24    2    3    3    0    0 -0.52232799049E+03 -0.37719339853E+03 -0.57317232982E+03  0.86592132160E+03  0.78688156518E+02 0.  0.
        -15    1    1    2    0    0 -0.10360666818E+03 -0.17668017622E+02 -0.62586795916E+03  0.63463154889E+03  0.00000000000E+00 0.  1.
        -15    1    4    4    0    0 -0.32191485274E+03 -0.19475001409E+03 -0.30101129946E+03  0.48183455958E+03  0.00000000000E+00 0.  1.
         15    1    3    3    0    0  0.38138573855E+03  0.79553937948E+03  0.75971945327E+03  0.11642644174E+04  0.00000000000E+00 0. -1.
         15    1    1    2    0    0 -0.46553185021E+03 -0.98555139749E+03  0.76532353248E+03  0.13318226496E+04  0.00000000000E+00 0. -1.
        -16    1    1    2    0    0  0.68916149743E+03  0.55038333197E+03  0.13437705977E+03  0.89214492984E+03  0.00000000000E+00 0.  1.
         16    1    4    4    0    0 -0.20041313776E+03 -0.18244338443E+03 -0.27216103037E+03  0.38408676202E+03  0.00000000000E+00 0. -1.
    9900018    1    1    2    0    0  0.20919272911E+02  0.34490102182E+02  0.53388658155E+02  0.11310486436E+03  0.91187600000E+02 0.  0.
<mgrwt>
<rscale>  0 0.27059356E+04</rscale>
<asrwt>0</asrwt>
<pdfrwt beam="1">  1        1 0.42428140E+00 0.30122680E+04</pdfrwt>
<pdfrwt beam="2">  1       -1 0.34524010E+00 0.30122680E+04</pdfrwt>
<totfact> 0.12033778E-02</totfact>
</mgrwt>
</event>
<event>
11    1  0.1075864E-015  0.2915321E+04  0.7818608E-02  0.8425138E-01
         -2   -1    0    0    0  501 -0.00000000000E+00  0.00000000000E+00  0.18440706453E+04  0.18440706453E+04  0.00000000000E+00 0. -1.
          2   -1    0    0  501    0  0.00000000000E+00 -0.00000000000E+00 -0.25764747248E+04  0.25764747248E+04  0.00000000000E+00 0.  1.
    9900016    2    1    2    0    0  0.27591976689E+03  0.51320770796E+03 -0.20807413375E+03  0.20620349660E+04  0.19670230010E+04 0.  0.
         24    2    3    3    0    0 -0.45863811941E+03  0.78215365881E+03  0.47218478330E+03  0.10253771599E+04  0.79539800035E+02 0.  0.
        -15    1    4    4    0    0 -0.35902338109E+03  0.54166536157E+03  0.33289135822E+03  0.73014779906E+03  0.00000000000E+00 0.  1.
        -15    1    1    2    0    0  0.49832508754E+03 -0.57944928873E+03 -0.91251700339E+02  0.76968580856E+03  0.00000000000E+00 0.  1.
         15    1    1    2    0    0 -0.37428168755E+03 -0.51706065298E+03 -0.33116824459E+03  0.71910423912E+03  0.00000000000E+00 0. -1.
         15    1    3    3    0    0  0.73455788630E+03 -0.26894595085E+03 -0.68025891705E+03  0.10366578061E+04  0.00000000000E+00 0. -1.
        -16    1    1    2    0    0 -0.47765682421E+03  0.56329907466E+03 -0.11540770627E+03  0.74751643988E+03  0.00000000000E+00 0.  1.
         16    1    4    4    0    0 -0.99614738319E+02  0.24048829725E+03  0.13929342508E+03  0.29522936079E+03  0.00000000000E+00 0. -1.
    9900018    1    1    2    0    0  0.77693657334E+02  0.20003159090E+02  0.13497705472E+02  0.12220391651E+03  0.91187600000E+02 0.  0.
<mgrwt>
<rscale>  0 0.24387477E+04</rscale>
<asrwt>0</asrwt>
<pdfrwt beam="1">  1        2 0.39638072E+00 0.29153214E+04</pdfrwt>
<pdfrwt beam="2">  1       -2 0.28370318E+00 0.29153214E+04</pdfrwt>
<totfact> 0.10369607E-01</totfact>
</mgrwt>
</event>
<event>
11    1  0.1075864E-015  0.3798957E+04  0.7818608E-02  0.8246315E-01
         -1   -1    0    0    0  501 -0.00000000000E+00  0.00000000000E+00  0.24041965397E+04  0.24041965397E+04  0.00000000000E+00 0.  1.
          1   -1    0    0  501    0  0.00000000000E+00 -0.00000000000E+00 -0.29599244033E+04  0.29599244033E+04  0.00000000000E+00 0. -1.
    9900016    2    1    2    0    0  0.71450487553E+02  0.83729286682E+03  0.25419224111E+03  0.22510322411E+04  0.20727681824E+04 0.  0.
        -24    2    3    3    0    0 -0.77478476508E+03  0.65137367243E+03 -0.39959978924E+03  0.10911212144E+04  0.79286944702E+02 0.  0.
        -15    1    1    2    0    0 -0.22589076584E+03 -0.33918024036E+03 -0.34630634909E+03  0.53478777189E+03  0.00000000000E+00 0.  1.
        -15    1    3    3    0    0  0.81891828750E+03  0.20186559471E+03  0.64727154955E+03  0.10631732403E+04  0.00000000000E+00 0.  1.
         15    1    4    4    0    0 -0.52490440259E+03  0.46559298440E+03 -0.31029210980E+03  0.76719140532E+03  0.00000000000E+00 0. -1.
         15    1    1    2    0    0 -0.30194918987E+03  0.96057504894E+03 -0.21857179538E+03  0.10303646770E+04  0.00000000000E+00 0. -1.
        -16    1    4    4    0    0 -0.24988036249E+03  0.18578068803E+03 -0.89307679436E+02  0.32392980908E+03  0.00000000000E+00 0.  1.
         16    1    1    2    0    0  0.45638946816E+03 -0.14586876754E+04 -0.24504196017E+03  0.15479362530E+04  0.00000000000E+00 0. -1.
    9900018    1    3    3    0    0  0.27316965136E+02 -0.15946400326E+02  0.65204807977E+01  0.96737786470E+02  0.91187600000E+02 0.  0.
<mgrwt>
<rscale>  0 0.29909658E+04</rscale>
<asrwt>0</asrwt>
<pdfrwt beam="1">  1        1 0.45537299E+00 0.37989575E+04</pdfrwt>
<pdfrwt beam="2">  1       -1 0.36987639E+00 0.37989575E+04</pdfrwt>
<totfact> 0.55557147E-03</totfact>
</mgrwt>
</event>
