<event>
12    1  0.3070966E-006  0.3524655E+04  0.7818608E-02  0.8306967E-01
         -1   -1    0    0    0  501 -0.00000000000E+00  0.00000000000E+00  0.19856411485E+04  0.19856411485E+04  0.00000000000E+00 0.  1.
          1   -1    0    0  501    0  0.00000000000E+00 -0.00000000000E+00 -0.34700121862E+04  0.34700121862E+04  0.00000000000E+00 0. -1.
         24    2    1    2    0    0 -0.79595622082E+03  0.11245241085E+04  0.42894184545E+03  0.14451720742E+04  0.80190031404E+02 0.  0.
    9900016    2    1    2    0    0  0.71455920297E+03 -0.12015555094E+02 -0.17137096532E+04  0.26087405844E+04  0.18324812232E+04 0.  0.
        -24    2    4    4    0    0  0.11578539692E+04  0.34949515636E+03 -0.16278354206E+04  0.20303163214E+04  0.97793303168E+02 0.  0.
        -15    1    4    4    0    0 -0.44329476619E+03 -0.36151071146E+03 -0.85874232586E+02  0.57842426302E+03  0.00000000000E+00 0.  1.
        -15    1    3    3    0    0 -0.23623768404E+03  0.27681917651E+03  0.99698917297E+02  0.37732873459E+03  0.00000000000E+00 0.  1.
         15    1    1    2    0    0  0.41355542354E+03 -0.44949887844E+03  0.52885079504E+02  0.61308577026E+03  0.00000000000E+00 0. -1.
         15    1    5    5    0    0  0.27524604247E+03  0.45505851150E+02 -0.40859172697E+03  0.49475081176E+03  0.00000000000E+00 0. -1.
        -16    1    5    5    0    0  0.88260792669E+03  0.30398930521E+03 -0.12192436936E+04  0.15355655096E+04  0.00000000000E+00 0.  1.
         16    1    3    3    0    0 -0.55971853678E+03  0.84770493204E+03  0.32924292815E+03  0.10678433396E+04  0.00000000000E+00 0. -1.
    9900018    1    1    2    0    0 -0.33215840569E+03 -0.66300967501E+03 -0.25248830951E+03  0.78865490581E+03  0.91187600000E+02 0.  0.
<mgrwt>
<rscale>  0 0.27881169E+04</rscale>
<asrwt>0</asrwt>
<pdfrwt beam="1">  1        1 0.53384802E+00 0.35246551E+04</pdfrwt>
<pdfrwt beam="2">  1       -1 0.30548326E+00 0.35246551E+04</pdfrwt>
<totfact> 0.62148027E-03</totfact>
</mgrwt>
</event>
<event>
12    1  0.3070968E-006  0.3522155E+04  0.7818608E-02  0.8499479E-01
         -1   -1    0    0    0  501 -0.00000000000E+00  0.00000000000E+00  0.24439625377E+04  0.24439625377E+04  0.00000000000E+00 0.  1.
          1   -1    0    0  501    0  0.00000000000E+00 -0.00000000000E+00 -0.23794981173E+04  0.23794981173E+04  0.00000000000E+00 0. -1.
         24    2    1    2    0    0  0.24897869487E+03 -0.52063752649E+03  0.10194535743E+04  0.11741350134E+04  0.79079801706E+02 0.  0.
    9900016    2    1    2    0    0  0.18327153762E+02  0.69226188013E+03 -0.13735101125E+04  0.23951577549E+04  0.18359434213E+04 0.  0.
        -24    2    4    4    0    0  0.31055805629E+03  0.70067400076E+03  0.19982490977E+03  0.79489129066E+03  0.67318702802E+02 0.  0.
        -15    1    4    4    0    0 -0.29223090253E+03 -0.84121206272E+01 -0.15733350223E+04  0.16002664642E+04  0.00000000000E+00 0.  1.
        -15    1    3    3    0    0  0.17837172752E+03 -0.30070724936E+03  0.56701716034E+03  0.66614546693E+03  0.00000000000E+00 0.  1.
         15    1    1    2    0    0 -0.47612100024E+03 -0.11827437988E+03  0.72078450558E+03  0.87190041822E+03  0.00000000000E+00 0. -1.
         15    1    5    5    0    0  0.14141106658E+03  0.34205515671E+03  0.63105189841E+02  0.37547447978E+03  0.00000000000E+00 0. -1.
        -16    1    5    5    0    0  0.16914698970E+03  0.35861884405E+03  0.13671971993E+03  0.41941681088E+03  0.00000000000E+00 0.  1.
         16    1    3    3    0    0  0.70606967356E+02 -0.21993027714E+03  0.45243641399E+03  0.50798954650E+03  0.00000000000E+00 0. -1.
    9900018    1    1    2    0    0  0.20881515160E+03 -0.53349973754E+02 -0.30226354702E+03  0.38226746852E+03  0.91187600000E+02 0.  0.
<mgrwt>
<rscale>  0 0.22461072E+04</rscale>
<asrwt>0</asrwt>
<pdfrwt beam="1">  1        1 0.36607663E+00 0.35221546E+04</pdfrwt>
<pdfrwt beam="2">  1       -1 0.37599424E+00 0.35221546E+04</pdfrwt>
<totfact> 0.13370199E-02</totfact>
</mgrwt>
</event>
<event>
11    1  0.3070966E-006  0.3973585E+04  0.7818608E-02  0.8009897E-01
         -2   -1    0    0    0  501 -0.00000000000E+00  0.00000000000E+00  0.15848424125E+04  0.15848424125E+04  0.00000000000E+00 0.  1.
          2   -1    0    0  501    0  0.00000000000E+00 -0.00000000000E+00 -0.24906856044E+04  0.24906856044E+04  0.00000000000E+00 0. -1.
         24    2    1    2    0    0  0.53601197876E+03  0.61126118586E+03 -0.71042731171E+03  0.10825313730E+04  0.78855117687E+02 0.  0.
    9900016    2    1    2    0    0 -0.90670340896E+03 -0.97971834608E+03 -0.37003428229E+03  0.22670937064E+04  0.17946669312E+04 0.  0.
        -15    1    4    4    0    0 -0.56066464311E+03  0.14707919165E+03  0.42973252185E+03  0.72155884790E+03  0.00000000000E+00 0.  1.
        -15    1    3    3    0    0  0.19669532537E+03  0.27149139161E+03 -0.26156182742E+03  0.42521902157E+03  0.00000000000E+00 0.  1.
         15    1    1    2    0    0  0.15690676146E+03 -0.96752981124E+02  0.37924912753E+02  0.18819981444E+03  0.00000000000E+00 0. -1.
         15    1    4    4    0    0 -0.36669135984E+03 -0.97502583513E+03 -0.39727558852E+03  0.11148837723E+04  0.00000000000E+00 0. -1.
        -16    1    4    4    0    0  0.20652593992E+02 -0.15177170260E+03 -0.40249121562E+03  0.43065108614E+03  0.00000000000E+00 0.  1.
         16    1    3    3    0    0  0.33931665339E+03  0.33976979425E+03 -0.44886548429E+03  0.65731235143E+03  0.00000000000E+00 0. -1.
    9900018    1    1    2    0    0  0.21378466873E+03  0.46521014134E+03  0.13669348932E+03  0.53770312311E+03  0.91187600000E+02 0.  0.
<mgrwt>
<rscale>  0 0.39735849E+04</rscale>
<asrwt>0</asrwt>
<pdfrwt beam="1">  1        2 0.38318240E+00 0.39735849E+04</pdfrwt>
<pdfrwt beam="2">  1       -2 0.24382191E+00 0.39735849E+04</pdfrwt>
<totfact> 0.19547644E-01</totfact>
</mgrwt>
</event>
<event>
12    1  0.3070966E-006  0.3817450E+04  0.7818608E-02  0.8403717E-01
          2   -1    0    0  501    0  0.00000000000E+00  0.00000000000E+00  0.15441384363E+04  0.15441384363E+04  0.00000000000E+00 0. -1.
         -2   -1    0    0    0  501 -0.00000000000E+00 -0.00000000000E+00 -0.47148537259E+04  0.47148537259E+04  0.00000000000E+00 0.  1.
        -24    2    1    2    0    0 -0.31984270147E+03 -0.61801794440E+03  0.57874638888E+03  0.90816161005E+03  0.74596206574E+02 0.  0.
    9900016    2    1    2    0    0  0.87513025255E+03  0.78385774173E+03 -0.25336473865E+04  0.33527966391E+04  0.18551523672E+04 0.  0.
         24    2    4    4    0    0  0.11374636105E+04 -0.20021915387E+03 -0.11370448007E+04  0.16242929770E+04  0.10745055363E+03 0.  0.
        -15    1    1    2    0    0  0.40864980709E+02  0.49070954251E+03 -0.94619850684E+03  0.10666571221E+04  0.00000000000E+00 0.  1.
        -15    1    5    5    0    0  0.34890519292E+03 -0.88751378007E+02 -0.29667396444E+03  0.46650517888E+03  0.00000000000E+00 0.  1.
         15    1    4    4    0    0 -0.26233335796E+03  0.98407689559E+03 -0.13966025858E+04  0.17285036621E+04  0.00000000000E+00 0. -1.
         15    1    3    3    0    0 -0.21413073212E+03 -0.38253199508E+03  0.32065375080E+03  0.54314042898E+03  0.00000000000E+00 0. -1.
        -16    1    3    3    0    0 -0.10571196936E+03 -0.23548594932E+03  0.25809263808E+03  0.36502118107E+03  0.00000000000E+00 0.  1.
         16    1    5    5    0    0  0.78855841759E+03 -0.11146777586E+03 -0.84037083629E+03  0.11577877981E+04  0.00000000000E+00 0. -1.
    9900018    1    1    2    0    0 -0.59615253178E+03 -0.65654933984E+03 -0.26961578517E+03  0.93137679099E+03  0.91187600000E+02 0.  0.
<mgrwt>
<rscale>  0 0.24979489E+04</rscale>
<asrwt>0</asrwt>
<pdfrwt beam="1">  1        2 0.23755976E+00 0.38174500E+04</pdfrwt>
<pdfrwt beam="2">  1       -2 0.72536211E+00 0.38174500E+04</pdfrwt>
<totfact> 0.16749494E-03</totfact>
</mgrwt>
</event>
<event>
11    1  0.3070966E-006  0.5947421E+04  0.7818608E-02  0.7696955E-01
         -2   -1    0    0    0  501 -0.00000000000E+00  0.00000000000E+00  0.50075171925E+04  0.50075171925E+04  0.00000000000E+00 0.  1.
          2   -1    0    0  501    0  0.00000000000E+00 -0.00000000000E+00 -0.17659357894E+04  0.17659357894E+04  0.00000000000E+00 0. -1.
        -24    2    1    2    0    0  0.78176827901E+03 -0.22839594605E+04  0.13529831510E+04  0.27683951718E+04  0.76262447887E+02 0.  0.
    9900016    2    1    2    0    0 -0.43880984411E+03  0.14544806122E+04  0.13657752983E+04  0.27538165713E+04  0.18466444196E+04 0.  0.
        -15    1    4    4    0    0 -0.28870635028E+02 -0.15727200821E+03  0.88771101539E+02  0.18288878206E+03  0.00000000000E+00 0.  1.
        -15    1    1    2    0    0 -0.32240123899E+03  0.17020399957E+03  0.45335556347E+03  0.58175873633E+03  0.00000000000E+00 0.  1.
         15    1    4    4    0    0 -0.39310442923E+03  0.18987553410E+04  0.10531923178E+04  0.22065849170E+04  0.00000000000E+00 0. -1.
         15    1    3    3    0    0  0.39630770286E+03 -0.10834971012E+04  0.61265257760E+03  0.13062805765E+04  0.00000000000E+00 0. -1.
        -16    1    3    3    0    0  0.38546057614E+03 -0.12004623593E+04  0.74033057344E+03  0.14621145953E+04  0.00000000000E+00 0.  1.
         16    1    4    4    0    0 -0.16834779861E+02 -0.28700272060E+03  0.22381187893E+03  0.36434287230E+03  0.00000000000E+00 0. -1.
    9900018    1    1    2    0    0 -0.20557195903E+02  0.65927484870E+03  0.69467390249E+02  0.66948250249E+03  0.91187600000E+02 0.  0.
<mgrwt>
<rscale>  0 0.59474209E+04</rscale>
<asrwt>0</asrwt>
<pdfrwt beam="1">  1        2 0.27168243E+00 0.59474209E+04</pdfrwt>
<pdfrwt beam="2">  1       -2 0.77038726E+00 0.59474209E+04</pdfrwt>
<totfact> 0.70389202E-04</totfact>
</mgrwt>
</event>
