<event>
11    1  0.1211770E-010  0.3904463E+04  0.7818608E-02  0.8185932E-01
         -2   -1    0    0    0  501 -0.00000000000E+00  0.00000000000E+00  0.23976480333E+04  0.23976480333E+04  0.00000000000E+00 0.  1.
          2   -1    0    0  501    0  0.00000000000E+00 -0.00000000000E+00 -0.35182574402E+04  0.35182574402E+04  0.00000000000E+00 0. -1.
    9900016    2    1    2    0    0 -0.60342654905E+03 -0.53655873124E+03  0.32796319923E+03  0.20394994121E+04  0.18439032295E+04 0.  0.
        -24    2    3    3    0    0  0.38306120211E+03  0.45739582945E+03  0.37671072044E+01  0.60206876756E+03  0.80782302623E+02 0.  0.
        -15    1    3    3    0    0 -0.98648775116E+03 -0.99395456069E+03  0.32419609202E+03  0.14374306446E+04  0.00000000000E+00 0.  1.
        -15    1    1    2    0    0  0.21350021202E+03  0.14303891229E+03  0.68787552637E+03  0.73431274723E+03  0.00000000000E+00 0.  1.
         15    1    4    4    0    0  0.26536867583E+03  0.33423043888E+03  0.37474953138E+02  0.42840972503E+03  0.00000000000E+00 0. -1.
         15    1    1    2    0    0  0.35179469622E+03  0.18316318878E+02 -0.14042098025E+04  0.14477224061E+04  0.00000000000E+00 0. -1.
        -16    1    4    4    0    0  0.11769252628E+03  0.12316539057E+03 -0.33707845934E+02  0.17365904253E+03  0.00000000000E+00 0.  1.
         16    1    1    2    0    0 -0.11990128593E+03  0.93210763363E+03 -0.49457763674E+03  0.10619830497E+04  0.00000000000E+00 0. -1.
    9900018    1    1    2    0    0  0.15803292674E+03 -0.55690413355E+03 -0.23766069321E+03  0.63238785836E+03  0.91187600000E+02 0.  0.
<mgrwt>
<rscale>  0 0.32109475E+04</rscale>
<asrwt>0</asrwt>
<pdfrwt beam="1">  1        2 0.54127037E+00 0.39044630E+04</pdfrwt>
<pdfrwt beam="2">  1       -2 0.36886893E+00 0.39044630E+04</pdfrwt>
<totfact> 0.69734701E-03</totfact>
</mgrwt>
</event>
<event>
11    1  0.1211770E-010  0.2944262E+04  0.7818608E-02  0.8567069E-01
          1   -1    0    0  501    0  0.00000000000E+00  0.00000000000E+00  0.21310644838E+04  0.21310644838E+04  0.00000000000E+00 0. -1.
         -1   -1    0    0    0  501 -0.00000000000E+00 -0.00000000000E+00 -0.18943304646E+04  0.18943304646E+04  0.00000000000E+00 0.  1.
    9900016    2    1    2    0    0  0.22387955329E+03 -0.21332467080E+03  0.10937239210E+03  0.18624365540E+04  0.18333243379E+04 0.  0.
         24    2    3    3    0    0  0.74073182569E+03 -0.75748535293E+03  0.26684696361E+03  0.10955953969E+04  0.81573735508E+02 0.  0.
        -15    1    4    4    0    0  0.60043335986E+03 -0.61671574113E+03  0.18346248697E+03  0.88006647994E+03  0.00000000000E+00 0.  1.
        -15    1    1    2    0    0 -0.42416562839E+03  0.96114687636E+02  0.19051570172E+03  0.47481653941E+03  0.00000000000E+00 0.  1.
         15    1    3    3    0    0 -0.51685227241E+03  0.54416068213E+03 -0.15747457150E+03  0.76684115704E+03  0.00000000000E+00 0. -1.
         15    1    1    2    0    0  0.10898860978E+03 -0.13738747368E+03  0.53770198691E+03  0.56557692820E+03  0.00000000000E+00 0. -1.
        -16    1    1    2    0    0  0.48305029055E+03  0.24169475928E+02 -0.33271778301E+03  0.58704588398E+03  0.00000000000E+00 0.  1.
         16    1    4    4    0    0  0.14029846583E+03 -0.14076961179E+03  0.83384476634E+02  0.21552891700E+03  0.00000000000E+00 0. -1.
    9900018    1    1    2    0    0 -0.39175282523E+03  0.23042798091E+03 -0.26813827847E+03  0.53551904283E+03  0.91187600000E+02 0.  0.
<mgrwt>
<rscale>  0 0.20868261E+04</rscale>
<asrwt>0</asrwt>
<pdfrwt beam="1">  1        1 0.32785607E+00 0.29442618E+04</pdfrwt>
<pdfrwt beam="2">  1       -1 0.29143546E+00 0.29442618E+04</pdfrwt>
<totfact> 0.75431764E-02</totfact>
</mgrwt>
</event>
<event>
11    1  0.1211770E-010  0.3716428E+04  0.7818608E-02  0.8276627E-01
         -1   -1    0    0    0  501 -0.00000000000E+00  0.00000000000E+00  0.26173863568E+04  0.26173863568E+04  0.00000000000E+00 0.  1.
          1   -1    0    0  501    0  0.00000000000E+00 -0.00000000000E+00 -0.24753650814E+04  0.24753650814E+04  0.00000000000E+00 0. -1.
    9900016    2    1    2    0    0  0.65258915337E+03  0.68256225063E+03  0.61162882395E+03  0.21615876075E+04  0.18456996878E+04 0.  0.
         24    2    3    3    0    0 -0.30450489834E+03  0.22870411674E+03  0.96856448750E+03  0.10438133470E+04  0.80002067910E+02 0.  0.
        -15    1    1    2    0    0 -0.90433626578E+02 -0.84384742082E+03 -0.30327182641E+03  0.90123832094E+03  0.00000000000E+00 0. -1.
        -15    1    4    4    0    0 -0.79162299216E+02  0.66544983485E+02  0.17727480070E+03  0.20523464475E+03  0.00000000000E+00 0.  1.
         15    1    1    2    0    0  0.25389439630E+03 -0.36019601026E+03  0.14079955728E+03  0.46263165219E+03  0.00000000000E+00 0.  1.
         15    1    3    3    0    0  0.95709405171E+03  0.45385813389E+03 -0.35693566355E+03  0.11177742605E+04  0.00000000000E+00 0. -1.
        -16    1    1    2    0    0 -0.86002195422E+03  0.20815302666E+03 -0.64540613280E+03  0.10952235025E+04  0.00000000000E+00 0.  1.
         16    1    4    4    0    0 -0.22534259913E+03  0.16215913325E+03  0.79128968680E+03  0.83857870228E+03  0.00000000000E+00 0. -1.
    9900018    1    1    2    0    0  0.43972031134E+02  0.31332815379E+03  0.33827085337E+03  0.47207035504E+03  0.91187600000E+02 0.  0.
<mgrwt>
<rscale>  0 0.28874314E+04</rscale>
<asrwt>0</asrwt>
<pdfrwt beam="1">  1        1 0.38082540E+00 0.37164285E+04</pdfrwt>
<pdfrwt beam="2">  1       -1 0.40267482E+00 0.37164285E+04</pdfrwt>
<totfact> 0.74210097E-03</totfact>
</mgrwt>
</event>
<event>
11    1  0.1211770E-010  0.3657535E+04  0.7818608E-02  0.8229834E-01
         -2   -1    0    0    0  501 -0.00000000000E+00  0.00000000000E+00  0.22460989431E+04  0.22460989431E+04  0.00000000000E+00 0.  1.
          2   -1    0    0  501    0  0.00000000000E+00 -0.00000000000E+00 -0.32830025846E+04  0.32830025846E+04  0.00000000000E+00 0. -1.
    9900016    2    1    2    0    0  0.83053828594E+03  0.68530403341E+03 -0.13638270437E+03  0.21401377816E+04  0.18444928895E+04 0.  0.
         24    2    3    3    0    0  0.34266339583E+03  0.64477721730E+03  0.79847921366E+03  0.10848505520E+04  0.78586275161E+02 0.  0.
        -15    1    4    4    0    0  0.25161508682E+03  0.46785614688E+03  0.52721229511E+03  0.74843325034E+03  0.00000000000E+00 0.  1.
        -15    1    1    2    0    0  0.40781866024E+02 -0.28183131233E+03  0.23693118848E+03  0.37044356829E+03  0.00000000000E+00 0.  1.
         15    1    3    3    0    0  0.48787489011E+03  0.40526816117E+02 -0.93486191803E+03  0.10552872296E+04  0.00000000000E+00 0. -1.
         15    1    1    2    0    0 -0.12075827832E+04  0.40988574189E+03 -0.70500771987E+03  0.14571542076E+04  0.00000000000E+00 0. -1.
        -16    1    1    2    0    0 -0.42492705505E+03 -0.52416219774E+03 -0.26577672146E+03  0.72522153672E+03  0.00000000000E+00 0.  1.
         16    1    4    4    0    0  0.91048309004E+02  0.17692107042E+03  0.27126691855E+03  0.33641730162E+03  0.00000000000E+00 0. -1.
    9900018    1    1    2    0    0  0.76118968630E+03 -0.28919626523E+03 -0.16666768424E+03  0.83614443353E+03  0.91187600000E+02 0.  0.
<mgrwt>
<rscale>  0 0.30491476E+04</rscale>
<asrwt>0</asrwt>
<pdfrwt beam="1">  1        2 0.50507732E+00 0.36575355E+04</pdfrwt>
<pdfrwt beam="2">  1       -2 0.34555368E+00 0.36575355E+04</pdfrwt>
<totfact> 0.14559718E-02</totfact>
</mgrwt>
</event>
<event>
11    1  0.1211770E-010  0.3493407E+04  0.7818608E-02  0.8407238E-01
          2   -1    0    0  501    0  0.00000000000E+00  0.00000000000E+00  0.21611572456E+04  0.21611572456E+04  0.00000000000E+00 0. -1.
         -2   -1    0    0    0  501 -0.00000000000E+00 -0.00000000000E+00 -0.28996508485E+04  0.28996508485E+04  0.00000000000E+00 0.  1.
    9900016    2    1    2    0    0 -0.20594235448E+03  0.86484106701E+03  0.66542118227E+02  0.20491448616E+04  0.18450486405E+04 0.  0.
        -24    2    3    3    0    0  0.55418270478E+03 -0.20434799951E+03 -0.32656752456E+03  0.67965935352E+03  0.80086912491E+02 0.  0.
        -15    1    3    3    0    0 -0.76012505927E+03  0.10691890665E+04  0.39310964278E+03  0.13694855081E+04  0.00000000000E+00 0.  1.
        -15    1    1    2    0    0  0.22957781395E+03  0.19663682917E+03 -0.51155337986E+03  0.59418757618E+03  0.00000000000E+00 0.  1.
         15    1    4    4    0    0  0.21740012810E+03 -0.10958340116E+03 -0.16631864755E+03  0.29484441665E+03  0.00000000000E+00 0. -1.
         15    1    1    2    0    0 -0.45556892762E+03 -0.37481355358E+03 -0.72847896063E+03  0.93739524419E+03  0.00000000000E+00 0. -1.
        -16    1    4    4    0    0  0.33678257668E+03 -0.94764598346E+02 -0.16024887701E+03  0.38481493687E+03  0.00000000000E+00 0.  1.
         16    1    1    2    0    0  0.18653513968E+03 -0.43444302566E+03  0.82252899704E+03  0.94873075835E+03  0.00000000000E+00 0. -1.
    9900018    1    1    2    0    0  0.24539832847E+03 -0.25222131694E+03 -0.38753237772E+03  0.53134965372E+03  0.91187600000E+02 0.  0.
<mgrwt>
<rscale>  0 0.24880992E+04</rscale>
<asrwt>0</asrwt>
<pdfrwt beam="1">  1        2 0.33248573E+00 0.34934066E+04</pdfrwt>
<pdfrwt beam="2">  1       -2 0.44610012E+00 0.34934066E+04</pdfrwt>
<totfact> 0.15686225E-02</totfact>
</mgrwt>
</event>
<event>
11    1  0.1211770E-010  0.4029754E+04  0.7818608E-02  0.8450713E-01
          1   -1    0    0  501    0  0.00000000000E+00  0.00000000000E+00  0.36096983125E+04  0.36096983125E+04  0.00000000000E+00 0. -1.
         -1   -1    0    0    0  501 -0.00000000000E+00 -0.00000000000E+00 -0.15087853621E+04  0.15087853621E+04  0.00000000000E+00 0.  1.
    9900016    2    1    2    0    0  0.23607263674E+03  0.11279251740E+03  0.15326432141E+04  0.24096614795E+04  0.18409293258E+04 0.  0.
        -24    2    3    3    0    0 -0.64049755940E+03  0.21264510096E+02  0.13684246365E+04  0.15131569195E+04  0.79803348110E+02 0.  0.
        -15    1    3    3    0    0  0.87657019614E+03  0.91528007308E+02  0.16421857756E+03  0.89650456000E+03  0.00000000000E+00 0.  1.
        -15    1    1    2    0    0 -0.17668268631E+03 -0.14141249885E+03  0.23579985860E+03  0.32682692635E+03  0.00000000000E+00 0.  1.
         15    1    1    2    0    0 -0.11672395982E+02  0.24065509676E+03  0.46836568525E+03  0.52670441003E+03  0.00000000000E+00 0. -1.
         15    1    4    4    0    0 -0.24978765869E+03  0.43614852810E+02  0.57711267257E+03  0.63036113988E+03  0.00000000000E+00 0. -1.
        -16    1    4    4    0    0 -0.39070990071E+03 -0.22350342714E+02  0.79131196392E+03  0.88279577965E+03  0.00000000000E+00 0.  1.
         16    1    1    2    0    0  0.17543871001E+03 -0.65865583138E+03  0.63549521953E+03  0.93191223794E+03  0.00000000000E+00 0. -1.
    9900018    1    1    2    0    0 -0.22315626446E+03  0.44662071607E+03 -0.77139102703E+03  0.92337862081E+03  0.91187600000E+02 0.  0.
<mgrwt>
<rscale>  0 0.23702854E+04</rscale>
<asrwt>0</asrwt>
<pdfrwt beam="1">  1        1 0.55533820E+00 0.40297537E+04</pdfrwt>
<pdfrwt beam="2">  1       -1 0.23212083E+00 0.40297537E+04</pdfrwt>
<totfact> 0.14257393E-02</totfact>
</mgrwt>
</event>
<event>
11    1  0.1211770E-010  0.3565744E+04  0.7818608E-02  0.8328801E-01
         -1   -1    0    0    0  501 -0.00000000000E+00  0.00000000000E+00  0.22669524858E+04  0.22669524858E+04  0.00000000000E+00 0.  1.
          1   -1    0    0  501    0  0.00000000000E+00 -0.00000000000E+00 -0.30820122441E+04  0.30820122441E+04  0.00000000000E+00 0. -1.
    9900016    2    1    2    0    0 -0.25064818026E+02  0.90133060851E+03  0.85491691831E+03  0.22258971564E+04  0.18468107923E+04 0.  0.
        -24    2    3    3    0    0 -0.90312776219E+03  0.49173412083E+03  0.69618202720E+03  0.12440822134E+04  0.75026249970E+02 0.  0.
        -15    1    3    3    0    0  0.87806294416E+03  0.40959648768E+03  0.15873489112E+03  0.98181494300E+03  0.00000000000E+00 0.  1.
        -15    1    1    2    0    0 -0.78772584947E+03  0.90170476247E+02 -0.48301645288E+03  0.92841134336E+03  0.00000000000E+00 0.  1.
         15    1    4    4    0    0 -0.11611238592E+03  0.35957792304E+02  0.78720808763E+02  0.14481717689E+03  0.00000000000E+00 0. -1.
         15    1    1    2    0    0  0.23350105396E+03  0.44480709488E+02 -0.79049360361E+03  0.82545830486E+03  0.00000000000E+00 0. -1.
        -16    1    4    4    0    0 -0.78701537627E+03  0.45577632852E+03  0.61746121844E+03  0.10992650365E+04  0.00000000000E+00 0.  1.
         16    1    1    2    0    0  0.49449966441E+03 -0.10357220992E+04 -0.24580721643E+03  0.11737424643E+04  0.00000000000E+00 0. -1.
    9900018    1    1    2    0    0  0.84789949134E+02 -0.25969502502E+00 -0.15065940370E+03  0.19545546100E+03  0.91187600000E+02 0.  0.
<mgrwt>
<rscale>  0 0.27192041E+04</rscale>
<asrwt>0</asrwt>
<pdfrwt beam="1">  1        1 0.47415573E+00 0.35657442E+04</pdfrwt>
<pdfrwt beam="2">  1       -1 0.34876192E+00 0.35657442E+04</pdfrwt>
<totfact> 0.63543026E-03</totfact>
</mgrwt>
</event>
<event>
11    1  0.1211770E-010  0.3251204E+04  0.7818608E-02  0.8232184E-01
         -2   -1    0    0    0  501 -0.00000000000E+00  0.00000000000E+00  0.33679598485E+04  0.33679598485E+04  0.00000000000E+00 0.  1.
          2   -1    0    0  501    0  0.00000000000E+00 -0.00000000000E+00 -0.24471966117E+04  0.24471966117E+04  0.00000000000E+00 0. -1.
    9900016    2    1    2    0    0  0.61707941786E+03 -0.86215996916E+03 -0.42998772455E+02  0.21245035553E+04  0.18405324343E+04 0.  0.
         24    2    3    3    0    0  0.77247450854E+02  0.35369260524E+03 -0.58121922896E+03  0.68944352344E+03  0.80317820184E+02 0.  0.
        -15    1    4    4    0    0 -0.16262999044E+02  0.50090889728E+02 -0.95610579250E+02  0.10915569264E+03  0.00000000000E+00 0.  1.
        -15    1    1    2    0    0 -0.76914443873E+03  0.13115656176E+04  0.10451512797E+04  0.18450281121E+04  0.00000000000E+00 0.  1.
         15    1    3    3    0    0  0.53983196700E+03 -0.12158525744E+04  0.53822045650E+03  0.14350600319E+04  0.00000000000E+00 0. -1.
         15    1    1    2    0    0  0.45328486724E+02  0.40863743021E+03 -0.55482151261E+03  0.69055494491E+03  0.00000000000E+00 0. -1.
        -16    1    1    2    0    0  0.25768036611E+03 -0.62221780653E+03  0.52777298376E+03  0.85562754294E+03  0.00000000000E+00 0.  1.
         16    1    4    4    0    0  0.93510449898E+02  0.30360171551E+03 -0.48560864971E+03  0.58028783080E+03  0.00000000000E+00 0. -1.
    9900018    1    1    2    0    0 -0.15094383196E+03 -0.23582527211E+03 -0.54340741624E+02  0.29944230490E+03  0.91187600000E+02 0.  0.
<mgrwt>
<rscale>  0 0.30407704E+04</rscale>
<asrwt>0</asrwt>
<pdfrwt beam="1">  1        2 0.37649179E+00 0.32512042E+04</pdfrwt>
<pdfrwt beam="2">  1       -2 0.51814767E+00 0.32512042E+04</pdfrwt>
<totfact> 0.37420613E-03</totfact>
</mgrwt>
</event>
<event>
11    1  0.1211770E-010  0.5571147E+04  0.7818608E-02  0.8111275E-01
         -1   -1    0    0    0  501 -0.00000000000E+00  0.00000000000E+00  0.32875316051E+04  0.32875316051E+04  0.00000000000E+00 0.  1.
          1   -1    0    0  501    0  0.00000000000E+00 -0.00000000000E+00 -0.35118727718E+04  0.35118727718E+04  0.00000000000E+00 0. -1.
    9900016    2    1    2    0    0 -0.13014502455E+04 -0.13713658263E+02 -0.90072215203E+02  0.22527741979E+04  0.18365505103E+04 0.  0.
         24    2    3    3    0    0 -0.16996482327E+04  0.31908608846E+03 -0.42189951815E+02  0.17316120163E+04  0.77975226763E+02 0.  0.
        -15    1    1    2    0    0  0.45894701610E+03 -0.36176563819E+03  0.27535109742E+03  0.64600694068E+03  0.00000000000E+00 0.  1.
        -15    1    4    4    0    0 -0.38442374505E+03  0.39151829515E+02 -0.98543673930E+01  0.38653795424E+03  0.00000000000E+00 0.  1.
         15    1    1    2    0    0 -0.19435216742E+03  0.14246361698E+01  0.46075274831E+03  0.50006788504E+03  0.00000000000E+00 0. -1.
         15    1    3    3    0    0  0.39819798724E+03 -0.33279974672E+03 -0.47882263387E+02  0.52116218168E+03  0.00000000000E+00 0. -1.
        -16    1    1    2    0    0  0.29717866045E+03 -0.13344063418E+04 -0.60957743455E+02  0.13684558041E+04  0.00000000000E+00 0.  1.
         16    1    4    4    0    0 -0.13152244877E+04  0.27993425894E+03 -0.32335584422E+02  0.13450740620E+04  0.00000000000E+00 0. -1.
    9900018    1    1    2    0    0  0.73967673635E+03  0.17084610021E+04 -0.80941505375E+03  0.20320995491E+04  0.91187600000E+02 0.  0.
<mgrwt>
<rscale>  0 0.35106313E+04</rscale>
<asrwt>0</asrwt>
<pdfrwt beam="1">  1        1 0.54028812E+00 0.55711471E+04</pdfrwt>
<pdfrwt beam="2">  1       -1 0.50577409E+00 0.55711471E+04</pdfrwt>
<totfact> 0.22380017E-04</totfact>
</mgrwt>
</event>
<event>
11    1  0.1211770E-010  0.3490448E+04  0.7818608E-02  0.8385785E-01
         -1   -1    0    0    0  501 -0.00000000000E+00  0.00000000000E+00  0.13079778338E+04  0.13079778338E+04  0.00000000000E+00 0.  1.
          1   -1    0    0  501    0  0.00000000000E+00 -0.00000000000E+00 -0.44491129777E+04  0.44491129777E+04  0.00000000000E+00 0. -1.
    9900016    2    1    2    0    0  0.58770768111E+03  0.57624633019E+03 -0.92729227852E+03  0.22228257334E+04  0.18448910862E+04 0.  0.
         24    2    3    3    0    0  0.91361507243E+03  0.72355037694E+03 -0.12713636911E+04  0.17265402845E+04  0.79737509278E+02 0.  0.
        -15    1    1    2    0    0 -0.42296322519E+03  0.47428648052E+02 -0.25198558922E+03  0.49461510662E+03  0.00000000000E+00 0.  1.
        -15    1    4    4    0    0  0.29657315706E+03  0.19434201335E+03 -0.35939440247E+03  0.50486512275E+03  0.00000000000E+00 0.  1.
         15    1    3    3    0    0 -0.32590739133E+03 -0.14730404676E+03  0.34407141255E+03  0.49628544895E+03  0.00000000000E+00 0. -1.
         15    1    1    2    0    0 -0.13956748076E+03  0.21741096224E+03 -0.14733287156E+04  0.14958088489E+04  0.00000000000E+00 0. -1.
        -16    1    1    2    0    0  0.27565358598E+02 -0.33487338580E+03  0.39595790074E+03  0.51930982339E+03  0.00000000000E+00 0.  1.
         16    1    4    4    0    0  0.61704191537E+03  0.52920836360E+03 -0.91196928859E+03  0.12216751617E+04  0.00000000000E+00 0. -1.
    9900018    1    1    2    0    0 -0.52742333755E+02 -0.50621255468E+03 -0.88448646126E+03  0.10245312991E+04  0.91187600000E+02 0.  0.
<mgrwt>
<rscale>  0 0.25488528E+04</rscale>
<asrwt>0</asrwt>
<pdfrwt beam="1">  1        1 0.68447893E+00 0.34904485E+04</pdfrwt>
<pdfrwt beam="2">  1       -1 0.20122736E+00 0.34904485E+04</pdfrwt>
<totfact> 0.42028572E-03</totfact>
</mgrwt>
</event>
<event>
11    1  0.1211770E-010  0.3657714E+04  0.7818608E-02  0.8437154E-01
         -1   -1    0    0    0  501 -0.00000000000E+00  0.00000000000E+00  0.31091355249E+04  0.31091355249E+04  0.00000000000E+00 0.  1.
          1   -1    0    0  501    0  0.00000000000E+00 -0.00000000000E+00 -0.15196038687E+04  0.15196038687E+04  0.00000000000E+00 0. -1.
    9900016    2    1    2    0    0 -0.46465712738E+03 -0.50251550503E+03  0.63658930100E+03  0.20700526857E+04  0.18470095031E+04 0.  0.
         24    2    3    3    0    0 -0.37788144716E+03 -0.70683666992E+03  0.12111271038E+04  0.14541218097E+04  0.72311201518E+02 0.  0.
        -15    1    4    4    0    0 -0.13623959572E+03 -0.20964469671E+03  0.33159303471E+03  0.41529034057E+03  0.00000000000E+00 0.  1.
        -15    1    1    2    0    0  0.12899927933E+03  0.29071873428E+03  0.17185932088E+03  0.36151600615E+03  0.00000000000E+00 0.  1.
         15    1    3    3    0    0 -0.86775680221E+02  0.20432116489E+03 -0.57453780281E+03  0.61593087596E+03  0.00000000000E+00 0. -1.
         15    1    1    2    0    0 -0.34876619775E+03  0.11152613490E+03  0.15624711016E+03  0.39810689380E+03  0.00000000000E+00 0. -1.
        -16    1    1    2    0    0  0.71075824030E+03  0.44170309603E+03  0.98588712016E+03  0.12931559515E+04  0.00000000000E+00 0.  1.
         16    1    4    4    0    0 -0.24164185144E+03 -0.49719197321E+03  0.87953406910E+03  0.10388314691E+04  0.00000000000E+00 0. -1.
    9900018    1    1    2    0    0 -0.26334194505E+02 -0.34143246019E+03 -0.36105119602E+03  0.50590785644E+03  0.91187600000E+02 0.  0.
<mgrwt>
<rscale>  0 0.24062849E+04</rscale>
<asrwt>0</asrwt>
<pdfrwt beam="1">  1        1 0.23378521E+00 0.36577136E+04</pdfrwt>
<pdfrwt beam="2">  1       -1 0.47832854E+00 0.36577136E+04</pdfrwt>
<totfact> 0.10350806E-02</totfact>
</mgrwt>
</event>
<event>
11    1  0.1211770E-010  0.8056190E+04  0.7818608E-02  0.7988749E-01
          1   -1    0    0  501    0  0.00000000000E+00  0.00000000000E+00  0.49820440315E+04  0.49820440315E+04  0.00000000000E+00 0. -1.
         -1   -1    0    0    0  501 -0.00000000000E+00 -0.00000000000E+00 -0.37041202544E+04  0.37041202544E+04  0.00000000000E+00 0.  1.
    9900016    2    1    2    0    0  0.16601751626E+04  0.26121919546E+03  0.25843811034E+03  0.24902631721E+04  0.18193964304E+04 0.  0.
         24    2    3    3    0    0  0.40082069663E+03 -0.59907204559E+03  0.58333725460E+03  0.93089338138E+03  0.82070629586E+02 0.  0.
        -15    1    4    4    0    0  0.66722795650E+02 -0.15991593368E+03  0.12675214528E+03  0.21468848045E+03  0.00000000000E+00 0.  1.
        -15    1    1    2    0    0 -0.44510621917E+02  0.70205420186E+02 -0.78912623114E+02  0.11461761895E+03  0.00000000000E+00 0.  1.
         15    1    3    3    0    0  0.12593544659E+04  0.86029124105E+03 -0.32489914426E+03  0.15593697907E+04  0.00000000000E+00 0. -1.
         15    1    1    2    0    0 -0.10589995858E+03  0.35317944282E+03  0.23596686803E+03  0.43775664800E+03  0.00000000000E+00 0. -1.
        -16    1    1    2    0    0 -0.91087892470E+03  0.53610655632E+03 -0.21175826000E+04  0.23666995422E+04  0.00000000000E+00 0.  1.
         16    1    4    4    0    0  0.33409790098E+03 -0.43915611190E+03  0.45658510932E+03  0.71620490093E+03  0.00000000000E+00 0. -1.
    9900018    1    1    2    0    0 -0.59888565738E+03 -0.12207106148E+04  0.29800140219E+04  0.32768273047E+04  0.91187600000E+02 0.  0.
<mgrwt>
<rscale>  0 0.40792417E+04</rscale>
<asrwt>0</asrwt>
<pdfrwt beam="1">  1        1 0.76646831E+00 0.80561896E+04</pdfrwt>
<pdfrwt beam="2">  1       -1 0.56986465E+00 0.80561896E+04</pdfrwt>
<totfact> 0.30995099E-06</totfact>
</mgrwt>
</event>
<event>
11    1  0.1211770E-010  0.4218330E+04  0.7818608E-02  0.8382403E-01
         -2   -1    0    0    0  501 -0.00000000000E+00  0.00000000000E+00  0.17214617489E+04  0.17214617489E+04  0.00000000000E+00 0.  1.
          2   -1    0    0  501    0  0.00000000000E+00 -0.00000000000E+00 -0.33312989931E+04  0.33312989931E+04  0.00000000000E+00 0. -1.
    9900016    2    1    2    0    0 -0.74148302680E+03  0.70757496622E+03  0.49811929565E+03  0.21657082623E+04  0.18416595866E+04 0.  0.
        -24    2    3    3    0    0 -0.10037585822E+04  0.79587654448E+03 -0.30246446229E+03  0.13186427458E+04  0.79894773520E+02 0.  0.
        -15    1    3    3    0    0  0.26227555539E+03 -0.88301578260E+02  0.80058375794E+03  0.84706551645E+03  0.00000000000E+00 0.  1.
        -15    1    1    2    0    0 -0.20704202195E+03 -0.63147644522E+02  0.12739989155E+03  0.25116678966E+03  0.00000000000E+00 0.  1.
         15    1    4    4    0    0 -0.52282585782E+03  0.42160977944E+03 -0.19914885682E+03  0.70054403923E+03  0.00000000000E+00 0. -1.
         15    1    1    2    0    0  0.13025091703E+03  0.10140229810E+03 -0.30490831325E+03  0.34672295415E+03  0.00000000000E+00 0. -1.
        -16    1    4    4    0    0 -0.48093272436E+03  0.37426676503E+03 -0.10331560547E+03  0.61809870661E+03  0.00000000000E+00 0.  1.
         16    1    1    2    0    0  0.67591872809E+03 -0.32395068064E+03 -0.14201514470E+04  0.16058145295E+04  0.00000000000E+00 0. -1.
    9900018    1    1    2    0    0  0.14235540363E+03 -0.42187893915E+03 -0.51029667112E+03  0.68334820640E+03  0.91187600000E+02 0.  0.
<mgrwt>
<rscale>  0 0.25585944E+04</rscale>
<asrwt>0</asrwt>
<pdfrwt beam="1">  1        2 0.51250754E+00 0.42183302E+04</pdfrwt>
<pdfrwt beam="2">  1       -2 0.26484027E+00 0.42183302E+04</pdfrwt>
<totfact> 0.41963138E-02</totfact>
</mgrwt>
</event>
<event>
11    1  0.1211770E-010  0.3860342E+04  0.7818608E-02  0.8351611E-01
          1   -1    0    0  501    0  0.00000000000E+00  0.00000000000E+00  0.43001164244E+04  0.43001164244E+04  0.00000000000E+00 0. -1.
         -1   -1    0    0    0  501 -0.00000000000E+00 -0.00000000000E+00 -0.14601418139E+04  0.14601418139E+04  0.00000000000E+00 0.  1.
    9900016    2    1    2    0    0  0.63702528096E+03  0.12717254342E+01  0.10238245787E+04  0.22043095239E+04  0.18452536095E+04 0.  0.
        -24    2    3    3    0    0  0.96017572550E+03  0.51159793408E+03  0.11526927191E+04  0.15866801474E+04  0.71996635940E+02 0.  0.
        -15    1    3    3    0    0 -0.32315044454E+03 -0.51032620865E+03 -0.12886814041E+03  0.61762937645E+03  0.00000000000E+00 0.  1.
        -15    1    1    2    0    0 -0.16274923088E+03  0.27989907367E+03  0.36405456090E+03  0.48720275749E+03  0.00000000000E+00 0.  1.
         15    1    1    2    0    0  0.39929950887E+03 -0.31515480749E+03  0.10337356207E+04  0.11521163066E+04  0.00000000000E+00 0. -1.
         15    1    4    4    0    0  0.77220136603E+03  0.37837580376E+03  0.91379674110E+03  0.12547859111E+04  0.00000000000E+00 0. -1.
        -16    1    4    4    0    0  0.18797435947E+03  0.13322213032E+03  0.23889597797E+03  0.33189423634E+03  0.00000000000E+00 0.  1.
         16    1    1    2    0    0 -0.67163359503E+03 -0.51441067354E+03  0.83849922665E+03  0.11911301273E+04  0.00000000000E+00 0. -1.
    9900018    1    1    2    0    0 -0.20194196392E+03  0.54839468193E+03 -0.42013937645E+03  0.72549952308E+03  0.91187600000E+02 0.  0.
<mgrwt>
<rscale>  0 0.26494032E+04</rscale>
<asrwt>0</asrwt>
<pdfrwt beam="1">  1        1 0.66155637E+00 0.38603424E+04</pdfrwt>
<pdfrwt beam="2">  1       -1 0.22463720E+00 0.38603424E+04</pdfrwt>
<totfact> 0.39731654E-03</totfact>
</mgrwt>
</event>
<event>
11    1  0.1211770E-010  0.3720034E+04  0.7818608E-02  0.8291522E-01
          2   -1    0    0  501    0  0.00000000000E+00  0.00000000000E+00  0.28593261355E+04  0.28593261355E+04  0.00000000000E+00 0.  1.
         -2   -1    0    0    0  501 -0.00000000000E+00 -0.00000000000E+00 -0.21874841308E+04  0.21874841308E+04  0.00000000000E+00 0. -1.
    9900016    2    1    2    0    0  0.82154235249E+03 -0.11733610566E+04  0.92616761828E+03  0.25181816682E+04  0.18524968154E+04 0.  0.
        -24    2    3    3    0    0 -0.20214688869E+03 -0.70894384844E+03  0.11532560093E+04  0.13713633988E+04  0.84695949155E+02 0.  0.
        -15    1    3    3    0    0  0.10236892412E+04 -0.46441720814E+03 -0.22708839099E+03  0.11468182694E+04  0.00000000000E+00 0.  1.
        -15    1    1    2    0    0 -0.39252179973E+03 -0.37527877933E+03  0.22445882851E+03  0.58761321562E+03  0.00000000000E+00 0.  1.
         15    1    4    4    0    0 -0.13203205341E+03 -0.46999277860E+03  0.83526401812E+03  0.96746661701E+03  0.00000000000E+00 0. -1.
         15    1    1    2    0    0 -0.24957741178E+03  0.66640166801E+03  0.15042704453E+03  0.72732961120E+03  0.00000000000E+00 0. -1.
        -16    1    4    4    0    0 -0.70114835278E+02 -0.23895106984E+03  0.31799199114E+03  0.40389678178E+03  0.00000000000E+00 0.  1.
         16    1    1    2    0    0 -0.85808128121E+02  0.62448837267E+03 -0.67218903678E+03  0.92151335509E+03  0.00000000000E+00 0. -1.
    9900018    1    1    2    0    0 -0.93635012855E+02  0.25774979523E+03  0.42977550201E+02  0.29217241620E+03  0.91187600000E+02 0.  0.
<mgrwt>
<rscale>  0 0.28381463E+04</rscale>
<asrwt>0</asrwt>
<pdfrwt beam="1">  1        2 0.43989633E+00 0.37200338E+04</pdfrwt>
<pdfrwt beam="2">  1       -2 0.33653602E+00 0.37200338E+04</pdfrwt>
<totfact> 0.31111941E-02</totfact>
</mgrwt>
</event>
<event>
11    1  0.1211770E-010  0.2734803E+04  0.7818608E-02  0.8757582E-01
         -1   -1    0    0    0  501 -0.00000000000E+00  0.00000000000E+00  0.14779034249E+04  0.14779034249E+04  0.00000000000E+00 0.  1.
          1   -1    0    0  501    0  0.00000000000E+00 -0.00000000000E+00 -0.16907078710E+04  0.16907078710E+04  0.00000000000E+00 0. -1.
    9900016    2    1    2    0    0  0.32840526381E+03  0.16233528451E+03  0.48361023351E+02  0.18823009902E+04  0.18456748000E+04 0.  0.
        -24    2    3    3    0    0 -0.83599544312E+02  0.84198669016E+03  0.48186793615E+03  0.97698213004E+03  0.79792883906E+02 0.  0.
        -15    1    3    3    0    0  0.41200480812E+03 -0.67965140565E+03 -0.43350691280E+03  0.90531886016E+03  0.00000000000E+00 0.  1.
        -15    1    1    2    0    0 -0.22766632896E+03  0.14740428416E+03  0.74969506390E+01  0.27132302630E+03  0.00000000000E+00 0.  1.
         15    1    4    4    0    0 -0.12491331891E+02  0.47720094715E+03  0.24901378709E+03  0.53840936424E+03  0.00000000000E+00 0. -1.
         15    1    1    2    0    0  0.94984198452E+02  0.12324838749E+02 -0.12937815541E+03  0.16097393175E+03  0.00000000000E+00 0. -1.
        -16    1    4    4    0    0 -0.71108212420E+02  0.36478574300E+03  0.23285414906E+03  0.43857276581E+03  0.00000000000E+00 0.  1.
         16    1    1    2    0    0  0.56997332470E+02 -0.15831491353E+03 -0.40730691946E+03  0.44069403717E+03  0.00000000000E+00 0. -1.
    9900018    1    1    2    0    0 -0.25272046577E+03 -0.16374949389E+03  0.26802265472E+03  0.41331931046E+03  0.91187600000E+02 0.  0.
<mgrwt>
<rscale>  0 0.17066471E+04</rscale>
<asrwt>0</asrwt>
<pdfrwt beam="1">  1        1 0.26010890E+00 0.27348033E+04</pdfrwt>
<pdfrwt beam="2">  1       -1 0.22736976E+00 0.27348033E+04</pdfrwt>
<totfact> 0.40804250E-01</totfact>
</mgrwt>
</event>
<event>
11    1  0.1211770E-010  0.4160165E+04  0.7818608E-02  0.8366735E-01
         -1   -1    0    0    0  501 -0.00000000000E+00  0.00000000000E+00  0.41526172333E+04  0.41526172333E+04  0.00000000000E+00 0.  1.
          1   -1    0    0  501    0  0.00000000000E+00 -0.00000000000E+00 -0.13871018842E+04  0.13871018842E+04  0.00000000000E+00 0. -1.
    9900016    2    1    2    0    0  0.28420235120E+03 -0.86508767645E+03  0.10114393808E+04  0.22920313309E+04  0.18442479053E+04 0.  0.
        -24    2    3    3    0    0 -0.64331110131E+03 -0.10795280784E+03 -0.91777045023E+02  0.66395857573E+03  0.83156373779E+02 0.  0.
        -15    1    1    2    0    0  0.11886224099E+03  0.16484663327E+03  0.40032835769E+03  0.44896039781E+03  0.00000000000E+00 0.  1.
        -15    1    3    3    0    0  0.92751345251E+03 -0.75713486861E+03  0.11032164259E+04  0.16280727552E+04  0.00000000000E+00 0.  1.
         15    1    1    2    0    0  0.22782699547E+03 -0.12849272354E+03 -0.69347279918E+02  0.27060037897E+03  0.00000000000E+00 0. -1.
         15    1    4    4    0    0 -0.22549130945E+03  0.58814869564E+00 -0.42568824599E+02  0.22947501255E+03  0.00000000000E+00 0. -1.
        -16    1    4    4    0    0 -0.41781979186E+03 -0.10854095654E+03 -0.49208220424E+02  0.43448356318E+03  0.00000000000E+00 0.  1.
         16    1    1    2    0    0 -0.60639667164E+03  0.83720848382E+03 -0.66155205035E+02  0.10358626743E+04  0.00000000000E+00 0. -1.
    9900018    1    1    2    0    0 -0.24494916025E+02 -0.84747170937E+01  0.14892500955E+04  0.14922643356E+04  0.91187600000E+02 0.  0.
<mgrwt>
<rscale>  0 0.26043213E+04</rscale>
<asrwt>0</asrwt>
<pdfrwt beam="1">  1        1 0.21340029E+00 0.41601646E+04</pdfrwt>
<pdfrwt beam="2">  1       -1 0.63886418E+00 0.41601646E+04</pdfrwt>
<totfact> 0.18975035E-03</totfact>
</mgrwt>
</event>
<event>
11    1  0.1211770E-010  0.3032631E+04  0.7818608E-02  0.8518313E-01
          2   -1    0    0  501    0  0.00000000000E+00  0.00000000000E+00  0.14629115873E+04  0.14629115873E+04  0.00000000000E+00 0.  1.
         -2   -1    0    0    0  501 -0.00000000000E+00 -0.00000000000E+00 -0.26963546476E+04  0.26963546476E+04  0.00000000000E+00 0. -1.
    9900016    2    1    2    0    0  0.57025478651E+03 -0.32165803707E+02 -0.50085183600E+03  0.19960951456E+04  0.18458922255E+04 0.  0.
        -24    2    3    3    0    0 -0.59068087564E+03  0.57960207195E+02  0.20733969275E+03  0.63321967410E+03  0.75591831673E+02 0.  0.
        -15    1    1    2    0    0  0.27242737439E+03 -0.18909071872E+03  0.16043893961E+03  0.36839194830E+03  0.00000000000E+00 0.  1.
        -15    1    3    3    0    0  0.11609356621E+04 -0.90126010902E+02 -0.70819152875E+03  0.13628754715E+04  0.00000000000E+00 0.  1.
         15    1    1    2    0    0 -0.45891824174E+03 -0.11905095103E+03 -0.60124610670E+02  0.47790590115E+03  0.00000000000E+00 0. -1.
         15    1    4    4    0    0 -0.44602126362E+03  0.11410275368E+02  0.16139579431E+03  0.47446155208E+03  0.00000000000E+00 0. -1.
        -16    1    4    4    0    0 -0.14465961202E+03  0.46549931827E+02  0.45943898440E+02  0.15875812202E+03  0.00000000000E+00 0.  1.
         16    1    1    2    0    0 -0.62047875238E+03  0.15159563532E+03 -0.75934882844E+03  0.99226295006E+03  0.00000000000E+00 0. -1.
    9900018    1    1    2    0    0  0.23671483323E+03  0.18871183814E+03 -0.73556724809E+02  0.32461028986E+03  0.91187600000E+02 0.  0.
<mgrwt>
<rscale>  0 0.22002769E+04</rscale>
<asrwt>0</asrwt>
<pdfrwt beam="1">  1        2 0.22506332E+00 0.30326310E+04</pdfrwt>
<pdfrwt beam="2">  1       -2 0.41482379E+00 0.30326310E+04</pdfrwt>
<totfact> 0.65502685E-02</totfact>
</mgrwt>
</event>
<event>
11    1  0.1211770E-010  0.3979565E+04  0.7818608E-02  0.8343766E-01
          2   -1    0    0  501    0  0.00000000000E+00  0.00000000000E+00  0.51067242710E+04  0.51067242710E+04  0.00000000000E+00 0.  1.
         -2   -1    0    0    0  501 -0.00000000000E+00 -0.00000000000E+00 -0.11267791661E+04  0.11267791661E+04  0.00000000000E+00 0. -1.
    9900016    2    1    2    0    0  0.34179738799E+03 -0.44031709116E+03  0.19167071291E+04  0.27160101725E+04  0.18418035843E+04 0.  0.
        -24    2    3    3    0    0  0.97958073097E+03  0.13687587996E+03  0.65431584181E+03  0.11884136679E+04  0.76709910186E+02 0.  0.
        -15    1    3    3    0    0 -0.63778334298E+03 -0.57719297112E+03  0.12623912873E+04  0.15275965046E+04  0.00000000000E+00 0.  1.
        -15    1    1    2    0    0  0.51994795730E+03 -0.42878349018E+01  0.76244804014E+03  0.92287121406E+03  0.00000000000E+00 0.  1.
         15    1    4    4    0    0  0.25293216817E+03  0.64057843398E+02  0.19431981303E+03  0.32532795566E+03  0.00000000000E+00 0. -1.
         15    1    1    2    0    0 -0.15863059156E+03  0.14961601903E+03  0.48354466228E+02  0.22335346905E+03  0.00000000000E+00 0. -1.
        -16    1    4    4    0    0  0.72664856280E+03  0.72818036562E+02  0.45999602877E+03  0.86308571229E+03  0.00000000000E+00 0.  1.
         16    1    1    2    0    0 -0.13420682732E+04  0.14881672340E+03  0.88272637957E+03  0.16132264343E+04  0.00000000000E+00 0. -1.
    9900018    1    1    2    0    0  0.63895351949E+03  0.14617218363E+03  0.36970908986E+03  0.75804214715E+03  0.91187600000E+02 0.  0.
<mgrwt>
<rscale>  0 0.26731622E+04</rscale>
<asrwt>0</asrwt>
<pdfrwt beam="1">  1        2 0.78564987E+00 0.39795653E+04</pdfrwt>
<pdfrwt beam="2">  1       -2 0.17335064E+00 0.39795653E+04</pdfrwt>
<totfact> 0.38260033E-03</totfact>
</mgrwt>
</event>
<event>
11    1  0.1211770E-010  0.5706411E+04  0.7818608E-02  0.8020215E-01
          2   -1    0    0  501    0  0.00000000000E+00  0.00000000000E+00  0.33855965556E+04  0.33855965556E+04  0.00000000000E+00 0. -1.
         -2   -1    0    0    0  501 -0.00000000000E+00 -0.00000000000E+00 -0.36145157368E+04  0.36145157368E+04  0.00000000000E+00 0.  1.
    9900016    2    1    2    0    0  0.55409936541E+03  0.18812678817E+03  0.51384553555E+03  0.20063628422E+04  0.18490637699E+04 0.  0.
         24    2    3    3    0    0  0.63892939408E+03 -0.29223954668E+03 -0.51045410343E+03  0.87184193018E+03  0.76878060967E+02 0.  0.
        -15    1    1    2    0    0  0.38432152882E+03  0.29578260810E+03 -0.33480794830E+03  0.58931040294E+03  0.00000000000E+00 0.  1.
        -15    1    4    4    0    0  0.27461428838E+03 -0.11104595987E+03 -0.25936086638E+03  0.39371597834E+03  0.00000000000E+00 0.  1.
         15    1    1    2    0    0  0.46614069980E+03 -0.20408269994E+03  0.47011237496E+03  0.69277885758E+03  0.00000000000E+00 0. -1.
         15    1    3    3    0    0 -0.84830028668E+02  0.48036633485E+03  0.10242996390E+04  0.11345209120E+04  0.00000000000E+00 0. -1.
        -16    1    1    2    0    0 -0.23516142825E+04  0.64390117279E+02  0.29194142120E+02  0.23526767986E+04  0.00000000000E+00 0.  1.
         16    1    4    4    0    0  0.36431510569E+03 -0.18119358681E+03 -0.25109323705E+03  0.47812595185E+03  0.00000000000E+00 0. -1.
    9900018    1    1    2    0    0  0.94705268844E+03 -0.34421681360E+03 -0.90726328552E+03  0.13589833910E+04  0.91187600000E+02 0.  0.
<mgrwt>
<rscale>  0 0.39232307E+04</rscale>
<asrwt>0</asrwt>
<pdfrwt beam="1">  1        2 0.52086101E+00 0.57064112E+04</pdfrwt>
<pdfrwt beam="2">  1       -2 0.55607935E+00 0.57064112E+04</pdfrwt>
<totfact> 0.51862854E-04</totfact>
</mgrwt>
</event>
<event>
11    1  0.1211770E-010  0.4314742E+04  0.7818608E-02  0.8312196E-01
         -2   -1    0    0    0  501 -0.00000000000E+00  0.00000000000E+00  0.17856113040E+04  0.17856113040E+04  0.00000000000E+00 0.  1.
          2   -1    0    0  501    0  0.00000000000E+00 -0.00000000000E+00 -0.36267891153E+04  0.36267891153E+04  0.00000000000E+00 0. -1.
    9900016    2    1    2    0    0  0.64142467434E+03 -0.92774333147E+03 -0.14488587213E+04  0.26011290927E+04  0.18424298252E+04 0.  0.
        -24    2    3    3    0    0 -0.27035131708E+03  0.27899172340E+03  0.12696849303E+03  0.41691839765E+03  0.82302707778E+02 0.  0.
        -15    1    1    2    0    0 -0.36308801816E+03 -0.47699093552E+03  0.56102419217E+02  0.60208034592E+03  0.00000000000E+00 0.  1.
        -15    1    3    3    0    0  0.91177599142E+03 -0.12067350549E+04 -0.15758272143E+04  0.21842106951E+04  0.00000000000E+00 0.  1.
         15    1    1    2    0    0 -0.38702158519E+02  0.88003158209E+02 -0.92237592195E+02  0.13322982528E+03  0.00000000000E+00 0. -1.
         15    1    4    4    0    0 -0.98371230567E+02  0.87978369092E+02  0.41122567876E+01  0.13203788504E+03  0.00000000000E+00 0. -1.
        -16    1    4    4    0    0 -0.17198008652E+03  0.19101335430E+03  0.12285623624E+03  0.28488051261E+03  0.00000000000E+00 0.  1.
         16    1    1    2    0    0  0.64764792350E+03  0.62975876958E+03 -0.28762275686E+03  0.94803522664E+03  0.00000000000E+00 0. -1.
    9900018    1    1    2    0    0 -0.88728242115E+03  0.68697233920E+03 -0.68561160114E+02  0.11279259288E+04  0.91187600000E+02 0.  0.
<mgrwt>
<rscale>  0 0.27714208E+04</rscale>
<asrwt>0</asrwt>
<pdfrwt beam="1">  1        2 0.55796755E+00 0.43147415E+04</pdfrwt>
<pdfrwt beam="2">  1       -2 0.27470944E+00 0.43147415E+04</pdfrwt>
<totfact> 0.22379428E-02</totfact>
</mgrwt>
</event>
<event>
11    1  0.1211770E-010  0.4718267E+04  0.7818608E-02  0.8262214E-01
         -1   -1    0    0    0  501 -0.00000000000E+00  0.00000000000E+00  0.26784062721E+04  0.26784062721E+04  0.00000000000E+00 0.  1.
          1   -1    0    0  501    0  0.00000000000E+00 -0.00000000000E+00 -0.27677663593E+04  0.27677663593E+04  0.00000000000E+00 0. -1.
    9900016    2    1    2    0    0 -0.58725640102E+02  0.63953413035E+03  0.15219616591E+04  0.24541032273E+04  0.18148836749E+04 0.  0.
        -24    2    3    3    0    0 -0.69039146533E+03  0.67485101807E+03  0.20094633187E+03  0.98940855187E+03  0.80533112660E+02 0.  0.
        -15    1    1    2    0    0  0.13460429300E+03 -0.23641841601E+03 -0.10541569072E+03  0.29176094833E+03  0.00000000000E+00 0. -1.
        -15    1    3    3    0    0  0.63166582522E+03 -0.35316887716E+02  0.13210153272E+04  0.14646946754E+04  0.00000000000E+00 0.  1.
         15    1    1    2    0    0  0.33789146181E+03  0.92782584608E+02  0.24985414696E+03  0.43035606505E+03  0.00000000000E+00 0.  1.
         15    1    4    4    0    0 -0.17331254966E+03  0.12828321391E+03  0.61186723679E+02  0.22413754258E+03  0.00000000000E+00 0. -1.
        -16    1    4    4    0    0 -0.51707891566E+03  0.54656780416E+03  0.13975960820E+03  0.76527100929E+03  0.00000000000E+00 0.  1.
         16    1    1    2    0    0 -0.12349861187E+03 -0.23227646890E+03 -0.18399536549E+04  0.18586644983E+04  0.00000000000E+00 0. -1.
    9900018    1    1    2    0    0 -0.29027150284E+03 -0.26362183006E+03  0.84193452293E+02  0.41128789242E+03  0.91187600000E+02 0.  0.
<mgrwt>
<rscale>  0 0.29361091E+04</rscale>
<asrwt>0</asrwt>
<pdfrwt beam="1">  1        1 0.42581021E+00 0.47182666E+04</pdfrwt>
<pdfrwt beam="2">  1       -1 0.41206250E+00 0.47182666E+04</pdfrwt>
<totfact> 0.37440079E-03</totfact>
</mgrwt>
</event>
<event>
11    1  0.1211770E-010  0.3015596E+04  0.7818608E-02  0.8350746E-01
          2   -1    0    0  501    0  0.00000000000E+00  0.00000000000E+00  0.30093597786E+04  0.30093597786E+04  0.00000000000E+00 0. -1.
         -2   -1    0    0    0  501 -0.00000000000E+00 -0.00000000000E+00 -0.20424609259E+04  0.20424609259E+04  0.00000000000E+00 0.  1.
    9900016    2    1    2    0    0 -0.29203848557E+02  0.28022215516E+02  0.44059619268E+03  0.18952983879E+04  0.18429305101E+04 0.  0.
         24    2    3    3    0    0  0.60648875862E+03  0.54267654758E+03 -0.21681277305E+03  0.84593633385E+03  0.79208918365E+02 0.  0.
        -15    1    4    4    0    0  0.32738185717E+03  0.34521637860E+03 -0.12320057460E+03  0.49145865548E+03  0.00000000000E+00 0.  1.
        -15    1    1    2    0    0  0.46184777708E+03  0.39637232980E+03  0.15363159037E+03  0.62770778120E+03  0.00000000000E+00 0.  1.
         15    1    1    2    0    0  0.16585744670E+02 -0.11652320897E+04  0.79097764327E+03  0.14084340744E+04  0.00000000000E+00 0. -1.
         15    1    3    3    0    0 -0.63569260718E+03 -0.51465433206E+03  0.65740896573E+03  0.10493620541E+04  0.00000000000E+00 0. -1.
        -16    1    1    2    0    0 -0.18438865555E+03  0.35543486124E+03 -0.49620878513E+03  0.63761765606E+03  0.00000000000E+00 0.  1.
         16    1    4    4    0    0  0.27910690145E+03  0.19746016898E+03 -0.93612198452E+02  0.35447767838E+03  0.00000000000E+00 0. -1.
    9900018    1    1    2    0    0 -0.26484101764E+03  0.38540268318E+03  0.77902211454E+02  0.48276280488E+03  0.91187600000E+02 0.  0.
<mgrwt>
<rscale>  0 0.26520104E+04</rscale>
<asrwt>0</asrwt>
<pdfrwt beam="1">  1        2 0.46297843E+00 0.30155965E+04</pdfrwt>
<pdfrwt beam="2">  1       -2 0.31422476E+00 0.30155965E+04</pdfrwt>
<totfact> 0.36135321E-02</totfact>
</mgrwt>
</event>
<event>
11    1  0.1211770E-010  0.4422346E+04  0.7818608E-02  0.8371146E-01
          2   -1    0    0  501    0  0.00000000000E+00  0.00000000000E+00  0.34515460876E+04  0.34515460876E+04  0.00000000000E+00 0. -1.
         -2   -1    0    0    0  501 -0.00000000000E+00 -0.00000000000E+00 -0.18372220835E+04  0.18372220835E+04  0.00000000000E+00 0.  1.
    9900016    2    1    2    0    0 -0.87723647265E+03 -0.46925023967E+02  0.10677635669E+04  0.22908572468E+04  0.18265163847E+04 0.  0.
         24    2    3    3    0    0  0.53099878867E+03  0.17615638407E+03  0.11667392711E+03  0.57695428314E+03  0.79200090537E+02 0.  0.
        -15    1    1    2    0    0 -0.17214300229E+03 -0.10616358034E+03  0.47240169619E+03  0.51387477228E+03  0.00000000000E+00 0.  1.
        -15    1    4    4    0    0  0.48194335941E+03  0.16973007088E+03  0.84393900685E+02  0.51788032316E+03  0.00000000000E+00 0.  1.
         15    1    1    2    0    0  0.14833300897E+03  0.15375355702E+03  0.40418485032E+02  0.21743157953E+03  0.00000000000E+00 0. -1.
         15    1    3    3    0    0 -0.14082352613E+04 -0.22308140804E+03  0.95108963982E+03  0.17139029637E+04  0.00000000000E+00 0. -1.
        -16    1    1    2    0    0 -0.59997502472E+03  0.38134266536E+03  0.72284213730E+02  0.71457488500E+03  0.00000000000E+00 0.  1.
         16    1    4    4    0    0  0.49055429258E+02  0.64263131902E+01  0.32280026429E+02  0.59073959975E+02  0.00000000000E+00 0. -1.
    9900018    1    1    2    0    0  0.15010214907E+04 -0.38200761808E+03 -0.38543957847E+02  0.15520296875E+04  0.91187600000E+02 0.  0.
<mgrwt>
<rscale>  0 0.25913473E+04</rscale>
<asrwt>0</asrwt>
<pdfrwt beam="1">  1        2 0.53100709E+00 0.44223464E+04</pdfrwt>
<pdfrwt beam="2">  1       -2 0.28264955E+00 0.44223464E+04</pdfrwt>
<totfact> 0.26552439E-02</totfact>
</mgrwt>
</event>
<event>
11    1  0.1399328E-010  0.3255631E+04  0.7818608E-02  0.8562958E-01
          1   -1    0    0  501    0  0.00000000000E+00  0.00000000000E+00  0.33005354789E+04  0.33005354789E+04  0.00000000000E+00 0. -1.
         -1   -1    0    0    0  501 -0.00000000000E+00 -0.00000000000E+00 -0.12680305765E+04  0.12680305765E+04  0.00000000000E+00 0.  1.
    9900016    2    1    2    0    0 -0.20646500799E+03 -0.98616151462E+01  0.69326635514E+03  0.19749568746E+04  0.18376918584E+04 0.  0.
        -24    2    3    3    0    0 -0.13630915788E+03 -0.49861460564E+03 -0.47506861534E+03  0.70656894803E+03  0.79704313350E+02 0.  0.
        -15    1    1    2    0    0 -0.18607269526E+03 -0.12801967116E+03  0.24215312818E+03  0.33113474842E+03  0.00000000000E+00 0.  1.
        -15    1    3    3    0    0 -0.70155850106E+02  0.48875299049E+03  0.11683349705E+04  0.12683879266E+04  0.00000000000E+00 0.  1.
         15    1    4    4    0    0 -0.99840930238E+02 -0.40023441939E+03 -0.33403325542E+03  0.53078622585E+03  0.00000000000E+00 0. -1.
         15    1    1    2    0    0 -0.29064487778E+03  0.61261846437E+02  0.77054512816E+03  0.82581308620E+03  0.00000000000E+00 0. -1.
        -16    1    4    4    0    0 -0.36468227647E+02 -0.98380186241E+02 -0.14103535992E+03  0.17578272219E+03  0.00000000000E+00 0.  1.
         16    1    1    2    0    0  0.99517430417E+03  0.71130314419E+02  0.44259399415E+03  0.10914764592E+04  0.00000000000E+00 0. -1.
    9900018    1    1    2    0    0 -0.31199172314E+03  0.54891254474E+01 -0.11605370320E+03  0.34518488702E+03  0.91187600000E+02 0.  0.
<mgrwt>
<rscale>  0 0.20961112E+04</rscale>
<asrwt>0</asrwt>
<pdfrwt beam="1">  1        1 0.50777469E+00 0.32556310E+04</pdfrwt>
<pdfrwt beam="2">  1       -1 0.19508163E+00 0.32556310E+04</pdfrwt>
<totfact> 0.47134502E-02</totfact>
</mgrwt>
</event>
<event>
11    1  0.1211770E-010  0.4833339E+04  0.7818608E-02  0.8141355E-01
          1   -1    0    0  501    0  0.00000000000E+00  0.00000000000E+00  0.38742409352E+04  0.38742409352E+04  0.00000000000E+00 0. -1.
         -1   -1    0    0    0  501 -0.00000000000E+00 -0.00000000000E+00 -0.23211010072E+04  0.23211010072E+04  0.00000000000E+00 0.  1.
    9900016    2    1    2    0    0 -0.79538792376E+03  0.44224291111E+03  0.77799102263E+03  0.21980388162E+04  0.18433349843E+04 0.  0.
        -24    2    3    3    0    0 -0.57053484615E+02  0.81958266341E+03 -0.26346162870E+03  0.86681882771E+03  0.83618227735E+02 0.  0.
        -15    1    1    2    0    0  0.25033902490E+03  0.47313433593E+03  0.13555655336E+03  0.55217869063E+03  0.00000000000E+00 0.  1.
        -15    1    3    3    0    0 -0.73833443915E+03 -0.37733975230E+03  0.10414526513E+04  0.13312199885E+04  0.00000000000E+00 0.  1.
         15    1    1    2    0    0  0.19448222633E+03 -0.59800624275E+03  0.15664299912E+03  0.64805233732E+03  0.00000000000E+00 0. -1.
         15    1    4    4    0    0 -0.63019838710E+02  0.44855343338E+03 -0.17302097737E+03  0.48487930589E+03  0.00000000000E+00 0. -1.
        -16    1    4    4    0    0  0.59663540950E+01  0.37102923003E+03 -0.90440651324E+02  0.38193952183E+03  0.00000000000E+00 0.  1.
         16    1    1    2    0    0 -0.50093597737E+03 -0.49417874027E+03  0.13770700922E+04  0.15464383336E+04  0.00000000000E+00 0. -1.
    9900018    1    1    2    0    0  0.85150264989E+03  0.17680773598E+03 -0.89412073940E+03  0.12506337647E+04  0.91187600000E+02 0.  0.
<mgrwt>
<rscale>  0 0.33859832E+04</rscale>
<asrwt>0</asrwt>
<pdfrwt beam="1">  1        1 0.59603707E+00 0.48333386E+04</pdfrwt>
<pdfrwt beam="2">  1       -1 0.35709246E+00 0.48333386E+04</pdfrwt>
<totfact> 0.12082434E-03</totfact>
</mgrwt>
</event>
