<event>
13    1  0.8153271E-008  0.5754812E+04  0.7818608E-02  0.7721568E-01
          2   -1    0    0  501    0  0.00000000000E+00  0.00000000000E+00  0.19728038904E+04  0.19728038904E+04  0.00000000000E+00 0. -1.
         -2   -1    0    0    0  501 -0.00000000000E+00 -0.00000000000E+00 -0.41968016961E+04  0.41968016961E+04  0.00000000000E+00 0.  1.
    9900016    2    1    2    0    0  0.18550348985E+04  0.63838552342E+03 -0.22347948418E+04  0.34803207132E+04  0.18082128554E+04 0.  0.
        -24    2    3    3    0    0 -0.23362808612E+03  0.15742487782E+02  0.11319181736E+03  0.27669171392E+03  0.94424618029E+02 0.  0.
    9900016    2    1    2    0    0 -0.18550348985E+04 -0.63838552342E+03  0.10797036072E+02  0.26892848734E+04  0.18394145816E+04 0.  0.
         23    2    5    5    0    0 -0.10116734871E+03  0.18394336349E+03  0.56419296151E+03  0.61010712499E+03  0.99232115376E+02 0.  0.
        -15    1    6    6    0    0 -0.14184343644E+02  0.83775088912E+02  0.12370055009E+03  0.15007094062E+03  0.00000000000E+00 0.  1.
        -15    1    3    3    0    0  0.20886629846E+04  0.62264303563E+03 -0.23479866592E+04  0.32036289992E+04  0.00000000000E+00 0.  1.
         15    1    6    6    0    0 -0.86983005065E+02  0.10016827457E+03  0.44049241143E+03  0.46003618437E+03  0.00000000000E+00 0. -1.
         15    1    4    4    0    0 -0.16150836739E+03  0.33726638813E+02  0.11700038828E+03  0.20226598765E+03  0.00000000000E+00 0. -1.
        -16    1    4    4    0    0 -0.72119718730E+02 -0.17984151031E+02 -0.38085709268E+01  0.74425726267E+02  0.00000000000E+00 0.  1.
         16    1    5    5    0    0 -0.11387379019E+03  0.69344552625E+02 -0.59946264178E+02  0.14618297322E+03  0.00000000000E+00 0. -1.
    9900018    1    5    5    0    0 -0.16399937596E+04 -0.89167343953E+03 -0.49344966126E+03  0.19329947752E+04  0.91187600000E+02 0.  0.
<mgrwt>
<rscale>  0 0.57548125E+04</rscale>
<asrwt>0</asrwt>
<pdfrwt beam="1">  1        2 0.30350829E+00 0.57548125E+04</pdfrwt>
<pdfrwt beam="2">  1       -2 0.64566179E+00 0.57548125E+04</pdfrwt>
<totfact> 0.16797996E-03</totfact>
</mgrwt>
</event>
<event>
13    1  0.8153271E-008  0.4726146E+04  0.7818608E-02  0.7872199E-01
         -1   -1    0    0    0  501 -0.00000000000E+00  0.00000000000E+00  0.12169472119E+04  0.12169472119E+04  0.00000000000E+00 0.  1.
          1   -1    0    0  501    0  0.00000000000E+00 -0.00000000000E+00 -0.45886247504E+04  0.45886247504E+04  0.00000000000E+00 0. -1.
    9900016    2    1    2    0    0 -0.13981751339E+04  0.46274614322E+03 -0.16796108259E+04  0.29007870515E+04  0.18505256803E+04 0.  0.
        -24    2    3    3    0    0  0.11404150315E+03 -0.34876074373E+02  0.31822404270E+03  0.34622814803E+03  0.66223742959E+02 0.  0.
    9900016    2    1    2    0    0  0.13981751339E+04 -0.46274614322E+03 -0.16920667126E+04  0.29047849109E+04  0.18454424728E+04 0.  0.
         23    2    5    5    0    0  0.33738519147E+03  0.27827873938E+03 -0.51372473980E+02  0.44985002488E+03  0.91967872576E+02 0.  0.
        -15    1    6    6    0    0  0.19653032732E+03  0.19340534488E+03  0.56560814361E+01  0.27579301703E+03  0.00000000000E+00 0.  1.
        -15    1    3    3    0    0 -0.15122166371E+04  0.49762221759E+03 -0.19978348686E+04  0.25545589035E+04  0.00000000000E+00 0.  1.
         15    1    6    6    0    0  0.14085486415E+03  0.84873394498E+02 -0.57028555416E+02  0.17405700785E+03  0.00000000000E+00 0. -1.
         15    1    4    4    0    0  0.47450962837E+02 -0.49131958465E+02  0.16078976886E+03  0.17469657406E+03  0.00000000000E+00 0. -1.
        -16    1    4    4    0    0  0.66590540318E+02  0.14255884092E+02  0.15743427384E+03  0.17153157397E+03  0.00000000000E+00 0.  1.
         16    1    5    5    0    0 -0.71849726720E+02 -0.55225996795E+03 -0.16093821910E+03  0.57970213541E+03  0.00000000000E+00 0. -1.
    9900018    1    5    5    0    0  0.11326396692E+04 -0.18876491465E+03 -0.14797560195E+04  0.18752327506E+04  0.91187600000E+02 0.  0.
<mgrwt>
<rscale>  0 0.47261460E+04</rscale>
<asrwt>0</asrwt>
<pdfrwt beam="1">  1        1 0.70594228E+00 0.47261460E+04</pdfrwt>
<pdfrwt beam="2">  1       -1 0.18722264E+00 0.47261460E+04</pdfrwt>
<totfact> 0.35205810E-03</totfact>
</mgrwt>
</event>
<event>
13    1  0.8153271E-008  0.4427120E+04  0.7818608E-02  0.7923522E-01
         -2   -1    0    0    0  501 -0.00000000000E+00  0.00000000000E+00  0.15087467712E+04  0.15087467712E+04  0.00000000000E+00 0.  1.
          2   -1    0    0  501    0  0.00000000000E+00 -0.00000000000E+00 -0.32476283031E+04  0.32476283031E+04  0.00000000000E+00 0. -1.
    9900016    2    1    2    0    0 -0.31704818492E+03 -0.11841695267E+04 -0.70655072544E+03  0.23157952276E+04  0.18332802810E+04 0.  0.
         24    2    3    3    0    0 -0.33579282331E+03  0.34202799537E+03 -0.62053561897E+03  0.78706083715E+03  0.68266662153E+02 0.  0.
    9900016    2    1    2    0    0  0.31704818492E+03  0.11841695267E+04 -0.10323308064E+04  0.24405798467E+04  0.18406374099E+04 0.  0.
         23    2    5    5    0    0  0.66721820915E+02  0.72906076362E+02  0.44372770758E+03  0.46326498458E+03  0.89179987175E+02 0.  0.
        -15    1    6    6    0    0  0.10437704760E+02 -0.20204067895E+02  0.10724507876E+03  0.10962963540E+03  0.00000000000E+00 0. -1.
        -15    1    4    4    0    0 -0.28485220099E+03  0.25493020939E+03 -0.46986898622E+03  0.60572853018E+03  0.00000000000E+00 0.  1.
         15    1    3    3    0    0  0.18744638392E+02 -0.15261975221E+04 -0.86015106473E+02  0.15287343904E+04  0.00000000000E+00 0. -1.
         15    1    6    6    0    0  0.56284116156E+02  0.93110144257E+02  0.33648262882E+03  0.35363534918E+03  0.00000000000E+00 0.  1.
        -16    1    5    5    0    0  0.33475585847E+03  0.51211655829E+03 -0.11011248288E+04  0.12596827944E+04  0.00000000000E+00 0.  1.
         16    1    4    4    0    0 -0.50940622318E+02  0.87097785976E+02 -0.15066663275E+03  0.18133230696E+03  0.00000000000E+00 0. -1.
    9900018    1    5    5    0    0 -0.84429494463E+02  0.59914689210E+03 -0.37493368519E+03  0.71763206766E+03  0.91187600000E+02 0.  0.
<mgrwt>
<rscale>  0 0.44271204E+04</rscale>
<asrwt>0</asrwt>
<pdfrwt beam="1">  1        2 0.49963511E+00 0.44271204E+04</pdfrwt>
<pdfrwt beam="2">  1       -2 0.23211489E+00 0.44271204E+04</pdfrwt>
<totfact> 0.76189839E-02</totfact>
</mgrwt>
</event>
<event>
13    1  0.8153271E-008  0.3988994E+04  0.7818608E-02  0.8006770E-01
          1   -1    0    0  501    0  0.00000000000E+00  0.00000000000E+00  0.32357311854E+04  0.32357311854E+04  0.00000000000E+00 0. -1.
         -1   -1    0    0    0  501 -0.00000000000E+00 -0.00000000000E+00 -0.12294034946E+04  0.12294034946E+04  0.00000000000E+00 0.  1.
    9900016    2    1    2    0    0  0.19636160800E+03 -0.56251440324E+03  0.44826148101E+03  0.19824454333E+04  0.18368917240E+04 0.  0.
        -24    2    3    3    0    0 -0.78667477275E+03 -0.35532665125E+03 -0.31576766513E+02  0.86910270341E+03  0.96063467126E+02 0.  0.
    9900016    2    1    2    0    0 -0.19636160800E+03  0.56251440324E+03  0.15580662097E+04  0.24826892467E+04  0.18388026666E+04 0.  0.
         23    2    5    5    0    0 -0.36359393687E+03 -0.10430730521E+03  0.14480110536E+04  0.14995008238E+04  0.93199486340E+02 0.  0.
        -15    1    3    3    0    0  0.98303638075E+03 -0.20718775199E+03  0.47983824752E+03  0.11133427299E+04  0.00000000000E+00 0.  1.
        -15    1    6    6    0    0 -0.59265617331E+02 -0.41054046284E+02  0.17893544835E+03  0.19291382219E+03  0.00000000000E+00 0.  1.
         15    1    4    4    0    0 -0.90497791420E+01  0.56014323195E+01  0.31391660262E+01  0.11096346691E+02  0.00000000000E+00 0. -1.
         15    1    6    6    0    0 -0.30432831954E+03 -0.63253258928E+02  0.12690756052E+04  0.13065870016E+04  0.00000000000E+00 0. -1.
        -16    1    4    4    0    0 -0.77762499361E+03 -0.36092808357E+03 -0.34715932540E+02  0.85800635672E+03  0.00000000000E+00 0.  1.
         16    1    5    5    0    0  0.40036243580E+03  0.27413524740E+03 -0.56741768048E+02  0.48852824085E+03  0.00000000000E+00 0. -1.
    9900018    1    5    5    0    0 -0.23313010693E+03  0.39268646105E+03  0.16679692420E+03  0.49466018211E+03  0.91187600000E+02 0.  0.
<mgrwt>
<rscale>  0 0.39889945E+04</rscale>
<asrwt>0</asrwt>
<pdfrwt beam="1">  1        1 0.49780479E+00 0.39889945E+04</pdfrwt>
<pdfrwt beam="2">  1       -1 0.18913900E+00 0.39889945E+04</pdfrwt>
<totfact> 0.56027420E-02</totfact>
</mgrwt>
</event>
<event>
13    1  0.8153271E-008  0.5493599E+04  0.7818608E-02  0.7756571E-01
          1   -1    0    0  501    0  0.00000000000E+00  0.00000000000E+00  0.18713851813E+04  0.18713851813E+04  0.00000000000E+00 0. -1.
         -1   -1    0    0    0  501 -0.00000000000E+00 -0.00000000000E+00 -0.40317227422E+04  0.40317227422E+04  0.00000000000E+00 0.  1.
    9900016    2    1    2    0    0 -0.20984652751E+03  0.19784372011E+04 -0.66230619272E+03  0.27983056102E+04  0.18530017462E+04 0.  0.
         24    2    3    3    0    0 -0.81124786449E+03  0.34529202525E+03 -0.57765920581E+03  0.10558900898E+04  0.62161429698E+02 0.  0.
    9900016    2    1    2    0    0  0.20984652751E+03 -0.19784372011E+04 -0.14980313681E+04  0.31048023133E+04  0.18540361650E+04 0.  0.
         23    2    5    5    0    0  0.42586181013E+03 -0.39287814245E+03  0.16051132609E+03  0.60786765566E+03  0.89597348494E+02 0.  0.
        -15    1    4    4    0    0 -0.44675454811E+03  0.21912600539E+03 -0.30687198482E+03  0.58461632509E+03  0.00000000000E+00 0.  1.
        -15    1    6    6    0    0  0.38436411046E+02 -0.38049482731E+02 -0.11058142001E+02  0.55203290977E+02  0.00000000000E+00 0. -1.
         15    1    3    3    0    0  0.60140133698E+03  0.16331451758E+04 -0.84646986912E+02  0.17424155204E+04  0.00000000000E+00 0. -1.
         15    1    6    6    0    0  0.38742539908E+03 -0.35482865971E+03  0.17156946809E+03  0.55266436468E+03  0.00000000000E+00 0.  1.
        -16    1    5    5    0    0 -0.24621872084E+03 -0.94079736035E+03 -0.15590790328E+04  0.18375121121E+04  0.00000000000E+00 0.  1.
         16    1    4    4    0    0 -0.36449331638E+03  0.12616601986E+03 -0.27078722099E+03  0.47127376471E+03  0.00000000000E+00 0. -1.
    9900018    1    5    5    0    0  0.30203438229E+02 -0.64476169826E+03 -0.99463661459E+02  0.65942254554E+03  0.91187600000E+02 0.  0.
<mgrwt>
<rscale>  0 0.54935985E+04</rscale>
<asrwt>0</asrwt>
<pdfrwt beam="1">  1        1 0.28790541E+00 0.54935985E+04</pdfrwt>
<pdfrwt beam="2">  1       -1 0.62026503E+00 0.54935985E+04</pdfrwt>
<totfact> 0.95103418E-04</totfact>
</mgrwt>
</event>
<event>
12    1  0.8153271E-008  0.3796583E+04  0.7818608E-02  0.8046889E-01
         -2   -1    0    0    0  501 -0.00000000000E+00  0.00000000000E+00  0.98698157585E+03  0.98698157585E+03  0.00000000000E+00 0.  1.
          2   -1    0    0  501    0  0.00000000000E+00 -0.00000000000E+00 -0.36510411724E+04  0.36510411724E+04  0.00000000000E+00 0. -1.
    9900016    2    1    2    0    0 -0.39617426365E+03  0.17099078681E+03 -0.14645408112E+04  0.23932239922E+04  0.18429458465E+04 0.  0.
    9900016    2    1    2    0    0  0.39617426365E+03 -0.17099078681E+03 -0.11995187853E+04  0.22447987560E+04  0.18477240709E+04 0.  0.
         23    2    4    4    0    0  0.10725509807E+02  0.44540450429E+03  0.27331256570E+03  0.53099312388E+03  0.93561370437E+02 0.  0.
        -15    1    5    5    0    0 -0.30465074190E+02  0.28229844154E+03  0.20100763684E+03  0.34788590214E+03  0.00000000000E+00 0.  1.
        -15    1    3    3    0    0 -0.59499163148E+02 -0.74909762471E+03 -0.38248148672E+03  0.84319599705E+03  0.00000000000E+00 0.  1.
         15    1    5    5    0    0  0.41190583997E+02  0.16310606275E+03  0.72304928862E+02  0.18310722174E+03  0.00000000000E+00 0. -1.
         15    1    3    3    0    0 -0.32669590503E+03  0.96919031867E+03 -0.10949157072E+04  0.14982992005E+04  0.00000000000E+00 0. -1.
        -16    1    4    4    0    0  0.21803544477E+03 -0.52595433390E+03 -0.13603537929E+04  0.14746965309E+04  0.00000000000E+00 0.  1.
         16    1    3    3    0    0 -0.99791954728E+01 -0.49101907146E+02  0.12856382731E+02  0.51728794734E+02  0.00000000000E+00 0. -1.
    9900018    1    4    4    0    0  0.16741330907E+03 -0.90440957208E+02 -0.11247755815E+03  0.23910910120E+03  0.91187600000E+02 0.  0.
<mgrwt>
<rscale>  0 0.37965829E+04</rscale>
<asrwt>0</asrwt>
<pdfrwt beam="1">  1        2 0.56169864E+00 0.37965829E+04</pdfrwt>
<pdfrwt beam="2">  1       -2 0.15184332E+00 0.37965829E+04</pdfrwt>
<totfact> 0.14717675E-01</totfact>
</mgrwt>
</event>
<event>
13    1  0.8153271E-008  0.4067665E+04  0.7818608E-02  0.7991034E-01
          2   -1    0    0  501    0  0.00000000000E+00  0.00000000000E+00  0.21450880435E+04  0.21450880435E+04  0.00000000000E+00 0. -1.
         -2   -1    0    0    0  501 -0.00000000000E+00 -0.00000000000E+00 -0.19283472648E+04  0.19283472648E+04  0.00000000000E+00 0.  1.
    9900016    2    1    2    0    0  0.63936866583E+03  0.59212243020E+03  0.16964807538E+03  0.20389723341E+04  0.18355452722E+04 0.  0.
        -24    2    3    3    0    0 -0.49110058617E+03 -0.30101018294E+03 -0.47438021187E+02  0.58199842638E+03  0.68446230612E+02 0.  0.
    9900016    2    1    2    0    0 -0.63936866583E+03 -0.59212243020E+03  0.47092703394E+02  0.20344629742E+04  0.18377759949E+04 0.  0.
         23    2    5    5    0    0  0.37216976789E+03 -0.32120798788E+03  0.50581497627E+03  0.71103741514E+03  0.89668879236E+02 0.  0.
        -15    1    6    6    0    0  0.26512714247E+03 -0.25536586359E+03  0.32633331864E+03  0.49193247587E+03  0.00000000000E+00 0.  1.
        -15    1    3    3    0    0  0.11304692520E+04  0.89313261314E+03  0.21708609656E+03  0.14569739077E+04  0.00000000000E+00 0.  1.
         15    1    4    4    0    0 -0.26322107276E+03 -0.18648257785E+03 -0.72446376697E-02  0.32258500436E+03  0.00000000000E+00 0. -1.
         15    1    6    6    0    0  0.10704262542E+03 -0.65842124289E+02  0.17948165762E+03  0.21910493927E+03  0.00000000000E+00 0. -1.
        -16    1    4    4    0    0 -0.22787951341E+03 -0.11452760509E+03 -0.47430776549E+02  0.25941342202E+03  0.00000000000E+00 0.  1.
         16    1    5    5    0    0 -0.18240942269E+03  0.19911524904E+03 -0.21547886810E+02  0.27089553579E+03  0.00000000000E+00 0. -1.
    9900018    1    5    5    0    0 -0.82912901103E+03 -0.47002969136E+03 -0.43717438606E+03  0.10525300233E+04  0.91187600000E+02 0.  0.
<mgrwt>
<rscale>  0 0.40676650E+04</rscale>
<asrwt>0</asrwt>
<pdfrwt beam="1">  1        2 0.33001355E+00 0.40676650E+04</pdfrwt>
<pdfrwt beam="2">  1       -2 0.29666881E+00 0.40676650E+04</pdfrwt>
<totfact> 0.14490197E-01</totfact>
</mgrwt>
</event>
<event>
13    1  0.8153271E-008  0.4216592E+04  0.7818608E-02  0.7962224E-01
         -2   -1    0    0    0  501 -0.00000000000E+00  0.00000000000E+00  0.21303755191E+04  0.21303755191E+04  0.00000000000E+00 0.  1.
          2   -1    0    0  501    0  0.00000000000E+00 -0.00000000000E+00 -0.20864457568E+04  0.20864457568E+04  0.00000000000E+00 0. -1.
    9900016    2    1    2    0    0  0.62559898301E+03 -0.61441662848E+03  0.56057544533E+03  0.21144546901E+04  0.18405955356E+04 0.  0.
         24    2    3    3    0    0 -0.40404118974E+02 -0.79787220258E+02 -0.63301447174E+03  0.64678796151E+03  0.98126715877E+02 0.  0.
    9900016    2    1    2    0    0 -0.62559898301E+03  0.61441662848E+03 -0.51664568305E+03  0.21023665858E+04  0.18396033862E+04 0.  0.
         23    2    5    5    0    0  0.34950457794E+03  0.49649858084E+01 -0.64150932658E+03  0.73611833246E+03  0.90320995389E+02 0.  0.
        -15    1    6    6    0    0  0.22944991876E+03  0.44446955788E+02 -0.44101873948E+03  0.49911955048E+03  0.00000000000E+00 0.  1.
        -15    1    4    4    0    0  0.17057219738E+02  0.14016888994E+02 -0.13257578135E+03  0.13440148705E+03  0.00000000000E+00 0.  1.
         15    1    6    6    0    0  0.12005465918E+03 -0.39481969979E+02 -0.20049058710E+03  0.23699878198E+03  0.00000000000E+00 0. -1.
         15    1    3    3    0    0  0.66600310198E+03 -0.53462940822E+03  0.11935899171E+04  0.14676667286E+04  0.00000000000E+00 0. -1.
        -16    1    5    5    0    0 -0.68005574124E+03  0.48276920626E+03 -0.24382901339E+03  0.86890419810E+03  0.00000000000E+00 0.  1.
         16    1    4    4    0    0 -0.57461338713E+02 -0.93804109252E+02 -0.50043869040E+03  0.51238647445E+03  0.00000000000E+00 0. -1.
    9900018    1    5    5    0    0 -0.29504781971E+03  0.12668243642E+03  0.36869265693E+03  0.49734405524E+03  0.91187600000E+02 0.  0.
<mgrwt>
<rscale>  0 0.42165924E+04</rscale>
<asrwt>0</asrwt>
<pdfrwt beam="1">  1        2 0.32099166E+00 0.42165924E+04</pdfrwt>
<pdfrwt beam="2">  1       -2 0.32775008E+00 0.42165924E+04</pdfrwt>
<totfact> 0.99366208E-02</totfact>
</mgrwt>
</event>
<event>
13    1  0.8153271E-008  0.4607567E+04  0.7818608E-02  0.7892071E-01
         -2   -1    0    0    0  501 -0.00000000000E+00  0.00000000000E+00  0.22910180796E+04  0.22910180796E+04  0.00000000000E+00 0.  1.
          2   -1    0    0  501    0  0.00000000000E+00 -0.00000000000E+00 -0.23166205446E+04  0.23166205446E+04  0.00000000000E+00 0. -1.
    9900016    2    1    2    0    0  0.24702324129E+03 -0.87011251929E+02 -0.13611368908E+04  0.23177031511E+04  0.18575421452E+04 0.  0.
        -24    2    3    3    0    0 -0.45220345948E+03 -0.59110717613E+03 -0.49710424337E+02  0.74834976295E+03  0.60502718817E+02 0.  0.
    9900016    2    1    2    0    0 -0.24702324129E+03  0.87011251929E+02  0.13355344258E+04  0.22899354731E+04  0.18416190781E+04 0.  0.
         23    2    5    5    0    0 -0.17893755472E+03  0.26177184104E+03  0.17590563079E+04  0.17897385420E+04  0.91333505434E+02 0.  0.
        -15    1    3    3    0    0  0.69922670077E+03  0.50409592420E+03 -0.13114264665E+04  0.15693533881E+04  0.00000000000E+00 0.  1.
        -15    1    6    6    0    0 -0.47234564927E+02  0.16404960150E+02  0.21189305990E+03  0.21771287439E+03  0.00000000000E+00 0.  1.
         15    1    4    4    0    0 -0.13991215719E+03 -0.16348524866E+03  0.10409206935E+02  0.21543256450E+03  0.00000000000E+00 0. -1.
         15    1    6    6    0    0 -0.13170298980E+03  0.24536688089E+03  0.15471632480E+04  0.15720256676E+04  0.00000000000E+00 0. -1.
        -16    1    4    4    0    0 -0.31229130229E+03 -0.42762192747E+03 -0.60119631271E+02  0.53291719845E+03  0.00000000000E+00 0.  1.
         16    1    5    5    0    0  0.84016817428E+01 -0.13422125512E+03 -0.27097356435E+03  0.30251050586E+03  0.00000000000E+00 0. -1.
    9900018    1    5    5    0    0 -0.76487368313E+02 -0.40539333996E+02 -0.15254831771E+03  0.19768642528E+03  0.91187600000E+02 0.  0.
<mgrwt>
<rscale>  0 0.46075675E+04</rscale>
<asrwt>0</asrwt>
<pdfrwt beam="1">  1        2 0.35640316E+00 0.46075675E+04</pdfrwt>
<pdfrwt beam="2">  1       -2 0.35246432E+00 0.46075675E+04</pdfrwt>
<totfact> 0.50019974E-02</totfact>
</mgrwt>
</event>
