<event>
11    1  0.5993508E-016  0.4697133E+04  0.7818608E-02  0.7877005E-01
         -1   -1    0    0    0  501 -0.00000000000E+00  0.00000000000E+00  0.22917641501E+04  0.22917641501E+04  0.00000000000E+00 0.  1.
          1   -1    0    0  501    0  0.00000000000E+00 -0.00000000000E+00 -0.24067770024E+04  0.24067770024E+04  0.00000000000E+00 0. -1.
    9900016    2    1    2    0    0 -0.92324935561E+03 -0.77748023644E+03  0.70503241589E+03  0.26077846656E+04  0.22015006845E+04 0.  0.
        -24    2    3    3    0    0 -0.88362833445E+02 -0.21839865633E+03  0.13768015986E+04  0.13991153341E+04  0.80219154205E+02 0.  0.
        -15    1    4    4    0    0  0.10126293603E+00 -0.40749102121E+02  0.24216451260E+03  0.24556903457E+03  0.00000000000E+00 0.  1.
        -15    1    3    3    0    0 -0.83488652216E+03 -0.55908158011E+03 -0.67176918269E+03  0.12086693315E+04  0.00000000000E+00 0.  1.
         15    1    4    4    0    0 -0.11781607137E+02 -0.15840683464E+02  0.57869151602E+02  0.61143864995E+02  0.00000000000E+00 0. -1.
         15    1    4    4    0    0 -0.23381936202E+02 -0.53594960101E+02  0.24201738877E+03  0.24898102570E+03  0.00000000000E+00 0. -1.
        -16    1    4    4    0    0 -0.53300553043E+02 -0.10821391064E+03  0.83475054562E+03  0.84342140880E+03  0.00000000000E+00 0.  1.
         16    1    1    2    0    0  0.13757727601E+03  0.53817010135E+03 -0.10883712663E+04  0.12219274030E+04  0.00000000000E+00 0. -1.
    9900018    1    1    2    0    0  0.78567207959E+03  0.23931013509E+03  0.26832599806E+03  0.86882908390E+03  0.91187600000E+02 0.  0.
<mgrwt>
<rscale>  0 0.46971333E+04</rscale>
<asrwt>0</asrwt>
<pdfrwt beam="1">  1        1 0.37027339E+00 0.46971333E+04</pdfrwt>
<pdfrwt beam="2">  1       -1 0.35257910E+00 0.46971333E+04</pdfrwt>
<totfact> 0.17362051E-02</totfact>
</mgrwt>
</event>
<event>
11    1  0.5993508E-016  0.4302386E+04  0.7818608E-02  0.7946177E-01
          1   -1    0    0  501    0  0.00000000000E+00  0.00000000000E+00  0.17645489447E+04  0.17645489447E+04  0.00000000000E+00 0. -1.
         -1   -1    0    0    0  501 -0.00000000000E+00 -0.00000000000E+00 -0.26225572547E+04  0.26225572547E+04  0.00000000000E+00 0.  1.
    9900016    2    1    2    0    0 -0.14394978910E+03  0.13067829423E+03  0.48314077656E+03  0.22581910516E+04  0.21973173319E+04 0.  0.
         24    2    3    3    0    0  0.25843354356E+03  0.98465104408E+02  0.13083396130E+04  0.13395490345E+04  0.78458904202E+02 0.  0.
        -15    1    4    4    0    0  0.59354436281E+02 -0.51144576076E+00  0.34201842245E+03  0.34713082833E+03  0.00000000000E+00 0.  1.
        -15    1    4    4    0    0  0.10243633285E+03  0.58266034551E+02  0.47428871854E+03  0.48871046807E+03  0.00000000000E+00 0. -1.
         15    1    4    4    0    0  0.11687357133E+02 -0.31040076135E+00  0.31219338957E+02  0.33336733347E+02  0.00000000000E+00 0.  1.
         15    1    3    3    0    0 -0.40238333266E+03  0.32213189821E+02 -0.82519883642E+03  0.91864201712E+03  0.00000000000E+00 0. -1.
        -16    1    1    2    0    0 -0.45931865377E+03  0.48756662539E+03 -0.20849057953E+03  0.70154341395E+03  0.00000000000E+00 0.  1.
         16    1    4    4    0    0  0.84955417298E+02  0.41020916379E+02  0.46081313303E+03  0.47037100472E+03  0.00000000000E+00 0. -1.
    9900018    1    1    2    0    0  0.60326844287E+03 -0.61824491962E+03 -0.11326585070E+04  0.14273717339E+04  0.91187600000E+02 0.  0.
<mgrwt>
<rscale>  0 0.43023857E+04</rscale>
<asrwt>0</asrwt>
<pdfrwt beam="1">  1        1 0.27146907E+00 0.43023857E+04</pdfrwt>
<pdfrwt beam="2">  1       -1 0.40347034E+00 0.43023857E+04</pdfrwt>
<totfact> 0.22265057E-02</totfact>
</mgrwt>
</event>
<event>
11    1  0.5993508E-016  0.4479040E+04  0.7818608E-02  0.7914316E-01
          1   -1    0    0  501    0  0.00000000000E+00  0.00000000000E+00  0.24971024654E+04  0.24971024654E+04  0.00000000000E+00 0. -1.
         -1   -1    0    0    0  501 -0.00000000000E+00 -0.00000000000E+00 -0.20085082671E+04  0.20085082671E+04  0.00000000000E+00 0.  1.
    9900016    2    1    2    0    0  0.51455577140E+03  0.13014031131E+04  0.85401374756E+03  0.27282292963E+04  0.21807058278E+04 0.  0.
         24    2    3    3    0    0  0.27589767466E+03  0.32675572642E+03 -0.73193537398E+03  0.85149547620E+03  0.80164347815E+02 0.  0.
        -15    1    4    4    0    0  0.13352590094E+02  0.19383323528E+02 -0.67385523732E+02  0.71377963699E+02  0.00000000000E+00 0.  1.
        -15    1    4    4    0    0  0.13471189947E+02  0.10573231009E+02 -0.12663865103E+02  0.21298818087E+02  0.00000000000E+00 0. -1.
         15    1    4    4    0    0  0.41629057347E+02  0.60787983930E+02 -0.10925505796E+03  0.13177566200E+03  0.00000000000E+00 0.  1.
         15    1    3    3    0    0  0.23865809673E+03  0.97464738663E+03  0.15859491215E+04  0.18767338201E+04  0.00000000000E+00 0. -1.
        -16    1    1    2    0    0 -0.62205145480E+03 -0.79145652537E+03 -0.62826036052E+03  0.11866181039E+04  0.00000000000E+00 0.  1.
         16    1    4    4    0    0  0.20744483727E+03  0.23601118796E+03 -0.54263092719E+03  0.62704303241E+03  0.00000000000E+00 0. -1.
    9900018    1    1    2    0    0  0.10749568341E+03 -0.50994658769E+03  0.26284081126E+03  0.59076333223E+03  0.91187600000E+02 0.  0.
<mgrwt>
<rscale>  0 0.44790405E+04</rscale>
<asrwt>0</asrwt>
<pdfrwt beam="1">  1        1 0.38416961E+00 0.44790405E+04</pdfrwt>
<pdfrwt beam="2">  1       -1 0.30900127E+00 0.44790405E+04</pdfrwt>
<totfact> 0.29573072E-02</totfact>
</mgrwt>
</event>
<event>
11    1  0.5993508E-016  0.3994820E+04  0.7818608E-02  0.8005592E-01
         -2   -1    0    0    0  501 -0.00000000000E+00  0.00000000000E+00  0.30086177555E+04  0.30086177555E+04  0.00000000000E+00 0. -1.
          2   -1    0    0  501    0  0.00000000000E+00 -0.00000000000E+00 -0.13260730777E+04  0.13260730777E+04  0.00000000000E+00 0.  1.
    9900016    2    1    2    0    0  0.55804098784E+03  0.90742034444E+02  0.35661963023E+03  0.22948379092E+04  0.21953267656E+04 0.  0.
        -24    2    3    3    0    0  0.22771438870E+03  0.31782293219E+03 -0.89537970609E+03  0.98023388731E+03  0.79299411688E+02 0.  0.
        -15    1    3    3    0    0  0.33032659914E+03 -0.22708089775E+03  0.12519993363E+04  0.13146040219E+04  0.00000000000E+00 0.  1.
        -15    1    4    4    0    0  0.24458366497E+01  0.16532875064E+02 -0.47750937243E+02  0.50591205583E+02  0.00000000000E+00 0.  1.
         15    1    4    4    0    0  0.24543247164E+02  0.17707415370E+02 -0.11017438599E+03  0.11425549820E+03  0.00000000000E+00 0. -1.
         15    1    4    4    0    0  0.11400884747E+02  0.10771316435E+02 -0.37986004623E+02  0.41096690596E+02  0.00000000000E+00 0. -1.
        -16    1    4    4    0    0  0.18932442014E+03  0.27281132532E+03 -0.69946837823E+03  0.77429049292E+03  0.00000000000E+00 0.  1.
         16    1    1    2    0    0 -0.65051174568E+03  0.30265845121E+03  0.14411286833E+04  0.16098507853E+04  0.00000000000E+00 0. -1.
    9900018    1    1    2    0    0  0.92470757840E+02 -0.39340048565E+03 -0.11520363569E+03  0.43000213864E+03  0.91187600000E+02 0.  0.
<mgrwt>
<rscale>  0 0.39948201E+04</rscale>
<asrwt>0</asrwt>
<pdfrwt beam="1">  1        2 0.20401124E+00 0.39948201E+04</pdfrwt>
<pdfrwt beam="2">  1       -2 0.46286427E+00 0.39948201E+04</pdfrwt>
<totfact> 0.35979542E-02</totfact>
</mgrwt>
</event>
<event>
11    1  0.5993508E-016  0.3220524E+04  0.7818608E-02  0.8183418E-01
         -1   -1    0    0    0  501 -0.00000000000E+00  0.00000000000E+00  0.10555457163E+04  0.10555457163E+04  0.00000000000E+00 0.  1.
          1   -1    0    0  501    0  0.00000000000E+00 -0.00000000000E+00 -0.24564961380E+04  0.24564961380E+04  0.00000000000E+00 0. -1.
    9900016    2    1    2    0    0  0.33024624778E+03  0.32207400658E+03 -0.11211554035E+04  0.25046879294E+04  0.21917294393E+04 0.  0.
         24    2    3    3    0    0  0.12503544688E+02 -0.21465736013E+03  0.61659189511E+03  0.65839254158E+03  0.84030070844E+02 0.  0.
        -15    1    4    4    0    0  0.63764412002E+01 -0.17481544097E+02  0.24292417113E+02  0.30600407115E+02  0.00000000000E+00 0.  1.
        -15    1    4    4    0    0 -0.12375668648E+02 -0.99443680051E+02  0.29223453365E+03  0.30893886990E+03  0.00000000000E+00 0.  1.
         15    1    4    4    0    0  0.35185553466E+01 -0.23957487650E+02  0.13862389889E+03  0.14072287230E+03  0.00000000000E+00 0. -1.
         15    1    3    3    0    0  0.31774270309E+03  0.53673136672E+03 -0.17377472986E+04  0.18462953879E+04  0.00000000000E+00 0. -1.
        -16    1    1    2    0    0 -0.47666547180E+03 -0.73892917413E+02  0.12867296616E+03  0.49922626881E+03  0.00000000000E+00 0.  1.
         16    1    4    4    0    0  0.14984216790E+02 -0.73774648337E+02  0.16144104545E+03  0.17813039226E+03  0.00000000000E+00 0. -1.
    9900018    1    1    2    0    0  0.14641922401E+03 -0.24818108917E+03 -0.40846798441E+03  0.50812765607E+03  0.91187600000E+02 0.  0.
<mgrwt>
<rscale>  0 0.32205242E+04</rscale>
<asrwt>0</asrwt>
<pdfrwt beam="1">  1        1 0.37792248E+00 0.32205242E+04</pdfrwt>
<pdfrwt beam="2">  1       -1 0.16239165E+00 0.32205242E+04</pdfrwt>
<totfact> 0.33989770E-01</totfact>
</mgrwt>
</event>
