<event>
11    1  0.1641164E-012  0.5609404E+04  0.7818608E-02  0.8501109E-01
          2   -1    0    0  501    0  0.00000000000E+00  0.00000000000E+00  0.30643244533E+04  0.30643244533E+04  0.00000000000E+00 0. -1.
         -2   -1    0    0    0  501 -0.00000000000E+00 -0.00000000000E+00 -0.27413691063E+04  0.27413691063E+04  0.00000000000E+00 0.  1.
         23    2    1    2    0    0 -0.10519189710E+03  0.33543960590E+01  0.12934659643E+03  0.19294931410E+03  0.97068576869E+02 0.  0.
    9900016    2    1    2    0    0 -0.17620662427E+03 -0.87486054616E+02  0.34920117465E+03  0.21792928346E+04  0.21421188609E+04 0.  0.
        -15    1    3    3    0    0 -0.10251991594E+02 -0.37743418328E+02  0.27786347529E+02  0.47976557481E+02  0.00000000000E+00 0.  1.
        -15    1    4    4    0    0  0.57295010716E+02 -0.16409933316E+03 -0.53965825292E+03  0.56695885154E+03  0.00000000000E+00 0.  1.
         15    1    4    4    0    0 -0.88807159901E+02 -0.11228303680E+03 -0.33565828057E+03  0.36491187062E+03  0.00000000000E+00 0. -1.
         15    1    3    3    0    0 -0.94939905509E+02  0.41097814387E+02  0.10156024890E+03  0.14497275662E+03  0.00000000000E+00 0. -1.
        -16    1    1    2    0    0  0.16189030773E+04  0.56827183429E+02 -0.94703072006E+03  0.18764177805E+04  0.00000000000E+00 0.  1.
         16    1    4    4    0    0 -0.14469447508E+03  0.18889631534E+03  0.12245177081E+04  0.12474221125E+04  0.00000000000E+00 0. -1.
    9900018    1    1    2    0    0 -0.13375045559E+04  0.27304475128E+02  0.79143829599E+03  0.15570336304E+04  0.91187600000E+02 0.  0.
<mgrwt>
<rscale>  0 0.22420942E+04</rscale>
<asrwt>0</asrwt>
<pdfrwt beam="1">  1        2 0.47143453E+00 0.56094040E+04</pdfrwt>
<pdfrwt beam="2">  1       -2 0.42174909E+00 0.56094040E+04</pdfrwt>
<totfact> 0.58412319E-03</totfact>
</mgrwt>
</event>
<event>
11    1  0.1641164E-012  0.4910778E+04  0.7818608E-02  0.8443827E-01
         -1   -1    0    0    0  501 -0.00000000000E+00  0.00000000000E+00  0.28930096586E+04  0.28930096586E+04  0.00000000000E+00 0.  1.
          1   -1    0    0  501    0  0.00000000000E+00 -0.00000000000E+00 -0.26778310014E+04  0.26778310014E+04  0.00000000000E+00 0. -1.
         23    2    1    2    0    0 -0.10236943907E+03  0.23776074859E+03 -0.53657483885E+03  0.60285621241E+03  0.92267976700E+02 0.  0.
    9900016    2    1    2    0    0  0.37187716912E+02 -0.48335694759E+03  0.17515340972E+04  0.28631361718E+04  0.22123878908E+04 0.  0.
        -15    1    3    3    0    0 -0.60232509666E+02  0.41236917714E+02 -0.12301878474E+03  0.14304565706E+03  0.00000000000E+00 0.  1.
        -15    1    4    4    0    0 -0.20672422772E+03  0.58559737822E+03  0.10271287471E+04  0.12002719104E+04  0.00000000000E+00 0.  1.
         15    1    4    4    0    0 -0.83980595366E+02  0.92914287567E+02  0.39078607182E+03  0.41036515344E+03  0.00000000000E+00 0. -1.
         15    1    3    3    0    0 -0.42136929400E+02  0.19652383088E+03 -0.41355605411E+03  0.45981055535E+03  0.00000000000E+00 0. -1.
        -16    1    1    2    0    0  0.18101055028E+03 -0.45947078261E+03 -0.12486454382E+04  0.13427559904E+04  0.00000000000E+00 0.  1.
         16    1    4    4    0    0  0.32789253999E+03 -0.11618686134E+04  0.33361927824E+03  0.12524991079E+04  0.00000000000E+00 0. -1.
    9900018    1    1    2    0    0 -0.11582882813E+03  0.70506698161E+03  0.24886483704E+03  0.76209228542E+03  0.91187600000E+02 0.  0.
<mgrwt>
<rscale>  0 0.23884857E+04</rscale>
<asrwt>0</asrwt>
<pdfrwt beam="1">  1        1 0.41197400E+00 0.49107776E+04</pdfrwt>
<pdfrwt beam="2">  1       -1 0.44507841E+00 0.49107776E+04</pdfrwt>
<totfact> 0.25361768E-03</totfact>
</mgrwt>
</event>
<event>
13    1  0.1641164E-012  0.5564065E+04  0.7818608E-02  0.7746935E-01
          2   -1    0    0  501    0  0.00000000000E+00  0.00000000000E+00  0.16957479956E+04  0.16957479956E+04  0.00000000000E+00 0. -1.
         -2   -1    0    0    0  501 -0.00000000000E+00 -0.00000000000E+00 -0.45641841451E+04  0.45641841451E+04  0.00000000000E+00 0.  1.
    9900016    2    1    2    0    0  0.67518043189E+03 -0.63336441112E+03 -0.25904364401E+04  0.35836220708E+04  0.22967296539E+04 0.  0.
         23    2    3    3    0    0 -0.56647724289E+03 -0.41935953024E+03 -0.92031110522E+01  0.71129246411E+03  0.95359267694E+02 0.  0.
    9900016    2    1    2    0    0 -0.33746135780E+03  0.55745037576E+03 -0.20129908116E+03  0.23102290972E+04  0.22072621213E+04 0.  0.
         23    2    5    5    0    0 -0.28060100397E+03  0.48166664414E+03 -0.11892399497E+04  0.13177557053E+04  0.10699888455E+03 0.  0.
        -15    1    4    4    0    0 -0.50266560293E+03 -0.38421461292E+03 -0.35899292554E+02  0.63370524407E+03  0.00000000000E+00 0.  1.
        -15    1    6    6    0    0 -0.27164444410E+02  0.82893296354E+02 -0.11623339795E+03  0.14532518165E+03  0.00000000000E+00 0.  1.
         15    1    4    4    0    0 -0.63811639961E+02 -0.35144917317E+02  0.26696181502E+02  0.77587220047E+02  0.00000000000E+00 0. -1.
         15    1    6    6    0    0 -0.25343655956E+03  0.39877334778E+03 -0.10730065518E+04  0.11724305237E+04  0.00000000000E+00 0. -1.
        -16    1    3    3    0    0  0.12416576748E+04 -0.21400488088E+03 -0.25812333291E+04  0.28723296067E+04  0.00000000000E+00 0.  1.
         16    1    5    5    0    0 -0.56860353827E+02  0.75783731625E+02  0.98794086858E+03  0.99247339190E+03  0.00000000000E+00 0. -1.
    9900018    1    1    2    0    0 -0.33771907409E+03  0.75914035363E+02 -0.76700628178E+02  0.36608097263E+03  0.91187600000E+02 0.  0.
<mgrwt>
<rscale>  0 0.55640655E+04</rscale>
<asrwt>0</asrwt>
<pdfrwt beam="1">  1        2 0.26088431E+00 0.55640655E+04</pdfrwt>
<pdfrwt beam="2">  1       -2 0.70218216E+00 0.55640655E+04</pdfrwt>
<totfact> 0.15557096E-03</totfact>
</mgrwt>
</event>
<event>
12    1  0.1641164E-012  0.5439932E+04  0.7818608E-02  0.7764009E-01
         -2   -1    0    0    0  501 -0.00000000000E+00  0.00000000000E+00  0.21391798163E+04  0.21391798163E+04  0.00000000000E+00 0.  1.
          2   -1    0    0  501    0  0.00000000000E+00 -0.00000000000E+00 -0.34584352747E+04  0.34584352747E+04  0.00000000000E+00 0. -1.
    9900016    2    1    2    0    0 -0.48838250797E+03  0.79409866160E+03 -0.60315519965E+01  0.24895076271E+04  0.23083547577E+04 0.  0.
         23    2    3    3    0    0 -0.30512839375E+03 -0.39516648917E+03 -0.87070208186E+03  0.10077556930E+04  0.90496024974E+02 0.  0.
    9900016    2    1    2    0    0  0.37199192276E+03 -0.33370948093E+03 -0.13398356055E+04  0.26238262161E+04  0.21999010328E+04 0.  0.
        -15    1    4    4    0    0 -0.23705708486E+03 -0.28145917381E+03 -0.70789784297E+03  0.79783123784E+03  0.00000000000E+00 0.  1.
        -15    1    5    5    0    0 -0.52085615088E+02  0.31572606258E+03  0.16747143989E+03  0.36116830020E+03  0.00000000000E+00 0. -1.
         15    1    4    4    0    0 -0.68071308892E+02 -0.11370731536E+03 -0.16280423889E+03  0.20992445513E+03  0.00000000000E+00 0. -1.
         15    1    5    5    0    0 -0.25963824850E+03  0.11973964142E+03  0.14151544468E+03  0.31902385944E+03  0.00000000000E+00 0.  1.
        -16    1    3    3    0    0 -0.18325411422E+03  0.11892651508E+04  0.86467052986E+03  0.14817519342E+04  0.00000000000E+00 0.  1.
         16    1    5    5    0    0  0.68371578635E+03 -0.76917518492E+03 -0.16488224901E+04  0.19436340565E+04  0.00000000000E+00 0. -1.
    9900018    1    1    2    0    0  0.11639058521E+03 -0.46038918067E+03  0.26611699034E+02  0.48428124775E+03  0.91187600000E+02 0.  0.
<mgrwt>
<rscale>  0 0.54399320E+04</rscale>
<asrwt>0</asrwt>
<pdfrwt beam="1">  1        2 0.53206696E+00 0.54399320E+04</pdfrwt>
<pdfrwt beam="2">  1       -2 0.32910459E+00 0.54399320E+04</pdfrwt>
<totfact> 0.12824618E-02</totfact>
</mgrwt>
</event>
<event>
13    1  0.1641164E-012  0.4911351E+04  0.7818608E-02  0.7842330E-01
          2   -1    0    0  501    0  0.00000000000E+00  0.00000000000E+00  0.39431509411E+04  0.39431509411E+04  0.00000000000E+00 0. -1.
         -2   -1    0    0    0  501 -0.00000000000E+00 -0.00000000000E+00 -0.15293204214E+04  0.15293204214E+04  0.00000000000E+00 0.  1.
    9900016    2    1    2    0    0 -0.88369267380E+03 -0.47025914980E+02  0.71611827972E+03  0.24135946477E+04  0.21282597479E+04 0.  0.
         23    2    3    3    0    0 -0.54891197632E+03 -0.28717083611E+03  0.14458419675E+04  0.15755944335E+04  0.90925118557E+02 0.  0.
    9900016    2    1    2    0    0  0.75639071112E+03  0.31212148121E+02  0.14408313939E+04  0.27576146820E+04  0.22260598651E+04 0.  0.
         23    2    5    5    0    0  0.15399001458E+03 -0.75809963664E+02 -0.59528518844E+03  0.63155939856E+03  0.12264886117E+03 0.  0.
        -15    1    6    6    0    0  0.11164326906E+03  0.25963327259E+01 -0.23162154697E+03  0.25713712585E+03  0.00000000000E+00 0.  1.
        -15    1    4    4    0    0 -0.50751088980E+03 -0.24480580270E+03  0.13507046587E+04  0.14635232350E+04  0.00000000000E+00 0.  1.
         15    1    4    4    0    0 -0.41401086515E+02 -0.42365033411E+02  0.95137308720E+02  0.11207119849E+03  0.00000000000E+00 0. -1.
         15    1    6    6    0    0  0.42346745521E+02 -0.78406296390E+02 -0.36366364147E+03  0.37442227270E+03  0.00000000000E+00 0. -1.
        -16    1    3    3    0    0 -0.33478069748E+03  0.24014492113E+03 -0.72972368775E+03  0.83800021421E+03  0.00000000000E+00 0.  1.
         16    1    5    5    0    0  0.60240069654E+03  0.10702211179E+03  0.20361165823E+04  0.21260552835E+04  0.00000000000E+00 0. -1.
    9900018    1    1    2    0    0  0.12730196267E+03  0.15813766859E+02  0.25688084604E+03  0.30126203275E+03  0.91187600000E+02 0.  0.
<mgrwt>
<rscale>  0 0.49113506E+04</rscale>
<asrwt>0</asrwt>
<pdfrwt beam="1">  1        2 0.60663860E+00 0.49113506E+04</pdfrwt>
<pdfrwt beam="2">  1       -2 0.23528007E+00 0.49113506E+04</pdfrwt>
<totfact> 0.21987784E-02</totfact>
</mgrwt>
</event>
<event>
11    1  0.1641164E-012  0.4306805E+04  0.7818608E-02  0.8279777E-01
         -2   -1    0    0    0  501 -0.00000000000E+00  0.00000000000E+00  0.24471786230E+04  0.24471786230E+04  0.00000000000E+00 0.  1.
          2   -1    0    0  501    0  0.00000000000E+00 -0.00000000000E+00 -0.29084863710E+04  0.29084863710E+04  0.00000000000E+00 0. -1.
         23    2    1    2    0    0  0.43378537700E+03 -0.73395507252E+03 -0.60005979904E+03  0.10466251024E+04  0.92154982737E+02 0.  0.
    9900016    2    1    2    0    0  0.25477210165E+03  0.22652388961E+03 -0.64743319247E+02  0.22302848631E+04  0.22031243671E+04 0.  0.
        -15    1    4    4    0    0 -0.10144764385E+03  0.51942963976E+02  0.14054258696E+03  0.18094727050E+03  0.00000000000E+00 0.  1.
        -15    1    3    3    0    0  0.14859582303E+02 -0.61372212275E+02 -0.26682830682E+02  0.68551652634E+02  0.00000000000E+00 0. -1.
         15    1    4    4    0    0 -0.56273785346E+03  0.44890856152E+03  0.48475321950E+03  0.86785855537E+03  0.00000000000E+00 0. -1.
         15    1    3    3    0    0  0.41892579470E+03 -0.67258286024E+03 -0.57337696836E+03  0.97807344980E+03  0.00000000000E+00 0.  1.
        -16    1    1    2    0    0 -0.11457497378E+04  0.89196063574E+03  0.24700518011E+03  0.14728705973E+04  0.00000000000E+00 0.  1.
         16    1    4    4    0    0  0.91895759895E+03 -0.27432763589E+03 -0.69003912571E+03  0.11814790373E+04  0.00000000000E+00 0. -1.
    9900018    1    1    2    0    0  0.45719225919E+03 -0.38452945283E+03 -0.43509809828E+02  0.60588443114E+03  0.91187600000E+02 0.  0.
<mgrwt>
<rscale>  0 0.28769239E+04</rscale>
<asrwt>0</asrwt>
<pdfrwt beam="1">  1        2 0.44745944E+00 0.43068054E+04</pdfrwt>
<pdfrwt beam="2">  1       -2 0.37648902E+00 0.43068054E+04</pdfrwt>
<totfact> 0.15545092E-02</totfact>
</mgrwt>
</event>
<event>
12    1  0.1641164E-012  0.5330263E+04  0.7818608E-02  0.7779487E-01
          2   -1    0    0  501    0  0.00000000000E+00  0.00000000000E+00  0.26798903283E+04  0.26798903283E+04  0.00000000000E+00 0.  1.
         -2   -1    0    0    0  501 -0.00000000000E+00 -0.00000000000E+00 -0.26504542062E+04  0.26504542062E+04  0.00000000000E+00 0. -1.
    9900016    2    1    2    0    0  0.12715255048E+03 -0.12003676194E+04  0.15453904535E+03  0.26170732123E+04  0.23169246188E+04 0.  0.
         23    2    3    3    0    0 -0.87023388590E+02  0.56514046348E+03 -0.45533444252E+03  0.73695731302E+03  0.93913859693E+02 0.  0.
    9900016    2    1    2    0    0 -0.64087030417E+02  0.93168665250E+03 -0.14461912333E+02  0.24022675706E+04  0.22132630138E+04 0.  0.
        -15    1    5    5    0    0  0.65534218725E+03  0.23890196013E+03  0.67091568861E+03  0.96781991618E+03  0.00000000000E+00 0.  1.
        -15    1    4    4    0    0  0.18001508980E+02  0.11315201753E+03 -0.74587791204E+02  0.13671419821E+03  0.00000000000E+00 0. -1.
         15    1    5    5    0    0  0.30791155039E+02  0.10962245888E+03  0.13674637033E+03  0.17794591458E+03  0.00000000000E+00 0. -1.
         15    1    4    4    0    0 -0.10502489757E+03  0.45198844596E+03 -0.38074665131E+03  0.60024311481E+03  0.00000000000E+00 0.  1.
        -16    1    3    3    0    0  0.21417593907E+03 -0.17655080828E+04  0.60987348787E+03  0.18801158993E+04  0.00000000000E+00 0.  1.
         16    1    5    5    0    0 -0.75022037270E+03  0.58316223348E+03 -0.82212397127E+03  0.12565017399E+04  0.00000000000E+00 0. -1.
    9900018    1    1    2    0    0 -0.63065520065E+02  0.26868096686E+03 -0.11064101093E+03  0.31100375153E+03  0.91187600000E+02 0.  0.
<mgrwt>
<rscale>  0 0.53302633E+04</rscale>
<asrwt>0</asrwt>
<pdfrwt beam="1">  1        2 0.41229082E+00 0.53302633E+04</pdfrwt>
<pdfrwt beam="2">  1       -2 0.40776218E+00 0.53302633E+04</pdfrwt>
<totfact> 0.12795745E-02</totfact>
</mgrwt>
</event>
<event>
13    1  0.1641164E-012  0.5438054E+04  0.7818608E-02  0.7764271E-01
          1   -1    0    0  501    0  0.00000000000E+00  0.00000000000E+00  0.26213033584E+04  0.26213033584E+04  0.00000000000E+00 0. -1.
         -1   -1    0    0    0  501 -0.00000000000E+00 -0.00000000000E+00 -0.28203935360E+04  0.28203935360E+04  0.00000000000E+00 0.  1.
    9900016    2    1    2    0    0  0.12180029448E+04 -0.25984887356E+03 -0.23525479464E+02  0.24431046741E+04  0.21017027358E+04 0.  0.
         23    2    3    3    0    0  0.35337270676E+03  0.11665108149E+02  0.10067729390E+04  0.10709457468E+04  0.91239778967E+02 0.  0.
    9900016    2    1    2    0    0 -0.13446681344E+04  0.32384976968E+03  0.17701307748E+03  0.26077387295E+04  0.22036235129E+04 0.  0.
         23    2    5    5    0    0  0.60925619232E+03  0.16469050048E+03  0.35592671866E+02  0.64224854163E+03  0.11357940885E+03 0.  0.
        -15    1    4    4    0    0  0.54179742645E+02 -0.10954559454E+02  0.83473958797E+02  0.10011667535E+03  0.00000000000E+00 0. -1.
        -15    1    6    6    0    0  0.45972180342E+03  0.16247536553E+03  0.58009623456E+02  0.49102698231E+03  0.00000000000E+00 0.  1.
         15    1    6    6    0    0  0.14953438889E+03  0.22151349549E+01 -0.22416951590E+02  0.15122155932E+03  0.00000000000E+00 0. -1.
         15    1    4    4    0    0  0.29919296411E+03  0.22619667603E+02  0.92329898018E+03  0.97082907143E+03  0.00000000000E+00 0.  1.
        -16    1    3    3    0    0  0.86463023807E+03 -0.27151398171E+03 -0.10302984184E+04  0.13721589273E+04  0.00000000000E+00 0.  1.
         16    1    5    5    0    0 -0.19539243267E+04  0.15915926920E+03  0.14142040561E+03  0.19654901879E+04  0.00000000000E+00 0. -1.
    9900018    1    1    2    0    0  0.12666518955E+03 -0.64000896127E+02 -0.35257777565E+03  0.39085349074E+03  0.91187600000E+02 0.  0.
<mgrwt>
<rscale>  0 0.54380537E+04</rscale>
<asrwt>0</asrwt>
<pdfrwt beam="1">  1        1 0.40327744E+00 0.54380537E+04</pdfrwt>
<pdfrwt beam="2">  1       -1 0.43390670E+00 0.54380537E+04</pdfrwt>
<totfact> 0.32573196E-03</totfact>
</mgrwt>
</event>
