<event>
12    1  0.4708778E-010  0.1011043E+04  0.7818608E-02  0.9296516E-01
         -1   -1    0    0    0  501 -0.00000000000E+00  0.00000000000E+00  0.14456691714E+03  0.14456691714E+03  0.00000000000E+00 0.  1.
          1   -1    0    0  501    0  0.00000000000E+00 -0.00000000000E+00 -0.17677056329E+04  0.17677056329E+04  0.00000000000E+00 0. -1.
    9900016    2    1    2    0    0 -0.10809134547E+03  0.10363990327E+03 -0.82637326052E+03  0.11015567187E+04  0.71281797840E+03 0.  0.
         23    2    3    3    0    0 -0.14640347061E+03  0.82972909384E+02 -0.56804712343E+02  0.20070053655E+03  0.93463629987E+02 0.  0.
         23    2    3    3    0    0  0.14978870503E+03 -0.97755537142E+02 -0.17366251387E+03  0.26546294231E+03  0.91209121373E+02 0.  0.
        -15    1    5    5    0    0  0.14099475501E+03 -0.47488490044E+02 -0.14028554090E+03  0.20448645581E+03  0.00000000000E+00 0.  1.
        -15    1    4    4    0    0 -0.13725241060E+03  0.39384670307E+02 -0.62364721644E+02  0.15581635016E+03  0.00000000000E+00 0. -1.
         15    1    4    4    0    0 -0.91510600109E+01  0.43588239076E+02  0.55600093007E+01  0.44884186397E+02  0.00000000000E+00 0.  1.
         15    1    5    5    0    0  0.87939500202E+01 -0.50267047098E+02 -0.33376972972E+02  0.60976486499E+02  0.00000000000E+00 0. -1.
        -16    1    3    3    0    0 -0.15940920113E+02  0.77596765437E+02 -0.16858470178E+03  0.18626908658E+03  0.00000000000E+00 0.  1.
         16    1    1    2    0    0  0.10809134547E+03 -0.10363990327E+03 -0.79676545522E+03  0.81071583131E+03  0.00000000000E+00 0. -1.
    9900018    1    3    3    0    0 -0.95535659775E+02  0.40825765591E+02 -0.42732133253E+03  0.44912415327E+03  0.91187600000E+02 0.  0.
<mgrwt>
<rscale>  0 0.10110425E+04</rscale>
<asrwt>0</asrwt>
<pdfrwt beam="1">  1        1 0.27195471E+00 0.10110425E+04</pdfrwt>
<pdfrwt beam="2">  1       -1 0.22241064E-01 0.10110425E+04</pdfrwt>
<totfact> 0.73575460E+01</totfact>
</mgrwt>
</event>
<event>
12    1  0.4708778E-010  0.1892869E+04  0.7818608E-02  0.8658414E-01
         -1   -1    0    0    0  501 -0.00000000000E+00  0.00000000000E+00  0.10335079726E+04  0.10335079726E+04  0.00000000000E+00 0.  1.
          1   -1    0    0  501    0  0.00000000000E+00 -0.00000000000E+00 -0.86669679170E+03  0.86669679170E+03  0.00000000000E+00 0. -1.
    9900016    2    1    2    0    0  0.10364408785E+03  0.22379864004E+03  0.87629013670E+03  0.11490800630E+04  0.70119373872E+03 0.  0.
         23    2    3    3    0    0  0.36122778777E+02 -0.34368100092E+02  0.23942342973E+02  0.10492942241E+03  0.89167967623E+02 0.  0.
         23    2    3    3    0    0 -0.93987101744E+02  0.91000498564E+02  0.18362219366E+03  0.24351590513E+03  0.92022932005E+02 0.  0.
        -15    1    4    4    0    0 -0.92038101917E+00 -0.50152482357E+02  0.37296121958E+02  0.62506954020E+02  0.00000000000E+00 0. -1.
        -15    1    5    5    0    0 -0.38758830484E+02  0.52854313726E+02  0.23046930057E+02  0.69476516932E+02  0.00000000000E+00 0. -1.
         15    1    4    4    0    0  0.37043159796E+02  0.15784382266E+02 -0.13353778985E+02  0.42422468391E+02  0.00000000000E+00 0.  1.
         15    1    5    5    0    0 -0.55228271259E+02  0.38146184838E+02  0.16057526360E+03  0.17403938820E+03  0.00000000000E+00 0.  1.
        -16    1    3    3    0    0  0.33331363893E+02  0.74724158378E+02 -0.23208627982E+02  0.85048927548E+02  0.00000000000E+00 0.  1.
         16    1    1    2    0    0 -0.10364408785E+03 -0.22379864004E+03 -0.70947895580E+03  0.75112470133E+03  0.00000000000E+00 0. -1.
    9900018    1    3    3    0    0  0.12817704692E+03  0.92442083187E+02  0.69193422806E+03  0.71558580789E+03  0.91187600000E+02 0.  0.
<mgrwt>
<rscale>  0 0.18928688E+04</rscale>
<asrwt>0</asrwt>
<pdfrwt beam="1">  1        1 0.13333797E+00 0.18928688E+04</pdfrwt>
<pdfrwt beam="2">  1       -1 0.15900123E+00 0.18928688E+04</pdfrwt>
<totfact> 0.53988301E+00</totfact>
</mgrwt>
</event>
<event>
12    1  0.4708778E-010  0.1072817E+04  0.7818608E-02  0.9232099E-01
          2   -1    0    0  501    0  0.00000000000E+00  0.00000000000E+00  0.38264901037E+03  0.38264901037E+03  0.00000000000E+00 0. -1.
         -2   -1    0    0    0  501 -0.00000000000E+00 -0.00000000000E+00 -0.75195286754E+03  0.75195286754E+03  0.00000000000E+00 0.  1.
    9900016    2    1    2    0    0 -0.28448934356E+03 -0.18536316879E+02 -0.20379921215E+03  0.80495120042E+03  0.72466166902E+03 0.  0.
         23    2    3    3    0    0 -0.12734021426E+03 -0.13807923849E+02 -0.59406636992E+01  0.15686605915E+03  0.90363046096E+02 0.  0.
         23    2    3    3    0    0  0.13825240767E+02  0.16754134084E+02 -0.15147065501E+03  0.17906663382E+03  0.93003557613E+02 0.  0.
        -15    1    4    4    0    0 -0.89381045586E+02 -0.45586013715E+02  0.17900978356E+02  0.10191909037E+03  0.00000000000E+00 0.  1.
        -15    1    5    5    0    0  0.17089312091E+02 -0.36955299081E+02 -0.52769798212E+02  0.66651258962E+02  0.00000000000E+00 0. -1.
         15    1    4    4    0    0 -0.37959168670E+02  0.31778089865E+02 -0.23841642056E+02  0.54946968775E+02  0.00000000000E+00 0. -1.
         15    1    5    5    0    0 -0.32640713242E+01  0.53709433166E+02 -0.98700856796E+02  0.11241537486E+03  0.00000000000E+00 0.  1.
        -16    1    1    2    0    0  0.28448934356E+03  0.18536316879E+02 -0.16550464501E+03  0.32965067748E+03  0.00000000000E+00 0.  1.
         16    1    3    3    0    0  0.56332560319E+02  0.42436423407E+02  0.13859589234E+03  0.15550893465E+03  0.00000000000E+00 0. -1.
    9900018    1    3    3    0    0 -0.22730693039E+03 -0.63918950521E+02 -0.18498378579E+03  0.31350957280E+03  0.91187600000E+02 0.  0.
<mgrwt>
<rscale>  0 0.10728169E+04</rscale>
<asrwt>0</asrwt>
<pdfrwt beam="1">  1        2 0.58869079E-01 0.10728169E+04</pdfrwt>
<pdfrwt beam="2">  1       -2 0.11568506E+00 0.10728169E+04</pdfrwt>
<totfact> 0.48299898E+01</totfact>
</mgrwt>
</event>
<event>
12    1  0.4708778E-010  0.1897559E+04  0.7818608E-02  0.8656072E-01
         -2   -1    0    0    0  501 -0.00000000000E+00  0.00000000000E+00  0.17653891707E+04  0.17653891707E+04  0.00000000000E+00 0.  1.
          2   -1    0    0  501    0  0.00000000000E+00 -0.00000000000E+00 -0.50990622304E+03  0.50990622304E+03  0.00000000000E+00 0. -1.
    9900016    2    1    2    0    0  0.11256948178E+03 -0.25762885582E+03 -0.20245958739E+03  0.79049205622E+03  0.71052325144E+03 0.  0.
         23    2    3    3    0    0 -0.89125606297E+01 -0.21694064224E+02 -0.96991690654E+02  0.13519253453E+03  0.91211661405E+02 0.  0.
         23    2    3    3    0    0  0.63764287193E+02 -0.30486457953E+03 -0.21170093647E+03  0.38772507742E+03  0.92223386318E+02 0.  0.
        -15    1    4    4    0    0  0.19984328661E+02  0.18863582488E+02 -0.76599549916E+02  0.81379967951E+02  0.00000000000E+00 0.  1.
        -15    1    5    5    0    0 -0.84939741003E+01 -0.13326934118E+03 -0.12272907885E+03  0.18137059213E+03  0.00000000000E+00 0. -1.
         15    1    5    5    0    0  0.72258261293E+02 -0.17159523835E+03 -0.88971857616E+02  0.20635448529E+03  0.00000000000E+00 0.  1.
         15    1    4    4    0    0 -0.28896889291E+02 -0.40557646712E+02 -0.20392140737E+02  0.53812566575E+02  0.00000000000E+00 0. -1.
        -16    1    1    2    0    0 -0.11256948178E+03  0.25762885582E+03  0.14579425350E+04  0.14848033375E+04  0.00000000000E+00 0.  1.
         16    1    3    3    0    0 -0.38901327382E+02 -0.82586809263E+01  0.10675643373E+03  0.11392302325E+03  0.00000000000E+00 0. -1.
    9900018    1    3    3    0    0  0.96619082597E+02  0.77188468859E+02 -0.52339400525E+00  0.15365142102E+03  0.91187600000E+02 0.  0.
<mgrwt>
<rscale>  0 0.18975594E+04</rscale>
<asrwt>0</asrwt>
<pdfrwt beam="1">  1        2 0.78447112E-01 0.18975594E+04</pdfrwt>
<pdfrwt beam="2">  1       -2 0.27159833E+00 0.18975594E+04</pdfrwt>
<totfact> 0.26728871E+00</totfact>
</mgrwt>
</event>
<event>
12    1  0.4708778E-010  0.8230026E+03  0.7818608E-02  0.9527306E-01
          1   -1    0    0  501    0  0.00000000000E+00  0.00000000000E+00  0.26925329861E+04  0.26925329861E+04  0.00000000000E+00 0. -1.
         -1   -1    0    0    0  501 -0.00000000000E+00 -0.00000000000E+00 -0.62889965162E+02  0.62889965162E+02  0.00000000000E+00 0.  1.
    9900016    2    1    2    0    0 -0.89778344287E+02  0.54810186790E+02  0.21959457637E+04  0.23091521605E+04  0.70635798000E+03 0.  0.
         23    2    3    3    0    0  0.15066486473E+03  0.63228837811E+02  0.32015129476E+03  0.37264000392E+03  0.98315479926E+02 0.  0.
         23    2    3    3    0    0  0.14756492411E+02 -0.14283382121E+03  0.71067733195E+03  0.73052192057E+03  0.89335053197E+02 0.  0.
        -15    1    5    5    0    0 -0.36483776590E+02 -0.80775544602E+02  0.37502195180E+03  0.38535336886E+03  0.00000000000E+00 0.  1.
        -15    1    4    4    0    0  0.22036028783E+02 -0.20140003369E+02  0.20984563976E+02  0.36490522407E+02  0.00000000000E+00 0.  1.
         15    1    5    5    0    0  0.51240269001E+02 -0.62058276608E+02  0.33565538016E+03  0.34516855171E+03  0.00000000000E+00 0. -1.
         15    1    4    4    0    0  0.12862883594E+03  0.83368841180E+02  0.29916673078E+03  0.33614948151E+03  0.00000000000E+00 0. -1.
        -16    1    1    2    0    0  0.89778344287E+02 -0.54810186790E+02  0.43369725724E+03  0.44627079069E+03  0.00000000000E+00 0.  1.
         16    1    3    3    0    0 -0.47975906468E+02  0.69443535441E+00  0.15901361365E+03  0.16609484991E+03  0.00000000000E+00 0. -1.
    9900018    1    3    3    0    0 -0.20722379496E+03  0.13372073483E+03  0.10061035233E+04  0.10398953861E+04  0.91187600000E+02 0.  0.
<mgrwt>
<rscale>  0 0.82300257E+03</rscale>
<asrwt>0</asrwt>
<pdfrwt beam="1">  1        1 0.41423575E+00 0.82300257E+03</pdfrwt>
<pdfrwt beam="2">  1       -1 0.96753814E-02 0.82300257E+03</pdfrwt>
<totfact> 0.68656949E+01</totfact>
</mgrwt>
</event>
<event>
12    1  0.4708778E-010  0.1271582E+04  0.7818608E-02  0.9052410E-01
          1   -1    0    0  501    0  0.00000000000E+00  0.00000000000E+00  0.33231300773E+04  0.33231300773E+04  0.00000000000E+00 0. -1.
         -1   -1    0    0    0  501 -0.00000000000E+00 -0.00000000000E+00 -0.12164134895E+03  0.12164134895E+03  0.00000000000E+00 0.  1.
    9900016    2    1    2    0    0 -0.33280056283E+03  0.14738637131E+02  0.12891557524E+04  0.15036400930E+04  0.69859683174E+03 0.  0.
         23    2    3    3    0    0 -0.14278118345E+03  0.43158418544E+02  0.22494964889E+03  0.28613679956E+03  0.94988462913E+02 0.  0.
         23    2    3    3    0    0  0.11793847722E+03 -0.95463996996E+02  0.40395705474E+03  0.44100415682E+03  0.90997280858E+02 0.  0.
        -15    1    4    4    0    0 -0.11066448498E+03 -0.93887881511E+00  0.97457622210E+02  0.14746354755E+03  0.00000000000E+00 0.  1.
        -15    1    5    5    0    0  0.14884040904E+02 -0.53570164629E+02  0.21172938077E+03  0.21890780684E+03  0.00000000000E+00 0. -1.
         15    1    5    5    0    0  0.10305443632E+03 -0.41893832367E+02  0.19222767397E+03  0.22209634998E+03  0.00000000000E+00 0.  1.
         15    1    4    4    0    0 -0.32116698467E+02  0.44097297359E+02  0.12749202668E+03  0.13867325201E+03  0.00000000000E+00 0. -1.
        -16    1    3    3    0    0 -0.25505386660E+03 -0.46142350666E+01  0.29689347710E+03  0.39143262865E+03  0.00000000000E+00 0.  1.
         16    1    1    2    0    0  0.33280056283E+03 -0.14738637131E+02  0.19123329759E+04  0.19411313332E+04  0.00000000000E+00 0. -1.
    9900018    1    3    3    0    0 -0.52903990006E+02  0.71658450650E+02  0.36335557172E+03  0.38506650802E+03  0.91187600000E+02 0.  0.
<mgrwt>
<rscale>  0 0.12715817E+04</rscale>
<asrwt>0</asrwt>
<pdfrwt beam="1">  1        1 0.51125071E+00 0.12715817E+04</pdfrwt>
<pdfrwt beam="2">  1       -1 0.18714056E-01 0.12715817E+04</pdfrwt>
<totfact> 0.78398322E+00</totfact>
</mgrwt>
</event>
<event>
12    1  0.4708778E-010  0.2305545E+04  0.7818608E-02  0.8475738E-01
         -4   -1    0    0    0  501 -0.00000000000E+00  0.00000000000E+00  0.13830395895E+04  0.13830395895E+04  0.00000000000E+00 0.  1.
          4   -1    0    0  501    0  0.00000000000E+00 -0.00000000000E+00 -0.96084327721E+03  0.96084327721E+03  0.00000000000E+00 0. -1.
    9900016    2    1    2    0    0 -0.79085520429E+03  0.51063659570E+03 -0.22131664907E+03  0.12035712345E+04  0.71652004187E+03 0.  0.
         23    2    3    3    0    0 -0.11228379286E+03  0.67514010833E+02  0.16515632192E+02  0.16143819108E+03  0.92864049203E+02 0.  0.
         23    2    3    3    0    0 -0.11798166530E+03  0.11078445684E+03 -0.30984554838E+03  0.36148914421E+03  0.92072082124E+02 0.  0.
        -15    1    5    5    0    0 -0.16683371260E+02  0.72452272264E+02 -0.16170531979E+03  0.17797830509E+03  0.00000000000E+00 0. -1.
        -15    1    4    4    0    0  0.15051839433E+02  0.15687942784E+02  0.96559121820E+01  0.23788780111E+02  0.00000000000E+00 0.  1.
         15    1    5    5    0    0 -0.10129829404E+03  0.38332184576E+02 -0.14814022859E+03  0.18351083912E+03  0.00000000000E+00 0.  1.
         15    1    4    4    0    0 -0.12733563230E+03  0.51826068049E+02  0.68597200096E+01  0.13764941097E+03  0.00000000000E+00 0. -1.
        -16    1    1    2    0    0  0.79085520429E+03 -0.51063659570E+03  0.64351296131E+03  0.11403116321E+04  0.00000000000E+00 0.  1.
         16    1    3    3    0    0 -0.39285044548E+03  0.21182917611E+03  0.85619747084E+02  0.45445991402E+03  0.00000000000E+00 0. -1.
    9900018    1    3    3    0    0 -0.16773930065E+03  0.12050895191E+03 -0.13606479960E+02  0.22618398521E+03  0.91187600000E+02 0.  0.
<mgrwt>
<rscale>  0 0.23055449E+04</rscale>
<asrwt>0</asrwt>
<pdfrwt beam="1">  1        4 0.14782204E+00 0.23055449E+04</pdfrwt>
<pdfrwt beam="2">  1       -4 0.21277532E+00 0.23055449E+04</pdfrwt>
<totfact> 0.60858519E-02</totfact>
</mgrwt>
</event>
<event>
12    1  0.4708778E-010  0.8281974E+03  0.7818608E-02  0.9520076E-01
         -1   -1    0    0    0  501 -0.00000000000E+00  0.00000000000E+00  0.12990044814E+03  0.12990044814E+03  0.00000000000E+00 0.  1.
          1   -1    0    0  501    0  0.00000000000E+00 -0.00000000000E+00 -0.13200703257E+04  0.13200703257E+04  0.00000000000E+00 0. -1.
    9900016    2    1    2    0    0 -0.53992731300E+02 -0.80641920755E+02 -0.11264796523E+04  0.13338898572E+04  0.70773399643E+03 0.  0.
         23    2    3    3    0    0 -0.11199945713E+03  0.18536575123E+02 -0.26491669947E+03  0.30256614132E+03  0.92075671037E+02 0.  0.
         23    2    3    3    0    0 -0.87520583081E+01 -0.24836113798E+03 -0.62113430310E+03  0.67523790913E+03  0.91534463710E+02 0.  0.
        -15    1    5    5    0    0 -0.90213755990E+01 -0.43204989907E+02 -0.22330461423E+03  0.22762470672E+03  0.00000000000E+00 0. -1.
        -15    1    4    4    0    0 -0.51768237843E+02 -0.44486376204E+01 -0.21456081208E+03  0.22076250340E+03  0.00000000000E+00 0.  1.
         15    1    5    5    0    0  0.26931729096E+00 -0.20515614808E+03 -0.39782968887E+03  0.44761320241E+03  0.00000000000E+00 0.  1.
         15    1    4    4    0    0 -0.60231219284E+02  0.22985212744E+02 -0.50355887391E+02  0.81803637915E+02  0.00000000000E+00 0. -1.
        -16    1    1    2    0    0  0.53992731300E+02  0.80641920755E+02 -0.63690225288E+02  0.11608091666E+03  0.00000000000E+00 0.  1.
         16    1    3    3    0    0  0.96907825724E+02  0.12519263653E+03 -0.11198044559E+03  0.19391736158E+03  0.00000000000E+00 0. -1.
    9900018    1    3    3    0    0 -0.30149041590E+02  0.23990005577E+02 -0.12844820415E+03  0.16216844520E+03  0.91187600000E+02 0.  0.
<mgrwt>
<rscale>  0 0.82819738E+03</rscale>
<asrwt>0</asrwt>
<pdfrwt beam="1">  1        1 0.20308775E+00 0.82819738E+03</pdfrwt>
<pdfrwt beam="2">  1       -1 0.19984683E-01 0.82819738E+03</pdfrwt>
<totfact> 0.18120888E+02</totfact>
</mgrwt>
</event>
<event>
12    1  0.4708778E-010  0.9803330E+03  0.7818608E-02  0.9330382E-01
          1   -1    0    0  501    0  0.00000000000E+00  0.00000000000E+00  0.28666822411E+03  0.28666822411E+03  0.00000000000E+00 0. -1.
         -1   -1    0    0    0  501 -0.00000000000E+00 -0.00000000000E+00 -0.83812287325E+03  0.83812287325E+03  0.00000000000E+00 0.  1.
    9900016    2    1    2    0    0  0.12760501771E+03  0.12931219565E+03 -0.58090759052E+03  0.94074718889E+03  0.71731928748E+03 0.  0.
         23    2    3    3    0    0 -0.69637371574E+02 -0.13054196865E+03 -0.13643063931E+03  0.22468856288E+03  0.99905264370E+02 0.  0.
         23    2    3    3    0    0 -0.23282358803E+02  0.10836957739E+03  0.22135444052E+02  0.14819890026E+03  0.95848331338E+02 0.  0.
        -15    1    4    4    0    0 -0.92384511171E+02 -0.76755980244E+02 -0.90292540265E+02  0.15026350600E+03  0.00000000000E+00 0.  1.
        -15    1    5    5    0    0 -0.48202910123E+02  0.19411149688E+02 -0.42040340541E+01  0.52134318629E+02  0.00000000000E+00 0. -1.
         15    1    4    4    0    0  0.22747139597E+02 -0.53785988406E+02 -0.46138099045E+02  0.74425056884E+02  0.00000000000E+00 0. -1.
         15    1    5    5    0    0  0.24920551320E+02  0.88958427705E+02  0.26339478106E+02  0.96064581635E+02  0.00000000000E+00 0.  1.
        -16    1    3    3    0    0  0.17742197762E+03  0.85064720081E+02 -0.34040988426E+03  0.39318374082E+03  0.00000000000E+00 0.  1.
         16    1    1    2    0    0 -0.12760501771E+03 -0.12931219565E+03  0.29452941378E+02  0.18404390847E+03  0.00000000000E+00 0. -1.
    9900018    1    3    3    0    0  0.43102770474E+02  0.66419866825E+02 -0.12620251100E+03  0.17467598492E+03  0.91187600000E+02 0.  0.
<mgrwt>
<rscale>  0 0.98033300E+03</rscale>
<asrwt>0</asrwt>
<pdfrwt beam="1">  1        1 0.44102803E-01 0.98033300E+03</pdfrwt>
<pdfrwt beam="2">  1       -1 0.12894198E+00 0.98033300E+03</pdfrwt>
<totfact> 0.48364768E+01</totfact>
</mgrwt>
</event>
<event>
12    1  0.4708778E-010  0.8703527E+03  0.7818608E-02  0.9463420E-01
         -1   -1    0    0    0  501 -0.00000000000E+00  0.00000000000E+00  0.12076021497E+03  0.12076021497E+03  0.00000000000E+00 0.  1.
          1   -1    0    0  501    0  0.00000000000E+00 -0.00000000000E+00 -0.15682189850E+04  0.15682189850E+04  0.00000000000E+00 0. -1.
    9900016    2    1    2    0    0  0.11637923885E+03 -0.32410939433E+02 -0.13616763989E+04  0.15408130384E+04  0.71087805406E+03 0.  0.
         23    2    3    3    0    0  0.57317204590E+02 -0.77292204235E+02 -0.95544280403E+02  0.16393662522E+03  0.92125787880E+02 0.  0.
         23    2    3    3    0    0 -0.42440977740E+02 -0.21104076941E+03 -0.46341771252E+03  0.51897443415E+03  0.90769180209E+02 0.  0.
        -15    1    5    5    0    0  0.58711021350E+01 -0.17035652993E+03 -0.33715029745E+03  0.37779113304E+03  0.00000000000E+00 0.  1.
        -15    1    4    4    0    0  0.40022163214E+02 -0.90614931322E+02 -0.10096179543E+03  0.14144300429E+03  0.00000000000E+00 0.  1.
         15    1    5    5    0    0 -0.48312079875E+02 -0.40684239479E+02 -0.12626741507E+03  0.14118330111E+03  0.00000000000E+00 0. -1.
         15    1    4    4    0    0  0.17295041376E+02  0.13322727087E+02  0.54175150282E+01  0.22493620925E+02  0.00000000000E+00 0. -1.
        -16    1    1    2    0    0 -0.11637923885E+03  0.32410939433E+02 -0.85782371075E+02  0.14816616151E+03  0.00000000000E+00 0.  1.
         16    1    3    3    0    0  0.47570739214E+02  0.41126702458E+02 -0.15084609470E+03  0.16342865468E+03  0.00000000000E+00 0. -1.
    9900018    1    3    3    0    0  0.53932272786E+02  0.21479533176E+03 -0.65186831130E+03  0.69447332437E+03  0.91187600000E+02 0.  0.
<mgrwt>
<rscale>  0 0.87035271E+03</rscale>
<asrwt>0</asrwt>
<pdfrwt beam="1">  1        1 0.24126447E+00 0.87035271E+03</pdfrwt>
<pdfrwt beam="2">  1       -1 0.18578494E-01 0.87035271E+03</pdfrwt>
<totfact> 0.13731257E+02</totfact>
</mgrwt>
</event>
<event>
12    1  0.4708778E-010  0.1222757E+04  0.7818608E-02  0.9093167E-01
          2   -1    0    0  501    0  0.00000000000E+00  0.00000000000E+00  0.31521801998E+04  0.31521801998E+04  0.00000000000E+00 0. -1.
         -2   -1    0    0    0  501 -0.00000000000E+00 -0.00000000000E+00 -0.11857944582E+03  0.11857944582E+03  0.00000000000E+00 0.  1.
    9900016    2    1    2    0    0  0.36616659962E+03 -0.12083520022E+03  0.23631039638E+04  0.24972966085E+04  0.70961319210E+03 0.  0.
         23    2    3    3    0    0 -0.65012394204E+02 -0.19774561261E+02  0.15558983816E+03  0.19448911608E+03  0.94869246125E+02 0.  0.
         23    2    3    3    0    0  0.48411152699E+03 -0.56245493208E+02  0.17808038946E+04  0.18485463594E+04  0.91288583439E+02 0.  0.
        -15    1    5    5    0    0  0.14321813920E+03  0.78096106268E+01  0.65499423502E+03  0.67051463319E+03  0.00000000000E+00 0. -1.
        -15    1    4    4    0    0  0.19741330364E+02  0.12333256489E+02  0.16715212285E+02  0.28657070016E+02  0.00000000000E+00 0. -1.
         15    1    5    5    0    0  0.34089338779E+03 -0.64055103835E+02  0.11258096596E+04  0.11780317262E+04  0.00000000000E+00 0.  1.
         15    1    4    4    0    0 -0.84753724568E+02 -0.32107817750E+02  0.13887462588E+03  0.16583204606E+03  0.00000000000E+00 0.  1.
        -16    1    3    3    0    0 -0.46814167816E+02 -0.23783483523E+02  0.23560208047E+03  0.24138260235E+03  0.00000000000E+00 0.  1.
         16    1    1    2    0    0 -0.36616659962E+03  0.12083520022E+03  0.67049679018E+03  0.77346303721E+03  0.00000000000E+00 0. -1.
    9900018    1    3    3    0    0 -0.61183653526E+01 -0.21031662224E+02  0.19110815056E+03  0.21287853066E+03  0.91187600000E+02 0.  0.
<mgrwt>
<rscale>  0 0.12227572E+04</rscale>
<asrwt>0</asrwt>
<pdfrwt beam="1">  1        2 0.48495074E+00 0.12227572E+04</pdfrwt>
<pdfrwt beam="2">  1       -2 0.18242994E-01 0.12227572E+04</pdfrwt>
<totfact> 0.35031041E+01</totfact>
</mgrwt>
</event>
<event>
12    1  0.4708778E-010  0.7847602E+03  0.7818608E-02  0.9582342E-01
          2   -1    0    0  501    0  0.00000000000E+00  0.00000000000E+00  0.43491672062E+03  0.43491672062E+03  0.00000000000E+00 0.  1.
         -2   -1    0    0    0  501 -0.00000000000E+00 -0.00000000000E+00 -0.35400372130E+03  0.35400372130E+03  0.00000000000E+00 0. -1.
    9900016    2    1    2    0    0 -0.13321985526E+02 -0.43056268332E+02  0.51767891280E+02  0.73524777789E+03  0.73203692720E+03 0.  0.
         23    2    3    3    0    0  0.45220525644E+02  0.76405237379E+02 -0.97169666743E+02  0.16091239976E+03  0.92564572186E+02 0.  0.
         23    2    3    3    0    0 -0.77204429254E+02 -0.85544562159E+02  0.79126991455E+02  0.16710071305E+03  0.91559660960E+02 0.  0.
        -15    1    5    5    0    0 -0.54096633083E+02 -0.91382672521E+02  0.26683554199E+02  0.10949543649E+03  0.00000000000E+00 0. -1.
        -15    1    4    4    0    0  0.33213515231E+02  0.24048702307E+02 -0.99009617745E+02  0.10716520929E+03  0.00000000000E+00 0.  1.
         15    1    4    4    0    0  0.12007010412E+02  0.52356535071E+02  0.18399510019E+01  0.53747190470E+02  0.00000000000E+00 0. -1.
         15    1    5    5    0    0 -0.23107796171E+02  0.58381103625E+01  0.52443437256E+02  0.57605276562E+02  0.00000000000E+00 0.  1.
        -16    1    1    2    0    0  0.13321985526E+02  0.43056268332E+02  0.29145108044E+02  0.53672664028E+02  0.00000000000E+00 0.  1.
         16    1    3    3    0    0 -0.10900521810E+03  0.12109953189E+03 -0.29109273035E+02  0.16551309305E+03  0.00000000000E+00 0. -1.
    9900018    1    3    3    0    0  0.12766713618E+03 -0.15501647544E+03  0.98919839603E+02  0.24172157202E+03  0.91187600000E+02 0.  0.
<mgrwt>
<rscale>  0 0.78476019E+03</rscale>
<asrwt>0</asrwt>
<pdfrwt beam="1">  1        2 0.66910265E-01 0.78476019E+03</pdfrwt>
<pdfrwt beam="2">  1       -2 0.54462111E-01 0.78476019E+03</pdfrwt>
<totfact> 0.23125742E+02</totfact>
</mgrwt>
</event>
<event>
12    1  0.4708778E-010  0.1130484E+04  0.7818608E-02  0.9175979E-01
          2   -1    0    0  501    0  0.00000000000E+00  0.00000000000E+00  0.15435193194E+04  0.15435193194E+04  0.00000000000E+00 0. -1.
         -2   -1    0    0    0  501 -0.00000000000E+00 -0.00000000000E+00 -0.20699361264E+03  0.20699361264E+03  0.00000000000E+00 0.  1.
    9900016    2    1    2    0    0  0.22096959467E+03 -0.19032171961E+03  0.11808783923E+04  0.14199437181E+04  0.73260935464E+03 0.  0.
         23    2    3    3    0    0 -0.46808958536E+02 -0.22843549813E+02  0.15028411703E+03  0.18489034872E+03  0.94266743087E+02 0.  0.
         23    2    3    3    0    0  0.30800374042E+03 -0.16550642615E+03  0.39490448896E+03  0.53497738159E+03  0.89401130865E+02 0.  0.
        -15    1    4    4    0    0 -0.19815176559E+02 -0.43826278046E+02  0.23413594457E+02  0.53493740520E+02  0.00000000000E+00 0.  1.
        -15    1    5    5    0    0  0.17119754378E+03 -0.44293787853E+02  0.21679409150E+03  0.27976814820E+03  0.00000000000E+00 0.  1.
         15    1    5    5    0    0  0.13680619665E+03 -0.12121263830E+03  0.17811039745E+03  0.25520923339E+03  0.00000000000E+00 0. -1.
         15    1    4    4    0    0 -0.26993781977E+02  0.20982728233E+02  0.12687052257E+03  0.13139660820E+03  0.00000000000E+00 0. -1.
        -16    1    1    2    0    0 -0.22096959467E+03  0.19032171961E+03  0.15564731456E+03  0.33056921401E+03  0.00000000000E+00 0.  1.
         16    1    3    3    0    0 -0.31646186603E+02 -0.31585237184E+02  0.59315611854E+03  0.59483887675E+03  0.00000000000E+00 0. -1.
    9900018    1    3    3    0    0 -0.85790006147E+01  0.29613493545E+02  0.42533667732E+02  0.10523711102E+03  0.91187600000E+02 0.  0.
<mgrwt>
<rscale>  0 0.11304842E+04</rscale>
<asrwt>0</asrwt>
<pdfrwt beam="1">  1        2 0.23746450E+00 0.11304842E+04</pdfrwt>
<pdfrwt beam="2">  1       -2 0.31845172E-01 0.11304842E+04</pdfrwt>
<totfact> 0.10892654E+02</totfact>
</mgrwt>
</event>
<event>
12    1  0.4708778E-010  0.1053400E+04  0.7818608E-02  0.9251841E-01
          1   -1    0    0  501    0  0.00000000000E+00  0.00000000000E+00  0.11086057620E+04  0.11086057620E+04  0.00000000000E+00 0. -1.
         -1   -1    0    0    0  501 -0.00000000000E+00 -0.00000000000E+00 -0.25023591765E+03  0.25023591765E+03  0.00000000000E+00 0.  1.
    9900016    2    1    2    0    0  0.12914764310E+02  0.16092988892E+03  0.93358753175E+03  0.11807323851E+04  0.70461199648E+03 0.  0.
         23    2    3    3    0    0  0.98227905809E+02  0.10690171604E+03  0.23846726368E+03  0.29442602680E+03  0.93505887711E+02 0.  0.
         23    2    3    3    0    0 -0.14557872325E+03 -0.73185108851E+02  0.33509828970E+02  0.18970718894E+03  0.91195855579E+02 0.  0.
        -15    1    4    4    0    0  0.11016411562E+03  0.63367313218E+02  0.18506737957E+03  0.22450274773E+03  0.00000000000E+00 0. -1.
        -15    1    5    5    0    0 -0.71470396549E+02 -0.81369005777E+02  0.38603356645E+02  0.11497457035E+03  0.00000000000E+00 0.  1.
         15    1    5    5    0    0 -0.74108326704E+02  0.81838969265E+01 -0.50935276745E+01  0.74732618581E+02  0.00000000000E+00 0. -1.
         15    1    4    4    0    0 -0.11936209808E+02  0.43534402819E+02  0.53399884111E+02  0.69923279074E+02  0.00000000000E+00 0.  1.
        -16    1    1    2    0    0 -0.12914764310E+02 -0.16092988892E+03 -0.75217687425E+02  0.17810929450E+03  0.00000000000E+00 0.  1.
         16    1    3    3    0    0  0.20190729931E+02  0.41119169596E+02  0.41068586227E+03  0.41323277841E+03  0.00000000000E+00 0. -1.
    9900018    1    3    3    0    0  0.40074851822E+02  0.86094112137E+02  0.25092457683E+03  0.28336639099E+03  0.91187600000E+02 0.  0.
<mgrwt>
<rscale>  0 0.10534002E+04</rscale>
<asrwt>0</asrwt>
<pdfrwt beam="1">  1        1 0.17055473E+00 0.10534002E+04</pdfrwt>
<pdfrwt beam="2">  1       -1 0.38497834E-01 0.10534002E+04</pdfrwt>
<totfact> 0.81474018E+01</totfact>
</mgrwt>
</event>
<event>
12    1  0.4708778E-010  0.1343522E+04  0.7818608E-02  0.8995746E-01
          1   -1    0    0  501    0  0.00000000000E+00  0.00000000000E+00  0.14179379176E+04  0.14179379176E+04  0.00000000000E+00 0. -1.
         -1   -1    0    0    0  501 -0.00000000000E+00 -0.00000000000E+00 -0.31825310458E+03  0.31825310458E+03  0.00000000000E+00 0.  1.
    9900016    2    1    2    0    0 -0.15050666293E+03 -0.21133458166E+03  0.17325995441E+03  0.77412159660E+03  0.70847065820E+03 0.  0.
         23    2    3    3    0    0 -0.18922845297E+02 -0.50106269036E+02 -0.37921380131E+02  0.10998113470E+03  0.88255915656E+02 0.  0.
         23    2    3    3    0    0 -0.12262708070E+03 -0.99151656025E+02  0.27644510932E+03  0.33143869597E+03  0.92527071205E+02 0.  0.
        -15    1    5    5    0    0 -0.84199381615E+02 -0.18698709354E+02  0.89363097639E+02  0.12419718522E+03  0.00000000000E+00 0.  1.
        -15    1    4    4    0    0 -0.48073289972E+02 -0.17349262768E+02 -0.41710670096E+02  0.65968311538E+02  0.00000000000E+00 0. -1.
         15    1    5    5    0    0 -0.38427699084E+02 -0.80452946672E+02  0.18708201168E+03  0.20724151075E+03  0.00000000000E+00 0. -1.
         15    1    4    4    0    0  0.29150444675E+02 -0.32757006268E+02  0.37892899647E+01  0.44012823164E+02  0.00000000000E+00 0.  1.
        -16    1    3    3    0    0 -0.11999868945E+03  0.63042172238E+02 -0.21986160973E+02  0.13732222043E+03  0.00000000000E+00 0.  1.
         16    1    1    2    0    0  0.15050666293E+03  0.21133458166E+03  0.92642485859E+03  0.96206942557E+03  0.00000000000E+00 0. -1.
    9900018    1    3    3    0    0  0.11104195251E+03 -0.12511882884E+03 -0.43277613804E+02  0.19537954549E+03  0.91187600000E+02 0.  0.
<mgrwt>
<rscale>  0 0.13435225E+04</rscale>
<asrwt>0</asrwt>
<pdfrwt beam="1">  1        1 0.21814429E+00 0.13435225E+04</pdfrwt>
<pdfrwt beam="2">  1       -1 0.48962017E-01 0.13435225E+04</pdfrwt>
<totfact> 0.30526944E+01</totfact>
</mgrwt>
</event>
<event>
12    1  0.4708778E-010  0.1008285E+04  0.7818608E-02  0.9299504E-01
         -1   -1    0    0    0  501 -0.00000000000E+00  0.00000000000E+00  0.19626996636E+03  0.19626996636E+03  0.00000000000E+00 0.  1.
          1   -1    0    0  501    0  0.00000000000E+00 -0.00000000000E+00 -0.12949499177E+04  0.12949499177E+04  0.00000000000E+00 0. -1.
    9900016    2    1    2    0    0  0.10328499214E+03  0.10455592383E+03 -0.55460311770E+03  0.92764262075E+03  0.72892831120E+03 0.  0.
         23    2    3    3    0    0  0.80359936886E+02 -0.93095309039E+02 -0.16952422005E+02  0.15172147567E+03  0.87221359457E+02 0.  0.
         23    2    3    3    0    0 -0.11547739299E+03 -0.59018073066E+02 -0.36943579838E+02  0.16286605623E+03  0.91336536727E+02 0.  0.
        -15    1    5    5    0    0 -0.67498946330E+02 -0.56255445339E+02  0.18186111613E+02  0.89730248755E+02  0.00000000000E+00 0.  1.
        -15    1    4    4    0    0  0.84986088695E+02 -0.34066124629E+02 -0.10653846069E+02  0.92177223624E+02  0.00000000000E+00 0. -1.
         15    1    4    4    0    0 -0.46261518089E+01 -0.59029184410E+02 -0.62985759367E+01  0.59544252044E+02  0.00000000000E+00 0.  1.
         15    1    5    5    0    0 -0.47978446656E+02 -0.27626277266E+01 -0.55129691451E+02  0.73135807474E+02  0.00000000000E+00 0. -1.
        -16    1    3    3    0    0  0.12273036137E+02  0.16881638797E+03 -0.29879339074E+03  0.34340514063E+03  0.00000000000E+00 0.  1.
         16    1    1    2    0    0 -0.10328499214E+03 -0.10455592383E+03 -0.54407683365E+03  0.56357726331E+03  0.00000000000E+00 0. -1.
    9900018    1    3    3    0    0  0.12612941210E+03  0.87852917969E+02 -0.20191372511E+03  0.26964994822E+03  0.91187600000E+02 0.  0.
<mgrwt>
<rscale>  0 0.10082852E+04</rscale>
<asrwt>0</asrwt>
<pdfrwt beam="1">  1        1 0.19922306E+00 0.10082852E+04</pdfrwt>
<pdfrwt beam="2">  1       -1 0.30195380E-01 0.10082852E+04</pdfrwt>
<totfact> 0.92131017E+01</totfact>
</mgrwt>
</event>
<event>
12    1  0.4708778E-010  0.8058462E+03  0.7818608E-02  0.9551593E-01
         -1   -1    0    0    0  501 -0.00000000000E+00  0.00000000000E+00  0.41210310058E+03  0.41210310058E+03  0.00000000000E+00 0.  1.
          1   -1    0    0  501    0  0.00000000000E+00 -0.00000000000E+00 -0.39394761475E+03  0.39394761475E+03  0.00000000000E+00 0. -1.
    9900016    2    1    2    0    0  0.14694521830E+02 -0.78404766566E+02  0.45419132963E+02  0.72175040188E+03  0.71588931308E+03 0.  0.
         23    2    3    3    0    0 -0.33301734473E+02  0.43166849539E+02 -0.89382462784E+02  0.13894602442E+03  0.91347636154E+02 0.  0.
         23    2    3    3    0    0 -0.58609582751E+01 -0.55550222604E+02  0.16624810310E+03  0.19863517222E+03  0.93259432730E+02 0.  0.
        -15    1    5    5    0    0  0.42668962453E+02 -0.30953865290E+02  0.64941590453E+02  0.83643244221E+02  0.00000000000E+00 0.  1.
        -15    1    4    4    0    0  0.17806704296E+02 -0.87651623833E+01  0.42564989334E+01  0.20298388425E+02  0.00000000000E+00 0.  1.
         15    1    4    4    0    0 -0.51108438769E+02  0.51932011923E+02 -0.93638961717E+02  0.11864763599E+03  0.00000000000E+00 0. -1.
         15    1    5    5    0    0 -0.48529920728E+02 -0.24596357314E+02  0.10130651265E+03  0.11499192800E+03  0.00000000000E+00 0. -1.
        -16    1    1    2    0    0 -0.14694521830E+02  0.78404766566E+02 -0.27263647130E+02  0.84300313445E+02  0.00000000000E+00 0.  1.
         16    1    3    3    0    0 -0.11869082911E+03  0.74039036163E+02  0.10629654938E+02  0.14029355421E+03  0.00000000000E+00 0. -1.
    9900018    1    3    3    0    0  0.17254804368E+03 -0.14006042966E+03 -0.42076162294E+02  0.24387565103E+03  0.91187600000E+02 0.  0.
<mgrwt>
<rscale>  0 0.80584622E+03</rscale>
<asrwt>0</asrwt>
<pdfrwt beam="1">  1        1 0.60607325E-01 0.80584622E+03</pdfrwt>
<pdfrwt beam="2">  1       -1 0.63400477E-01 0.80584622E+03</pdfrwt>
<totfact> 0.15635066E+02</totfact>
</mgrwt>
</event>
<event>
12    1  0.4708778E-010  0.1092719E+04  0.7818608E-02  0.9212318E-01
         -1   -1    0    0    0  501 -0.00000000000E+00  0.00000000000E+00  0.13803341555E+03  0.13803341555E+03  0.00000000000E+00 0.  1.
          1   -1    0    0  501    0  0.00000000000E+00 -0.00000000000E+00 -0.21625809172E+04  0.21625809172E+04  0.00000000000E+00 0. -1.
    9900016    2    1    2    0    0 -0.30231579081E+03  0.23011681421E+02 -0.12422629085E+04  0.14616306860E+04  0.70797087054E+03 0.  0.
         23    2    3    3    0    0 -0.16584953434E+03  0.10120973245E+03 -0.24996966490E+03  0.32933195749E+03  0.90693036492E+02 0.  0.
         23    2    3    3    0    0  0.74902786698E+02 -0.14553798031E+03 -0.32728289142E+03  0.37675902899E+03  0.89674654995E+02 0.  0.
        -15    1    4    4    0    0 -0.69053092559E+02  0.13526080476E+02 -0.36990453035E+02  0.79495773854E+02  0.00000000000E+00 0.  1.
        -15    1    5    5    0    0  0.58930921163E+02 -0.63228199085E+02 -0.88594413754E+02  0.12377248797E+03  0.00000000000E+00 0.  1.
         15    1    5    5    0    0  0.15971865535E+02 -0.82309781222E+02 -0.23868847766E+03  0.25298654103E+03  0.00000000000E+00 0. -1.
         15    1    4    4    0    0 -0.96796441780E+02  0.87683651973E+02 -0.21297921187E+03  0.24983618363E+03  0.00000000000E+00 0. -1.
        -16    1    3    3    0    0 -0.15669420647E+03  0.40967699307E+02 -0.61344513913E+03  0.63446541706E+03  0.00000000000E+00 0.  1.
         16    1    1    2    0    0  0.30231579081E+03 -0.23011681421E+02 -0.78228459314E+03  0.83898364676E+03  0.00000000000E+00 0. -1.
    9900018    1    3    3    0    0 -0.54674836696E+02  0.26372229972E+02 -0.51565213085E+02  0.12107428247E+03  0.91187600000E+02 0.  0.
<mgrwt>
<rscale>  0 0.10927185E+04</rscale>
<asrwt>0</asrwt>
<pdfrwt beam="1">  1        1 0.33270475E+00 0.10927185E+04</pdfrwt>
<pdfrwt beam="2">  1       -1 0.21235910E-01 0.10927185E+04</pdfrwt>
<totfact> 0.42795472E+01</totfact>
</mgrwt>
</event>
<event>
12    1  0.4708778E-010  0.8812118E+03  0.7818608E-02  0.9449377E-01
          2   -1    0    0  501    0  0.00000000000E+00  0.00000000000E+00  0.68448082034E+03  0.68448082034E+03  0.00000000000E+00 0. -1.
         -2   -1    0    0    0  501 -0.00000000000E+00 -0.00000000000E+00 -0.28362164742E+03  0.28362164742E+03  0.00000000000E+00 0.  1.
    9900016    2    1    2    0    0 -0.93708582382E+02 -0.32813467588E+02  0.19065766092E+03  0.73563161429E+03  0.70352363585E+03 0.  0.
         23    2    3    3    0    0  0.17440729737E+02 -0.75675709811E+02  0.25528678193E+03  0.28166428062E+03  0.90180007990E+02 0.  0.
         23    2    3    3    0    0  0.17108353742E+01  0.12520125363E+02  0.31787239796E+02  0.96384154076E+02  0.90109910922E+02 0.  0.
        -15    1    5    5    0    0  0.41928509767E+02  0.18345062230E+02  0.31830276292E+02  0.55746818100E+02  0.00000000000E+00 0.  1.
        -15    1    4    4    0    0  0.41504947403E+02 -0.44574370913E+02  0.72464617930E+02  0.94660741878E+02  0.00000000000E+00 0.  1.
         15    1    4    4    0    0 -0.24064217666E+02 -0.31101338898E+02  0.18282216400E+03  0.18700353874E+03  0.00000000000E+00 0. -1.
         15    1    5    5    0    0 -0.40217674393E+02 -0.58249368672E+01 -0.43036495990E-01  0.40637335976E+02  0.00000000000E+00 0. -1.
        -16    1    1    2    0    0  0.93708582382E+02  0.32813467588E+02  0.21020151200E+03  0.23247085347E+03  0.00000000000E+00 0.  1.
         16    1    3    3    0    0 -0.17725375242E+03  0.66040321724E+02 -0.13699647888E+03  0.23355567231E+03  0.00000000000E+00 0. -1.
    9900018    1    3    3    0    0  0.64393604925E+02 -0.35698204864E+02  0.40580118081E+02  0.12402750728E+03  0.91187600000E+02 0.  0.
<mgrwt>
<rscale>  0 0.88121184E+03</rscale>
<asrwt>0</asrwt>
<pdfrwt beam="1">  1        2 0.10530474E+00 0.88121184E+03</pdfrwt>
<pdfrwt beam="2">  1       -2 0.43634100E-01 0.88121184E+03</pdfrwt>
<totfact> 0.21066982E+02</totfact>
</mgrwt>
</event>
<event>
12    1  0.4708778E-010  0.9923426E+03  0.7818608E-02  0.9316983E-01
         -1   -1    0    0    0  501 -0.00000000000E+00  0.00000000000E+00  0.34466016192E+03  0.34466016192E+03  0.00000000000E+00 0.  1.
          1   -1    0    0  501    0  0.00000000000E+00 -0.00000000000E+00 -0.71428602762E+03  0.71428602762E+03  0.00000000000E+00 0. -1.
    9900016    2    1    2    0    0 -0.20968352919E+03  0.82966436427E+02 -0.20259263595E+03  0.77832061725E+03  0.71686023401E+03 0.  0.
         23    2    3    3    0    0 -0.60061637042E+02  0.10240337692E+03 -0.87576470952E+02  0.17188794516E+03  0.88215506443E+02 0.  0.
         23    2    3    3    0    0 -0.25963900774E+03 -0.47295062853E+02 -0.96586722848E+02  0.29563544374E+03  0.91771908848E+02 0.  0.
        -15    1    4    4    0    0 -0.28485033985E+02  0.91891751610E+02 -0.22509274811E+02  0.98803636712E+02  0.00000000000E+00 0.  1.
        -15    1    5    5    0    0 -0.23587614018E+03 -0.11593816847E+02 -0.87109993689E+02  0.25171436410E+03  0.00000000000E+00 0. -1.
         15    1    5    5    0    0 -0.23762867567E+02 -0.35701246006E+02 -0.94767291588E+01  0.43921079642E+02  0.00000000000E+00 0.  1.
         15    1    4    4    0    0 -0.31576603057E+02  0.10511625312E+02 -0.65067196141E+02  0.73084308445E+02  0.00000000000E+00 0. -1.
        -16    1    1    2    0    0  0.20968352919E+03 -0.82966436427E+02 -0.16703322974E+03  0.28062557229E+03  0.00000000000E+00 0.  1.
         16    1    3    3    0    0  0.67164582239E+02  0.10776471046E+03 -0.97272368671E+02  0.15995695557E+03  0.00000000000E+00 0. -1.
    9900018    1    3    3    0    0  0.42852533355E+02 -0.79906588100E+02  0.78842926517E+02  0.15084027278E+03  0.91187600000E+02 0.  0.
<mgrwt>
<rscale>  0 0.99234256E+03</rscale>
<asrwt>0</asrwt>
<pdfrwt beam="1">  1        1 0.10989016E+00 0.99234256E+03</pdfrwt>
<pdfrwt beam="2">  1       -1 0.53024641E-01 0.99234256E+03</pdfrwt>
<totfact> 0.95006017E+01</totfact>
</mgrwt>
</event>
<event>
12    1  0.4708778E-010  0.7804403E+03  0.7818608E-02  0.9588769E-01
          1   -1    0    0  501    0  0.00000000000E+00  0.00000000000E+00  0.17243300495E+04  0.17243300495E+04  0.00000000000E+00 0. -1.
         -1   -1    0    0    0  501 -0.00000000000E+00 -0.00000000000E+00 -0.88307784826E+02  0.88307784826E+02  0.00000000000E+00 0.  1.
    9900016    2    1    2    0    0 -0.16844871084E+02  0.97162484578E+01  0.16426627735E+04  0.17920890747E+04  0.71614531279E+03 0.  0.
         23    2    3    3    0    0 -0.47736073926E+02 -0.38314595101E+02  0.31116534613E+03  0.33006228669E+03  0.91490433972E+02 0.  0.
         23    2    3    3    0    0  0.21755954528E+03  0.11779839327E+03  0.44869073706E+03  0.52043651863E+03  0.91225956813E+02 0.  0.
        -15    1    5    5    0    0  0.12609707871E+02  0.38144038570E+02  0.10503083648E+03  0.11245198541E+03  0.00000000000E+00 0.  1.
        -15    1    4    4    0    0 -0.68240759956E+02 -0.47918747149E+01  0.22871122408E+03  0.23872282547E+03  0.00000000000E+00 0. -1.
         15    1    4    4    0    0  0.20504686030E+02 -0.33522720386E+02  0.82454122054E+02  0.91339461214E+02  0.00000000000E+00 0.  1.
         15    1    5    5    0    0  0.20494983741E+03  0.79654354701E+02  0.34365990058E+03  0.40798453322E+03  0.00000000000E+00 0. -1.
        -16    1    1    2    0    0  0.16844871084E+02 -0.97162484578E+01 -0.66405088085E+01  0.20548759650E+02  0.00000000000E+00 0.  1.
         16    1    3    3    0    0 -0.21692188460E+03 -0.27399560222E+02  0.52541698950E+03  0.56909476608E+03  0.00000000000E+00 0. -1.
    9900018    1    3    3    0    0  0.30253542158E+02 -0.42367989491E+02  0.35738970082E+03  0.37249550331E+03  0.91187600000E+02 0.  0.
<mgrwt>
<rscale>  0 0.78044030E+03</rscale>
<asrwt>0</asrwt>
<pdfrwt beam="1">  1        1 0.26528152E+00 0.78044030E+03</pdfrwt>
<pdfrwt beam="2">  1       -1 0.13585814E-01 0.78044030E+03</pdfrwt>
<totfact> 0.18091077E+02</totfact>
</mgrwt>
</event>
<event>
12    1  0.4708778E-010  0.9377023E+03  0.7818608E-02  0.9379641E-01
          1   -1    0    0  501    0  0.00000000000E+00  0.00000000000E+00  0.13232551474E+04  0.13232551474E+04  0.00000000000E+00 0. -1.
         -1   -1    0    0    0  501 -0.00000000000E+00 -0.00000000000E+00 -0.16612170043E+03  0.16612170043E+03  0.00000000000E+00 0.  1.
    9900016    2    1    2    0    0  0.13772799070E+03  0.94931361942E+02  0.76546443129E+03  0.10634829869E+04  0.71908226584E+03 0.  0.
         23    2    3    3    0    0  0.10399411232E+03 -0.31026646060E+01  0.53374693251E+02  0.14790163495E+03  0.90562872172E+02 0.  0.
         23    2    3    3    0    0 -0.83098970649E+02  0.46366319056E+02  0.45308171385E+03  0.47180031663E+03  0.90869273569E+02 0.  0.
        -15    1    5    5    0    0 -0.55484125522E+02 -0.17916007902E+02  0.15460754083E+03  0.16523608324E+03  0.00000000000E+00 0.  1.
        -15    1    4    4    0    0  0.90869611887E+02  0.20907684253E+02  0.63057338657E+01  0.93456834447E+02  0.00000000000E+00 0.  1.
         15    1    4    4    0    0  0.13124500432E+02 -0.24010348860E+02  0.47068959385E+02  0.54444800501E+02  0.00000000000E+00 0. -1.
         15    1    5    5    0    0 -0.27614845127E+02  0.64282326958E+02  0.29847417302E+03  0.30656423338E+03  0.00000000000E+00 0. -1.
        -16    1    3    3    0    0  0.21775287097E+03  0.52593040258E+02  0.15197852975E+03  0.27070244588E+03  0.00000000000E+00 0.  1.
         16    1    1    2    0    0 -0.13772799070E+03 -0.94931361942E+02  0.39166901568E+03  0.42589386090E+03  0.00000000000E+00 0. -1.
    9900018    1    3    3    0    0 -0.10092002193E+03 -0.92533276527E+00  0.10702949444E+03  0.17307858950E+03  0.91187600000E+02 0.  0.
<mgrwt>
<rscale>  0 0.93770229E+03</rscale>
<asrwt>0</asrwt>
<pdfrwt beam="1">  1        1 0.20357771E+00 0.93770229E+03</pdfrwt>
<pdfrwt beam="2">  1       -1 0.25557186E-01 0.93770229E+03</pdfrwt>
<totfact> 0.11803098E+02</totfact>
</mgrwt>
</event>
<event>
12    1  0.4708778E-010  0.1269078E+04  0.7818608E-02  0.9054453E-01
         -2   -1    0    0    0  501 -0.00000000000E+00  0.00000000000E+00  0.28962374744E+03  0.28962374744E+03  0.00000000000E+00 0.  1.
          2   -1    0    0  501    0  0.00000000000E+00 -0.00000000000E+00 -0.13902162289E+04  0.13902162289E+04  0.00000000000E+00 0. -1.
    9900016    2    1    2    0    0 -0.35889756619E+03  0.23778267357E+03 -0.66076118710E+03  0.10643729745E+04  0.71479816705E+03 0.  0.
         23    2    3    3    0    0 -0.12018883671E+03  0.31587360719E+02 -0.14574710361E+03  0.21154406715E+03  0.89808442310E+02 0.  0.
         23    2    3    3    0    0 -0.63721079685E+02  0.30545816022E+02 -0.10254290068E+03  0.15082722535E+03  0.85090437502E+02 0.  0.
        -15    1    4    4    0    0 -0.10363692285E+03 -0.12973216261E+02 -0.86708034682E+02  0.13574682094E+03  0.00000000000E+00 0.  1.
        -15    1    5    5    0    0 -0.60270751496E+02  0.45905803861E+02 -0.38704003804E+02  0.85075885094E+02  0.00000000000E+00 0. -1.
         15    1    5    5    0    0 -0.34503281887E+01 -0.15359987839E+02 -0.63838896878E+02  0.65751340258E+02  0.00000000000E+00 0.  1.
         15    1    4    4    0    0 -0.16551913862E+02  0.44560576980E+02 -0.59039068924E+02  0.75797246208E+02  0.00000000000E+00 0. -1.
        -16    1    1    2    0    0  0.35889756619E+03 -0.23778267357E+03 -0.43983129441E+03  0.61546700188E+03  0.00000000000E+00 0.  1.
         16    1    3    3    0    0  0.76198989939E+02  0.19874294033E+03 -0.37497066616E+03  0.43117054964E+03  0.00000000000E+00 0. -1.
    9900018    1    3    3    0    0 -0.25118663973E+03 -0.23093443504E+02 -0.37500516647E+02  0.27083113236E+03  0.91187600000E+02 0.  0.
<mgrwt>
<rscale>  0 0.12690778E+04</rscale>
<asrwt>0</asrwt>
<pdfrwt beam="1">  1        2 0.21387942E+00 0.12690778E+04</pdfrwt>
<pdfrwt beam="2">  1       -2 0.44557499E-01 0.12690778E+04</pdfrwt>
<totfact> 0.68747957E+01</totfact>
</mgrwt>
</event>
<event>
12    1  0.4708778E-010  0.9264697E+03  0.7818608E-02  0.9393085E-01
         -2   -1    0    0    0  501 -0.00000000000E+00  0.00000000000E+00  0.85446329858E+02  0.85446329858E+02  0.00000000000E+00 0.  1.
          2   -1    0    0  501    0  0.00000000000E+00 -0.00000000000E+00 -0.25113602143E+04  0.25113602143E+04  0.00000000000E+00 0. -1.
    9900016    2    1    2    0    0  0.12007786424E+03  0.13998096816E+02 -0.15039473207E+04  0.16669479609E+04  0.70869127320E+03 0.  0.
         23    2    3    3    0    0 -0.16106518230E+03 -0.57960196761E+02 -0.21180062500E+03  0.28629872550E+03  0.88352012528E+02 0.  0.
         23    2    3    3    0    0  0.19885114048E+03 -0.46653609015E+02 -0.93815570563E+03  0.96430471794E+03  0.89605388901E+02 0.  0.
        -15    1    5    5    0    0  0.99731448698E+02  0.66778907875E+01 -0.58999092094E+03  0.59839806390E+03  0.00000000000E+00 0.  1.
        -15    1    4    4    0    0 -0.65366404875E+02  0.16044007531E+02 -0.10611997806E+03  0.12566473971E+03  0.00000000000E+00 0.  1.
         15    1    4    4    0    0 -0.95698777426E+02 -0.74004204292E+02 -0.10568064694E+03  0.16063398579E+03  0.00000000000E+00 0. -1.
         15    1    5    5    0    0  0.99119691782E+02 -0.53331499803E+02 -0.34816478469E+03  0.36590665404E+03  0.00000000000E+00 0. -1.
        -16    1    3    3    0    0  0.89820872802E+02  0.77278654106E+02 -0.20196301048E+03  0.23415558327E+03  0.00000000000E+00 0.  1.
         16    1    1    2    0    0 -0.12007786424E+03 -0.13998096816E+02 -0.92196656376E+03  0.92985858327E+03  0.00000000000E+00 0. -1.
    9900018    1    3    3    0    0 -0.75289667395E+01  0.41333248487E+02 -0.15202797956E+03  0.18218893417E+03  0.91187600000E+02 0.  0.
<mgrwt>
<rscale>  0 0.92646967E+03</rscale>
<asrwt>0</asrwt>
<pdfrwt beam="1">  1        2 0.38636307E+00 0.92646967E+03</pdfrwt>
<pdfrwt beam="2">  1       -2 0.13145590E-01 0.92646967E+03</pdfrwt>
<totfact> 0.15306490E+02</totfact>
</mgrwt>
</event>
<event>
12    1  0.4708778E-010  0.1576238E+04  0.7818608E-02  0.8835280E-01
         -2   -1    0    0    0  501 -0.00000000000E+00  0.00000000000E+00  0.42234063806E+03  0.42234063806E+03  0.00000000000E+00 0.  1.
          2   -1    0    0  501    0  0.00000000000E+00 -0.00000000000E+00 -0.14706892660E+04  0.14706892660E+04  0.00000000000E+00 0. -1.
    9900016    2    1    2    0    0 -0.24026141910E+03 -0.21823684540E+03 -0.12826511234E+04  0.14927168645E+04  0.69112724085E+03 0.  0.
         23    2    3    3    0    0 -0.43386315974E+02  0.80919223802E+01 -0.80681099573E+02  0.12963965884E+03  0.91373681622E+02 0.  0.
         23    2    3    3    0    0  0.65185814729E+02  0.64625496749E+02 -0.10903941982E+03  0.16674893866E+03  0.86544602364E+02 0.  0.
        -15    1    5    5    0    0  0.33306171190E+02  0.44718976178E+02 -0.48287720049E+01  0.55967891767E+02  0.00000000000E+00 0.  1.
        -15    1    4    4    0    0 -0.70417649715E+02  0.10688146063E+02 -0.43016710696E+02  0.83206485665E+02  0.00000000000E+00 0. -1.
         15    1    5    5    0    0  0.31879643539E+02  0.19906520571E+02 -0.10421064781E+03  0.11078104689E+03  0.00000000000E+00 0. -1.
         15    1    4    4    0    0  0.27031333741E+02 -0.25962236831E+01 -0.37664388877E+02  0.46433173170E+02  0.00000000000E+00 0.  1.
        -16    1    1    2    0    0  0.24026141910E+03  0.21823684540E+03  0.23430249551E+03  0.40031303951E+03  0.00000000000E+00 0.  1.
         16    1    3    3    0    0 -0.24790627408E+03 -0.10427959630E+03 -0.72907017589E+03  0.77709399451E+03  0.00000000000E+00 0. -1.
    9900018    1    3    3    0    0 -0.14154643777E+02 -0.18667466823E+03 -0.36386042815E+03  0.41923427253E+03  0.91187600000E+02 0.  0.
<mgrwt>
<rscale>  0 0.15762384E+04</rscale>
<asrwt>0</asrwt>
<pdfrwt beam="1">  1        2 0.22625989E+00 0.15762384E+04</pdfrwt>
<pdfrwt beam="2">  1       -2 0.64975482E-01 0.15762384E+04</pdfrwt>
<totfact> 0.27679641E+01</totfact>
</mgrwt>
</event>
<event>
12    1  0.4708778E-010  0.1628932E+04  0.7818608E-02  0.8802969E-01
         -2   -1    0    0    0  501 -0.00000000000E+00  0.00000000000E+00  0.15646257683E+03  0.15646257683E+03  0.00000000000E+00 0.  1.
          2   -1    0    0  501    0  0.00000000000E+00 -0.00000000000E+00 -0.42397022703E+04  0.42397022703E+04  0.00000000000E+00 0. -1.
    9900016    2    1    2    0    0  0.20225494390E+03  0.90207258790E+02 -0.79330028604E+03  0.10987801689E+04  0.72728818484E+03 0.  0.
         23    2    3    3    0    0 -0.53315144690E+01 -0.22869194359E+01 -0.80750589621E+02  0.12228063814E+03  0.91641921039E+02 0.  0.
         23    2    3    3    0    0  0.28734185898E+03  0.90813310325E+02 -0.49908192393E+03  0.58979641611E+03  0.89244856457E+02 0.  0.
        -15    1    4    4    0    0  0.28215357532E+02  0.16387797994E+02 -0.77091224789E+02  0.83712145255E+02  0.00000000000E+00 0. -1.
        -15    1    5    5    0    0  0.91129049793E+02 -0.97167892635E+01 -0.17955973711E+03  0.20159518571E+03  0.00000000000E+00 0.  1.
         15    1    5    5    0    0  0.19621280919E+03  0.10053009959E+03 -0.31952218682E+03  0.38820123040E+03  0.00000000000E+00 0. -1.
         15    1    4    4    0    0 -0.33546872001E+02 -0.18674717429E+02 -0.36593648326E+01  0.38568492881E+02  0.00000000000E+00 0.  1.
        -16    1    3    3    0    0 -0.11669719515E+03 -0.10961286289E+03 -0.54482797698E+02  0.16912004705E+03  0.00000000000E+00 0.  1.
         16    1    1    2    0    0 -0.20225494390E+03 -0.90207258790E+02 -0.32899394074E+04  0.32973846783E+04  0.00000000000E+00 0. -1.
    9900018    1    3    3    0    0  0.36941794544E+02  0.11129373080E+03 -0.15898497479E+03  0.21758306759E+03  0.91187600000E+02 0.  0.
<mgrwt>
<rscale>  0 0.16289318E+04</rscale>
<asrwt>0</asrwt>
<pdfrwt beam="1">  1        2 0.65226186E+00 0.16289318E+04</pdfrwt>
<pdfrwt beam="2">  1       -2 0.24071167E-01 0.16289318E+04</pdfrwt>
<totfact> 0.32318859E+00</totfact>
</mgrwt>
</event>
<event>
12    1  0.4708778E-010  0.1207244E+04  0.7818608E-02  0.9106539E-01
          1   -1    0    0  501    0  0.00000000000E+00  0.00000000000E+00  0.54436726470E+03  0.54436726470E+03  0.00000000000E+00 0. -1.
         -1   -1    0    0    0  501 -0.00000000000E+00 -0.00000000000E+00 -0.66932692328E+03  0.66932692328E+03  0.00000000000E+00 0.  1.
    9900016    2    1    2    0    0 -0.78326943128E+02  0.52951518893E+02 -0.46289319705E+03  0.86278387208E+03  0.72193277019E+03 0.  0.
         23    2    3    3    0    0 -0.54417247883E+02 -0.81458601396E+01 -0.23035579142E+02  0.10920770316E+03  0.91477279250E+02 0.  0.
         23    2    3    3    0    0 -0.29861090741E+02  0.83128537224E+02 -0.38454112755E+03  0.40536861411E+03  0.93004279907E+02 0.  0.
        -15    1    4    4    0    0  0.18665087583E+02  0.20974872607E+02 -0.57072382800E+01  0.28651410858E+02  0.00000000000E+00 0.  1.
        -15    1    5    5    0    0  0.21369699717E+01  0.59226047028E+02 -0.34168508030E+03  0.34678665687E+03  0.00000000000E+00 0.  1.
         15    1    4    4    0    0 -0.73082335466E+02 -0.29120732746E+02 -0.17328340862E+02  0.80556292305E+02  0.00000000000E+00 0. -1.
         15    1    5    5    0    0 -0.31998060712E+02  0.23902490196E+02 -0.42856047258E+02  0.58581957235E+02  0.00000000000E+00 0. -1.
        -16    1    3    3    0    0 -0.49924237302E+02  0.13997896451E+03 -0.10561609943E+02  0.14899022646E+03  0.00000000000E+00 0.  1.
         16    1    1    2    0    0  0.78326943128E+02 -0.52951518893E+02  0.33793353848E+03  0.35091031589E+03  0.00000000000E+00 0. -1.
    9900018    1    3    3    0    0  0.55875632798E+02 -0.16201012271E+03 -0.44754880416E+02  0.19921732835E+03  0.91187600000E+02 0.  0.
<mgrwt>
<rscale>  0 0.12072442E+04</rscale>
<asrwt>0</asrwt>
<pdfrwt beam="1">  1        1 0.83748810E-01 0.12072442E+04</pdfrwt>
<pdfrwt beam="2">  1       -1 0.10297337E+00 0.12072442E+04</pdfrwt>
<totfact> 0.34703249E+01</totfact>
</mgrwt>
</event>
<event>
12    1  0.4708778E-010  0.1078356E+04  0.7818608E-02  0.9226548E-01
          3   -1    0    0  501    0  0.00000000000E+00  0.00000000000E+00  0.74836460940E+03  0.74836460940E+03  0.00000000000E+00 0. -1.
         -3   -1    0    0    0  501 -0.00000000000E+00 -0.00000000000E+00 -0.38846452074E+03  0.38846452074E+03  0.00000000000E+00 0.  1.
    9900016    2    1    2    0    0  0.10469664704E+03  0.21334212718E+03  0.45947827116E+03  0.87916255188E+03  0.71086585220E+03 0.  0.
         23    2    3    3    0    0  0.13041776083E+03  0.92941857296E+02  0.15104621774E+03  0.23819323113E+03  0.90961938661E+02 0.  0.
         23    2    3    3    0    0 -0.21303012393E+02  0.89753797504E+02  0.29825639447E+03  0.32431039915E+03  0.87811136257E+02 0.  0.
        -15    1    4    4    0    0  0.56186433172E+02 -0.10677285258E+01  0.83582811909E+02  0.10071813026E+03  0.00000000000E+00 0. -1.
        -15    1    5    5    0    0 -0.21379245253E+02  0.10719754976E+03  0.26713109941E+03  0.28863023244E+03  0.00000000000E+00 0. -1.
         15    1    4    4    0    0  0.74231327656E+02  0.94009585821E+02  0.67463405828E+02  0.13747510086E+03  0.00000000000E+00 0.  1.
         15    1    5    5    0    0  0.76232860571E-01 -0.17443752258E+02  0.31125295062E+02  0.35680166717E+02  0.00000000000E+00 0.  1.
        -16    1    1    2    0    0 -0.10469664704E+03 -0.21334212718E+03 -0.99578182494E+02  0.25766657827E+03  0.00000000000E+00 0.  1.
         16    1    3    3    0    0  0.26707585781E+02 -0.12776824568E+03 -0.49758789764E+01  0.13062457317E+03  0.00000000000E+00 0. -1.
    9900018    1    3    3    0    0 -0.31125687177E+02  0.15841471806E+03  0.15151537922E+02  0.18603434843E+03  0.91187600000E+02 0.  0.
<mgrwt>
<rscale>  0 0.10783563E+04</rscale>
<asrwt>0</asrwt>
<pdfrwt beam="1">  1        3 0.11513302E+00 0.10783563E+04</pdfrwt>
<pdfrwt beam="2">  1       -3 0.59763772E-01 0.10783563E+04</pdfrwt>
<totfact> 0.44676556E+00</totfact>
</mgrwt>
</event>
<event>
12    1  0.4708778E-010  0.1127970E+04  0.7818608E-02  0.9178351E-01
         -2   -1    0    0    0  501 -0.00000000000E+00  0.00000000000E+00  0.23354510179E+03  0.23354510179E+03  0.00000000000E+00 0.  1.
          2   -1    0    0  501    0  0.00000000000E+00 -0.00000000000E+00 -0.13619593338E+04  0.13619593338E+04  0.00000000000E+00 0. -1.
    9900016    2    1    2    0    0  0.49232110499E+02  0.59180782509E+01 -0.29821781609E+03  0.76382846903E+03  0.70145651320E+03 0.  0.
         23    2    3    3    0    0  0.58651825486E+02  0.12946857678E+03 -0.18771996478E+03  0.25261261963E+03  0.91499734493E+02 0.  0.
         23    2    3    3    0    0 -0.13090435946E+03  0.11285461922E+02 -0.12415327657E+03  0.20317935994E+03  0.92760461652E+02 0.  0.
        -15    1    5    5    0    0  0.66104376279E+01 -0.18185297825E+02 -0.86684962712E+01  0.21202494434E+02  0.00000000000E+00 0. -1.
        -15    1    4    4    0    0 -0.10293107724E+02  0.87445611037E+02 -0.10474117556E+03  0.13683346379E+03  0.00000000000E+00 0. -1.
         15    1    4    4    0    0  0.68944933210E+02  0.42022965738E+02 -0.82978789224E+02  0.11577915584E+03  0.00000000000E+00 0.  1.
         15    1    5    5    0    0 -0.13751479709E+03  0.29470759747E+02 -0.11548478030E+03  0.18197686551E+03  0.00000000000E+00 0.  1.
        -16    1    3    3    0    0  0.15952334104E+03 -0.13141035620E+03  0.26387909261E+02  0.20835714484E+03  0.00000000000E+00 0.  1.
         16    1    1    2    0    0 -0.49232110499E+02 -0.59180782509E+01 -0.83019641597E+03  0.83167596661E+03  0.00000000000E+00 0. -1.
    9900018    1    3    3    0    0 -0.38038696560E+02 -0.34256042491E+01 -0.12732483994E+02  0.99679344615E+02  0.91187600000E+02 0.  0.
<mgrwt>
<rscale>  0 0.11279697E+04</rscale>
<asrwt>0</asrwt>
<pdfrwt beam="1">  1        2 0.20953220E+00 0.11279697E+04</pdfrwt>
<pdfrwt beam="2">  1       -2 0.35930016E-01 0.11279697E+04</pdfrwt>
<totfact> 0.10978990E+02</totfact>
</mgrwt>
</event>
<event>
12    1  0.4708778E-010  0.2245373E+04  0.7818608E-02  0.8499777E-01
         -2   -1    0    0    0  501 -0.00000000000E+00  0.00000000000E+00  0.62224101594E+03  0.62224101594E+03  0.00000000000E+00 0.  1.
          2   -1    0    0  501    0  0.00000000000E+00 -0.00000000000E+00 -0.20256212238E+04  0.20256212238E+04  0.00000000000E+00 0. -1.
    9900016    2    1    2    0    0 -0.43112442014E+03  0.28368495750E+03 -0.17968542422E+04  0.19988882522E+04  0.70747696521E+03 0.  0.
         23    2    3    3    0    0 -0.13992566038E+03  0.12014724452E+03 -0.58503427196E+03  0.61999352036E+03  0.90068391419E+02 0.  0.
         23    2    3    3    0    0 -0.18576796646E+03 -0.70403815317E+02 -0.63044728354E+03  0.66745598612E+03  0.92559610570E+02 0.  0.
        -15    1    5    5    0    0 -0.10710982597E+03 -0.58303351719E+02 -0.49993114640E+03  0.51459007645E+03  0.00000000000E+00 0.  1.
        -15    1    4    4    0    0 -0.17215802389E+02 -0.10845841636E+02 -0.27035050396E+02  0.33836519954E+02  0.00000000000E+00 0. -1.
         15    1    5    5    0    0 -0.78658140489E+02 -0.12100463598E+02 -0.13051613714E+03  0.15286590967E+03  0.00000000000E+00 0. -1.
         15    1    4    4    0    0 -0.12270985799E+03  0.13099308616E+03 -0.55799922156E+03  0.58615700041E+03  0.00000000000E+00 0.  1.
        -16    1    1    2    0    0  0.43112442014E+03 -0.28368495750E+03  0.39347403437E+03  0.64897398752E+03  0.00000000000E+00 0.  1.
         16    1    3    3    0    0  0.21310422447E+02  0.18041168986E+03 -0.49040899798E+03  0.52297561821E+03  0.00000000000E+00 0. -1.
    9900018    1    3    3    0    0 -0.12674121575E+03  0.53529838433E+02 -0.90963688758E+02  0.18846312753E+03  0.91187600000E+02 0.  0.
<mgrwt>
<rscale>  0 0.22453727E+04</rscale>
<asrwt>0</asrwt>
<pdfrwt beam="1">  1        2 0.31163403E+00 0.22453727E+04</pdfrwt>
<pdfrwt beam="2">  1       -2 0.95729389E-01 0.22453727E+04</pdfrwt>
<totfact> 0.53894781E+00</totfact>
</mgrwt>
</event>
<event>
12    1  0.4708778E-010  0.9605855E+03  0.7818608E-02  0.9352863E-01
         -1   -1    0    0    0  501 -0.00000000000E+00  0.00000000000E+00  0.72003451950E+02  0.72003451950E+02  0.00000000000E+00 0.  1.
          1   -1    0    0  501    0  0.00000000000E+00 -0.00000000000E+00 -0.32037512564E+04  0.32037512564E+04  0.00000000000E+00 0. -1.
    9900016    2    1    2    0    0  0.67501626619E+02  0.19614441885E+03 -0.23869977384E+04  0.25026559026E+04  0.72284110345E+03 0.  0.
         23    2    3    3    0    0 -0.18181978763E+03  0.10017079808E+01 -0.68304347053E+03  0.71271219237E+03  0.91382973911E+02 0.  0.
         23    2    3    3    0    0  0.71971416854E+02  0.11819190702E+03 -0.30875817991E+03  0.35162376214E+03  0.95699763403E+02 0.  0.
        -15    1    5    5    0    0  0.38878196534E+02  0.25838720924E+02 -0.28505868665E+02  0.54696784303E+02  0.00000000000E+00 0.  1.
        -15    1    4    4    0    0 -0.71084386297E+02 -0.43999229675E+02 -0.26031779714E+03  0.27341228519E+03  0.00000000000E+00 0.  1.
         15    1    5    5    0    0  0.33093220320E+02  0.92353186093E+02 -0.28025231124E+03  0.29692697784E+03  0.00000000000E+00 0. -1.
         15    1    4    4    0    0 -0.11073540133E+03  0.45000937656E+02 -0.42272567339E+03  0.43929990718E+03  0.00000000000E+00 0. -1.
        -16    1    1    2    0    0 -0.67501626619E+02 -0.19614441885E+03 -0.74475006607E+03  0.77309880581E+03  0.00000000000E+00 0.  1.
         16    1    3    3    0    0  0.18485847459E+03  0.35527325992E+02 -0.12348503714E+04  0.12491158018E+04  0.00000000000E+00 0. -1.
    9900018    1    3    3    0    0 -0.75084771961E+01  0.41423477860E+02 -0.16034571654E+03  0.18920414624E+03  0.91187600000E+02 0.  0.
<mgrwt>
<rscale>  0 0.96058555E+03</rscale>
<asrwt>0</asrwt>
<pdfrwt beam="1">  1        1 0.49288474E+00 0.96058555E+03</pdfrwt>
<pdfrwt beam="2">  1       -1 0.11077456E-01 0.96058555E+03</pdfrwt>
<totfact> 0.23462705E+01</totfact>
</mgrwt>
</event>
<event>
12    1  0.4708778E-010  0.2020750E+04  0.7818608E-02  0.8596980E-01
         -1   -1    0    0    0  501 -0.00000000000E+00  0.00000000000E+00  0.11569291158E+04  0.11569291158E+04  0.00000000000E+00 0.  1.
          1   -1    0    0  501    0  0.00000000000E+00 -0.00000000000E+00 -0.88238592721E+03  0.88238592721E+03  0.00000000000E+00 0. -1.
    9900016    2    1    2    0    0  0.79494243956E+03  0.29504635140E+03  0.37308847696E+03  0.11856775288E+04  0.74003402556E+03 0.  0.
         23    2    3    3    0    0  0.16007751771E+03  0.44718139542E+02  0.22563474556E+03  0.29570169813E+03  0.94360649612E+02 0.  0.
         23    2    3    3    0    0  0.53534626277E+03  0.27962619483E+03  0.46368720849E+02  0.61259508895E+03  0.91303093237E+02 0.  0.
        -15    1    5    5    0    0  0.73311636351E+02  0.33839689585E+02 -0.24726429567E+02  0.84445940902E+02  0.00000000000E+00 0.  1.
        -15    1    4    4    0    0  0.43858843113E+02  0.16280891709E+02  0.14256399926E+03  0.15004385839E+03  0.00000000000E+00 0. -1.
         15    1    5    5    0    0  0.46203462642E+03  0.24578650524E+03  0.71095150416E+02  0.52814914805E+03  0.00000000000E+00 0. -1.
         15    1    4    4    0    0  0.11621867460E+03  0.28437247832E+02  0.83070746298E+02  0.14565783975E+03  0.00000000000E+00 0.  1.
        -16    1    3    3    0    0 -0.21146250579E+02 -0.91953489183E+02  0.42770167260E+02  0.10359486133E+03  0.00000000000E+00 0.  1.
         16    1    1    2    0    0 -0.79494243956E+03 -0.29504635140E+03 -0.98545288421E+02  0.85363751415E+03  0.00000000000E+00 0. -1.
    9900018    1    3    3    0    0  0.12066490966E+03  0.62655506217E+02  0.58314843294E+02  0.17378588040E+03  0.91187600000E+02 0.  0.
<mgrwt>
<rscale>  0 0.20207503E+04</rscale>
<asrwt>0</asrwt>
<pdfrwt beam="1">  1        1 0.13575168E+00 0.20207503E+04</pdfrwt>
<pdfrwt beam="2">  1       -1 0.17798910E+00 0.20207503E+04</pdfrwt>
<totfact> 0.37489882E+00</totfact>
</mgrwt>
</event>
<event>
12    1  0.4708778E-010  0.8101194E+03  0.7818608E-02  0.9545484E-01
         -1   -1    0    0    0  501 -0.00000000000E+00  0.00000000000E+00  0.64965018530E+02  0.64965018530E+02  0.00000000000E+00 0.  1.
          1   -1    0    0  501    0  0.00000000000E+00 -0.00000000000E+00 -0.25255648966E+04  0.25255648966E+04  0.00000000000E+00 0. -1.
    9900016    2    1    2    0    0 -0.14207611669E+02 -0.10374756611E+03 -0.20872145853E+04  0.22027387464E+04  0.69615217160E+03 0.  0.
         23    2    3    3    0    0  0.37139642275E+02 -0.63398454814E+01 -0.23419310283E+03  0.25445394987E+03  0.92091565955E+02 0.  0.
         23    2    3    3    0    0 -0.69940324656E+02 -0.21470389123E+03 -0.63120032147E+03  0.67660238423E+03  0.91583462485E+02 0.  0.
        -15    1    5    5    0    0  0.59177259065E+01 -0.56933056457E+02 -0.25954062111E+03  0.26577758823E+03  0.00000000000E+00 0. -1.
        -15    1    4    4    0    0 -0.17836834932E+02  0.20968721897E+02 -0.27793031393E+02  0.39118954132E+02  0.00000000000E+00 0.  1.
         15    1    5    5    0    0 -0.75858050563E+02 -0.15777083477E+03 -0.37165970036E+03  0.41082479600E+03  0.00000000000E+00 0.  1.
         15    1    4    4    0    0  0.54976477207E+02 -0.27308567378E+02 -0.20640007144E+03  0.21533499574E+03  0.00000000000E+00 0. -1.
        -16    1    3    3    0    0 -0.73105974873E+02  0.10165804655E+03 -0.16638163849E+03  0.20823470320E+03  0.00000000000E+00 0.  1.
         16    1    1    2    0    0  0.14207611669E+02  0.10374756611E+03 -0.37338529274E+03  0.38779116872E+03  0.00000000000E+00 0. -1.
    9900018    1    3    3    0    0  0.91699045585E+02  0.15638124050E+02 -0.10554395225E+04  0.10634477091E+04  0.91187600000E+02 0.  0.
<mgrwt>
<rscale>  0 0.81011942E+03</rscale>
<asrwt>0</asrwt>
<pdfrwt beam="1">  1        1 0.38854848E+00 0.81011942E+03</pdfrwt>
<pdfrwt beam="2">  1       -1 0.99946173E-02 0.81011942E+03</pdfrwt>
<totfact> 0.85136622E+01</totfact>
</mgrwt>
</event>
<event>
12    1  0.4708778E-010  0.1223850E+04  0.7818608E-02  0.9092233E-01
          2   -1    0    0  501    0  0.00000000000E+00  0.00000000000E+00  0.19541457024E+04  0.19541457024E+04  0.00000000000E+00 0. -1.
         -2   -1    0    0    0  501 -0.00000000000E+00 -0.00000000000E+00 -0.19161950478E+03  0.19161950478E+03  0.00000000000E+00 0.  1.
    9900016    2    1    2    0    0  0.39579409166E+02  0.29315192610E+03  0.16657998863E+04  0.18345409140E+04  0.70932821907E+03 0.  0.
         23    2    3    3    0    0 -0.60015792889E+02  0.15293093967E+03  0.24648598357E+03  0.30896130379E+03  0.87817876555E+02 0.  0.
         23    2    3    3    0    0 -0.15171713868E+03 -0.36486412368E+02  0.33558689021E+03  0.38165018637E+03  0.93214566590E+02 0.  0.
        -15    1    5    5    0    0  0.89676325807E+01 -0.74845795366E+01  0.45512827922E+01  0.12536009732E+02  0.00000000000E+00 0.  1.
        -15    1    4    4    0    0  0.20354618236E+02  0.55889059009E+02  0.92795251268E+02  0.11022184928E+03  0.00000000000E+00 0.  1.
         15    1    5    5    0    0 -0.16068477126E+03 -0.29001832831E+02  0.33103560741E+03  0.36911417664E+03  0.00000000000E+00 0. -1.
         15    1    4    4    0    0 -0.80370411125E+02  0.97041880662E+02  0.15369073230E+03  0.19873945451E+03  0.00000000000E+00 0. -1.
        -16    1    1    2    0    0 -0.39579409166E+02 -0.29315192610E+03  0.96726311343E+02  0.31122429326E+03  0.00000000000E+00 0.  1.
         16    1    3    3    0    0  0.17103181601E+03  0.48395440994E+02  0.39957398188E+03  0.43732524257E+03  0.00000000000E+00 0. -1.
    9900018    1    3    3    0    0  0.80280524721E+02  0.12831195780E+03  0.68415303065E+03  0.70660418121E+03  0.91187600000E+02 0.  0.
<mgrwt>
<rscale>  0 0.12238504E+04</rscale>
<asrwt>0</asrwt>
<pdfrwt beam="1">  1        2 0.30063779E+00 0.12238504E+04</pdfrwt>
<pdfrwt beam="2">  1       -2 0.29479925E-01 0.12238504E+04</pdfrwt>
<totfact> 0.74025373E+01</totfact>
</mgrwt>
</event>
<event>
12    1  0.4708778E-010  0.9478832E+03  0.7818608E-02  0.9367628E-01
          1   -1    0    0  501    0  0.00000000000E+00  0.00000000000E+00  0.16595963611E+04  0.16595963611E+04  0.00000000000E+00 0. -1.
         -1   -1    0    0    0  501 -0.00000000000E+00 -0.00000000000E+00 -0.13534655224E+03  0.13534655224E+03  0.00000000000E+00 0.  1.
    9900016    2    1    2    0    0  0.68161955307E+02  0.18872598618E+03  0.11068110518E+04  0.13317813153E+04  0.71298472451E+03 0.  0.
         23    2    3    3    0    0 -0.68735962506E+02  0.30700559387E+02  0.18646126690E+03  0.22089380520E+03  0.91428180720E+02 0.  0.
         23    2    3    3    0    0 -0.37661185720E+02 -0.11695197056E+02  0.13840242070E+03  0.16964383738E+03  0.89825714374E+02 0.  0.
        -15    1    4    4    0    0 -0.72305938709E+01 -0.29527635339E+02  0.67730047471E+02  0.74239625988E+02  0.00000000000E+00 0.  1.
        -15    1    5    5    0    0  0.21435286739E+02  0.10133969967E+02  0.81056552761E+02  0.84453144467E+02  0.00000000000E+00 0.  1.
         15    1    4    4    0    0 -0.61505368635E+02  0.60228194726E+02  0.11873121943E+03  0.14665417921E+03  0.00000000000E+00 0. -1.
         15    1    5    5    0    0 -0.59096472459E+02 -0.21829167023E+02  0.57345867937E+02  0.85190692916E+02  0.00000000000E+00 0. -1.
        -16    1    3    3    0    0 -0.10231813739E+03 -0.91272830653E+01  0.18069540138E+02  0.10430156670E+03  0.00000000000E+00 0.  1.
         16    1    1    2    0    0 -0.68161955307E+02 -0.18872598618E+03  0.41743875708E+03  0.46316159806E+03  0.00000000000E+00 0. -1.
    9900018    1    3    3    0    0  0.27687724092E+03  0.17884790691E+03  0.76387782405E+03  0.83694210601E+03  0.91187600000E+02 0.  0.
<mgrwt>
<rscale>  0 0.94788321E+03</rscale>
<asrwt>0</asrwt>
<pdfrwt beam="1">  1        1 0.25532250E+00 0.94788321E+03</pdfrwt>
<pdfrwt beam="2">  1       -1 0.20822548E-01 0.94788321E+03</pdfrwt>
<totfact> 0.97796651E+01</totfact>
</mgrwt>
</event>
<event>
12    1  0.4708778E-010  0.9951194E+03  0.7818608E-02  0.9313914E-01
         -2   -1    0    0    0  501 -0.00000000000E+00  0.00000000000E+00  0.13598051325E+03  0.13598051325E+03  0.00000000000E+00 0.  1.
          2   -1    0    0  501    0  0.00000000000E+00 -0.00000000000E+00 -0.18205966627E+04  0.18205966627E+04  0.00000000000E+00 0. -1.
    9900016    2    1    2    0    0 -0.15907161183E+03 -0.17934956854E+03 -0.11420763752E+04  0.13634334733E+04  0.70508321760E+03 0.  0.
         23    2    3    3    0    0 -0.45487488637E+01 -0.16767139708E+03 -0.16508447656E+03  0.25298911752E+03  0.92823599756E+02 0.  0.
         23    2    3    3    0    0 -0.10249758404E+03  0.18806868517E+03 -0.66556799019E+03  0.70514954588E+03  0.91539867834E+02 0.  0.
        -15    1    4    4    0    0  0.75615972699E+01 -0.53216703386E+02 -0.11603407809E+03  0.12787924988E+03  0.00000000000E+00 0. -1.
        -15    1    5    5    0    0 -0.53151493967E+02  0.57070881418E+02 -0.36971318135E+03  0.37784918060E+03  0.00000000000E+00 0.  1.
         15    1    5    5    0    0 -0.49346090072E+02  0.13099780375E+03 -0.29585480884E+03  0.32730036527E+03  0.00000000000E+00 0. -1.
         15    1    4    4    0    0 -0.12110346134E+02 -0.11445469369E+03 -0.49050398467E+02  0.12510986764E+03  0.00000000000E+00 0.  1.
        -16    1    3    3    0    0 -0.54942560824E+02 -0.71436647288E+02 -0.17554858973E+03  0.19733014702E+03  0.00000000000E+00 0.  1.
         16    1    1    2    0    0  0.15907161183E+03  0.17934956854E+03 -0.54253977420E+03  0.59314370267E+03  0.00000000000E+00 0. -1.
    9900018    1    3    3    0    0  0.29172818936E+01 -0.12831020934E+03 -0.13587531874E+03  0.20796466285E+03  0.91187600000E+02 0.  0.
<mgrwt>
<rscale>  0 0.99511943E+03</rscale>
<asrwt>0</asrwt>
<pdfrwt beam="1">  1        2 0.28009180E+00 0.99511943E+03</pdfrwt>
<pdfrwt beam="2">  1       -2 0.20920079E-01 0.99511943E+03</pdfrwt>
<totfact> 0.16598485E+02</totfact>
</mgrwt>
</event>
<event>
12    1  0.4708778E-010  0.8046751E+03  0.7818608E-02  0.9553275E-01
         -1   -1    0    0    0  501 -0.00000000000E+00  0.00000000000E+00  0.42242552866E+03  0.42242552866E+03  0.00000000000E+00 0.  1.
          1   -1    0    0  501    0  0.00000000000E+00 -0.00000000000E+00 -0.38320485188E+03  0.38320485188E+03  0.00000000000E+00 0. -1.
    9900016    2    1    2    0    0  0.67140013902E+01 -0.63584073248E+02 -0.89984650430E+01  0.72554856098E+03  0.72266986224E+03 0.  0.
         23    2    3    3    0    0  0.53434600524E+01  0.24006947627E+01  0.53614151726E+02  0.10000509477E+03  0.84215353785E+02 0.  0.
         23    2    3    3    0    0 -0.13490161223E+03  0.23630366585E+02 -0.26097592091E+03  0.30850288396E+03  0.91152393859E+02 0.  0.
        -15    1    4    4    0    0 -0.10793436282E+02 -0.17089995807E+02 -0.16099608328E+02  0.25841122495E+02  0.00000000000E+00 0. -1.
        -15    1    5    5    0    0 -0.91761137277E+02 -0.63562923306E+01 -0.86413144550E+02  0.12620515171E+03  0.00000000000E+00 0.  1.
         15    1    5    5    0    0 -0.43140474957E+02  0.29986658915E+02 -0.17456277636E+03  0.18229773225E+03  0.00000000000E+00 0. -1.
         15    1    4    4    0    0  0.16136896334E+02  0.19490690570E+02  0.69713760054E+02  0.74163972271E+02  0.00000000000E+00 0.  1.
        -16    1    1    2    0    0 -0.67140013902E+01  0.63584073248E+02  0.48219141823E+02  0.80081819557E+02  0.00000000000E+00 0.  1.
         16    1    3    3    0    0  0.82223621833E+02  0.29964797358E+02  0.69104106753E+02  0.11150780528E+03  0.00000000000E+00 0. -1.
    9900018    1    3    3    0    0  0.54048531740E+02 -0.11957993195E+03  0.12925919739E+03  0.20553277698E+03  0.91187600000E+02 0.  0.
<mgrwt>
<rscale>  0 0.80467512E+03</rscale>
<asrwt>0</asrwt>
<pdfrwt beam="1">  1        1 0.58954593E-01 0.80467512E+03</pdfrwt>
<pdfrwt beam="2">  1       -1 0.64988543E-01 0.80467512E+03</pdfrwt>
<totfact> 0.15433923E+02</totfact>
</mgrwt>
</event>
<event>
12    1  0.4708778E-010  0.1024758E+04  0.7818608E-02  0.9281800E-01
         -2   -1    0    0    0  501 -0.00000000000E+00  0.00000000000E+00  0.14971446622E+03  0.14971446622E+03  0.00000000000E+00 0.  1.
          2   -1    0    0  501    0  0.00000000000E+00 -0.00000000000E+00 -0.17535531227E+04  0.17535531227E+04  0.00000000000E+00 0. -1.
    9900016    2    1    2    0    0  0.85404282038E+02 -0.17721911923E+03 -0.96255033190E+03  0.12324835530E+04  0.74418550062E+03 0.  0.
         23    2    3    3    0    0 -0.10347986973E+03  0.46622609940E+02 -0.28038042134E+03  0.31568121888E+03  0.90331058266E+02 0.  0.
         23    2    3    3    0    0  0.10205361929E+03 -0.82693256514E+02 -0.11162464167E+03  0.19583593532E+03  0.92943730574E+02 0.  0.
        -15    1    5    5    0    0  0.61029552762E+02 -0.38175105791E+02 -0.11447888539E+03  0.13523076652E+03  0.00000000000E+00 0. -1.
        -15    1    4    4    0    0 -0.11208994975E+03  0.16030188763E+02 -0.21561674380E+03  0.24353994332E+03  0.00000000000E+00 0. -1.
         15    1    4    4    0    0  0.86100800129E+01  0.30592421177E+02 -0.64763677539E+02  0.72141275562E+02  0.00000000000E+00 0.  1.
         15    1    5    5    0    0  0.41024066529E+02 -0.44518150723E+02  0.28542437263E+01  0.60605168803E+02  0.00000000000E+00 0.  1.
        -16    1    3    3    0    0  0.10213125802E+03  0.12246715492E+03 -0.24048955928E+03  0.28855541239E+03  0.00000000000E+00 0.  1.
         16    1    1    2    0    0 -0.85404282038E+02  0.17721911923E+03 -0.64128832456E+03  0.67078403591E+03  0.00000000000E+00 0. -1.
    9900018    1    3    3    0    0 -0.15300725543E+02 -0.26361562758E+03 -0.33005570962E+03  0.43241098639E+03  0.91187600000E+02 0.  0.
<mgrwt>
<rscale>  0 0.10247581E+04</rscale>
<asrwt>0</asrwt>
<pdfrwt beam="1">  1        2 0.26977740E+00 0.10247581E+04</pdfrwt>
<pdfrwt beam="2">  1       -2 0.23032995E-01 0.10247581E+04</pdfrwt>
<totfact> 0.15196664E+02</totfact>
</mgrwt>
</event>
<event>
12    1  0.4708778E-010  0.7991309E+03  0.7818608E-02  0.9561276E-01
          1   -1    0    0  501    0  0.00000000000E+00  0.00000000000E+00  0.82409019535E+03  0.82409019535E+03  0.00000000000E+00 0. -1.
         -1   -1    0    0    0  501 -0.00000000000E+00 -0.00000000000E+00 -0.19373190538E+03  0.19373190538E+03  0.00000000000E+00 0.  1.
    9900016    2    1    2    0    0 -0.74958851766E+02 -0.49578821906E+02  0.47649844987E+03  0.83963753507E+03  0.68546592077E+03 0.  0.
         23    2    3    3    0    0  0.64592420180E+02 -0.95135239433E+01  0.32068833164E+03  0.34016866109E+03  0.92795603651E+02 0.  0.
         23    2    3    3    0    0 -0.82788369235E+02 -0.19855341009E+03  0.72418846650E+02  0.24446736335E+03  0.90787838693E+02 0.  0.
        -15    1    4    4    0    0  0.17381385490E+02  0.38515627287E+02  0.83199081072E+02  0.93314806961E+02  0.00000000000E+00 0.  1.
        -15    1    5    5    0    0 -0.11600928084E+02 -0.81501657632E+02 -0.12525938019E+02  0.83270648205E+02  0.00000000000E+00 0.  1.
         15    1    5    5    0    0 -0.71187441151E+02 -0.11705175245E+03  0.84944784670E+02  0.16119671514E+03  0.00000000000E+00 0. -1.
         15    1    4    4    0    0  0.47211034690E+02 -0.48029151231E+02  0.23748925057E+03  0.24685385413E+03  0.00000000000E+00 0. -1.
        -16    1    3    3    0    0  0.42955010086E+02  0.27863066392E+02  0.52698030479E+01  0.51470906194E+02  0.00000000000E+00 0.  1.
         16    1    1    2    0    0  0.74958851766E+02  0.49578821906E+02  0.15385984010E+03  0.17818456565E+03  0.00000000000E+00 0. -1.
    9900018    1    3    3    0    0 -0.99717912797E+02  0.13062504573E+03  0.78121468531E+02  0.20353060444E+03  0.91187600000E+02 0.  0.
<mgrwt>
<rscale>  0 0.79913094E+03</rscale>
<asrwt>0</asrwt>
<pdfrwt beam="1">  1        1 0.12678310E+00 0.79913094E+03</pdfrwt>
<pdfrwt beam="2">  1       -1 0.29804909E-01 0.79913094E+03</pdfrwt>
<totfact> 0.21960359E+02</totfact>
</mgrwt>
</event>
<event>
12    1  0.4708778E-010  0.9632531E+03  0.7818608E-02  0.9349792E-01
         -1   -1    0    0    0  501 -0.00000000000E+00  0.00000000000E+00  0.18371381142E+03  0.18371381142E+03  0.00000000000E+00 0.  1.
          1   -1    0    0  501    0  0.00000000000E+00 -0.00000000000E+00 -0.12626385806E+04  0.12626385806E+04  0.00000000000E+00 0. -1.
    9900016    2    1    2    0    0  0.74882151014E+02 -0.19624743695E+03 -0.77626053381E+03  0.10779422504E+04  0.71781521709E+03 0.  0.
         23    2    3    3    0    0  0.22156943099E+02 -0.28920487612E+02 -0.52464051152E+03  0.53356130173E+03  0.90070370494E+02 0.  0.
         23    2    3    3    0    0  0.60417764948E+02 -0.36564165770E+02  0.70379318415E+02  0.13465554528E+03  0.90507584622E+02 0.  0.
        -15    1    5    5    0    0  0.77764624397E+02 -0.12702744313E+02  0.29269021975E+02  0.84055768202E+02  0.00000000000E+00 0.  1.
        -15    1    4    4    0    0  0.37221353810E+02 -0.54714994386E+02 -0.39656485711E+03  0.40204831262E+03  0.00000000000E+00 0. -1.
         15    1    4    4    0    0 -0.15064410711E+02  0.25794506774E+02 -0.12807565441E+03  0.13151298910E+03  0.00000000000E+00 0.  1.
         15    1    5    5    0    0 -0.17346859450E+02 -0.23861421458E+02  0.41110296441E+02  0.50599777077E+02  0.00000000000E+00 0. -1.
        -16    1    1    2    0    0 -0.74882151014E+02  0.19624743695E+03 -0.30266423532E+03  0.36841014154E+03  0.00000000000E+00 0.  1.
         16    1    3    3    0    0 -0.28386510104E+02 -0.12333000340E+03 -0.27935745539E+03  0.30668660156E+03  0.00000000000E+00 0. -1.
    9900018    1    3    3    0    0  0.20693953071E+02 -0.74327801637E+01 -0.42641885316E+02  0.10303880187E+03  0.91187600000E+02 0.  0.
<mgrwt>
<rscale>  0 0.96325313E+03</rscale>
<asrwt>0</asrwt>
<pdfrwt beam="1">  1        1 0.19425210E+00 0.96325313E+03</pdfrwt>
<pdfrwt beam="2">  1       -1 0.28263662E-01 0.96325313E+03</pdfrwt>
<totfact> 0.10938921E+02</totfact>
</mgrwt>
</event>
<event>
12    1  0.4708778E-010  0.8813336E+03  0.7818608E-02  0.9449221E-01
          1   -1    0    0  501    0  0.00000000000E+00  0.00000000000E+00  0.94771132549E+03  0.94771132549E+03  0.00000000000E+00 0. -1.
         -1   -1    0    0    0  501 -0.00000000000E+00 -0.00000000000E+00 -0.20490125596E+03  0.20490125596E+03  0.00000000000E+00 0.  1.
    9900016    2    1    2    0    0  0.49659206530E+02 -0.12850143796E+02  0.80294560926E+03  0.10735717937E+04  0.71077674541E+03 0.  0.
         23    2    3    3    0    0  0.86425391550E+02 -0.23167829839E+02  0.43244257461E+03  0.45060580303E+03  0.89626518122E+02 0.  0.
         23    2    3    3    0    0  0.77157831394E+02  0.11761649785E+03 -0.11537578756E+02  0.16874952237E+03  0.92500346285E+02 0.  0.
        -15    1    4    4    0    0  0.30199767249E+01  0.26482857206E+02  0.13880567292E+03  0.14134170233E+03  0.00000000000E+00 0. -1.
        -15    1    5    5    0    0  0.23323842354E+01  0.47563565595E+02 -0.40197248040E+02  0.62318147745E+02  0.00000000000E+00 0.  1.
         15    1    4    4    0    0  0.83405414825E+02 -0.49650687046E+02  0.29363690169E+03  0.30926410070E+03  0.00000000000E+00 0.  1.
         15    1    5    5    0    0  0.74825447158E+02  0.70052932257E+02  0.28659669284E+02  0.10643137462E+03  0.00000000000E+00 0. -1.
        -16    1    1    2    0    0 -0.49659206530E+02  0.12850143796E+02 -0.60135539725E+02  0.79040787741E+02  0.00000000000E+00 0.  1.
         16    1    3    3    0    0  0.21620107838E+02 -0.33938324525E+02  0.10218381844E+02  0.41516915372E+02  0.00000000000E+00 0. -1.
    9900018    1    3    3    0    0 -0.13554412425E+03 -0.73360487283E+02  0.37182223156E+03  0.41269955293E+03  0.91187600000E+02 0.  0.
<mgrwt>
<rscale>  0 0.88133363E+03</rscale>
<asrwt>0</asrwt>
<pdfrwt beam="1">  1        1 0.14580174E+00 0.88133363E+03</pdfrwt>
<pdfrwt beam="2">  1       -1 0.31523271E-01 0.88133363E+03</pdfrwt>
<totfact> 0.15672391E+02</totfact>
</mgrwt>
</event>
<event>
12    1  0.4708778E-010  0.8792729E+03  0.7818608E-02  0.9451869E-01
         -1   -1    0    0    0  501 -0.00000000000E+00  0.00000000000E+00  0.28063945023E+03  0.28063945023E+03  0.00000000000E+00 0.  1.
          1   -1    0    0  501    0  0.00000000000E+00 -0.00000000000E+00 -0.68871361026E+03  0.68871361026E+03  0.00000000000E+00 0. -1.
    9900016    2    1    2    0    0 -0.30843886956E+02  0.46341374463E+02 -0.22244577833E+03  0.77555738345E+03  0.74088343373E+03 0.  0.
         23    2    3    3    0    0 -0.10471030861E+02  0.48277385266E+02 -0.26262945707E+02  0.10568713763E+03  0.89664264495E+02 0.  0.
         23    2    3    3    0    0  0.85303502909E+02 -0.21439077019E+02  0.14558727591E+03  0.19294093905E+03  0.91072660123E+02 0.  0.
        -15    1    4    4    0    0 -0.45748116233E+02  0.17191046691E+02  0.51464695611E+01  0.49141717249E+02  0.00000000000E+00 0.  1.
        -15    1    5    5    0    0  0.68674623149E+02  0.26756713459E+02  0.69170745288E+02  0.10107777987E+03  0.00000000000E+00 0. -1.
         15    1    4    4    0    0  0.35277085372E+02  0.31086338575E+02 -0.31409415268E+02  0.56545420379E+02  0.00000000000E+00 0. -1.
         15    1    5    5    0    0  0.16628879759E+02 -0.48195790477E+02  0.76416530621E+02  0.91863159177E+02  0.00000000000E+00 0.  1.
        -16    1    3    3    0    0 -0.13726784323E+03 -0.92469277230E+02 -0.99474322190E+02  0.19310144689E+03  0.00000000000E+00 0.  1.
         16    1    1    2    0    0  0.30843886956E+02 -0.46341374463E+02 -0.18562838169E+03  0.19379567704E+03  0.00000000000E+00 0. -1.
    9900018    1    3    3    0    0  0.31591484225E+02  0.11197234345E+03 -0.24229578634E+03  0.28382785988E+03  0.91187600000E+02 0.  0.
<mgrwt>
<rscale>  0 0.87927290E+03</rscale>
<asrwt>0</asrwt>
<pdfrwt beam="1">  1        1 0.10595594E+00 0.87927290E+03</pdfrwt>
<pdfrwt beam="2">  1       -1 0.43175301E-01 0.87927290E+03</pdfrwt>
<totfact> 0.14890358E+02</totfact>
</mgrwt>
</event>
<event>
12    1  0.4708778E-010  0.1391402E+04  0.7818608E-02  0.8960066E-01
          1   -1    0    0  501    0  0.00000000000E+00  0.00000000000E+00  0.99061928697E+03  0.99061928697E+03  0.00000000000E+00 0. -1.
         -1   -1    0    0    0  501 -0.00000000000E+00 -0.00000000000E+00 -0.48858320386E+03  0.48858320386E+03  0.00000000000E+00 0.  1.
    9900016    2    1    2    0    0  0.30877872500E+03  0.23185421764E+03 -0.42173435457E+02  0.81192093156E+03  0.71297708322E+03 0.  0.
         23    2    3    3    0    0  0.12978389035E+03  0.98685046876E+02 -0.24113771536E+02  0.18825286604E+03  0.90967416820E+02 0.  0.
         23    2    3    3    0    0  0.14349730935E+03 -0.92752629670E+02 -0.50487486677E+02  0.20176657118E+03  0.94690204512E+02 0.  0.
        -15    1    4    4    0    0  0.19187561202E+02  0.13814195038E+02 -0.41502465087E+02  0.47764517141E+02  0.00000000000E+00 0.  1.
        -15    1    5    5    0    0  0.90241762082E+02 -0.39191356233E+02  0.17753553430E+02  0.99973629955E+02  0.00000000000E+00 0. -1.
         15    1    4    4    0    0  0.11059632915E+03  0.84870851838E+02  0.17388693551E+02  0.14048834890E+03  0.00000000000E+00 0. -1.
         15    1    5    5    0    0  0.53255547271E+02 -0.53561273437E+02 -0.68241040107E+02  0.10179294122E+03  0.00000000000E+00 0.  1.
        -16    1    3    3    0    0  0.12995921106E+03  0.48627142974E+02  0.12106148070E+03  0.18414634854E+03  0.00000000000E+00 0.  1.
         16    1    1    2    0    0 -0.30877872500E+03 -0.23185421764E+03  0.54420951857E+03  0.66728155928E+03  0.00000000000E+00 0. -1.
    9900018    1    3    3    0    0 -0.94461685760E+02  0.17729465746E+03 -0.88633657947E+02  0.23775514580E+03  0.91187600000E+02 0.  0.
<mgrwt>
<rscale>  0 0.13914021E+04</rscale>
<asrwt>0</asrwt>
<pdfrwt beam="1">  1        1 0.15240297E+00 0.13914021E+04</pdfrwt>
<pdfrwt beam="2">  1       -1 0.75166647E-01 0.13914021E+04</pdfrwt>
<totfact> 0.26728037E+01</totfact>
</mgrwt>
</event>
<event>
12    1  0.4708778E-010  0.1080382E+04  0.7818608E-02  0.9224527E-01
          2   -1    0    0  501    0  0.00000000000E+00  0.00000000000E+00  0.11229959232E+04  0.11229959232E+04  0.00000000000E+00 0. -1.
         -2   -1    0    0    0  501 -0.00000000000E+00 -0.00000000000E+00 -0.25984623347E+03  0.25984623347E+03  0.00000000000E+00 0.  1.
    9900016    2    1    2    0    0 -0.40643598969E+02  0.29705067133E+03  0.72850684806E+03  0.10541786535E+04  0.70048511932E+03 0.  0.
         23    2    3    3    0    0 -0.13225205389E+01 -0.14549201798E+02 -0.22028907322E+02  0.92945862213E+02  0.89107980626E+02 0.  0.
         23    2    3    3    0    0 -0.10116098876E+03  0.11425468372E+02  0.16750297425E+03  0.21568924486E+03  0.90002872131E+02 0.  0.
        -15    1    4    4    0    0  0.31502803195E+02  0.17646284483E+02  0.93262567099E+01  0.37293391230E+02  0.00000000000E+00 0.  1.
        -15    1    5    5    0    0 -0.26480639936E+02  0.34853913221E+02  0.18785949735E+02  0.47633302065E+02  0.00000000000E+00 0.  1.
         15    1    4    4    0    0 -0.32825323734E+02 -0.32195486282E+02 -0.31355164032E+02  0.55652470984E+02  0.00000000000E+00 0. -1.
         15    1    5    5    0    0 -0.74680348825E+02 -0.23428444848E+02  0.14871702451E+03  0.16805594280E+03  0.00000000000E+00 0. -1.
        -16    1    3    3    0    0 -0.81952196470E+02  0.22372740189E+02  0.89250696583E+01  0.85418726742E+02  0.00000000000E+00 0.  1.
         16    1    1    2    0    0  0.40643598969E+02 -0.29705067133E+03  0.13464284161E+03  0.32866350311E+03  0.00000000000E+00 0. -1.
    9900018    1    3    3    0    0  0.14379210680E+03  0.27780166457E+03  0.57410771148E+03  0.66012481970E+03  0.91187600000E+02 0.  0.
<mgrwt>
<rscale>  0 0.10803819E+04</rscale>
<asrwt>0</asrwt>
<pdfrwt beam="1">  1        2 0.17276860E+00 0.10803819E+04</pdfrwt>
<pdfrwt beam="2">  1       -2 0.39976344E-01 0.10803819E+04</pdfrwt>
<totfact> 0.12401191E+02</totfact>
</mgrwt>
</event>
<event>
12    1  0.4708778E-010  0.1218532E+04  0.7818608E-02  0.9096788E-01
         -4   -1    0    0    0  501 -0.00000000000E+00  0.00000000000E+00  0.72338194422E+03  0.72338194422E+03  0.00000000000E+00 0.  1.
          4   -1    0    0  501    0  0.00000000000E+00 -0.00000000000E+00 -0.51315264192E+03  0.51315264192E+03  0.00000000000E+00 0. -1.
    9900016    2    1    2    0    0  0.29978927890E+03 -0.17457366091E+03 -0.71501062333E+02  0.78963238970E+03  0.70573177208E+03 0.  0.
         23    2    3    3    0    0 -0.22036149759E+02 -0.20510882309E+03  0.43975022074E+02  0.22996735527E+03  0.91629475157E+02 0.  0.
         23    2    3    3    0    0  0.16561406223E+03  0.15342279102E+02 -0.16706948718E+03  0.25284112630E+03  0.91394849243E+02 0.  0.
        -15    1    4    4    0    0  0.32509834831E+01 -0.15796013920E+03 -0.40892254435E+01  0.15804650023E+03  0.00000000000E+00 0. -1.
        -15    1    5    5    0    0  0.15226491948E+03 -0.14091185765E+02 -0.11411033466E+03  0.19079920256E+03  0.00000000000E+00 0.  1.
         15    1    5    5    0    0  0.13349142746E+02  0.29433464867E+02 -0.52959152522E+02  0.62041923745E+02  0.00000000000E+00 0. -1.
         15    1    4    4    0    0 -0.25287133242E+02 -0.47148683885E+02  0.48064247518E+02  0.71920855037E+02  0.00000000000E+00 0.  1.
        -16    1    1    2    0    0 -0.29978927890E+03  0.17457366091E+03  0.28173036463E+03  0.44690219644E+03  0.00000000000E+00 0.  1.
         16    1    3    3    0    0 -0.59803297910E+02  0.11355633578E+01  0.39378283473E+02  0.71612660573E+02  0.00000000000E+00 0. -1.
    9900018    1    3    3    0    0  0.21601466434E+03  0.14057319715E+02  0.12215119296E+02  0.23521124756E+03  0.91187600000E+02 0.  0.
<mgrwt>
<rscale>  0 0.12185325E+04</rscale>
<asrwt>0</asrwt>
<pdfrwt beam="1">  1        4 0.78946560E-01 0.12185325E+04</pdfrwt>
<pdfrwt beam="2">  1       -4 0.11128953E+00 0.12185325E+04</pdfrwt>
<totfact> 0.17918016E+00</totfact>
</mgrwt>
</event>
<event>
12    1  0.4708778E-010  0.1234925E+04  0.7818608E-02  0.9082825E-01
         -2   -1    0    0    0  501 -0.00000000000E+00  0.00000000000E+00  0.21159895458E+03  0.21159895458E+03  0.00000000000E+00 0.  1.
          2   -1    0    0  501    0  0.00000000000E+00 -0.00000000000E+00 -0.18018029978E+04  0.18018029978E+04  0.00000000000E+00 0. -1.
    9900016    2    1    2    0    0  0.63275289132E+02 -0.41030535097E+03 -0.11387460424E+04  0.14000761256E+04  0.70079695008E+03 0.  0.
         23    2    3    3    0    0  0.56427764901E+02 -0.30852782867E+02 -0.32208158158E+03  0.34023978904E+03  0.88828947930E+02 0.  0.
         23    2    3    3    0    0  0.20184072759E+03 -0.11141294235E+03 -0.32873154289E+03  0.41125836752E+03  0.88974684766E+02 0.  0.
        -15    1    4    4    0    0  0.39327878546E+02  0.28022158856E+02 -0.14787364089E+03  0.15555878981E+03  0.00000000000E+00 0.  1.
        -15    1    5    5    0    0  0.18826652432E+03 -0.65711638592E+02 -0.26825931430E+03  0.33425344177E+03  0.00000000000E+00 0. -1.
         15    1    5    5    0    0  0.13574203270E+02 -0.45701303759E+02 -0.60472228589E+02  0.77004925753E+02  0.00000000000E+00 0.  1.
         15    1    4    4    0    0  0.17099886355E+02 -0.58874941722E+02 -0.17420794069E+03  0.18468099923E+03  0.00000000000E+00 0. -1.
        -16    1    3    3    0    0  0.11881576887E+02  0.93999488688E+01 -0.16755145202E+03  0.16823501414E+03  0.00000000000E+00 0.  1.
         16    1    1    2    0    0 -0.63275289132E+02  0.41030535097E+03 -0.45145800080E+03  0.61332582673E+03  0.00000000000E+00 0. -1.
    9900018    1    3    3    0    0 -0.20687478024E+03 -0.27743957462E+03 -0.32038146591E+03  0.48034295494E+03  0.91187600000E+02 0.  0.
<mgrwt>
<rscale>  0 0.12349245E+04</rscale>
<asrwt>0</asrwt>
<pdfrwt beam="1">  1        2 0.27720045E+00 0.12349245E+04</pdfrwt>
<pdfrwt beam="2">  1       -2 0.32553687E-01 0.12349245E+04</pdfrwt>
<totfact> 0.74547090E+01</totfact>
</mgrwt>
</event>
<event>
12    1  0.4708778E-010  0.1440294E+04  0.7818608E-02  0.8925157E-01
         -2   -1    0    0    0  501 -0.00000000000E+00  0.00000000000E+00  0.46630654068E+03  0.46630654068E+03  0.00000000000E+00 0.  1.
          2   -1    0    0  501    0  0.00000000000E+00 -0.00000000000E+00 -0.11121687153E+04  0.11121687153E+04  0.00000000000E+00 0. -1.
    9900016    2    1    2    0    0 -0.25003848609E+03 -0.16284579701E+03 -0.89916294889E+03  0.11870684594E+04  0.71526185451E+03 0.  0.
         23    2    3    3    0    0 -0.34197147052E+02 -0.47483717369E+02 -0.24627523869E+03  0.26889335836E+03  0.90708305549E+02 0.  0.
         23    2    3    3    0    0 -0.23262785588E+03 -0.13567001053E+03 -0.32614173398E+03  0.43256239950E+03  0.90662714142E+02 0.  0.
        -15    1    5    5    0    0 -0.15034687501E+03 -0.40260055135E+02 -0.15136618514E+03  0.21711005704E+03  0.00000000000E+00 0.  1.
        -15    1    4    4    0    0  0.32232331600E+01 -0.64229230072E+02 -0.17793068328E+03  0.18919596000E+03  0.00000000000E+00 0.  1.
         15    1    5    5    0    0 -0.82280980864E+02 -0.95409955392E+02 -0.17477554884E+03  0.21545234246E+03  0.00000000000E+00 0. -1.
         15    1    4    4    0    0 -0.37420380212E+02  0.16745512703E+02 -0.68344555408E+02  0.79697398356E+02  0.00000000000E+00 0. -1.
        -16    1    1    2    0    0  0.25003848609E+03  0.16284579701E+03  0.25330077429E+03  0.39140679655E+03  0.00000000000E+00 0.  1.
         16    1    3    3    0    0  0.48261654840E+02  0.11003554371E+03  0.13347290445E+02  0.12089316924E+03  0.00000000000E+00 0. -1.
    9900018    1    3    3    0    0 -0.31475138005E+02 -0.89727612825E+02 -0.34009326667E+03  0.36471953230E+03  0.91187600000E+02 0.  0.
<mgrwt>
<rscale>  0 0.14402938E+04</rscale>
<asrwt>0</asrwt>
<pdfrwt beam="1">  1        2 0.17110288E+00 0.14402938E+04</pdfrwt>
<pdfrwt beam="2">  1       -2 0.71739468E-01 0.14402938E+04</pdfrwt>
<totfact> 0.36611365E+01</totfact>
</mgrwt>
</event>
<event>
12    1  0.4708778E-010  0.8803786E+03  0.7818608E-02  0.9450447E-01
          2   -1    0    0  501    0  0.00000000000E+00  0.00000000000E+00  0.25134775751E+04  0.25134775751E+04  0.00000000000E+00 0. -1.
         -2   -1    0    0    0  501 -0.00000000000E+00 -0.00000000000E+00 -0.77091048080E+02  0.77091048080E+02  0.00000000000E+00 0.  1.
    9900016    2    1    2    0    0 -0.13380242641E+03  0.65725942952E+02  0.20592875933E+04  0.21850731303E+04  0.71530147782E+03 0.  0.
         23    2    3    3    0    0 -0.10076473396E+03 -0.35024756992E+02  0.51888275274E+03  0.53758405808E+03  0.91526188592E+02 0.  0.
         23    2    3    3    0    0 -0.13473833221E+03  0.64748478935E+02  0.25013874736E+03  0.30549021565E+03  0.91695666407E+02 0.  0.
        -15    1    4    4    0    0 -0.19638984405E+02 -0.22255309034E+02  0.31308122281E+02  0.43141476671E+02  0.00000000000E+00 0.  1.
        -15    1    5    5    0    0 -0.10840763359E+03  0.54673834426E+02  0.24929024686E+03  0.27728517878E+03  0.00000000000E+00 0.  1.
         15    1    5    5    0    0 -0.26330698624E+02  0.10074644508E+02  0.84850049990E+00  0.28205036874E+02  0.00000000000E+00 0. -1.
         15    1    4    4    0    0 -0.81125749552E+02 -0.12769447958E+02  0.48757463046E+03  0.49444258141E+03  0.00000000000E+00 0. -1.
        -16    1    3    3    0    0  0.31127256494E+02 -0.10335541193E+03  0.13591616450E+03  0.17356396817E+03  0.00000000000E+00 0.  1.
         16    1    1    2    0    0  0.13380242641E+03 -0.65725942952E+02  0.37709893374E+03  0.40549549284E+03  0.00000000000E+00 0. -1.
    9900018    1    3    3    0    0  0.70573383258E+02  0.13935763294E+03  0.11543499286E+04  0.11684348884E+04  0.91187600000E+02 0.  0.
<mgrwt>
<rscale>  0 0.88037860E+03</rscale>
<asrwt>0</asrwt>
<pdfrwt beam="1">  1        2 0.38668880E+00 0.88037860E+03</pdfrwt>
<pdfrwt beam="2">  1       -2 0.11860163E-01 0.88037860E+03</pdfrwt>
<totfact> 0.18190411E+02</totfact>
</mgrwt>
</event>
<event>
12    1  0.4708778E-010  0.8873973E+03  0.7818608E-02  0.9441474E-01
         -1   -1    0    0    0  501 -0.00000000000E+00  0.00000000000E+00  0.48063602632E+03  0.48063602632E+03  0.00000000000E+00 0.  1.
          1   -1    0    0  501    0  0.00000000000E+00 -0.00000000000E+00 -0.40959999313E+03  0.40959999313E+03  0.00000000000E+00 0. -1.
    9900016    2    1    2    0    0 -0.22113170641E+02  0.16473630508E+03  0.28738475114E+02  0.71872471968E+03  0.69865032756E+03 0.  0.
         23    2    3    3    0    0  0.10722996993E+03 -0.76711538218E+01  0.37635526006E+02  0.14644607408E+03  0.92048393494E+02 0.  0.
         23    2    3    3    0    0 -0.82249693115E+02 -0.15710665921E+03  0.19667459759E+02  0.20036646349E+03  0.91172344109E+02 0.  0.
        -15    1    5    5    0    0 -0.62343753333E+01 -0.96740595970E+02  0.32960635733E+02  0.10239147353E+03  0.00000000000E+00 0.  1.
        -15    1    4    4    0    0  0.10690782122E+02  0.10842836837E+02 -0.25441500323E+02  0.29650124312E+02  0.00000000000E+00 0.  1.
         15    1    4    4    0    0  0.96539187805E+02 -0.18513990658E+02  0.63077026330E+02  0.11679594977E+03  0.00000000000E+00 0. -1.
         15    1    5    5    0    0 -0.76015317782E+02 -0.60366063244E+02 -0.13293175974E+02  0.97974989954E+02  0.00000000000E+00 0. -1.
        -16    1    3    3    0    0  0.29251108231E+02  0.12240651471E+03  0.22084079882E+02  0.12777593186E+03  0.00000000000E+00 0.  1.
         16    1    1    2    0    0  0.22113170641E+02 -0.16473630508E+03  0.42297558075E+02  0.17151129976E+03  0.00000000000E+00 0. -1.
    9900018    1    3    3    0    0 -0.76344555685E+02  0.20710760340E+03 -0.50648590533E+02  0.24413625025E+03  0.91187600000E+02 0.  0.
<mgrwt>
<rscale>  0 0.88739735E+03</rscale>
<asrwt>0</asrwt>
<pdfrwt beam="1">  1        1 0.63015384E-01 0.88739735E+03</pdfrwt>
<pdfrwt beam="2">  1       -1 0.73944003E-01 0.88739735E+03</pdfrwt>
<totfact> 0.10801569E+02</totfact>
</mgrwt>
</event>
<event>
12    1  0.4708778E-010  0.1098412E+04  0.7818608E-02  0.9206741E-01
         -1   -1    0    0    0  501 -0.00000000000E+00  0.00000000000E+00  0.46045685175E+03  0.46045685175E+03  0.00000000000E+00 0.  1.
          1   -1    0    0  501    0  0.00000000000E+00 -0.00000000000E+00 -0.65506061147E+03  0.65506061147E+03  0.00000000000E+00 0. -1.
    9900016    2    1    2    0    0 -0.29990397589E+03 -0.43527483407E+01 -0.24134023801E+03  0.81196246067E+03  0.71489620637E+03 0.  0.
         23    2    3    3    0    0 -0.11435575436E+02  0.34945755388E+02 -0.31917633472E+02  0.10197586317E+03  0.89601133575E+02 0.  0.
         23    2    3    3    0    0 -0.33096215681E+03 -0.23208785182E+02 -0.69803558558E+02  0.35096931473E+03  0.90732167095E+02 0.  0.
        -15    1    5    5    0    0 -0.15819228137E+03 -0.47759662925E+02 -0.61328084589E+02  0.17625809838E+03  0.00000000000E+00 0.  1.
        -15    1    4    4    0    0 -0.13920689828E+02 -0.70964137972E+01 -0.52731526506E+02  0.54997805245E+02  0.00000000000E+00 0. -1.
         15    1    4    4    0    0  0.24851143924E+01  0.42042169185E+02  0.20813893034E+02  0.46978057927E+02  0.00000000000E+00 0.  1.
         15    1    5    5    0    0 -0.17276987544E+03  0.24550877742E+02 -0.84754739686E+01  0.17471121634E+03  0.00000000000E+00 0. -1.
        -16    1    3    3    0    0  0.16003798338E+03  0.50158253778E+02 -0.76934502091E+02  0.18451808627E+03  0.00000000000E+00 0.  1.
         16    1    1    2    0    0  0.29990397589E+03  0.43527483407E+01  0.46736478286E+02  0.30355500255E+03  0.00000000000E+00 0. -1.
    9900018    1    3    3    0    0 -0.11754422703E+03 -0.66247972324E+02 -0.62684543891E+02  0.17449919651E+03  0.91187600000E+02 0.  0.
<mgrwt>
<rscale>  0 0.10984118E+04</rscale>
<asrwt>0</asrwt>
<pdfrwt beam="1">  1        1 0.10077855E+00 0.10984118E+04</pdfrwt>
<pdfrwt beam="2">  1       -1 0.70839516E-01 0.10984118E+04</pdfrwt>
<totfact> 0.60428805E+01</totfact>
</mgrwt>
</event>
<event>
12    1  0.4708778E-010  0.9863727E+03  0.7818608E-02  0.9323618E-01
         -2   -1    0    0    0  501 -0.00000000000E+00  0.00000000000E+00  0.13206887041E+03  0.13206887041E+03  0.00000000000E+00 0. -1.
          2   -1    0    0  501    0  0.00000000000E+00 -0.00000000000E+00 -0.18417117929E+04  0.18417117929E+04  0.00000000000E+00 0.  1.
    9900016    2    1    2    0    0  0.17540219949E+03  0.82088850861E+02 -0.15713242694E+04  0.17357962924E+04  0.71163494705E+03 0.  0.
         23    2    3    3    0    0  0.11657311981E+03  0.16826275514E+03 -0.94744682040E+03  0.97423035989E+03  0.97814465271E+02 0.  0.
         23    2    3    3    0    0  0.78962244242E+02  0.96212010895E+01 -0.47860483574E+02  0.13013578378E+03  0.91198096509E+02 0.  0.
        -15    1    4    4    0    0  0.35489751078E+02  0.16344494211E+02 -0.71137096367E+02  0.81161267870E+02  0.00000000000E+00 0.  1.
        -15    1    5    5    0    0  0.16240594608E+02 -0.37052911127E+02 -0.44227034221E+01  0.40696872629E+02  0.00000000000E+00 0.  1.
         15    1    4    4    0    0  0.81083368731E+02  0.15191826093E+03 -0.87630972403E+03  0.89306909202E+03  0.00000000000E+00 0. -1.
         15    1    5    5    0    0  0.62721649634E+02  0.46674112217E+02 -0.43437780151E+02  0.89438911155E+02  0.00000000000E+00 0. -1.
        -16    1    3    3    0    0  0.52742668675E+02  0.20244261768E+02 -0.33401787322E+03  0.33876180254E+03  0.00000000000E+00 0.  1.
         16    1    1    2    0    0 -0.17540219949E+03 -0.82088850861E+02 -0.13831865302E+03  0.23798437090E+03  0.00000000000E+00 0. -1.
    9900018    1    3    3    0    0 -0.72875833240E+02 -0.11603936714E+03 -0.24199909225E+03  0.29266834615E+03  0.91187600000E+02 0.  0.
<mgrwt>
<rscale>  0 0.98637274E+03</rscale>
<asrwt>0</asrwt>
<pdfrwt beam="1">  1        2 0.28334026E+00 0.98637274E+03</pdfrwt>
<pdfrwt beam="2">  1       -2 0.20318289E-01 0.98637274E+03</pdfrwt>
<totfact> 0.17024976E+02</totfact>
</mgrwt>
</event>
<event>
12    1  0.4708778E-010  0.1479292E+04  0.7818608E-02  0.8898341E-01
          2   -1    0    0  501    0  0.00000000000E+00  0.00000000000E+00  0.22317136938E+04  0.22317136938E+04  0.00000000000E+00 0. -1.
         -2   -1    0    0    0  501 -0.00000000000E+00 -0.00000000000E+00 -0.24513736318E+03  0.24513736318E+03  0.00000000000E+00 0.  1.
    9900016    2    1    2    0    0 -0.14895184989E+03 -0.39889651208E+03  0.57292807821E+03  0.10004681587E+04  0.70098849687E+03 0.  0.
         23    2    3    3    0    0 -0.63364837218E+02 -0.21455446417E+03  0.24311274140E+03  0.34244202252E+03  0.90077816743E+02 0.  0.
         23    2    3    3    0    0 -0.69115803706E+02 -0.26657598008E+03  0.48897373656E+02  0.29449714857E+03  0.92183891685E+02 0.  0.
        -15    1    5    5    0    0 -0.29802273136E+02 -0.16286756074E+03  0.73078298184E+02  0.18098192034E+03  0.00000000000E+00 0. -1.
        -15    1    4    4    0    0 -0.85806337216E+02 -0.15030197778E+03  0.17166394878E+03  0.24376612427E+03  0.00000000000E+00 0.  1.
         15    1    4    4    0    0  0.22441499999E+02 -0.64252486395E+02  0.71448792612E+02  0.98675898252E+02  0.00000000000E+00 0. -1.
         15    1    5    5    0    0 -0.39313530569E+02 -0.10370841934E+03 -0.24180924528E+02  0.11351522823E+03  0.00000000000E+00 0.  1.
        -16    1    3    3    0    0  0.17520672589E+02  0.16864828406E+02  0.23714677281E+03  0.23839041143E+03  0.00000000000E+00 0.  1.
         16    1    1    2    0    0  0.14895184989E+03  0.39889651208E+03  0.14136482524E+04  0.14763828984E+04  0.00000000000E+00 0. -1.
    9900018    1    3    3    0    0 -0.33991881556E+02  0.65369103769E+02  0.43771190341E+02  0.12513857613E+03  0.91187600000E+02 0.  0.
<mgrwt>
<rscale>  0 0.14792923E+04</rscale>
<asrwt>0</asrwt>
<pdfrwt beam="1">  1        2 0.34334055E+00 0.14792923E+04</pdfrwt>
<pdfrwt beam="2">  1       -2 0.37713442E-01 0.14792923E+04</pdfrwt>
<totfact> 0.31853861E+01</totfact>
</mgrwt>
</event>
<event>
12    1  0.4708778E-010  0.1098481E+04  0.7818608E-02  0.9206674E-01
         -1   -1    0    0    0  501 -0.00000000000E+00  0.00000000000E+00  0.52936002164E+03  0.52936002164E+03  0.00000000000E+00 0.  1.
          1   -1    0    0  501    0  0.00000000000E+00 -0.00000000000E+00 -0.56986732458E+03  0.56986732458E+03  0.00000000000E+00 0. -1.
    9900016    2    1    2    0    0 -0.20351228369E+01 -0.56049685445E+02  0.28522974585E+03  0.76869696347E+03  0.71161317074E+03 0.  0.
         23    2    3    3    0    0 -0.16182413477E+03 -0.11042589088E+03  0.18689575816E+02  0.21720423184E+03  0.91910010942E+02 0.  0.
         23    2    3    3    0    0  0.34482371536E+02  0.40262732430E+02  0.14751163815E+02  0.11375292564E+03  0.99559076379E+02 0.  0.
        -15    1    4    4    0    0 -0.11506416007E+03 -0.12063593392E+03  0.26709656254E+01  0.16673309073E+03  0.00000000000E+00 0.  1.
        -15    1    5    5    0    0  0.60515206437E+02  0.32235189737E+02 -0.18257360257E+02  0.70954414035E+02  0.00000000000E+00 0. -1.
         15    1    5    5    0    0 -0.26032834900E+02  0.80275426928E+01  0.33008524072E+02  0.42798511610E+02  0.00000000000E+00 0.  1.
         15    1    4    4    0    0 -0.46759974700E+02  0.10210043034E+02  0.16018610191E+02  0.50471141112E+02  0.00000000000E+00 0. -1.
        -16    1    3    3    0    0 -0.97616522762E+02  0.56863529162E+02  0.90295641454E+02  0.14462278289E+03  0.00000000000E+00 0.  1.
         16    1    1    2    0    0  0.20351228369E+01  0.56049685445E+02 -0.32573704879E+03  0.33053038274E+03  0.00000000000E+00 0. -1.
    9900018    1    3    3    0    0  0.22292316316E+03 -0.42750056154E+02  0.16149336476E+03  0.29311702310E+03  0.91187600000E+02 0.  0.
<mgrwt>
<rscale>  0 0.10984807E+04</rscale>
<asrwt>0</asrwt>
<pdfrwt beam="1">  1        1 0.87671896E-01 0.10984807E+04</pdfrwt>
<pdfrwt beam="2">  1       -1 0.81440004E-01 0.10984807E+04</pdfrwt>
<totfact> 0.55221414E+01</totfact>
</mgrwt>
</event>
<event>
12    1  0.4708778E-010  0.9014491E+03  0.7818608E-02  0.9423772E-01
         -2   -1    0    0    0  501 -0.00000000000E+00  0.00000000000E+00  0.18176649317E+03  0.18176649317E+03  0.00000000000E+00 0.  1.
          2   -1    0    0  501    0  0.00000000000E+00 -0.00000000000E+00 -0.11176571199E+04  0.11176571199E+04  0.00000000000E+00 0. -1.
    9900016    2    1    2    0    0  0.54566223018E+02 -0.41766194686E+02 -0.97910607504E+03  0.12182481077E+04  0.72163554374E+03 0.  0.
         23    2    3    3    0    0 -0.29187772506E+01  0.10813472813E+02 -0.87796977047E+02  0.13117797128E+03  0.96818905779E+02 0.  0.
         23    2    3    3    0    0 -0.24048038436E+02  0.11744509196E+03 -0.61310732277E+03  0.63096422275E+03  0.88564120180E+02 0.  0.
        -15    1    5    5    0    0  0.32383703039E+02  0.61382478322E+02 -0.29727603871E+03  0.30526964483E+03  0.00000000000E+00 0. -1.
        -15    1    4    4    0    0 -0.26295401164E+02  0.29451166883E+02 -0.11287377454E+01  0.39498017697E+02  0.00000000000E+00 0.  1.
         15    1    5    5    0    0 -0.56431741476E+02  0.56062613638E+02 -0.31583128406E+03  0.32569457792E+03  0.00000000000E+00 0.  1.
         15    1    4    4    0    0  0.23376623913E+02 -0.18637694069E+02 -0.86668239302E+02  0.91679953586E+02  0.00000000000E+00 0. -1.
        -16    1    1    2    0    0 -0.54566223018E+02  0.41766194686E+02  0.43215448264E+02  0.81175505429E+02  0.00000000000E+00 0.  1.
         16    1    3    3    0    0 -0.83490338036E+02 -0.10440913818E+03 -0.20240298147E+03  0.24256725169E+03  0.00000000000E+00 0. -1.
    9900018    1    3    3    0    0  0.16502337674E+03 -0.65615621279E+02 -0.75798793752E+02  0.21353866197E+03  0.91187600000E+02 0.  0.
<mgrwt>
<rscale>  0 0.90144909E+03</rscale>
<asrwt>0</asrwt>
<pdfrwt beam="1">  1        2 0.17194725E+00 0.90144909E+03</pdfrwt>
<pdfrwt beam="2">  1       -2 0.27964076E-01 0.90144909E+03</pdfrwt>
<totfact> 0.24851040E+02</totfact>
</mgrwt>
</event>
<event>
12    1  0.4708778E-010  0.1435793E+04  0.7818608E-02  0.8928310E-01
          1   -1    0    0  501    0  0.00000000000E+00  0.00000000000E+00  0.11737029009E+04  0.11737029009E+04  0.00000000000E+00 0. -1.
         -1   -1    0    0    0  501 -0.00000000000E+00 -0.00000000000E+00 -0.43910187437E+03  0.43910187437E+03  0.00000000000E+00 0.  1.
    9900016    2    1    2    0    0 -0.30757626852E+03  0.12428581099E+03 -0.25973198507E+02  0.78303174874E+03  0.70881167367E+03 0.  0.
         23    2    3    3    0    0 -0.27109766373E+02  0.83321237377E+02  0.17245935877E+03  0.21302439365E+03  0.89217676684E+02 0.  0.
         23    2    3    3    0    0 -0.15401024764E+03  0.22037364728E+03 -0.99921892022E+02  0.30180966705E+03  0.93920124722E+02 0.  0.
        -15    1    4    4    0    0 -0.39063332647E+02  0.79391453216E+02  0.17837933006E+03  0.19911838739E+03  0.00000000000E+00 0.  1.
        -15    1    5    5    0    0 -0.91186634583E+02  0.17307461720E+03 -0.10678184295E+03  0.22287258115E+03  0.00000000000E+00 0. -1.
         15    1    5    5    0    0 -0.62823613061E+02  0.47299030078E+02  0.68599509235E+01  0.78937085904E+02  0.00000000000E+00 0.  1.
         15    1    4    4    0    0  0.11953566274E+02  0.39297841609E+01 -0.59199712925E+01  0.13906006268E+02  0.00000000000E+00 0. -1.
        -16    1    3    3    0    0 -0.75647264518E+01 -0.30095424187E+02 -0.36201960853E+02  0.47681669569E+02  0.00000000000E+00 0.  1.
         16    1    1    2    0    0  0.30757626852E+03 -0.12428581099E+03  0.76057422506E+03  0.82977302655E+03  0.00000000000E+00 0. -1.
    9900018    1    3    3    0    0 -0.11889152805E+03 -0.14931364947E+03 -0.62308704405E+02  0.22051601846E+03  0.91187600000E+02 0.  0.
<mgrwt>
<rscale>  0 0.14357927E+04</rscale>
<asrwt>0</asrwt>
<pdfrwt beam="1">  1        1 0.18056968E+00 0.14357927E+04</pdfrwt>
<pdfrwt beam="2">  1       -1 0.67554135E-01 0.14357927E+04</pdfrwt>
<totfact> 0.24107013E+01</totfact>
</mgrwt>
</event>
<event>
12    1  0.4708778E-010  0.1028850E+04  0.7818608E-02  0.9277457E-01
         -1   -1    0    0    0  501 -0.00000000000E+00  0.00000000000E+00  0.13425996989E+03  0.13425996989E+03  0.00000000000E+00 0.  1.
          1   -1    0    0  501    0  0.00000000000E+00 -0.00000000000E+00 -0.19710492396E+04  0.19710492396E+04  0.00000000000E+00 0. -1.
    9900016    2    1    2    0    0 -0.10621764642E+03  0.64202390630E+02 -0.18425687219E+04  0.19810613224E+04  0.71703579627E+03 0.  0.
         23    2    3    3    0    0 -0.10511240529E+03 -0.23432023080E+02 -0.49351236540E+03  0.51370080738E+03  0.93468643162E+02 0.  0.
         23    2    3    3    0    0 -0.56031479560E+02  0.29574547056E+02 -0.11386854031E+03  0.15841919919E+03  0.90091163085E+02 0.  0.
        -15    1    5    5    0    0 -0.23649661912E+02 -0.23291543553E+02 -0.82526319911E+02  0.88951649719E+02  0.00000000000E+00 0. -1.
        -15    1    4    4    0    0 -0.11360110470E+03 -0.29720002063E+02 -0.48771290967E+03  0.50164965043E+03  0.00000000000E+00 0. -1.
         15    1    5    5    0    0 -0.32381817649E+02  0.52866090609E+02 -0.31342220396E+02  0.69467549474E+02  0.00000000000E+00 0.  1.
         15    1    4    4    0    0  0.84886994075E+01  0.62879789832E+01 -0.57994557264E+01  0.12051156959E+02  0.00000000000E+00 0.  1.
        -16    1    1    2    0    0  0.10621764642E+03 -0.64202390630E+02  0.57794521261E+01  0.12424788706E+03  0.00000000000E+00 0.  1.
         16    1    3    3    0    0  0.74351192477E+02 -0.27223004208E+02 -0.12998895129E+02  0.80238164581E+02  0.00000000000E+00 0. -1.
    9900018    1    3    3    0    0 -0.19424954039E+02  0.85282870862E+02 -0.12221889210E+04  0.12287031513E+04  0.91187600000E+02 0.  0.
<mgrwt>
<rscale>  0 0.10288499E+04</rscale>
<asrwt>0</asrwt>
<pdfrwt beam="1">  1        1 0.30323833E+00 0.10288499E+04</pdfrwt>
<pdfrwt beam="2">  1       -1 0.20655381E-01 0.10288499E+04</pdfrwt>
<totfact> 0.60700065E+01</totfact>
</mgrwt>
</event>
<event>
12    1  0.4708778E-010  0.1222665E+04  0.7818608E-02  0.9093246E-01
          3   -1    0    0  501    0  0.00000000000E+00  0.00000000000E+00  0.72238354334E+03  0.72238354334E+03  0.00000000000E+00 0. -1.
         -3   -1    0    0    0  501 -0.00000000000E+00 -0.00000000000E+00 -0.51735308943E+03  0.51735308943E+03  0.00000000000E+00 0.  1.
    9900016    2    1    2    0    0  0.26126481628E+03  0.11787106003E+03 -0.14732565312E+03  0.78552553958E+03  0.71637464657E+03 0.  0.
         23    2    3    3    0    0  0.53301878385E+02  0.13564532581E+03  0.88083197601E+02  0.19477040256E+03  0.94531028553E+02 0.  0.
         23    2    3    3    0    0  0.18386202936E+03 -0.14541558149E+03 -0.25253636970E+03  0.35726221499E+03  0.94396689862E+02 0.  0.
        -15    1    5    5    0    0  0.16660091803E+03 -0.12586728626E+03 -0.25665258693E+03  0.33086098291E+03  0.00000000000E+00 0.  1.
        -15    1    4    4    0    0  0.12113422303E+02  0.12957399937E+03  0.53733112295E+02  0.14079560956E+03  0.00000000000E+00 0.  1.
         15    1    4    4    0    0  0.41188456082E+02  0.60713264382E+01  0.34350085305E+02  0.53974793002E+02  0.00000000000E+00 0. -1.
         15    1    5    5    0    0  0.17261111335E+02 -0.19548295235E+02  0.41162172249E+01  0.26401232080E+02  0.00000000000E+00 0. -1.
        -16    1    3    3    0    0 -0.32985653732E+02  0.79330666248E+01 -0.48909791997E+02  0.59524403831E+02  0.00000000000E+00 0.  1.
         16    1    1    2    0    0 -0.26126481628E+03 -0.11787106003E+03  0.35235610703E+03  0.45421109319E+03  0.00000000000E+00 0. -1.
    9900018    1    3    3    0    0  0.57086562261E+02  0.11970824908E+03  0.66037310983E+02  0.17396851820E+03  0.91187600000E+02 0.  0.
<mgrwt>
<rscale>  0 0.12226649E+04</rscale>
<asrwt>0</asrwt>
<pdfrwt beam="1">  1        3 0.11113593E+00 0.12226649E+04</pdfrwt>
<pdfrwt beam="2">  1       -3 0.79592783E-01 0.12226649E+04</pdfrwt>
<totfact> 0.25887203E+00</totfact>
</mgrwt>
</event>
<event>
12    1  0.4708778E-010  0.1304081E+04  0.7818608E-02  0.9026335E-01
         -1   -1    0    0    0  501 -0.00000000000E+00  0.00000000000E+00  0.34474556587E+03  0.34474556587E+03  0.00000000000E+00 0.  1.
          1   -1    0    0  501    0  0.00000000000E+00 -0.00000000000E+00 -0.12332490415E+04  0.12332490415E+04  0.00000000000E+00 0. -1.
    9900016    2    1    2    0    0  0.19086106246E+03 -0.36065837539E+03 -0.33419045096E+03  0.88968847037E+03  0.71649138717E+03 0.  0.
         23    2    3    3    0    0  0.40612501900E+02 -0.56665671830E+02  0.15099764905E+02  0.11448808099E+03  0.89549674002E+02 0.  0.
         23    2    3    3    0    0 -0.10972170721E+03  0.38130951705E+02 -0.11337722157E+03  0.18535976040E+03  0.89504323314E+02 0.  0.
        -15    1    4    4    0    0  0.36326113593E-01 -0.22592265663E+02  0.47347334550E+02  0.52461241659E+02  0.00000000000E+00 0.  1.
        -15    1    5    5    0    0 -0.34154440307E+02 -0.29558345987E+02 -0.36428514799E+02  0.58028082000E+02  0.00000000000E+00 0. -1.
         15    1    4    4    0    0  0.40576175787E+02 -0.34073406167E+02 -0.32247569646E+02  0.62026839331E+02  0.00000000000E+00 0. -1.
         15    1    5    5    0    0 -0.75567266905E+02  0.67689297692E+02 -0.76948706772E+02  0.12733167840E+03  0.00000000000E+00 0.  1.
        -16    1    3    3    0    0 -0.61898969488E+02 -0.11188894844E+03 -0.97475712421E+02  0.16078598732E+03  0.00000000000E+00 0.  1.
         16    1    1    2    0    0 -0.19086106246E+03  0.36065837539E+03 -0.55431302465E+03  0.68830613698E+03  0.00000000000E+00 0. -1.
    9900018    1    3    3    0    0  0.32186923726E+03 -0.23023470682E+03 -0.13843728188E+03  0.42905464166E+03  0.91187600000E+02 0.  0.
<mgrwt>
<rscale>  0 0.13040815E+04</rscale>
<asrwt>0</asrwt>
<pdfrwt beam="1">  1        1 0.18973062E+00 0.13040815E+04</pdfrwt>
<pdfrwt beam="2">  1       -1 0.53037780E-01 0.13040815E+04</pdfrwt>
<totfact> 0.35573901E+01</totfact>
</mgrwt>
</event>
<event>
12    1  0.4708778E-010  0.1043892E+04  0.7818608E-02  0.9261673E-01
          1   -1    0    0  501    0  0.00000000000E+00  0.00000000000E+00  0.15163832403E+04  0.15163832403E+04  0.00000000000E+00 0. -1.
         -1   -1    0    0    0  501 -0.00000000000E+00 -0.00000000000E+00 -0.17965632272E+03  0.17965632272E+03  0.00000000000E+00 0.  1.
    9900016    2    1    2    0    0 -0.11190996633E+03  0.10043271091E+03  0.61080898499E+03  0.95471142054E+03  0.71817526439E+03 0.  0.
         23    2    3    3    0    0  0.37021046735E+02  0.69128366925E+02  0.60796874764E+02  0.13676281507E+03  0.94119703518E+02 0.  0.
         23    2    3    3    0    0 -0.13706728569E+03 -0.19739790706E+02 -0.90661600995E+00  0.16484973826E+03  0.89428821456E+02 0.  0.
        -15    1    5    5    0    0 -0.10154811760E+02 -0.35388193305E+02  0.27979199812E+01  0.36922524067E+02  0.00000000000E+00 0. -1.
        -15    1    4    4    0    0  0.16472633788E+02  0.70353415453E+02  0.80566812828E+02  0.10822181878E+03  0.00000000000E+00 0. -1.
         15    1    5    5    0    0 -0.12691247393E+03  0.15648402599E+02 -0.37045359912E+01  0.12792721419E+03  0.00000000000E+00 0.  1.
         15    1    4    4    0    0  0.20548412947E+02 -0.12250485285E+01 -0.19769938064E+02  0.28540996296E+02  0.00000000000E+00 0.  1.
        -16    1    3    3    0    0 -0.10829654863E+03  0.14947074120E+03  0.31444097913E+03  0.36461318445E+03  0.00000000000E+00 0.  1.
         16    1    1    2    0    0  0.11190996633E+03 -0.10043271091E+03  0.72591793262E+03  0.74132814251E+03  0.00000000000E+00 0. -1.
    9900018    1    3    3    0    0  0.96432821263E+02 -0.98426606507E+02  0.23647774711E+03  0.28848568276E+03  0.91187600000E+02 0.  0.
<mgrwt>
<rscale>  0 0.10438924E+04</rscale>
<asrwt>0</asrwt>
<pdfrwt beam="1">  1        1 0.23328972E+00 0.10438924E+04</pdfrwt>
<pdfrwt beam="2">  1       -1 0.27639435E-01 0.10438924E+04</pdfrwt>
<totfact> 0.75040597E+01</totfact>
</mgrwt>
</event>
<event>
12    1  0.4708778E-010  0.2635068E+04  0.7818608E-02  0.8356386E-01
          2   -1    0    0  501    0  0.00000000000E+00  0.00000000000E+00  0.70857928820E+03  0.70857928820E+03  0.00000000000E+00 0. -1.
         -2   -1    0    0    0  501 -0.00000000000E+00 -0.00000000000E+00 -0.24498267562E+04  0.24498267562E+04  0.00000000000E+00 0.  1.
    9900016    2    1    2    0    0  0.33552391586E+03  0.84217964373E+03  0.37758698705E+02  0.11617323626E+04  0.72550224847E+03 0.  0.
         23    2    3    3    0    0 -0.14440500818E+02  0.23288234884E+03  0.25486765781E+03  0.35780387628E+03  0.92862125845E+02 0.  0.
         23    2    3    3    0    0  0.10502630558E+03  0.11208870442E+03 -0.56003570770E+02  0.18689196485E+03  0.90541725541E+02 0.  0.
        -15    1    4    4    0    0 -0.36515350255E+02  0.22367518304E+03  0.22292152124E+03  0.31789615119E+03  0.00000000000E+00 0.  1.
        -15    1    5    5    0    0  0.59969074740E+02  0.80601127335E+02 -0.78502021968E+02  0.12749666312E+03  0.00000000000E+00 0.  1.
         15    1    4    4    0    0  0.22074849437E+02  0.92071658042E+01  0.31946136563E+02  0.39907725081E+02  0.00000000000E+00 0. -1.
         15    1    5    5    0    0  0.45057230839E+02  0.31487577084E+02  0.22498451198E+02  0.59395301731E+02  0.00000000000E+00 0. -1.
        -16    1    1    2    0    0 -0.33552391586E+03 -0.84217964373E+03 -0.17790061667E+04  0.19966736818E+04  0.00000000000E+00 0.  1.
         16    1    3    3    0    0  0.11733149664E+03  0.21265441397E+03  0.22358989080E+02  0.24390265328E+03  0.00000000000E+00 0. -1.
    9900018    1    3    3    0    0  0.12760661445E+03  0.28455417650E+03 -0.18346437741E+03  0.37313386818E+03  0.91187600000E+02 0.  0.
<mgrwt>
<rscale>  0 0.26350685E+04</rscale>
<asrwt>0</asrwt>
<pdfrwt beam="1">  1        2 0.10901220E+00 0.26350685E+04</pdfrwt>
<pdfrwt beam="2">  1       -2 0.37689642E+00 0.26350685E+04</pdfrwt>
<totfact> 0.37311087E-01</totfact>
</mgrwt>
</event>
<event>
12    1  0.4708778E-010  0.1067031E+04  0.7818608E-02  0.9237935E-01
         -2   -1    0    0    0  501 -0.00000000000E+00  0.00000000000E+00  0.29643855803E+03  0.29643855803E+03  0.00000000000E+00 0.  1.
          2   -1    0    0  501    0  0.00000000000E+00 -0.00000000000E+00 -0.96019541157E+03  0.96019541157E+03  0.00000000000E+00 0. -1.
    9900016    2    1    2    0    0  0.11450974905E+03 -0.27908322872E+03 -0.49329748093E+03  0.91014251388E+03  0.70286347159E+03 0.  0.
         23    2    3    3    0    0 -0.32644467197E+02  0.11119257348E+02 -0.18350914155E+03  0.20778442874E+03  0.91156265127E+02 0.  0.
         23    2    3    3    0    0 -0.10949142181E+03  0.30936915400E+02 -0.13274959839E+03  0.19724943904E+03  0.91320431151E+02 0.  0.
        -15    1    5    5    0    0 -0.14581161599E+02 -0.12984125401E+02 -0.75584152589E+02  0.78065113262E+02  0.00000000000E+00 0. -1.
        -15    1    4    4    0    0  0.32009064421E+02  0.51592650428E+01 -0.65876688287E+02  0.73422995584E+02  0.00000000000E+00 0. -1.
         15    1    5    5    0    0 -0.94910260208E+02  0.43921040801E+02 -0.57165445803E+02  0.11918432578E+03  0.00000000000E+00 0.  1.
         15    1    4    4    0    0 -0.64653531618E+02  0.59599923053E+01 -0.11763245326E+03  0.13436143316E+03  0.00000000000E+00 0.  1.
        -16    1    3    3    0    0 -0.56280531774E+01 -0.10601691345E+03 -0.99270015238E+02  0.14534715974E+03  0.00000000000E+00 0.  1.
         16    1    1    2    0    0 -0.11450974905E+03  0.27908322872E+03 -0.17045937261E+03  0.34649145572E+03  0.00000000000E+00 0. -1.
    9900018    1    3    3    0    0  0.26227369123E+03 -0.21512248801E+03 -0.77768725750E+02  0.35976148635E+03  0.91187600000E+02 0.  0.
<mgrwt>
<rscale>  0 0.10670313E+04</rscale>
<asrwt>0</asrwt>
<pdfrwt beam="1">  1        2 0.14772237E+00 0.10670313E+04</pdfrwt>
<pdfrwt beam="2">  1       -2 0.45605932E-01 0.10670313E+04</pdfrwt>
<totfact> 0.12119748E+02</totfact>
</mgrwt>
</event>
<event>
12    1  0.4708778E-010  0.8229467E+03  0.7818608E-02  0.9527384E-01
         -1   -1    0    0    0  501 -0.00000000000E+00  0.00000000000E+00  0.12432424418E+03  0.12432424418E+03  0.00000000000E+00 0.  1.
          1   -1    0    0  501    0  0.00000000000E+00 -0.00000000000E+00 -0.13618446292E+04  0.13618446292E+04  0.00000000000E+00 0. -1.
    9900016    2    1    2    0    0  0.68401997964E+01  0.12319316555E+03 -0.89878901396E+03  0.11256660494E+04  0.66639254102E+03 0.  0.
         23    2    3    3    0    0  0.36816127972E+02 -0.21990529136E+02 -0.16266199675E+03  0.19153123973E+03  0.91576634330E+02 0.  0.
         23    2    3    3    0    0 -0.59092933996E+02  0.17622398296E+03 -0.68097485180E+02  0.21769959556E+03  0.90603418254E+02 0.  0.
        -15    1    4    4    0    0  0.28826430705E+02  0.15740485577E+02 -0.10385913315E+02  0.34446961967E+02  0.00000000000E+00 0.  1.
        -15    1    5    5    0    0 -0.26618437736E+02  0.10769440148E+03 -0.85300023640E+02  0.13993826986E+03  0.00000000000E+00 0.  1.
         15    1    5    5    0    0 -0.32474496260E+02  0.68529581474E+02  0.17202538460E+02  0.77761325695E+02  0.00000000000E+00 0. -1.
         15    1    4    4    0    0  0.79896972668E+01 -0.37731014714E+02 -0.15227608343E+03  0.15708427776E+03  0.00000000000E+00 0. -1.
        -16    1    3    3    0    0 -0.37175940692E+02 -0.11268679691E+03 -0.27601935504E+03  0.30044475219E+03  0.00000000000E+00 0.  1.
         16    1    1    2    0    0 -0.68401997964E+01 -0.12319316555E+03 -0.33873137106E+03  0.36050282401E+03  0.00000000000E+00 0. -1.
    9900018    1    3    3    0    0  0.66292946512E+02  0.81646508639E+02 -0.39201017699E+03  0.41599046189E+03  0.91187600000E+02 0.  0.
<mgrwt>
<rscale>  0 0.82294667E+03</rscale>
<asrwt>0</asrwt>
<pdfrwt beam="1">  1        1 0.20951457E+00 0.82294667E+03</pdfrwt>
<pdfrwt beam="2">  1       -1 0.19126806E-01 0.82294667E+03</pdfrwt>
<totfact> 0.18226388E+02</totfact>
</mgrwt>
</event>
<event>
12    1  0.7782353E-010  0.8851287E+03  0.7818608E-02  0.9444365E-01
          1   -1    0    0  501    0  0.00000000000E+00  0.00000000000E+00  0.64632862630E+03  0.64632862630E+03  0.00000000000E+00 0. -1.
         -1   -1    0    0    0  501 -0.00000000000E+00 -0.00000000000E+00 -0.30303962189E+03  0.30303962189E+03  0.00000000000E+00 0.  1.
    9900016    2    1    2    0    0 -0.50631262514E+02  0.37042102104E+02  0.13489072095E+03  0.73173211465E+03  0.71645009522E+03 0.  0.
         23    2    3    3    0    0  0.25986229609E+02  0.59722839190E+02 -0.89953868053E+02  0.15069446791E+03  0.10185785503E+03 0.  0.
         23    2    3    3    0    0  0.25556216456E+02 -0.64854371528E+02 -0.42068377591E+02  0.12192492602E+03  0.90756429448E+02 0.  0.
        -15    1    5    5    0    0 -0.13950359425E+02  0.14576211106E+02 -0.24064552624E+02  0.31403521320E+02  0.00000000000E+00 0. -1.
        -15    1    4    4    0    0  0.36168857010E+02  0.20619299561E+01 -0.84438739210E+02  0.91882198776E+02  0.00000000000E+00 0. -1.
         15    1    4    4    0    0 -0.10182627401E+02  0.57660909234E+02 -0.55151288428E+01  0.58812269133E+02  0.00000000000E+00 0.  1.
         15    1    5    5    0    0  0.39506575881E+02 -0.79430582634E+02 -0.18003824967E+02  0.90521404701E+02  0.00000000000E+00 0.  1.
        -16    1    3    3    0    0 -0.16948327837E+03  0.11037371476E+03  0.25618645285E+03  0.32640226284E+03  0.00000000000E+00 0.  1.
         16    1    1    2    0    0  0.50631262514E+02 -0.37042102104E+02  0.20839828346E+03  0.21763613354E+03  0.00000000000E+00 0. -1.
    9900018    1    3    3    0    0  0.67309569793E+02 -0.68200080322E+02  0.10726513740E+02  0.13271045789E+03  0.91187600000E+02 0.  0.
<mgrwt>
<rscale>  0 0.88512865E+03</rscale>
<asrwt>0</asrwt>
<pdfrwt beam="1">  1        1 0.99435173E-01 0.88512865E+03</pdfrwt>
<pdfrwt beam="2">  1       -1 0.46621480E-01 0.88512865E+03</pdfrwt>
<totfact> 0.14187332E+02</totfact>
</mgrwt>
</event>
<event>
12    1  0.4708778E-010  0.8223127E+03  0.7818608E-02  0.9528270E-01
         -1   -1    0    0    0  501 -0.00000000000E+00  0.00000000000E+00  0.48648840756E+03  0.48648840756E+03  0.00000000000E+00 0.  1.
          1   -1    0    0  501    0  0.00000000000E+00 -0.00000000000E+00 -0.34748939292E+03  0.34748939292E+03  0.00000000000E+00 0. -1.
    9900016    2    1    2    0    0  0.53268880831E+02  0.56288462303E+00  0.26449366701E+02  0.70945746577E+03  0.70695999620E+03 0.  0.
         23    2    3    3    0    0 -0.48327987474E+01 -0.18912252193E+01  0.46457854831E+02  0.10308327057E+03  0.91874347455E+02 0.  0.
         23    2    3    3    0    0  0.22041737926E+02 -0.16841902608E+03 -0.27385468488E+02  0.19431527732E+03  0.90319746244E+02 0.  0.
        -15    1    5    5    0    0 -0.32208185434E+02 -0.98865304299E+02 -0.10537288202E+02  0.10451196126E+03  0.00000000000E+00 0. -1.
        -15    1    4    4    0    0 -0.23369906069E+02 -0.40871263025E+02  0.14128824620E+02  0.49155226946E+02  0.00000000000E+00 0.  1.
         15    1    4    4    0    0  0.18537107322E+02  0.38980037806E+02  0.32329030211E+02  0.53928043628E+02  0.00000000000E+00 0. -1.
         15    1    5    5    0    0  0.54249923359E+02 -0.69553721776E+02 -0.16848180286E+02  0.89803316066E+02  0.00000000000E+00 0.  1.
        -16    1    1    2    0    0 -0.53268880831E+02 -0.56288462303E+00  0.11254964795E+03  0.12452033471E+03  0.00000000000E+00 0.  1.
         16    1    3    3    0    0 -0.68544067041E+02  0.24380454504E+03 -0.15007729980E+02  0.25370096032E+03  0.00000000000E+00 0. -1.
    9900018    1    3    3    0    0  0.10460400869E+03 -0.72931409118E+02  0.22384710338E+02  0.15835795756E+03  0.91187600000E+02 0.  0.
<mgrwt>
<rscale>  0 0.82231274E+03</rscale>
<asrwt>0</asrwt>
<pdfrwt beam="1">  1        1 0.53459906E-01 0.82231274E+03</pdfrwt>
<pdfrwt beam="2">  1       -1 0.74844371E-01 0.82231274E+03</pdfrwt>
<totfact> 0.13135445E+02</totfact>
</mgrwt>
</event>
<event>
12    1  0.4708778E-010  0.8184874E+03  0.7818608E-02  0.9533636E-01
          2   -1    0    0  501    0  0.00000000000E+00  0.00000000000E+00  0.30575266596E+03  0.30575266596E+03  0.00000000000E+00 0. -1.
         -2   -1    0    0    0  501 -0.00000000000E+00 -0.00000000000E+00 -0.54776432872E+03  0.54776432872E+03  0.00000000000E+00 0.  1.
    9900016    2    1    2    0    0 -0.21034167269E+02 -0.10161631426E+03 -0.19536906306E+03  0.73974598070E+03  0.70589427936E+03 0.  0.
         23    2    3    3    0    0  0.84975780442E+01 -0.77598414062E+02 -0.64555560993E+02  0.13505409706E+03  0.89322259155E+02 0.  0.
         23    2    3    3    0    0  0.10055892657E+03  0.70291365743E+02  0.12342866646E+03  0.19626962799E+03  0.90742257837E+02 0.  0.
        -15    1    5    5    0    0  0.48972262955E+02  0.69033527495E+02  0.30485693341E+02  0.89962703138E+02  0.00000000000E+00 0. -1.
        -15    1    4    4    0    0 -0.17348904708E+02 -0.19220934520E+02  0.17377922493E+02  0.31183665733E+02  0.00000000000E+00 0. -1.
         15    1    4    4    0    0  0.25846482752E+02 -0.58377479542E+02 -0.81933483486E+02  0.10387043133E+03  0.00000000000E+00 0.  1.
         15    1    5    5    0    0  0.51586663611E+02  0.12578382476E+01  0.92942973117E+02  0.10630692485E+03  0.00000000000E+00 0.  1.
        -16    1    1    2    0    0  0.21034167269E+02  0.10161631426E+03 -0.46642599703E+02  0.11377101399E+03  0.00000000000E+00 0.  1.
         16    1    3    3    0    0 -0.13782362345E+03 -0.20675830459E+02 -0.12834888577E+02  0.13995561979E+03  0.00000000000E+00 0. -1.
    9900018    1    3    3    0    0  0.77329515722E+01 -0.73633435482E+02 -0.24140727995E+03  0.26846663585E+03  0.91187600000E+02 0.  0.
<mgrwt>
<rscale>  0 0.81848739E+03</rscale>
<asrwt>0</asrwt>
<pdfrwt beam="1">  1        2 0.47038872E-01 0.81848739E+03</pdfrwt>
<pdfrwt beam="2">  1       -2 0.84271434E-01 0.81848739E+03</pdfrwt>
<totfact> 0.13299130E+02</totfact>
</mgrwt>
</event>
<event>
12    1  0.4708778E-010  0.8901546E+03  0.7818608E-02  0.9437973E-01
         -2   -1    0    0    0  501 -0.00000000000E+00  0.00000000000E+00  0.14256837892E+03  0.14256837892E+03  0.00000000000E+00 0.  1.
          2   -1    0    0  501    0  0.00000000000E+00 -0.00000000000E+00 -0.13894652456E+04  0.13894652456E+04  0.00000000000E+00 0. -1.
    9900016    2    1    2    0    0 -0.75591438160E+02 -0.12506262805E+03 -0.11037341180E+04  0.13274601681E+04  0.72288779780E+03 0.  0.
         23    2    3    3    0    0 -0.23518297346E+02 -0.31427224744E+02 -0.10665291027E+02  0.99308659694E+02  0.90596250984E+02 0.  0.
         23    2    3    3    0    0 -0.70122746689E+02 -0.23693309565E+02 -0.33021833849E+03  0.35024329873E+03  0.90264304733E+02 0.  0.
        -15    1    5    5    0    0 -0.44678263431E+02 -0.48408048262E+02 -0.28634275556E+03  0.29382249747E+03  0.00000000000E+00 0. -1.
        -15    1    4    4    0    0 -0.20006326940E+02 -0.42322021500E+02 -0.43888612106E+02  0.64168659750E+02  0.00000000000E+00 0.  1.
         15    1    4    4    0    0 -0.35119704063E+01  0.10894796756E+02  0.33223321080E+02  0.35139999944E+02  0.00000000000E+00 0. -1.
         15    1    5    5    0    0 -0.25444483258E+02  0.24714738697E+02 -0.43875582934E+02  0.56420801260E+02  0.00000000000E+00 0.  1.
        -16    1    1    2    0    0  0.75591438160E+02  0.12506262805E+03 -0.14316274865E+03  0.20457345639E+03  0.00000000000E+00 0.  1.
         16    1    3    3    0    0  0.19475235930E+03 -0.11172573811E+03 -0.32271840943E+03  0.39313902604E+03  0.00000000000E+00 0. -1.
    9900018    1    3    3    0    0 -0.17670275343E+03  0.41783644375E+02 -0.44013207903E+03  0.48476918362E+03  0.91187600000E+02 0.  0.
<mgrwt>
<rscale>  0 0.89015461E+03</rscale>
<asrwt>0</asrwt>
<pdfrwt beam="1">  1        2 0.21376388E+00 0.89015461E+03</pdfrwt>
<pdfrwt beam="2">  1       -2 0.21933597E-01 0.89015461E+03</pdfrwt>
<totfact> 0.26696381E+02</totfact>
</mgrwt>
</event>
<event>
12    1  0.4708778E-010  0.1231140E+04  0.7818608E-02  0.9086028E-01
          1   -1    0    0  501    0  0.00000000000E+00  0.00000000000E+00  0.10562038496E+04  0.10562038496E+04  0.00000000000E+00 0. -1.
         -1   -1    0    0    0  501 -0.00000000000E+00 -0.00000000000E+00 -0.35876278477E+03  0.35876278477E+03  0.00000000000E+00 0.  1.
    9900016    2    1    2    0    0  0.39884408454E+03 -0.67592164198E+02  0.55191725546E+03  0.98505677922E+03  0.70857525852E+03 0.  0.
         23    2    3    3    0    0  0.10000434262E+03 -0.19095094568E+02  0.16909202563E+03  0.21703876168E+03  0.90267490055E+02 0.  0.
         23    2    3    3    0    0  0.78183226127E+02  0.14299329478E+03  0.19411867310E+03  0.26966360214E+03  0.92068995185E+02 0.  0.
        -15    1    4    4    0    0  0.51367054430E+02  0.34627138166E+02  0.94878127330E+02  0.11331139406E+03  0.00000000000E+00 0.  1.
        -15    1    5    5    0    0  0.23552160124E+02  0.84165689611E+02  0.16024125929E+03  0.18252624122E+03  0.00000000000E+00 0. -1.
         15    1    4    4    0    0  0.48637288192E+02 -0.53722232734E+02  0.74213898300E+02  0.10372736762E+03  0.00000000000E+00 0. -1.
         15    1    5    5    0    0  0.54631066003E+02  0.58827605170E+02  0.33877413812E+02  0.87137360926E+02  0.00000000000E+00 0.  1.
        -16    1    1    2    0    0 -0.39884408454E+03  0.67592164198E+02  0.14552380932E+03  0.42990985510E+03  0.00000000000E+00 0.  1.
         16    1    3    3    0    0  0.11478907330E+03 -0.12491313763E+03 -0.80538211769E+02  0.18779304262E+03  0.00000000000E+00 0. -1.
    9900018    1    3    3    0    0  0.10586744249E+03 -0.66577226781E+02  0.26924476850E+03  0.31056137278E+03  0.91187600000E+02 0.  0.
<mgrwt>
<rscale>  0 0.12311403E+04</rscale>
<asrwt>0</asrwt>
<pdfrwt beam="1">  1        1 0.16249290E+00 0.12311403E+04</pdfrwt>
<pdfrwt beam="2">  1       -1 0.55194275E-01 0.12311403E+04</pdfrwt>
<totfact> 0.44848874E+01</totfact>
</mgrwt>
</event>
<event>
12    1  0.4708778E-010  0.1011265E+04  0.7818608E-02  0.9296275E-01
          1   -1    0    0  501    0  0.00000000000E+00  0.00000000000E+00  0.46419822636E+03  0.46419822636E+03  0.00000000000E+00 0. -1.
         -1   -1    0    0    0  501 -0.00000000000E+00 -0.00000000000E+00 -0.55076520269E+03  0.55076520269E+03  0.00000000000E+00 0.  1.
    9900016    2    1    2    0    0 -0.14411202268E+03  0.15714254170E+03 -0.21282397765E+03  0.76716737606E+03  0.70554212060E+03 0.  0.
         23    2    3    3    0    0 -0.95683494396E+02  0.35782151421E+02 -0.31636885323E+02  0.13918880239E+03  0.89089487248E+02 0.  0.
         23    2    3    3    0    0  0.84783843376E+02  0.21328062417E+02  0.74514889208E+02  0.14719719151E+03  0.92039981150E+02 0.  0.
        -15    1    5    5    0    0  0.17095065640E+02 -0.27513024893E+02  0.51106856561E+02  0.60507178050E+02  0.00000000000E+00 0.  1.
        -15    1    4    4    0    0 -0.76191133803E+02  0.31849675572E+02 -0.61741835097E+02  0.10310938321E+03  0.00000000000E+00 0.  1.
         15    1    5    5    0    0  0.67688777736E+02  0.48841087310E+02  0.23408032647E+02  0.86690013458E+02  0.00000000000E+00 0. -1.
         15    1    4    4    0    0 -0.19492360593E+02  0.39324758490E+01  0.30104949774E+02  0.36079419184E+02  0.00000000000E+00 0. -1.
        -16    1    3    3    0    0 -0.11227710886E+03  0.22374381562E+03 -0.13626724560E+03  0.28501965972E+03  0.00000000000E+00 0.  1.
         16    1    1    2    0    0  0.14411202268E+03 -0.15714254170E+03  0.12625700133E+03  0.24779605299E+03  0.00000000000E+00 0. -1.
    9900018    1    3    3    0    0 -0.20935262795E+02 -0.12371148776E+03 -0.11943473594E+03  0.19576172245E+03  0.91187600000E+02 0.  0.
<mgrwt>
<rscale>  0 0.10112650E+04</rscale>
<asrwt>0</asrwt>
<pdfrwt beam="1">  1        1 0.71415112E-01 0.10112650E+04</pdfrwt>
<pdfrwt beam="2">  1       -1 0.84733108E-01 0.10112650E+04</pdfrwt>
<totfact> 0.67837342E+01</totfact>
</mgrwt>
</event>
<event>
12    1  0.4708778E-010  0.1205809E+04  0.7818608E-02  0.9107787E-01
          1   -1    0    0  501    0  0.00000000000E+00  0.00000000000E+00  0.10868634100E+04  0.10868634100E+04  0.00000000000E+00 0. -1.
         -1   -1    0    0    0  501 -0.00000000000E+00 -0.00000000000E+00 -0.33444306196E+03  0.33444306196E+03  0.00000000000E+00 0.  1.
    9900016    2    1    2    0    0 -0.78093214524E+01 -0.24398857761E+03  0.13352632008E+03  0.75600862186E+03  0.70294263398E+03 0.  0.
         23    2    3    3    0    0 -0.10415236445E+03  0.11496139121E+02  0.44616279075E+01  0.13378573171E+03  0.83059253853E+02 0.  0.
         23    2    3    3    0    0 -0.24314121680E+01 -0.86268451240E+02  0.22404829349E+03  0.25737848157E+03  0.92724794491E+02 0.  0.
        -15    1    5    5    0    0 -0.43259937741E+02 -0.56870256193E+02  0.95020455363E+02  0.11888875132E+03  0.00000000000E+00 0.  1.
        -15    1    4    4    0    0 -0.43642721271E+02 -0.34184133964E+02  0.14515712019E+02  0.57305741687E+02  0.00000000000E+00 0. -1.
         15    1    4    4    0    0 -0.60509643178E+02  0.45680273086E+02 -0.10054084111E+02  0.76479990024E+02  0.00000000000E+00 0.  1.
         15    1    5    5    0    0  0.40828525573E+02 -0.29398195047E+02  0.12902783813E+03  0.13848973025E+03  0.00000000000E+00 0. -1.
        -16    1    3    3    0    0  0.14084957229E+03 -0.24734153370E+02 -0.12055502241E+03  0.18703981872E+03  0.00000000000E+00 0.  1.
         16    1    1    2    0    0  0.78093214524E+01  0.24398857761E+03  0.61889402796E+03  0.66529785011E+03  0.00000000000E+00 0. -1.
    9900018    1    3    3    0    0 -0.42075117129E+02 -0.14448211213E+03  0.25571421094E+02  0.17780458986E+03  0.91187600000E+02 0.  0.
<mgrwt>
<rscale>  0 0.12058092E+04</rscale>
<asrwt>0</asrwt>
<pdfrwt beam="1">  1        1 0.16720975E+00 0.12058092E+04</pdfrwt>
<pdfrwt beam="2">  1       -1 0.51452779E-01 0.12058092E+04</pdfrwt>
<totfact> 0.48754015E+01</totfact>
</mgrwt>
</event>
<event>
12    1  0.4708778E-010  0.9691556E+03  0.7818608E-02  0.9343037E-01
         -2   -1    0    0    0  501 -0.00000000000E+00  0.00000000000E+00  0.18330113821E+03  0.18330113821E+03  0.00000000000E+00 0.  1.
          2   -1    0    0  501    0  0.00000000000E+00 -0.00000000000E+00 -0.12810374381E+04  0.12810374381E+04  0.00000000000E+00 0. -1.
    9900016    2    1    2    0    0  0.16535157424E+03 -0.24828242530E+02 -0.62435784573E+03  0.96229799469E+03  0.71290751598E+03 0.  0.
         23    2    3    3    0    0  0.68604920841E+02 -0.18745213486E+03 -0.21569681766E+02  0.22062411466E+03  0.91459339448E+02 0.  0.
         23    2    3    3    0    0  0.15736403427E+03  0.11350760926E+03 -0.14204638908E+03  0.25748026476E+03  0.92040716256E+02 0.  0.
        -15    1    5    5    0    0 -0.10371506777E+02  0.42491751114E+01  0.12770314638E+01  0.11280711472E+02  0.00000000000E+00 0. -1.
        -15    1    4    4    0    0 -0.41930890703E+01 -0.84432061135E+02 -0.39324911997E+02  0.93235206049E+02  0.00000000000E+00 0.  1.
         15    1    5    5    0    0  0.16773554105E+03  0.10925843415E+03 -0.14332342054E+03  0.24619955329E+03  0.00000000000E+00 0.  1.
         15    1    4    4    0    0  0.72798009911E+02 -0.10302007372E+03  0.17755230232E+02  0.12738890861E+03  0.00000000000E+00 0. -1.
        -16    1    3    3    0    0 -0.30300083793E+02  0.41523009398E+02 -0.18881375170E+03  0.19568568731E+03  0.00000000000E+00 0.  1.
         16    1    1    2    0    0 -0.16535157424E+03  0.24828242530E+02 -0.47337845414E+03  0.50204058160E+03  0.00000000000E+00 0. -1.
    9900018    1    3    3    0    0 -0.30317297084E+02  0.75932736742E+01 -0.27192802319E+03  0.28850792796E+03  0.91187600000E+02 0.  0.
<mgrwt>
<rscale>  0 0.96915555E+03</rscale>
<asrwt>0</asrwt>
<pdfrwt beam="1">  1        2 0.19708268E+00 0.96915555E+03</pdfrwt>
<pdfrwt beam="2">  1       -2 0.28200175E-01 0.96915555E+03</pdfrwt>
<totfact> 0.19479225E+02</totfact>
</mgrwt>
</event>
<event>
12    1  0.4708778E-010  0.1967755E+04  0.7818608E-02  0.8621846E-01
          2   -1    0    0  501    0  0.00000000000E+00  0.00000000000E+00  0.30634679972E+03  0.30634679972E+03  0.00000000000E+00 0. -1.
         -2   -1    0    0    0  501 -0.00000000000E+00 -0.00000000000E+00 -0.31598674021E+04  0.31598674021E+04  0.00000000000E+00 0.  1.
    9900016    2    1    2    0    0 -0.64119322301E+03 -0.48684131578E+03 -0.10697323424E+04  0.15091644394E+04  0.69649609109E+03 0.  0.
         23    2    3    3    0    0 -0.13790326552E+03 -0.31329552695E+03 -0.39507541281E+03  0.53041546088E+03  0.89914300769E+02 0.  0.
         23    2    3    3    0    0 -0.27852903750E+03 -0.24719706629E+03 -0.36522553700E+03  0.52951973387E+03  0.91195621476E+02 0.  0.
        -15    1    5    5    0    0  0.35771474403E+01 -0.17549130004E+02 -0.77690033430E+01  0.19522432242E+02  0.00000000000E+00 0.  1.
        -15    1    4    4    0    0 -0.75632876744E+01 -0.25191869480E+02 -0.79225669297E+02  0.83477783175E+02  0.00000000000E+00 0.  1.
         15    1    4    4    0    0 -0.13033997784E+03 -0.28810365747E+03 -0.31584974351E+03  0.44693767770E+03  0.00000000000E+00 0. -1.
         15    1    5    5    0    0 -0.28210618494E+03 -0.22964793629E+03 -0.35745653365E+03  0.50999730163E+03  0.00000000000E+00 0. -1.
        -16    1    1    2    0    0  0.64119322301E+03  0.48684131578E+03 -0.17837882600E+04  0.19570497624E+04  0.00000000000E+00 0.  1.
         16    1    3    3    0    0 -0.16410523237E+03  0.10939262442E+03 -0.25344885551E+03  0.32114419803E+03  0.00000000000E+00 0. -1.
    9900018    1    3    3    0    0 -0.60655687623E+02 -0.35741346958E+02 -0.55982537049E+02  0.12808504664E+03  0.91187600000E+02 0.  0.
<mgrwt>
<rscale>  0 0.19677553E+04</rscale>
<asrwt>0</asrwt>
<pdfrwt beam="1">  1        2 0.47130276E-01 0.19677553E+04</pdfrwt>
<pdfrwt beam="2">  1       -2 0.48613346E+00 0.19677553E+04</pdfrwt>
<totfact> 0.20126407E-01</totfact>
</mgrwt>
</event>
<event>
12    1  0.4708778E-010  0.1894820E+04  0.7818608E-02  0.8657439E-01
         -1   -1    0    0    0  501 -0.00000000000E+00  0.00000000000E+00  0.29577584237E+03  0.29577584237E+03  0.00000000000E+00 0.  1.
          1   -1    0    0  501    0  0.00000000000E+00 -0.00000000000E+00 -0.30346820358E+04  0.30346820358E+04  0.00000000000E+00 0. -1.
    9900016    2    1    2    0    0  0.29451918742E+03  0.38740245628E+03 -0.42407772078E+03  0.96502914902E+03  0.71736819717E+03 0.  0.
         23    2    3    3    0    0  0.13203323583E+03  0.12926998032E+03 -0.51266483831E+02  0.21269674714E+03  0.92022555395E+02 0.  0.
         23    2    3    3    0    0 -0.28073271084E+02 -0.20210956208E+02 -0.31842565514E+03  0.33256757372E+03  0.89496938146E+02 0.  0.
        -15    1    5    5    0    0  0.21706806990E+02  0.18461279189E+02 -0.58007404857E+02  0.64628657090E+02  0.00000000000E+00 0.  1.
        -15    1    4    4    0    0  0.62098302494E+02  0.60650874388E+01 -0.10889644464E+01  0.62403287588E+02  0.00000000000E+00 0.  1.
         15    1    4    4    0    0  0.69934933336E+02  0.12320489288E+03 -0.50177519384E+02  0.15029345955E+03  0.00000000000E+00 0. -1.
         15    1    5    5    0    0 -0.49780078074E+02 -0.38672235398E+02 -0.26041825028E+03  0.26793891663E+03  0.00000000000E+00 0. -1.
        -16    1    3    3    0    0  0.11457187143E+02  0.28050420131E+02  0.69400474750E+02  0.75726607625E+02  0.00000000000E+00 0.  1.
         16    1    1    2    0    0 -0.29451918742E+03 -0.38740245628E+03 -0.23148284726E+04  0.23654287291E+04  0.00000000000E+00 0. -1.
    9900018    1    3    3    0    0  0.17910203553E+03  0.25029301203E+03 -0.12378605656E+03  0.34403822054E+03  0.91187600000E+02 0.  0.
<mgrwt>
<rscale>  0 0.18948199E+04</rscale>
<asrwt>0</asrwt>
<pdfrwt beam="1">  1        1 0.46687413E+00 0.18948199E+04</pdfrwt>
<pdfrwt beam="2">  1       -1 0.45503978E-01 0.18948199E+04</pdfrwt>
<totfact> 0.25379604E+00</totfact>
</mgrwt>
</event>
<event>
12    1  0.4708778E-010  0.2229053E+04  0.7818608E-02  0.8506432E-01
          4   -1    0    0  501    0  0.00000000000E+00  0.00000000000E+00  0.22035677214E+04  0.22035677214E+04  0.00000000000E+00 0. -1.
         -4   -1    0    0    0  501 -0.00000000000E+00 -0.00000000000E+00 -0.56370832284E+03  0.56370832284E+03  0.00000000000E+00 0.  1.
    9900016    2    1    2    0    0 -0.68810742429E+03  0.23744075053E+03  0.17594321115E+04  0.20295988987E+04  0.70270932629E+03 0.  0.
         23    2    3    3    0    0 -0.39162012959E+03  0.80029140324E+02  0.87716718927E+03  0.96817518866E+03  0.90387658403E+02 0.  0.
         23    2    3    3    0    0 -0.35916785072E+02  0.11948163025E+03  0.44789919941E+03  0.47402124814E+03  0.92285293763E+02 0.  0.
        -15    1    4    4    0    0 -0.25366040395E+03  0.62938877854E+02  0.66508871509E+03  0.71459632088E+03  0.00000000000E+00 0.  1.
        -15    1    5    5    0    0  0.23685054372E+02  0.34071058261E+02  0.21394151591E+03  0.21792840807E+03  0.00000000000E+00 0. -1.
         15    1    5    5    0    0 -0.59601839444E+02  0.85410571986E+02  0.23395768350E+03  0.25609284008E+03  0.00000000000E+00 0.  1.
         15    1    4    4    0    0 -0.13795972564E+03  0.17090262471E+02  0.21207847419E+03  0.25357886778E+03  0.00000000000E+00 0. -1.
        -16    1    1    2    0    0  0.68810742429E+03 -0.23744075053E+03 -0.11957271293E+03  0.73767714554E+03  0.00000000000E+00 0.  1.
         16    1    3    3    0    0 -0.29581046453E+03  0.26347985516E+02  0.32790761293E+03  0.44240417028E+03  0.00000000000E+00 0. -1.
    9900018    1    3    3    0    0  0.35239954899E+02  0.11581994446E+02  0.10645810985E+03  0.14499829159E+03  0.91187600000E+02 0.  0.
<mgrwt>
<rscale>  0 0.22290531E+04</rscale>
<asrwt>0</asrwt>
<pdfrwt beam="1">  1        4 0.33901041E+00 0.22290531E+04</pdfrwt>
<pdfrwt beam="2">  1       -4 0.86724359E-01 0.22290531E+04</pdfrwt>
<totfact> 0.36784871E-02</totfact>
</mgrwt>
</event>
<event>
12    1  0.4708778E-010  0.1161211E+04  0.7818608E-02  0.9147502E-01
          1   -1    0    0  501    0  0.00000000000E+00  0.00000000000E+00  0.14672564902E+04  0.14672564902E+04  0.00000000000E+00 0. -1.
         -1   -1    0    0    0  501 -0.00000000000E+00 -0.00000000000E+00 -0.22975057897E+03  0.22975057897E+03  0.00000000000E+00 0.  1.
    9900016    2    1    2    0    0 -0.23649715786E+03 -0.14871398602E+03  0.50328372620E+03  0.91143150164E+03  0.70665841664E+03 0.  0.
         23    2    3    3    0    0 -0.47437598332E+02 -0.65049960641E+01  0.87130329834E+02  0.13871454091E+03  0.96733596921E+02 0.  0.
         23    2    3    3    0    0  0.12717988629E+03  0.82568272759E+02  0.63750225831E+02  0.18850539416E+03  0.92075779597E+02 0.  0.
        -15    1    5    5    0    0  0.81474737923E+02  0.48541217933E+02  0.85329393912E+02  0.12757542171E+03  0.00000000000E+00 0.  1.
        -15    1    4    4    0    0 -0.32713224680E+02  0.43961696733E+02  0.51556099115E+02  0.75238402459E+02  0.00000000000E+00 0.  1.
         15    1    4    4    0    0 -0.14724373652E+02 -0.50466692797E+02  0.35574230719E+02  0.63476138450E+02  0.00000000000E+00 0. -1.
         15    1    5    5    0    0  0.45705148371E+02  0.34027054826E+02 -0.21579168081E+02  0.60929972451E+02  0.00000000000E+00 0. -1.
        -16    1    3    3    0    0 -0.13448745765E+03 -0.26819390403E+02  0.71897276110E+01  0.13732388048E+03  0.00000000000E+00 0.  1.
         16    1    1    2    0    0  0.23649715786E+03  0.14871398602E+03  0.73422218498E+03  0.78557556748E+03  0.00000000000E+00 0. -1.
    9900018    1    3    3    0    0 -0.18175198818E+03 -0.19795787231E+03  0.34521344292E+03  0.44688768610E+03  0.91187600000E+02 0.  0.
<mgrwt>
<rscale>  0 0.11612115E+04</rscale>
<asrwt>0</asrwt>
<pdfrwt beam="1">  1        1 0.22573176E+00 0.11612115E+04</pdfrwt>
<pdfrwt beam="2">  1       -1 0.35346244E-01 0.11612115E+04</pdfrwt>
<totfact> 0.52140711E+01</totfact>
</mgrwt>
</event>
<event>
12    1  0.4708778E-010  0.1226774E+04  0.7818608E-02  0.9089738E-01
          2   -1    0    0  501    0  0.00000000000E+00  0.00000000000E+00  0.32510052152E+03  0.32510052152E+03  0.00000000000E+00 0. -1.
         -2   -1    0    0    0  501 -0.00000000000E+00 -0.00000000000E+00 -0.11573154229E+04  0.11573154229E+04  0.00000000000E+00 0.  1.
    9900016    2    1    2    0    0  0.32973397709E+03 -0.22550284729E+03 -0.44299227136E+03  0.92467919153E+03  0.70655036974E+03 0.  0.
         23    2    3    3    0    0  0.71522218867E+02 -0.44019218318E+02 -0.47073864042E+02  0.13249387658E+03  0.91025047551E+02 0.  0.
         23    2    3    3    0    0 -0.75007511932E+02 -0.13033481293E+02 -0.73469587428E+02  0.13935325229E+03  0.90694818849E+02 0.  0.
        -15    1    4    4    0    0  0.74468943298E+02 -0.23418628972E+02  0.31514199057E+01  0.78128017678E+02  0.00000000000E+00 0. -1.
        -15    1    5    5    0    0 -0.37760416403E+02 -0.23225869299E+02  0.11690163081E+02  0.45847027869E+02  0.00000000000E+00 0.  1.
         15    1    4    4    0    0 -0.29467244311E+01 -0.20600589346E+02 -0.50225283948E+02  0.54365858899E+02  0.00000000000E+00 0.  1.
         15    1    5    5    0    0 -0.37247095529E+02  0.10192388006E+02 -0.85159750509E+02  0.93506224420E+02  0.00000000000E+00 0. -1.
        -16    1    1    2    0    0 -0.32973397709E+03  0.22550284729E+03 -0.38922262998E+03  0.55773675285E+03  0.00000000000E+00 0.  1.
         16    1    3    3    0    0  0.71918761993E+02  0.96310620425E+02  0.38834819644E+02  0.12631780219E+03  0.00000000000E+00 0. -1.
    9900018    1    3    3    0    0  0.26130050816E+03 -0.26476076811E+03 -0.36128363953E+03  0.52651426047E+03  0.91187600000E+02 0.  0.
<mgrwt>
<rscale>  0 0.12267744E+04</rscale>
<asrwt>0</asrwt>
<pdfrwt beam="1">  1        2 0.50015465E-01 0.12267744E+04</pdfrwt>
<pdfrwt beam="2">  1       -2 0.17804853E+00 0.12267744E+04</pdfrwt>
<totfact> 0.18472966E+01</totfact>
</mgrwt>
</event>
<event>
12    1  0.4708778E-010  0.8589202E+03  0.7818608E-02  0.9478442E-01
          1   -1    0    0  501    0  0.00000000000E+00  0.00000000000E+00  0.11029682522E+04  0.11029682522E+04  0.00000000000E+00 0. -1.
         -1   -1    0    0    0  501 -0.00000000000E+00 -0.00000000000E+00 -0.16721784562E+03  0.16721784562E+03  0.00000000000E+00 0.  1.
    9900016    2    1    2    0    0 -0.82994910041E+02 -0.10451437899E+03  0.83005338187E+03  0.10999413577E+04  0.70927495594E+03 0.  0.
         23    2    3    3    0    0  0.13674568711E+03 -0.30279605729E+02  0.22142309417E+03  0.27745024273E+03  0.91291911455E+02 0.  0.
         23    2    3    3    0    0 -0.54866067514E+02 -0.83811176586E+02  0.30002858661E+03  0.32892725190E+03  0.90229626909E+02 0.  0.
        -15    1    4    4    0    0  0.21676801821E+02  0.10463727494E+02  0.10857398731E+03  0.11121008970E+03  0.00000000000E+00 0.  1.
        -15    1    5    5    0    0 -0.67881233169E+02 -0.36354368765E+02  0.23554322043E+03  0.24781063463E+03  0.00000000000E+00 0.  1.
         15    1    4    4    0    0  0.11506888529E+03 -0.40743333223E+02  0.11284910686E+03  0.16624015304E+03  0.00000000000E+00 0. -1.
         15    1    5    5    0    0  0.13015165655E+02 -0.47456807820E+02  0.64485366180E+02  0.81116617267E+02  0.00000000000E+00 0. -1.
        -16    1    3    3    0    0 -0.11588062535E+03  0.16216584575E+03  0.18189736103E+03  0.26983834199E+03  0.00000000000E+00 0.  1.
         16    1    1    2    0    0  0.82994910041E+02  0.10451437899E+03  0.10569702474E+03  0.17024474014E+03  0.00000000000E+00 0. -1.
    9900018    1    3    3    0    0 -0.48993904282E+02 -0.15258944242E+03  0.12670434006E+03  0.22372552107E+03  0.91187600000E+02 0.  0.
<mgrwt>
<rscale>  0 0.85892019E+03</rscale>
<asrwt>0</asrwt>
<pdfrwt beam="1">  1        1 0.16968742E+00 0.85892019E+03</pdfrwt>
<pdfrwt beam="2">  1       -1 0.25725823E-01 0.85892019E+03</pdfrwt>
<totfact> 0.16954256E+02</totfact>
</mgrwt>
</event>
<event>
12    1  0.4708778E-010  0.1279506E+04  0.7818608E-02  0.9045977E-01
          1   -1    0    0  501    0  0.00000000000E+00  0.00000000000E+00  0.30589689664E+04  0.30589689664E+04  0.00000000000E+00 0. -1.
         -1   -1    0    0    0  501 -0.00000000000E+00 -0.00000000000E+00 -0.13379791079E+03  0.13379791079E+03  0.00000000000E+00 0.  1.
    9900016    2    1    2    0    0 -0.43333091809E+03  0.40739802267E+02  0.17000170503E+04  0.18925985217E+04  0.70882704287E+03 0.  0.
         23    2    3    3    0    0 -0.22597466886E+03 -0.76542617847E+02  0.51279429518E+03  0.57294228002E+03  0.91550771451E+02 0.  0.
         23    2    3    3    0    0 -0.10325004087E+03  0.17732954135E+03  0.40696249040E+03  0.46499435196E+03  0.92168007371E+02 0.  0.
        -15    1    4    4    0    0 -0.45856348236E+02 -0.54124312636E+02  0.10668939262E+03  0.12812053852E+03  0.00000000000E+00 0. -1.
        -15    1    5    5    0    0 -0.62155244145E+02  0.33812842194E+02  0.88744318120E+02  0.11349950075E+03  0.00000000000E+00 0. -1.
         15    1    4    4    0    0 -0.18011832063E+03 -0.22418305211E+02  0.40610490256E+03  0.44482174150E+03  0.00000000000E+00 0.  1.
         15    1    5    5    0    0 -0.41094796725E+02  0.14351669916E+03  0.31821817228E+03  0.35149485120E+03  0.00000000000E+00 0.  1.
        -16    1    1    2    0    0  0.43333091809E+03 -0.40739802267E+02  0.12251540053E+04  0.13001683555E+04  0.00000000000E+00 0.  1.
         16    1    3    3    0    0 -0.64610061780E+01 -0.84737430748E+02  0.68129313399E+03  0.68657301956E+03  0.00000000000E+00 0. -1.
    9900018    1    3    3    0    0 -0.97645202180E+02  0.24690309513E+02  0.98967130765E+02  0.16808887012E+03  0.91187600000E+02 0.  0.
<mgrwt>
<rscale>  0 0.12795056E+04</rscale>
<asrwt>0</asrwt>
<pdfrwt beam="1">  1        1 0.47061056E+00 0.12795056E+04</pdfrwt>
<pdfrwt beam="2">  1       -1 0.20584296E-01 0.12795056E+04</pdfrwt>
<totfact> 0.10496713E+01</totfact>
</mgrwt>
</event>
<event>
12    1  0.4708778E-010  0.1607937E+04  0.7818608E-02  0.8815687E-01
          1   -1    0    0  501    0  0.00000000000E+00  0.00000000000E+00  0.13581947102E+04  0.13581947102E+04  0.00000000000E+00 0. -1.
         -1   -1    0    0    0  501 -0.00000000000E+00 -0.00000000000E+00 -0.47590056121E+03  0.47590056121E+03  0.00000000000E+00 0.  1.
    9900016    2    1    2    0    0 -0.48561450427E+03 -0.40111867910E+03  0.38947769115E+03  0.10343542492E+04  0.72213447461E+03 0.  0.
         23    2    3    3    0    0 -0.16669014775E+03 -0.13681143946E+03 -0.62115377880E+02  0.24244878583E+03  0.91761202342E+02 0.  0.
         23    2    3    3    0    0 -0.11868957823E+03 -0.26564859630E+03  0.25655341183E+03  0.39590773172E+03  0.79163667316E+02 0.  0.
        -15    1    4    4    0    0 -0.44994505632E+02 -0.58651775474E+02 -0.64037904594E+02  0.97802809408E+02  0.00000000000E+00 0.  1.
        -15    1    5    5    0    0 -0.46646721817E+02 -0.32411843907E+02  0.58728041221E+02  0.81703287005E+02  0.00000000000E+00 0.  1.
         15    1    4    4    0    0 -0.12169564212E+03 -0.78159663989E+02  0.19225267137E+01  0.14464597642E+03  0.00000000000E+00 0. -1.
         15    1    5    5    0    0 -0.72042856417E+02 -0.23323675239E+03  0.19782537061E+03  0.31420444472E+03  0.00000000000E+00 0. -1.
        -16    1    3    3    0    0 -0.12990835638E+03  0.10161279520E+03  0.23915184883E+02  0.16665316460E+03  0.00000000000E+00 0.  1.
         16    1    1    2    0    0  0.48561450427E+03  0.40111867910E+03  0.49281645780E+03  0.79974102218E+03  0.00000000000E+00 0. -1.
    9900018    1    3    3    0    0 -0.70326421909E+02 -0.10027143854E+03  0.17112447232E+03  0.22934456703E+03  0.91187600000E+02 0.  0.
<mgrwt>
<rscale>  0 0.16079373E+04</rscale>
<asrwt>0</asrwt>
<pdfrwt beam="1">  1        1 0.20895303E+00 0.16079373E+04</pdfrwt>
<pdfrwt beam="2">  1       -1 0.73215471E-01 0.16079373E+04</pdfrwt>
<totfact> 0.14824430E+01</totfact>
</mgrwt>
</event>
