<event>
11    1  0.7395460E-012  0.9418968E+03  0.7818608E-02  0.9374672E-01
         -1   -1    0    0    0  501 -0.00000000000E+00  0.00000000000E+00  0.72915891450E+03  0.72915891450E+03  0.00000000000E+00 0.  1.
          1   -1    0    0  501    0  0.00000000000E+00 -0.00000000000E+00 -0.30417566212E+03  0.30417566212E+03  0.00000000000E+00 0. -1.
    9900016    2    1    2    0    0  0.10594144597E+03  0.15557942222E+03  0.37476018688E+03  0.83852466184E+03  0.72611973134E+03 0.  0.
         23    2    3    3    0    0 -0.66492570026E+02 -0.66278143154E+02 -0.28549235149E+02  0.13482688338E+03  0.92461751693E+02 0.  0.
        -15    1    4    4    0    0  0.14749227584E+02  0.61872344903E+01 -0.20026004877E+02  0.25629328050E+02  0.00000000000E+00 0. -1.
        -15    1    3    3    0    0 -0.31145377222E+02  0.16427181788E+01  0.44698466867E+02  0.54503999721E+02  0.00000000000E+00 0.  1.
         15    1    3    3    0    0 -0.21961099447E+02  0.19476041045E+03  0.34671316690E+02  0.19903770389E+03  0.00000000000E+00 0. -1.
         15    1    4    4    0    0 -0.81241797611E+02 -0.72465377644E+02 -0.85232302719E+01  0.10919755533E+03  0.00000000000E+00 0.  1.
        -16    1    3    3    0    0  0.97921412848E+02  0.18639806768E+02  0.11309574771E+02  0.10031925026E+03  0.00000000000E+00 0.  1.
         16    1    1    2    0    0 -0.10594144597E+03 -0.15557942222E+03  0.50223065494E+02  0.19480991479E+03  0.00000000000E+00 0. -1.
    9900018    1    3    3    0    0  0.12761907982E+03  0.68146299720E+01  0.31263006370E+03  0.34983682459E+03  0.91187600000E+02 0.  0.
<mgrwt>
<rscale>  0 0.94189680E+03</rscale>
<asrwt>0</asrwt>
<pdfrwt beam="1">  1        1 0.46796256E-01 0.94189680E+03</pdfrwt>
<pdfrwt beam="2">  1       -1 0.11217829E+00 0.94189680E+03</pdfrwt>
<totfact> 0.63119018E+01</totfact>
</mgrwt>
</event>
<event>
11    1  0.7395460E-012  0.8780105E+03  0.7818608E-02  0.9453495E-01
          1   -1    0    0  501    0  0.00000000000E+00  0.00000000000E+00  0.21632476426E+04  0.21632476426E+04  0.00000000000E+00 0. -1.
         -1   -1    0    0    0  501 -0.00000000000E+00 -0.00000000000E+00 -0.89090872792E+02  0.89090872792E+02  0.00000000000E+00 0.  1.
    9900016    2    1    2    0    0  0.10877520103E+03  0.79207473998E+02  0.15418590257E+04  0.17032968443E+04  0.71118564111E+03 0.  0.
         23    2    3    3    0    0  0.67742533988E+02  0.61071152285E+02  0.71987516976E+02  0.14360408349E+03  0.84387165146E+02 0.  0.
        -15    1    3    3    0    0 -0.33421397055E+02 -0.54336491509E+02  0.25695323572E+03  0.26475348806E+03  0.00000000000E+00 0. -1.
        -15    1    4    4    0    0  0.56467690309E+02  0.27428555085E+02 -0.63197289427E+00  0.62779973500E+02  0.00000000000E+00 0. -1.
         15    1    4    4    0    0  0.11274843680E+02  0.33642597200E+02  0.72619489870E+02  0.80824109988E+02  0.00000000000E+00 0.  1.
         15    1    3    3    0    0 -0.20123641373E+02 -0.10818240253E+03  0.26798974774E+03  0.28970139463E+03  0.00000000000E+00 0.  1.
        -16    1    3    3    0    0  0.14399167219E+03  0.17598930668E+03  0.75849035951E+03  0.79184181703E+03  0.00000000000E+00 0.  1.
         16    1    1    2    0    0 -0.10877520103E+03 -0.79207473998E+02  0.53229774404E+03  0.54904167110E+03  0.00000000000E+00 0. -1.
    9900018    1    3    3    0    0 -0.49413966723E+02  0.46659090740E+01  0.18643816578E+03  0.21339606104E+03  0.91187600000E+02 0.  0.
<mgrwt>
<rscale>  0 0.87801053E+03</rscale>
<asrwt>0</asrwt>
<pdfrwt beam="1">  1        1 0.33280729E+00 0.87801053E+03</pdfrwt>
<pdfrwt beam="2">  1       -1 0.13706290E-01 0.87801053E+03</pdfrwt>
<totfact> 0.89776617E+01</totfact>
</mgrwt>
</event>
<event>
12    1  0.7395460E-012  0.1821902E+04  0.7818608E-02  0.8694738E-01
         -2   -1    0    0    0  501 -0.00000000000E+00  0.00000000000E+00  0.65487557281E+03  0.65487557281E+03  0.00000000000E+00 0. -1.
          2   -1    0    0  501    0  0.00000000000E+00 -0.00000000000E+00 -0.12671600748E+04  0.12671600748E+04  0.00000000000E+00 0.  1.
    9900016    2    1    2    0    0 -0.38830864905E+03  0.28458655355E+03 -0.99107136605E+03  0.13094569981E+04  0.70758890881E+03 0.  0.
         23    2    3    3    0    0 -0.18212501758E+03 -0.10105292350E+02 -0.37362820403E+03  0.42554157672E+03  0.90641931264E+02 0.  0.
         23    2    3    3    0    0 -0.36459341610E+02  0.23151372784E+03 -0.24380623943E+03  0.34518897036E+03  0.69181306042E+02 0.  0.
        -15    1    5    5    0    0 -0.28740291631E+02  0.50235703405E+02 -0.91637790758E+02  0.10838410840E+03  0.00000000000E+00 0.  1.
        -15    1    4    4    0    0 -0.55256751789E+01 -0.22016878142E+02 -0.75401231885E+02  0.78744026942E+02  0.00000000000E+00 0. -1.
         15    1    5    5    0    0 -0.77190499796E+01  0.18127802443E+03 -0.15216844867E+03  0.23680486196E+03  0.00000000000E+00 0. -1.
         15    1    4    4    0    0 -0.17659934240E+03  0.11911585792E+02 -0.29822697215E+03  0.34679754978E+03  0.00000000000E+00 0.  1.
        -16    1    3    3    0    0 -0.24500109276E+03  0.41495831247E+02 -0.32483900061E+03  0.40898388206E+03  0.00000000000E+00 0.  1.
         16    1    1    2    0    0  0.38830864905E+03 -0.28458655355E+03  0.37878686410E+03  0.61257864948E+03  0.00000000000E+00 0. -1.
    9900018    1    3    3    0    0  0.75276802907E+02  0.21682286816E+02 -0.48797921976E+02  0.12974256896E+03  0.91187600000E+02 0.  0.
<mgrwt>
<rscale>  0 0.18219025E+04</rscale>
<asrwt>0</asrwt>
<pdfrwt beam="1">  1        2 0.19494770E+00 0.18219025E+04</pdfrwt>
<pdfrwt beam="2">  1       -2 0.10075009E+00 0.18219025E+04</pdfrwt>
<totfact> 0.13217187E+01</totfact>
</mgrwt>
</event>
<event>
12    1  0.7395460E-012  0.8390843E+03  0.7818608E-02  0.9505106E-01
          1   -1    0    0  501    0  0.00000000000E+00  0.00000000000E+00  0.14181453645E+04  0.14181453645E+04  0.00000000000E+00 0. -1.
         -1   -1    0    0    0  501 -0.00000000000E+00 -0.00000000000E+00 -0.12411676116E+03  0.12411676116E+03  0.00000000000E+00 0.  1.
    9900016    2    1    2    0    0 -0.37417068381E+02  0.11322721175E+03  0.10952247353E+04  0.13104358622E+04  0.70958050254E+03 0.  0.
         23    2    3    3    0    0  0.51903125652E+01 -0.13848739859E+03  0.37906534982E+03  0.41470159138E+03  0.95295181155E+02 0.  0.
         23    2    3    3    0    0  0.16571967291E+03  0.19548489623E+03  0.30924243388E+03  0.40588296782E+03  0.58589640850E+02 0.  0.
        -15    1    5    5    0    0  0.61997331237E+02  0.46922750427E+02  0.62485296074E+02  0.99748813595E+02  0.00000000000E+00 0.  1.
        -15    1    4    4    0    0 -0.44555036608E+02 -0.60699071935E+02  0.15362965860E+03  0.17108945211E+03  0.00000000000E+00 0.  1.
         15    1    4    4    0    0  0.49745349173E+02 -0.77788326656E+02  0.22543569121E+03  0.24361213927E+03  0.00000000000E+00 0. -1.
         15    1    5    5    0    0  0.10372234167E+03  0.14856214580E+03  0.24675713781E+03  0.30613415423E+03  0.00000000000E+00 0. -1.
        -16    1    1    2    0    0  0.37417068381E+02 -0.11322721175E+03  0.19880386796E+03  0.23182626340E+03  0.00000000000E+00 0.  1.
         16    1    3    3    0    0 -0.13757783310E+03  0.18131904485E+02  0.14283962110E+03  0.19914714027E+03  0.00000000000E+00 0. -1.
    9900018    1    3    3    0    0 -0.70749220756E+02  0.38097809630E+02  0.26407733054E+03  0.29070416274E+03  0.91187600000E+02 0.  0.
<mgrwt>
<rscale>  0 0.83908429E+03</rscale>
<asrwt>0</asrwt>
<pdfrwt beam="1">  1        1 0.21817620E+00 0.83908429E+03</pdfrwt>
<pdfrwt beam="2">  1       -1 0.19094887E-01 0.83908429E+03</pdfrwt>
<totfact> 0.16678554E+02</totfact>
</mgrwt>
</event>
<event>
12    1  0.7395460E-012  0.8029003E+03  0.7818608E-02  0.9555829E-01
          2   -1    0    0  501    0  0.00000000000E+00  0.00000000000E+00  0.84691125176E+03  0.84691125176E+03  0.00000000000E+00 0.  1.
         -2   -1    0    0    0  501 -0.00000000000E+00 -0.00000000000E+00 -0.19029408930E+03  0.19029408930E+03  0.00000000000E+00 0. -1.
    9900016    2    1    2    0    0  0.19948428435E+02 -0.33382663164E+02  0.52435151583E+03  0.89934112062E+03  0.72962839657E+03 0.  0.
         23    2    3    3    0    0  0.29052243145E+02  0.18462125673E+02 -0.33165297504E+02  0.10213501485E+03  0.90259300812E+02 0.  0.
         23    2    3    3    0    0  0.17480431811E+03 -0.80879766527E+02  0.50709469253E+03  0.55405897632E+03  0.11286379306E+03 0.  0.
        -15    1    4    4    0    0  0.35918486576E+02 -0.29893885930E+02 -0.23653984872E+02  0.52376455533E+02  0.00000000000E+00 0.  1.
        -15    1    5    5    0    0  0.94312002169E+02  0.17063779359E+02  0.23898128421E+03  0.25748394226E+03  0.00000000000E+00 0.  1.
         15    1    5    5    0    0  0.80492315943E+02 -0.97943545886E+02  0.26811340832E+03  0.29657503406E+03  0.00000000000E+00 0. -1.
         15    1    4    4    0    0 -0.68662434312E+01  0.48356011603E+02 -0.95113126324E+01  0.49758559314E+02  0.00000000000E+00 0. -1.
        -16    1    3    3    0    0 -0.10119210016E+03 -0.21341194222E+02  0.35260082795E+02  0.10926372291E+03  0.00000000000E+00 0.  1.
         16    1    1    2    0    0 -0.19948428435E+02  0.33382663164E+02  0.13226564664E+03  0.13786422044E+03  0.00000000000E+00 0. -1.
    9900018    1    3    3    0    0 -0.82716032658E+02  0.50376171912E+02  0.15162038004E+02  0.13388340653E+03  0.91187600000E+02 0.  0.
<mgrwt>
<rscale>  0 0.80290026E+03</rscale>
<asrwt>0</asrwt>
<pdfrwt beam="1">  1        2 0.13029404E+00 0.80290026E+03</pdfrwt>
<pdfrwt beam="2">  1       -2 0.29276014E-01 0.80290026E+03</pdfrwt>
<totfact> 0.34373820E+02</totfact>
</mgrwt>
</event>
<event>
12    1  0.7395460E-012  0.8656533E+03  0.7818608E-02  0.9469565E-01
         -1   -1    0    0    0  501 -0.00000000000E+00  0.00000000000E+00  0.34358749948E+03  0.34358749948E+03  0.00000000000E+00 0.  1.
          1   -1    0    0  501    0  0.00000000000E+00 -0.00000000000E+00 -0.54524360785E+03  0.54524360785E+03  0.00000000000E+00 0. -1.
    9900016    2    1    2    0    0 -0.11159025869E+03  0.79454569567E+02 -0.18055656377E+03  0.75022877964E+03  0.71517629618E+03 0.  0.
         23    2    3    3    0    0  0.17506675764E+03  0.74170880590E+02 -0.87362567228E+02  0.22976109818E+03  0.94911827112E+02 0.  0.
         23    2    3    3    0    0 -0.10394655960E+03 -0.72323708889E+02  0.39107825652E+02  0.17876633319E+03  0.11996821968E+03 0.  0.
        -15    1    4    4    0    0  0.85181948863E+02 -0.11830068291E+02 -0.20004998681E+02  0.88295610877E+02  0.00000000000E+00 0. -1.
        -15    1    5    5    0    0 -0.51546641842E+02 -0.50314979765E+02 -0.39199782741E+02  0.82007782807E+02  0.00000000000E+00 0. -1.
         15    1    5    5    0    0 -0.52399917763E+02 -0.22008729124E+02  0.78307608394E+02  0.96758550379E+02  0.00000000000E+00 0.  1.
         15    1    4    4    0    0  0.89884808780E+02  0.86000948881E+02 -0.67357568547E+02  0.14146548730E+03  0.00000000000E+00 0.  1.
        -16    1    1    2    0    0  0.11159025869E+03 -0.79454569567E+02 -0.21099544597E+02  0.13860232769E+03  0.00000000000E+00 0.  1.
         16    1    3    3    0    0 -0.13094416985E+03  0.14021955298E+03 -0.67036996060E+02  0.20322858435E+03  0.00000000000E+00 0. -1.
    9900018    1    3    3    0    0 -0.51766286883E+02 -0.62612155114E+02 -0.65264826136E+02  0.13847276393E+03  0.91187600000E+02 0.  0.
<mgrwt>
<rscale>  0 0.86565325E+03</rscale>
<asrwt>0</asrwt>
<pdfrwt beam="1">  1        1 0.83883632E-01 0.86565325E+03</pdfrwt>
<pdfrwt beam="2">  1       -1 0.52859615E-01 0.86565325E+03</pdfrwt>
<totfact> 0.14299408E+02</totfact>
</mgrwt>
</event>
<event>
12    1  0.7395460E-012  0.1047189E+04  0.7818608E-02  0.9258251E-01
         -1   -1    0    0    0  501 -0.00000000000E+00  0.00000000000E+00  0.26377060571E+03  0.26377060571E+03  0.00000000000E+00 0.  1.
          1   -1    0    0  501    0  0.00000000000E+00 -0.00000000000E+00 -0.10393551194E+04  0.10393551194E+04  0.00000000000E+00 0. -1.
    9900016    2    1    2    0    0  0.27604606646E+03  0.26140377008E+02 -0.63186071327E+03  0.99080972980E+03  0.71103530825E+03 0.  0.
         23    2    3    3    0    0  0.18136311936E+03  0.41099500947E+02 -0.32488400176E+03  0.38533635716E+03  0.91393345005E+02 0.  0.
         23    2    3    3    0    0  0.13345229779E+03  0.11074990076E+03  0.34595684651E+02  0.19138931403E+03  0.73198031564E+02 0.  0.
        -15    1    4    4    0    0  0.11041439466E+03  0.33036388923E+02 -0.11164624559E+03  0.16046066713E+03  0.00000000000E+00 0.  1.
        -15    1    5    5    0    0  0.16352458404E+02  0.43641317269E+02  0.31752110413E+02  0.56392942684E+02  0.00000000000E+00 0.  1.
         15    1    5    5    0    0  0.11709983938E+03  0.67108583487E+02  0.28435742378E+01  0.13499637134E+03  0.00000000000E+00 0. -1.
         15    1    4    4    0    0  0.70948724696E+02  0.80631120247E+01 -0.21323775617E+03  0.22487569004E+03  0.00000000000E+00 0. -1.
        -16    1    3    3    0    0  0.46680329264E+01 -0.12318864114E+03 -0.24525251332E+03  0.27449230796E+03  0.00000000000E+00 0.  1.
         16    1    1    2    0    0 -0.27604606646E+03 -0.26140377008E+02 -0.14372380041E+03  0.31231599531E+03  0.00000000000E+00 0. -1.
    9900018    1    3    3    0    0 -0.43437383606E+02 -0.25203835572E+01 -0.96319882839E+02  0.13959175066E+03  0.91187600000E+02 0.  0.
<mgrwt>
<rscale>  0 0.10471892E+04</rscale>
<asrwt>0</asrwt>
<pdfrwt beam="1">  1        1 0.15990079E+00 0.10471892E+04</pdfrwt>
<pdfrwt beam="2">  1       -1 0.40580093E-01 0.10471892E+04</pdfrwt>
<totfact> 0.83571455E+01</totfact>
</mgrwt>
</event>
<event>
12    1  0.7395460E-012  0.8900878E+03  0.7818608E-02  0.9438058E-01
          1   -1    0    0  501    0  0.00000000000E+00  0.00000000000E+00  0.10457039821E+04  0.10457039821E+04  0.00000000000E+00 0. -1.
         -1   -1    0    0    0  501 -0.00000000000E+00 -0.00000000000E+00 -0.18940738629E+03  0.18940738629E+03  0.00000000000E+00 0.  1.
    9900016    2    1    2    0    0  0.71348282865E+02 -0.27097724956E+02  0.89834654565E+03  0.11479731883E+04  0.71062723051E+03 0.  0.
         23    2    3    3    0    0  0.83326764166E+02  0.52672062851E+02  0.10176729126E+03  0.17049086538E+03  0.94830679503E+02 0.  0.
         23    2    3    3    0    0  0.37030662043E+02 -0.17863563900E+03  0.75866962602E+03  0.78291547413E+03  0.63992786560E+02 0.  0.
        -15    1    5    5    0    0  0.15617955401E+02 -0.70462767514E+02  0.18182229461E+03  0.19562277207E+03  0.00000000000E+00 0.  1.
        -15    1    4    4    0    0  0.21295804103E+02  0.53712198330E+02  0.90596632613E+02  0.10745353118E+03  0.00000000000E+00 0.  1.
         15    1    5    5    0    0  0.21412706641E+02 -0.10817287149E+03  0.57684733141E+03  0.58729270206E+03  0.00000000000E+00 0. -1.
         15    1    4    4    0    0  0.62030960063E+02 -0.10401354789E+01  0.11170658646E+02  0.63037334198E+02  0.00000000000E+00 0. -1.
        -16    1    1    2    0    0 -0.71348282865E+02  0.27097724956E+02 -0.42049949795E+02  0.87138180171E+02  0.00000000000E+00 0.  1.
         16    1    3    3    0    0 -0.17107077609E+02  0.89140167737E+02  0.12327660700E+01  0.90775224156E+02  0.00000000000E+00 0. -1.
    9900018    1    3    3    0    0 -0.31902065735E+02  0.97256834591E+01  0.36676862299E+02  0.10379162461E+03  0.91187600000E+02 0.  0.
<mgrwt>
<rscale>  0 0.89008777E+03</rscale>
<asrwt>0</asrwt>
<pdfrwt beam="1">  1        1 0.16087753E+00 0.89008777E+03</pdfrwt>
<pdfrwt beam="2">  1       -1 0.29139599E-01 0.89008777E+03</pdfrwt>
<totfact> 0.15074080E+02</totfact>
</mgrwt>
</event>
<event>
11    1  0.7395460E-012  0.8872100E+03  0.7818608E-02  0.9441712E-01
          1   -1    0    0  501    0  0.00000000000E+00  0.00000000000E+00  0.89369297323E+03  0.89369297323E+03  0.00000000000E+00 0. -1.
         -1   -1    0    0    0  501 -0.00000000000E+00 -0.00000000000E+00 -0.22019353495E+03  0.22019353495E+03  0.00000000000E+00 0.  1.
    9900016    2    1    2    0    0 -0.49305985500E+02  0.11389515582E+03  0.42824281243E+03  0.83901563076E+03  0.71074055431E+03 0.  0.
         23    2    3    3    0    0  0.16907781666E+03  0.87790022059E+02  0.92014422474E+02  0.23105614786E+03  0.92875688206E+02 0.  0.
        -15    1    3    3    0    0 -0.22103566807E+02 -0.66288015649E+02 -0.33048238856E+01  0.69954203199E+02  0.00000000000E+00 0.  1.
        -15    1    4    4    0    0  0.94031158108E+02  0.47407411324E+02 -0.45253107350E+00  0.10530681900E+03  0.00000000000E+00 0.  1.
         15    1    4    4    0    0  0.75046658550E+02  0.40382610734E+02  0.92466953547E+02  0.12574932886E+03  0.00000000000E+00 0. -1.
         15    1    3    3    0    0 -0.73292957238E+01 -0.44689507024E+02 -0.45777723179E+02  0.64393093987E+02  0.00000000000E+00 0. -1.
        -16    1    1    2    0    0  0.49305985500E+02 -0.11389515582E+03  0.24525662586E+03  0.27487087742E+03  0.00000000000E+00 0.  1.
         16    1    3    3    0    0 -0.11013803923E+03  0.88381385110E+02  0.24149642885E+03  0.27975378830E+03  0.00000000000E+00 0. -1.
    9900018    1    3    3    0    0 -0.78812900398E+02  0.48701271320E+02  0.14381450816E+03  0.19385839742E+03  0.91187600000E+02 0.  0.
<mgrwt>
<rscale>  0 0.88721004E+03</rscale>
<asrwt>0</asrwt>
<pdfrwt beam="1">  1        1 0.13749122E+00 0.88721004E+03</pdfrwt>
<pdfrwt beam="2">  1       -1 0.33875929E-01 0.88721004E+03</pdfrwt>
<totfact> 0.15254245E+02</totfact>
</mgrwt>
</event>
<event>
12    1  0.7636067E-012  0.9106354E+03  0.7818608E-02  0.9412383E-01
          2   -1    0    0  501    0  0.00000000000E+00  0.00000000000E+00  0.12140334724E+03  0.12140334724E+03  0.00000000000E+00 0. -1.
         -2   -1    0    0    0  501 -0.00000000000E+00 -0.00000000000E+00 -0.17076483631E+04  0.17076483631E+04  0.00000000000E+00 0.  1.
    9900016    2    1    2    0    0  0.15216834738E+03  0.97024192676E+02 -0.12480442344E+04  0.14457128675E+04  0.70703775295E+03 0.  0.
         23    2    3    3    0    0 -0.38304891455E+02 -0.10040068910E+02 -0.13845847563E+03  0.16875280861E+03  0.87969842826E+02 0.  0.
         23    2    3    3    0    0 -0.32681313366E+02 -0.84460821091E+02 -0.37145030601E+02  0.12171614974E+03  0.72342029732E+02 0.  0.
        -15    1    4    4    0    0 -0.34159081054E+02 -0.44166103448E+02 -0.54477537003E+02  0.78008265909E+02  0.00000000000E+00 0.  1.
        -15    1    5    5    0    0 -0.22321981966E+02 -0.77974908434E+02 -0.56485019396E+02  0.98837819888E+02  0.00000000000E+00 0.  1.
         15    1    4    4    0    0 -0.41458104014E+01  0.34126034538E+02 -0.83980938630E+02  0.90744542703E+02  0.00000000000E+00 0. -1.
         15    1    5    5    0    0 -0.10359331400E+02 -0.64859126573E+01  0.19339988795E+02  0.22878329848E+02  0.00000000000E+00 0. -1.
        -16    1    3    3    0    0  0.12037480550E+03  0.20431722092E+03 -0.37068309689E+03  0.44004724619E+03  0.00000000000E+00 0.  1.
         16    1    1    2    0    0 -0.15216834738E+03 -0.97024192676E+02 -0.33820078142E+03  0.38333884288E+03  0.00000000000E+00 0. -1.
    9900018    1    3    3    0    0  0.10277974671E+03 -0.12792138242E+02 -0.70175763132E+03  0.71519666292E+03  0.91187600000E+02 0.  0.
<mgrwt>
<rscale>  0 0.91063544E+03</rscale>
<asrwt>0</asrwt>
<pdfrwt beam="1">  1        2 0.18677438E-01 0.91063544E+03</pdfrwt>
<pdfrwt beam="2">  1       -2 0.26271513E+00 0.91063544E+03</pdfrwt>
<totfact> 0.16815218E+01</totfact>
</mgrwt>
</event>
<event>
12    1  0.7395460E-012  0.8990588E+03  0.7818608E-02  0.9426759E-01
         -2   -1    0    0    0  501 -0.00000000000E+00  0.00000000000E+00  0.21611226701E+03  0.21611226701E+03  0.00000000000E+00 0.  1.
          2   -1    0    0  501    0  0.00000000000E+00 -0.00000000000E+00 -0.93505416611E+03  0.93505416611E+03  0.00000000000E+00 0. -1.
    9900016    2    1    2    0    0  0.50568157299E+02  0.25881661792E+02 -0.78575326955E+03  0.10634694653E+04  0.71437532432E+03 0.  0.
         23    2    3    3    0    0 -0.77582736424E+02  0.29208759275E+01 -0.78412651002E+02  0.14287367995E+03  0.90756443724E+02 0.  0.
         23    2    3    3    0    0  0.36289833609E+02 -0.17357721731E+03 -0.27196023321E+03  0.34157830645E+03  0.10614786196E+03 0.  0.
        -15    1    5    5    0    0  0.28283068598E+02 -0.13215379070E+03 -0.11012262145E+03  0.17433171864E+03  0.00000000000E+00 0. -1.
        -15    1    4    4    0    0  0.77602958997E+01  0.29018743253E+02 -0.22911489549E+02  0.37778909537E+02  0.00000000000E+00 0.  1.
         15    1    4    4    0    0 -0.85343032324E+02 -0.26097867326E+02 -0.55501161453E+02  0.10509477041E+03  0.00000000000E+00 0. -1.
         15    1    5    5    0    0  0.80067650107E+01 -0.41423426611E+02 -0.16183761176E+03  0.16724658782E+03  0.00000000000E+00 0.  1.
        -16    1    3    3    0    0 -0.81480987548E+02  0.14722271920E+03 -0.12888124759E+03  0.21195295790E+03  0.00000000000E+00 0.  1.
         16    1    1    2    0    0 -0.50568157299E+02 -0.25881661792E+02  0.66811370451E+02  0.87696967857E+02  0.00000000000E+00 0. -1.
    9900018    1    3    3    0    0  0.17334204766E+03  0.49315283974E+02 -0.30649913775E+03  0.36706452097E+03  0.91187600000E+02 0.  0.
<mgrwt>
<rscale>  0 0.89905879E+03</rscale>
<asrwt>0</asrwt>
<pdfrwt beam="1">  1        2 0.14385449E+00 0.89905879E+03</pdfrwt>
<pdfrwt beam="2">  1       -2 0.33248041E-01 0.89905879E+03</pdfrwt>
<totfact> 0.23502401E+02</totfact>
</mgrwt>
</event>
<event>
12    1  0.7395460E-012  0.1087387E+04  0.7818608E-02  0.9217573E-01
          3   -1    0    0  501    0  0.00000000000E+00  0.00000000000E+00  0.16006112927E+03  0.16006112927E+03  0.00000000000E+00 0. -1.
         -3   -1    0    0    0  501 -0.00000000000E+00 -0.00000000000E+00 -0.18468102466E+04  0.18468102466E+04  0.00000000000E+00 0.  1.
    9900016    2    1    2    0    0 -0.23818361241E+03  0.20185568490E+02 -0.15781227278E+04  0.17443097966E+04  0.70356693505E+03 0.  0.
         23    2    3    3    0    0  0.14731602710E+02  0.27534815538E+02 -0.11918134134E+03  0.15348754793E+03  0.91537145803E+02 0.  0.
         23    2    3    3    0    0 -0.14112337812E+03 -0.61523852149E+02 -0.26599038399E+03  0.31583526298E+03  0.72801351175E+02 0.  0.
        -15    1    4    4    0    0 -0.30628420725E+02  0.36853814615E+02 -0.43258640472E+02  0.64557058354E+02  0.00000000000E+00 0. -1.
        -15    1    5    5    0    0 -0.13650745063E+03 -0.47115226533E+02 -0.19162515695E+03  0.23994651368E+03  0.00000000000E+00 0.  1.
         15    1    5    5    0    0 -0.46159274906E+01 -0.14408625615E+02 -0.74365227038E+02  0.75888749306E+02  0.00000000000E+00 0. -1.
         15    1    4    4    0    0  0.45360023434E+02 -0.93189990770E+01 -0.75922700865E+02  0.88930489577E+02  0.00000000000E+00 0.  1.
        -16    1    3    3    0    0 -0.11331119293E+03  0.92277547424E+02 -0.11623765513E+04  0.11715262776E+04  0.00000000000E+00 0.  1.
         16    1    1    2    0    0  0.23818361241E+03 -0.20185568490E+02 -0.10862638947E+03  0.26256157922E+03  0.00000000000E+00 0. -1.
    9900018    1    3    3    0    0  0.15193559304E+01 -0.38102942324E+02 -0.30574451235E+02  0.10346070809E+03  0.91187600000E+02 0.  0.
<mgrwt>
<rscale>  0 0.10873868E+04</rscale>
<asrwt>0</asrwt>
<pdfrwt beam="1">  1        3 0.24624788E-01 0.10873868E+04</pdfrwt>
<pdfrwt beam="2">  1       -3 0.28412467E+00 0.10873868E+04</pdfrwt>
<totfact> 0.19286815E+00</totfact>
</mgrwt>
</event>
<event>
12    1  0.7395460E-012  0.1209585E+04  0.7818608E-02  0.9104508E-01
         -2   -1    0    0    0  501 -0.00000000000E+00  0.00000000000E+00  0.14017438286E+03  0.14017438286E+03  0.00000000000E+00 0. -1.
          2   -1    0    0  501    0  0.00000000000E+00 -0.00000000000E+00 -0.26094220203E+04  0.26094220203E+04  0.00000000000E+00 0.  1.
    9900016    2    1    2    0    0 -0.31877311783E+03 -0.21541696536E+03 -0.15059655282E+04  0.17123244081E+04  0.71840235041E+03 0.  0.
         23    2    3    3    0    0 -0.51619426960E+01  0.54873525844E+02 -0.46345480604E+03  0.47502973578E+03  0.88459839135E+02 0.  0.
         23    2    3    3    0    0 -0.76435925030E+02 -0.17490926648E+03 -0.60544875614E+03  0.64645219575E+03  0.12205139468E+03 0.  0.
        -15    1    4    4    0    0  0.40035850846E+02  0.15017918059E+02 -0.22876869427E+03  0.23273057962E+03  0.00000000000E+00 0.  1.
        -15    1    5    5    0    0  0.31531887442E+02 -0.52802374122E+02 -0.12937001905E+03  0.14324438023E+03  0.00000000000E+00 0.  1.
         15    1    4    4    0    0 -0.45197793542E+02  0.39855607785E+02 -0.23468611178E+03  0.24229915616E+03  0.00000000000E+00 0. -1.
         15    1    5    5    0    0 -0.10796781247E+03 -0.12210689236E+03 -0.47607873709E+03  0.50320781552E+03  0.00000000000E+00 0. -1.
        -16    1    1    2    0    0  0.31877311783E+03  0.21541696536E+03 -0.96328210930E+03  0.10372719950E+04  0.00000000000E+00 0.  1.
         16    1    3    3    0    0 -0.25267794757E+03 -0.13949980161E+03 -0.36610051477E+03  0.46619301449E+03  0.00000000000E+00 0. -1.
    9900018    1    3    3    0    0  0.15502697470E+02  0.44118576890E+02 -0.70961451208E+02  0.12464946212E+03  0.91187600000E+02 0.  0.
<mgrwt>
<rscale>  0 0.12095853E+04</rscale>
<asrwt>0</asrwt>
<pdfrwt beam="1">  1        2 0.40144953E+00 0.12095853E+04</pdfrwt>
<pdfrwt beam="2">  1       -2 0.21565290E-01 0.12095853E+04</pdfrwt>
<totfact> 0.55861947E+01</totfact>
</mgrwt>
</event>
<event>
12    1  0.7395460E-012  0.1048809E+04  0.7818608E-02  0.9256574E-01
         -1   -1    0    0    0  501 -0.00000000000E+00  0.00000000000E+00  0.59337159356E+03  0.59337159356E+03  0.00000000000E+00 0.  1.
          1   -1    0    0  501    0  0.00000000000E+00 -0.00000000000E+00 -0.46345379424E+03  0.46345379424E+03  0.00000000000E+00 0. -1.
    9900016    2    1    2    0    0  0.12938945433E+02  0.28580311718E+03  0.18999380603E+03  0.76449002442E+03  0.68300549998E+03 0.  0.
         23    2    3    3    0    0  0.79069054317E+02  0.15320718126E+03  0.35398171635E+02  0.19824152117E+03  0.91226719886E+02 0.  0.
         23    2    3    3    0    0  0.83085500998E+02  0.20422566599E+03  0.17356959383E+03  0.28913708196E+03  0.69731808632E+02 0.  0.
        -15    1    5    5    0    0  0.82388502054E+02  0.11765604307E+03  0.94848166863E+02  0.17212490958E+03  0.00000000000E+00 0.  1.
        -15    1    4    4    0    0  0.57998944807E+02  0.16057117809E+03  0.21813998396E+02  0.17211284484E+03  0.00000000000E+00 0. -1.
         15    1    4    4    0    0  0.21070109509E+02 -0.73639968358E+01  0.13584173240E+02  0.26128676330E+02  0.00000000000E+00 0.  1.
         15    1    5    5    0    0  0.69699894420E+00  0.86569622915E+02  0.78721426969E+02  0.11701217237E+03  0.00000000000E+00 0. -1.
        -16    1    1    2    0    0 -0.12938945433E+02 -0.28580311718E+03 -0.60076006705E+02  0.29233536338E+03  0.00000000000E+00 0.  1.
         16    1    3    3    0    0 -0.14324239150E+02 -0.16423344228E+02 -0.88882888850E+02  0.91515452209E+02  0.00000000000E+00 0. -1.
    9900018    1    3    3    0    0 -0.13489137073E+03 -0.55206385836E+02  0.69908929410E+02  0.18559596908E+03  0.91187600000E+02 0.  0.
<mgrwt>
<rscale>  0 0.10488095E+04</rscale>
<asrwt>0</asrwt>
<pdfrwt beam="1">  1        1 0.71300584E-01 0.10488095E+04</pdfrwt>
<pdfrwt beam="2">  1       -1 0.91287938E-01 0.10488095E+04</pdfrwt>
<totfact> 0.57599097E+01</totfact>
</mgrwt>
</event>
<event>
12    1  0.7395460E-012  0.9241008E+03  0.7818608E-02  0.9395946E-01
         -1   -1    0    0    0  501 -0.00000000000E+00  0.00000000000E+00  0.22965547460E+03  0.22965547460E+03  0.00000000000E+00 0.  1.
          1   -1    0    0  501    0  0.00000000000E+00 -0.00000000000E+00 -0.92961241534E+03  0.92961241534E+03  0.00000000000E+00 0. -1.
    9900016    2    1    2    0    0 -0.66849882556E+02 -0.13249412676E+03 -0.40968796706E+03  0.83326224965E+03  0.71025217065E+03 0.  0.
         23    2    3    3    0    0  0.46201683971E+02 -0.11878511162E+03 -0.15911405986E+03  0.22360930411E+03  0.91865872298E+02 0.  0.
         23    2    3    3    0    0 -0.61143315977E+02 -0.10067777024E+03 -0.32031615231E+03  0.35900739694E+03  0.11139728507E+03 0.  0.
        -15    1    4    4    0    0  0.85428465560E+00 -0.98997976174E+02 -0.13794484630E+03  0.16979431589E+03  0.00000000000E+00 0. -1.
        -15    1    5    5    0    0  0.10575470577E+02 -0.72217855294E+02 -0.22402808956E+03  0.23561800465E+03  0.00000000000E+00 0.  1.
         15    1    5    5    0    0 -0.71718786555E+02 -0.28459914947E+02 -0.96288062746E+02  0.12338939230E+03  0.00000000000E+00 0. -1.
         15    1    4    4    0    0  0.45347399315E+02 -0.19787135443E+02 -0.21169213567E+02  0.53814988216E+02  0.00000000000E+00 0.  1.
        -16    1    3    3    0    0  0.44634074473E+02  0.82725150191E+02  0.70956725639E+02  0.11777312084E+03  0.00000000000E+00 0.  1.
         16    1    1    2    0    0  0.66849882556E+02  0.13249412676E+03 -0.29026897367E+03  0.32600564029E+03  0.00000000000E+00 0. -1.
    9900018    1    3    3    0    0 -0.96542325022E+02  0.42436049110E+01 -0.12144805283E+01  0.13287242776E+03  0.91187600000E+02 0.  0.
<mgrwt>
<rscale>  0 0.92410082E+03</rscale>
<asrwt>0</asrwt>
<pdfrwt beam="1">  1        1 0.14301729E+00 0.92410082E+03</pdfrwt>
<pdfrwt beam="2">  1       -1 0.35331612E-01 0.92410082E+03</pdfrwt>
<totfact> 0.13202186E+02</totfact>
</mgrwt>
</event>
<event>
11    1  0.7395460E-012  0.7402912E+03  0.7818608E-02  0.9650706E-01
         -1   -1    0    0    0  501 -0.00000000000E+00  0.00000000000E+00  0.42475065477E+03  0.42475065477E+03  0.00000000000E+00 0.  1.
          1   -1    0    0  501    0  0.00000000000E+00 -0.00000000000E+00 -0.32256043520E+03  0.32256043520E+03  0.00000000000E+00 0. -1.
    9900016    2    1    2    0    0 -0.10921943580E+02 -0.12658941080E+02  0.12336203254E+03  0.72033363077E+03  0.70949475749E+03 0.  0.
         23    2    3    3    0    0 -0.64191484453E+02  0.99412594990E+02  0.90415369501E+02  0.17486300691E+03  0.91644538432E+02 0.  0.
        -15    1    4    4    0    0  0.69356950214E+01  0.73056389167E+02  0.51126127715E+02  0.89438363126E+02  0.00000000000E+00 0. -1.
        -15    1    3    3    0    0 -0.27341879803E+02 -0.52229311685E+02  0.26618059309E+02  0.64683850161E+02  0.00000000000E+00 0. -1.
         15    1    4    4    0    0 -0.71127179474E+02  0.26356205823E+02  0.39289241786E+02  0.85424643783E+02  0.00000000000E+00 0.  1.
         15    1    3    3    0    0 -0.56085141115E+02  0.51991763408E+02  0.15707694135E+03  0.17470504291E+03  0.00000000000E+00 0.  1.
        -16    1    3    3    0    0  0.12819595181E+03 -0.20199905924E+02 -0.11041984024E+03  0.17039594884E+03  0.00000000000E+00 0.  1.
         16    1    1    2    0    0  0.10921943580E+02  0.12658941080E+02 -0.21171812969E+02  0.26977459207E+02  0.00000000000E+00 0. -1.
    9900018    1    3    3    0    0  0.85006099792E+01 -0.91634081869E+02 -0.40328497374E+02  0.13568578195E+03  0.91187600000E+02 0.  0.
<mgrwt>
<rscale>  0 0.74029118E+03</rscale>
<asrwt>0</asrwt>
<pdfrwt beam="1">  1        1 0.49624682E-01 0.74029118E+03</pdfrwt>
<pdfrwt beam="2">  1       -1 0.65346255E-01 0.74029118E+03</pdfrwt>
<totfact> 0.19191786E+02</totfact>
</mgrwt>
</event>
<event>
11    1  0.7395460E-012  0.9201438E+03  0.7818608E-02  0.9400745E-01
          2   -1    0    0  501    0  0.00000000000E+00  0.00000000000E+00  0.13132600115E+04  0.13132600115E+04  0.00000000000E+00 0. -1.
         -2   -1    0    0    0  501 -0.00000000000E+00 -0.00000000000E+00 -0.16117612286E+03  0.16117612286E+03  0.00000000000E+00 0.  1.
    9900016    2    1    2    0    0  0.14270968253E+03  0.86118184412E+02  0.77966146306E+03  0.10664154753E+04  0.70822847566E+03 0.  0.
         23    2    3    3    0    0  0.62449685100E+02  0.14398773791E+03  0.21222190395E+03  0.27871406665E+03  0.89503980887E+02 0.  0.
        -15    1    4    4    0    0  0.75991919087E+02  0.12643775045E+03  0.20972065679E+03  0.25640598743E+03  0.00000000000E+00 0.  1.
        -15    1    3    3    0    0 -0.10291872358E+03 -0.37048584120E+01  0.84823702874E+02  0.13342057641E+03  0.00000000000E+00 0.  1.
         15    1    3    3    0    0 -0.60472701171E+02  0.66306331191E+01  0.10244215776E+03  0.11914406644E+03  0.00000000000E+00 0. -1.
         15    1    4    4    0    0 -0.13542233987E+02  0.17549987464E+02  0.25012471639E+01  0.22308079225E+02  0.00000000000E+00 0. -1.
        -16    1    3    3    0    0  0.23145223865E+03 -0.54107572139E+02  0.37341442466E+03  0.44264669962E+03  0.00000000000E+00 0.  1.
         16    1    1    2    0    0 -0.14270968253E+03 -0.86118184412E+02  0.37242242559E+03  0.40802065910E+03  0.00000000000E+00 0. -1.
    9900018    1    3    3    0    0  0.12199183534E+02 -0.66877560700E+01  0.67592738172E+01  0.92490066150E+02  0.91187600000E+02 0.  0.
<mgrwt>
<rscale>  0 0.92014381E+03</rscale>
<asrwt>0</asrwt>
<pdfrwt beam="1">  1        2 0.20203999E+00 0.92014381E+03</pdfrwt>
<pdfrwt beam="2">  1       -2 0.24796328E-01 0.92014381E+03</pdfrwt>
<totfact> 0.23659788E+02</totfact>
</mgrwt>
</event>
<event>
11    1  0.7395460E-012  0.8956182E+03  0.7818608E-02  0.9431076E-01
         -1   -1    0    0    0  501 -0.00000000000E+00  0.00000000000E+00  0.44291780507E+03  0.44291780507E+03  0.00000000000E+00 0.  1.
          1   -1    0    0  501    0  0.00000000000E+00 -0.00000000000E+00 -0.45275438901E+03  0.45275438901E+03  0.00000000000E+00 0. -1.
    9900016    2    1    2    0    0  0.16336450086E+03 -0.29971062089E+01 -0.43189279316E+02  0.72891085241E+03  0.70904779396E+03 0.  0.
         23    2    3    3    0    0 -0.49519765143E+02 -0.41342743497E+02  0.54038898480E+02  0.11994071752E+03  0.85464282536E+02 0.  0.
        -15    1    3    3    0    0  0.91231483998E+02 -0.68875824488E+02 -0.79321984393E+02  0.13913676753E+03  0.00000000000E+00 0.  1.
        -15    1    4    4    0    0 -0.47347828328E+02 -0.66596244507E+02  0.42188586717E+02  0.91960608301E+02  0.00000000000E+00 0. -1.
         15    1    3    3    0    0 -0.99250223198E+02 -0.89204679529E+01 -0.49493028873E+02  0.11126428655E+03  0.00000000000E+00 0. -1.
         15    1    4    4    0    0 -0.21719368148E+01  0.25253501010E+02  0.11850311763E+02  0.27980109215E+02  0.00000000000E+00 0.  1.
        -16    1    1    2    0    0 -0.16336450086E+03  0.29971062089E+01  0.33352695381E+02  0.16676134168E+03  0.00000000000E+00 0.  1.
         16    1    3    3    0    0  0.11343095867E+03  0.81958067604E+02 -0.92457568665E+02  0.16772629261E+03  0.00000000000E+00 0. -1.
    9900018    1    3    3    0    0  0.10747204654E+03  0.34183862124E+02  0.12404440414E+03  0.19084278820E+03  0.91187600000E+02 0.  0.
<mgrwt>
<rscale>  0 0.89561818E+03</rscale>
<asrwt>0</asrwt>
<pdfrwt beam="1">  1        1 0.69654521E-01 0.89561818E+03</pdfrwt>
<pdfrwt beam="2">  1       -1 0.68141201E-01 0.89561818E+03</pdfrwt>
<totfact> 0.11166487E+02</totfact>
</mgrwt>
</event>
<event>
12    1  0.7395460E-012  0.9837495E+03  0.7818608E-02  0.9326550E-01
          2   -1    0    0  501    0  0.00000000000E+00  0.00000000000E+00  0.25390161387E+03  0.25390161387E+03  0.00000000000E+00 0. -1.
         -2   -1    0    0    0  501 -0.00000000000E+00 -0.00000000000E+00 -0.95289172705E+03  0.95289172705E+03  0.00000000000E+00 0.  1.
    9900016    2    1    2    0    0 -0.14278277087E+03  0.15931729126E+03 -0.43346427025E+03  0.86580522937E+03  0.71830251473E+03 0.  0.
         23    2    3    3    0    0 -0.60073468701E+02  0.90714431920E+02 -0.14246145510E+02  0.14320584949E+03  0.92016481490E+02 0.  0.
         23    2    3    3    0    0  0.13250311533E+03 -0.62962142220E+01  0.26371478191E+02  0.15228713671E+03  0.69994280201E+02 0.  0.
        -15    1    5    5    0    0  0.69966133416E+02  0.19999607293E+02  0.40078827930E+02  0.83075607523E+02  0.00000000000E+00 0.  1.
        -15    1    4    4    0    0 -0.22262770084E+02  0.86402791301E+02 -0.39453898735E+02  0.97558615210E+02  0.00000000000E+00 0.  1.
         15    1    4    4    0    0 -0.37810698617E+02  0.43116406190E+01  0.25207753224E+02  0.45647234279E+02  0.00000000000E+00 0. -1.
         15    1    5    5    0    0  0.62536981911E+02 -0.26295821515E+02 -0.13707349739E+02  0.69211529188E+02  0.00000000000E+00 0. -1.
        -16    1    1    2    0    0  0.14278277087E+03 -0.15931729126E+03 -0.26552584293E+03  0.34098811154E+03  0.00000000000E+00 0.  1.
         16    1    3    3    0    0 -0.23781008642E+03  0.25114126310E+02 -0.36726267886E+03  0.43825361587E+03  0.00000000000E+00 0. -1.
    9900018    1    3    3    0    0  0.22597668933E+02  0.49784947256E+02 -0.78326924079E+02  0.13205862730E+03  0.91187600000E+02 0.  0.
<mgrwt>
<rscale>  0 0.98374945E+03</rscale>
<asrwt>0</asrwt>
<pdfrwt beam="1">  1        2 0.39061786E-01 0.98374945E+03</pdfrwt>
<pdfrwt beam="2">  1       -2 0.14659873E+00 0.98374945E+03</pdfrwt>
<totfact> 0.42040976E+01</totfact>
</mgrwt>
</event>
<event>
12    1  0.7395460E-012  0.1378665E+04  0.7818608E-02  0.8969409E-01
         -1   -1    0    0    0  501 -0.00000000000E+00  0.00000000000E+00  0.10288740665E+04  0.10288740665E+04  0.00000000000E+00 0.  1.
          1   -1    0    0  501    0  0.00000000000E+00 -0.00000000000E+00 -0.46184378580E+03  0.46184378580E+03  0.00000000000E+00 0. -1.
    9900016    2    1    2    0    0  0.23954113152E+03  0.73410976370E+02  0.83706343116E+03  0.11223606513E+04  0.70444951470E+03 0.  0.
         23    2    3    3    0    0 -0.22891966306E+02  0.42425903852E+02  0.57752089546E+01  0.10291777897E+03  0.90745340104E+02 0.  0.
         23    2    3    3    0    0  0.26602976025E+03 -0.13628862161E+03  0.55210661954E+03  0.63914627720E+03  0.11974899834E+03 0.  0.
        -15    1    4    4    0    0  0.22090775237E+02  0.85505666282E+00 -0.25826105449E+02  0.33995899681E+02  0.00000000000E+00 0. -1.
        -15    1    5    5    0    0  0.22681902830E+03 -0.12028407971E+03  0.35843229516E+03  0.44089549969E+03  0.00000000000E+00 0.  1.
         15    1    5    5    0    0  0.39210731955E+02 -0.16004541897E+02  0.19367432438E+03  0.19825077752E+03  0.00000000000E+00 0. -1.
         15    1    4    4    0    0 -0.44982741543E+02  0.41570847189E+02  0.31601314403E+02  0.68921879289E+02  0.00000000000E+00 0.  1.
        -16    1    3    3    0    0 -0.32593596973E+02 -0.19829014111E+02  0.11238902169E+02  0.39772418662E+02  0.00000000000E+00 0.  1.
         16    1    1    2    0    0 -0.23954113152E+03 -0.73410976370E+02 -0.27003315047E+03  0.36835720095E+03  0.00000000000E+00 0. -1.
    9900018    1    3    3    0    0  0.28996934549E+02  0.18710270824E+03  0.26794270049E+03  0.34052417651E+03  0.91187600000E+02 0.  0.
<mgrwt>
<rscale>  0 0.13786647E+04</rscale>
<asrwt>0</asrwt>
<pdfrwt beam="1">  1        1 0.71052890E-01 0.13786647E+04</pdfrwt>
<pdfrwt beam="2">  1       -1 0.15828832E+00 0.13786647E+04</pdfrwt>
<totfact> 0.14536641E+01</totfact>
</mgrwt>
</event>
<event>
12    1  0.7395460E-012  0.8376985E+03  0.7818608E-02  0.9506998E-01
         -3   -1    0    0    0  501 -0.00000000000E+00  0.00000000000E+00  0.70258601137E+03  0.70258601137E+03  0.00000000000E+00 0.  1.
          3   -1    0    0  501    0  0.00000000000E+00 -0.00000000000E+00 -0.24969855137E+03  0.24969855137E+03  0.00000000000E+00 0. -1.
    9900016    2    1    2    0    0 -0.39829154872E+02 -0.10774510426E+03  0.34028322405E+03  0.79142722524E+03  0.70524393738E+03 0.  0.
         23    2    3    3    0    0 -0.66645005233E+02 -0.14164582352E+03  0.11854758659E+03  0.21604229148E+03  0.90086876846E+02 0.  0.
         23    2    3    3    0    0  0.16149069474E+03  0.39658904010E+02  0.24402337682E+03  0.30550507342E+03  0.78319016216E+02 0.  0.
        -15    1    4    4    0    0 -0.65920919303E+02 -0.36407791814E+02  0.46597265485E+02  0.88557326389E+02  0.00000000000E+00 0. -1.
        -15    1    5    5    0    0  0.12913579514E+03  0.77944371637E+01  0.13294447094E+03  0.18550212718E+03  0.00000000000E+00 0.  1.
         15    1    5    5    0    0  0.32354899600E+02  0.31864466846E+02  0.11107890588E+03  0.12000294624E+03  0.00000000000E+00 0. -1.
         15    1    4    4    0    0 -0.72408592999E+00 -0.10523803171E+03  0.71950321102E+02  0.12748496509E+03  0.00000000000E+00 0.  1.
        -16    1    3    3    0    0 -0.51566037788E+02 -0.15570297832E+02  0.88609321548E+02  0.10369716627E+03  0.00000000000E+00 0.  1.
         16    1    1    2    0    0  0.39829154872E+02  0.10774510426E+03  0.11260423595E+03  0.16085733749E+03  0.00000000000E+00 0. -1.
    9900018    1    3    3    0    0 -0.83108806587E+02  0.98121130815E+01 -0.11089706090E+03  0.16618269406E+03  0.91187600000E+02 0.  0.
<mgrwt>
<rscale>  0 0.83769854E+03</rscale>
<asrwt>0</asrwt>
<pdfrwt beam="1">  1        3 0.38415162E-01 0.83769854E+03</pdfrwt>
<pdfrwt beam="2">  1       -3 0.10809015E+00 0.83769854E+03</pdfrwt>
<totfact> 0.12876879E+01</totfact>
</mgrwt>
</event>
<event>
12    1  0.7395460E-012  0.9684158E+03  0.7818608E-02  0.9343881E-01
          2   -1    0    0  501    0  0.00000000000E+00  0.00000000000E+00  0.42962153162E+03  0.42962153162E+03  0.00000000000E+00 0. -1.
         -2   -1    0    0    0  501 -0.00000000000E+00 -0.00000000000E+00 -0.54572981463E+03  0.54572981463E+03  0.00000000000E+00 0.  1.
    9900016    2    1    2    0    0 -0.47109804527E+02  0.14216206343E+03 -0.25587264261E+03  0.77050149349E+03  0.71117674053E+03 0.  0.
         23    2    3    3    0    0  0.35396240917E+01  0.16070283891E+02  0.32725224503E+02  0.95983915647E+02  0.88719720362E+02 0.  0.
         23    2    3    3    0    0 -0.15656161360E+03 -0.14039986855E+03 -0.27753847234E+02  0.22594290751E+03  0.77821972954E+02 0.  0.
        -15    1    5    5    0    0 -0.29168074401E+02 -0.34730063288E+02  0.25551339009E+02  0.52055977422E+02  0.00000000000E+00 0. -1.
        -15    1    4    4    0    0 -0.15776401695E+02  0.48080214614E+02  0.81777015387E+01  0.51258918153E+02  0.00000000000E+00 0.  1.
         15    1    5    5    0    0 -0.12739353920E+03 -0.10566980526E+03 -0.53305186242E+02  0.17388693009E+03  0.00000000000E+00 0.  1.
         15    1    4    4    0    0  0.19316025786E+02 -0.32009930724E+02  0.24547522964E+02  0.44724997493E+02  0.00000000000E+00 0. -1.
        -16    1    3    3    0    0  0.65191988442E+02  0.25544895747E+03 -0.20209360354E+03  0.33218366881E+03  0.00000000000E+00 0.  1.
         16    1    1    2    0    0  0.47109804527E+02 -0.14216206343E+03  0.13976435961E+03  0.20484985276E+03  0.00000000000E+00 0. -1.
    9900018    1    3    3    0    0  0.40720196544E+02  0.11042690620E+02 -0.58750416336E+02  0.11639100153E+03  0.91187600000E+02 0.  0.
<mgrwt>
<rscale>  0 0.96841578E+03</rscale>
<asrwt>0</asrwt>
<pdfrwt beam="1">  1        2 0.66095620E-01 0.96841578E+03</pdfrwt>
<pdfrwt beam="2">  1       -2 0.83958433E-01 0.96841578E+03</pdfrwt>
<totfact> 0.90931089E+01</totfact>
</mgrwt>
</event>
<event>
12    1  0.7395460E-012  0.1046010E+04  0.7818608E-02  0.9259473E-01
         -2   -1    0    0    0  501 -0.00000000000E+00  0.00000000000E+00  0.16598043076E+03  0.16598043076E+03  0.00000000000E+00 0.  1.
          2   -1    0    0  501    0  0.00000000000E+00 -0.00000000000E+00 -0.16479916330E+04  0.16479916330E+04  0.00000000000E+00 0. -1.
    9900016    2    1    2    0    0  0.11353551246E+03 -0.10374517986E+03 -0.66501342024E+03  0.98262451265E+03  0.70686258129E+03 0.  0.
         23    2    3    3    0    0  0.11729358845E+03  0.99265367513E+02 -0.18599566091E+03  0.26023100578E+03  0.97541741880E+02 0.  0.
         23    2    3    3    0    0 -0.14143283596E+03 -0.16113667392E+02 -0.23999031780E+03  0.28759368721E+03  0.69655429948E+02 0.  0.
        -15    1    4    4    0    0  0.51377731333E+02  0.52509435596E+02 -0.15878894342E+03  0.17495954006E+03  0.00000000000E+00 0. -1.
        -15    1    5    5    0    0 -0.47268153992E+02 -0.38206926548E+01 -0.27428013791E+02  0.54782953687E+02  0.00000000000E+00 0.  1.
         15    1    4    4    0    0  0.65915857121E+02  0.46755931917E+02 -0.27206717490E+02  0.85271465720E+02  0.00000000000E+00 0.  1.
         15    1    5    5    0    0 -0.94164681969E+02 -0.12292974737E+02 -0.21256230401E+03  0.23281073353E+03  0.00000000000E+00 0. -1.
        -16    1    3    3    0    0 -0.48350038198E+02  0.30569640446E+02 -0.12381557291E+02  0.58528045173E+02  0.00000000000E+00 0.  1.
         16    1    1    2    0    0 -0.11353551246E+03  0.10374517986E+03 -0.81699778201E+03  0.83134755111E+03  0.00000000000E+00 0. -1.
    9900018    1    3    3    0    0  0.18602479816E+03 -0.21746652043E+03 -0.22664588424E+03  0.37627177449E+03  0.91187600000E+02 0.  0.
<mgrwt>
<rscale>  0 0.10460103E+04</rscale>
<asrwt>0</asrwt>
<pdfrwt beam="1">  1        2 0.25353718E+00 0.10460103E+04</pdfrwt>
<pdfrwt beam="2">  1       -2 0.25535451E-01 0.10460103E+04</pdfrwt>
<totfact> 0.14410190E+02</totfact>
</mgrwt>
</event>
<event>
12    1  0.7395460E-012  0.1420346E+04  0.7818608E-02  0.8939221E-01
         -2   -1    0    0    0  501 -0.00000000000E+00  0.00000000000E+00  0.59799900374E+03  0.59799900374E+03  0.00000000000E+00 0.  1.
          2   -1    0    0  501    0  0.00000000000E+00 -0.00000000000E+00 -0.84338930337E+03  0.84338930337E+03  0.00000000000E+00 0. -1.
    9900016    2    1    2    0    0 -0.41203436088E+03  0.21825102052E+03 -0.41171828126E+03  0.94634202647E+03  0.71319384842E+03 0.  0.
         23    2    3    3    0    0 -0.16496228987E+03  0.32883793349E+03 -0.28093932970E+03  0.47190824605E+03  0.91779856912E+02 0.  0.
         23    2    3    3    0    0  0.27218398329E+01  0.53100478646E+02 -0.69863949415E+01  0.89456469992E+02  0.71600147099E+02 0.  0.
        -15    1    5    5    0    0  0.23954820800E+02 -0.73916190115E+01 -0.23266488953E+01  0.25177028543E+02  0.00000000000E+00 0.  1.
        -15    1    4    4    0    0 -0.43122408052E+02  0.18167030699E+03 -0.15908363426E+03  0.24529827804E+03  0.00000000000E+00 0. -1.
         15    1    5    5    0    0 -0.21232980967E+02  0.60492097658E+02 -0.46597460462E+01  0.64279441449E+02  0.00000000000E+00 0. -1.
         15    1    4    4    0    0 -0.12183988182E+03  0.14716762651E+03 -0.12185569543E+03  0.22660996801E+03  0.00000000000E+00 0.  1.
        -16    1    1    2    0    0  0.41203436088E+03 -0.21825102052E+03  0.16632798164E+03  0.49504628064E+03  0.00000000000E+00 0.  1.
         16    1    3    3    0    0 -0.98586440448E+02 -0.25782990396E+02  0.37853569281E+02  0.10870575671E+03  0.00000000000E+00 0. -1.
    9900018    1    3    3    0    0 -0.15120747040E+03 -0.13790440123E+03 -0.16164612590E+03  0.27627155372E+03  0.91187600000E+02 0.  0.
<mgrwt>
<rscale>  0 0.14203464E+04</rscale>
<asrwt>0</asrwt>
<pdfrwt beam="1">  1        2 0.12975220E+00 0.14203464E+04</pdfrwt>
<pdfrwt beam="2">  1       -2 0.91999847E-01 0.14203464E+04</pdfrwt>
<totfact> 0.31322507E+01</totfact>
</mgrwt>
</event>
