<event>
11    1  0.4651426E-011  0.1698622E+04  0.7818608E-02  0.8762150E-01
         -2   -1    0    0    0  501 -0.00000000000E+00  0.00000000000E+00  0.46677587794E+03  0.46677587794E+03  0.00000000000E+00 0.  1.
          2   -1    0    0  501    0  0.00000000000E+00 -0.00000000000E+00 -0.15453444704E+04  0.15453444704E+04  0.00000000000E+00 0. -1.
    9900016    2    1    2    0    0 -0.17550798045E+02  0.69813655215E+02 -0.91273123585E+03  0.11620576773E+04  0.71562403504E+03 0.  0.
         23    2    3    3    0    0 -0.38402006366E+02 -0.12809322586E+03 -0.21336771929E+03  0.26790370423E+03  0.91455029938E+02 0.  0.
        -15    1    3    3    0    0 -0.19313707876E+03  0.12720784976E+03 -0.12217394244E+03  0.26155351354E+03  0.00000000000E+00 0.  1.
        -15    1    4    4    0    0 -0.21428386195E+00 -0.27875641852E+02  0.13319393276E+01  0.27908267388E+02  0.00000000000E+00 0.  1.
         15    1    3    3    0    0  0.21113127573E+03  0.54145337814E+02 -0.40793127414E+03  0.46251060271E+03  0.00000000000E+00 0. -1.
         15    1    4    4    0    0 -0.38187722504E+02 -0.10021758401E+03 -0.21469965862E+03  0.23999543684E+03  0.00000000000E+00 0. -1.
        -16    1    3    3    0    0  0.28570113493E+01  0.16553693494E+02 -0.16925829998E+03  0.17008985682E+03  0.00000000000E+00 0.  1.
         16    1    1    2    0    0  0.35943940901E+03  0.16460849151E+03 -0.27155789404E+01  0.39534797153E+03  0.00000000000E+00 0. -1.
    9900018    1    1    2    0    0 -0.34188861096E+03 -0.23442214673E+03 -0.16312177764E+03  0.45471469947E+03  0.91187600000E+02 0.  0.
<mgrwt>
<rscale>  0 0.16986224E+04</rscale>
<asrwt>0</asrwt>
<pdfrwt beam="1">  1        2 0.23774530E+00 0.16986224E+04</pdfrwt>
<pdfrwt beam="2">  1       -2 0.71811675E-01 0.16986224E+04</pdfrwt>
<totfact> 0.20017075E+01</totfact>
</mgrwt>
</event>
<event>
11    1  0.4651426E-011  0.1462415E+04  0.7818608E-02  0.8909839E-01
         -2   -1    0    0    0  501 -0.00000000000E+00  0.00000000000E+00  0.41131814325E+03  0.41131814325E+03  0.00000000000E+00 0.  1.
          2   -1    0    0  501    0  0.00000000000E+00 -0.00000000000E+00 -0.12998797702E+04  0.12998797702E+04  0.00000000000E+00 0. -1.
    9900016    2    1    2    0    0 -0.90107590684E+02  0.27324482985E+03 -0.26925839155E+03  0.81482020985E+03  0.71319687186E+03 0.  0.
         23    2    3    3    0    0 -0.27152788065E+01 -0.40999502840E+02  0.53802090627E+02  0.11803539743E+03  0.96692078876E+02 0.  0.
        -15    1    3    3    0    0 -0.12790580169E+03  0.29628411075E+03 -0.45196866365E+03  0.55535559897E+03  0.00000000000E+00 0.  1.
        -15    1    4    4    0    0  0.11288800752E+02  0.28259838855E+02  0.21466095507E+01  0.30506777069E+02  0.00000000000E+00 0. -1.
         15    1    3    3    0    0  0.30132095470E+02  0.80823915902E+01  0.36939083744E+02  0.48350430599E+02  0.00000000000E+00 0. -1.
         15    1    4    4    0    0 -0.14004079559E+02 -0.69259341696E+02  0.51655481076E+02  0.87528620357E+02  0.00000000000E+00 0.  1.
        -16    1    3    3    0    0  0.10381394345E+02  0.98778303508E+01  0.91969097728E+02  0.93078782855E+02  0.00000000000E+00 0.  1.
         16    1    1    2    0    0 -0.88927654036E+02  0.24239000555E+02 -0.51410570897E+03  0.52230291670E+03  0.00000000000E+00 0. -1.
    9900018    1    1    2    0    0  0.17903524472E+03 -0.29748383041E+03 -0.10519752638E+03  0.37407478685E+03  0.91187600000E+02 0.  0.
<mgrwt>
<rscale>  0 0.14624146E+04</rscale>
<asrwt>0</asrwt>
<pdfrwt beam="1">  1        2 0.19998150E+00 0.14624146E+04</pdfrwt>
<pdfrwt beam="2">  1       -2 0.63279714E-01 0.14624146E+04</pdfrwt>
<totfact> 0.37045088E+01</totfact>
</mgrwt>
</event>
<event>
11    1  0.4651426E-011  0.1568015E+04  0.7818608E-02  0.8840442E-01
          1   -1    0    0  501    0  0.00000000000E+00  0.00000000000E+00  0.38483287250E+03  0.38483287250E+03  0.00000000000E+00 0. -1.
         -1   -1    0    0    0  501 -0.00000000000E+00 -0.00000000000E+00 -0.15972327522E+04  0.15972327522E+04  0.00000000000E+00 0.  1.
    9900016    2    1    2    0    0 -0.49618556468E+03 -0.24539963972E+03 -0.50896906515E+03  0.10375942939E+04  0.71493448075E+03 0.  0.
         23    2    3    3    0    0 -0.35700033758E+03 -0.29768773660E+03 -0.35176920180E+03  0.59150950952E+03  0.10037279993E+03 0.  0.
        -15    1    4    4    0    0 -0.17932079257E+03 -0.14860218367E+03 -0.23864681451E+03  0.33345293179E+03  0.00000000000E+00 0.  1.
        -15    1    3    3    0    0 -0.14554009852E+03 -0.99402454221E+02  0.46507771276E+02  0.18227929387E+03  0.00000000000E+00 0.  1.
         15    1    4    4    0    0 -0.17767954501E+03 -0.14908555293E+03 -0.11312238729E+03  0.25805657773E+03  0.00000000000E+00 0. -1.
         15    1    3    3    0    0  0.13390925101E+02  0.14063191967E+02 -0.66747152743E+02  0.69514549862E+02  0.00000000000E+00 0. -1.
        -16    1    3    3    0    0 -0.70360536773E+01  0.13762735914E+03 -0.13696048188E+03  0.19429094068E+03  0.00000000000E+00 0.  1.
         16    1    1    2    0    0  0.42792594684E+03  0.10263200864E+03 -0.56015596245E+03  0.71234026100E+03  0.00000000000E+00 0. -1.
    9900018    1    1    2    0    0  0.68259617844E+02  0.14276763108E+03 -0.14327485210E+03  0.23213106977E+03  0.91187600000E+02 0.  0.
<mgrwt>
<rscale>  0 0.15680149E+04</rscale>
<asrwt>0</asrwt>
<pdfrwt beam="1">  1        1 0.59205056E-01 0.15680149E+04</pdfrwt>
<pdfrwt beam="2">  1       -1 0.24572812E+00 0.15680149E+04</pdfrwt>
<totfact> 0.45200505E+00</totfact>
</mgrwt>
</event>
<event>
11    1  0.4651426E-011  0.1358877E+04  0.7818608E-02  0.8984136E-01
          2   -1    0    0  501    0  0.00000000000E+00  0.00000000000E+00  0.14319296904E+04  0.14319296904E+04  0.00000000000E+00 0.  1.
         -2   -1    0    0    0  501 -0.00000000000E+00 -0.00000000000E+00 -0.32238757225E+03  0.32238757225E+03  0.00000000000E+00 0. -1.
    9900016    2    1    2    0    0 -0.13943742094E+01 -0.18725072081E+03  0.65720847108E+03  0.98353487292E+03  0.70735641304E+03 0.  0.
         23    2    3    3    0    0  0.12890422353E+03 -0.34416873452E+02 -0.64148111364E+02  0.17488753581E+03  0.93112029119E+02 0.  0.
        -15    1    4    4    0    0  0.67454020469E+02 -0.47948824323E+02 -0.74218368277E+02  0.11116429652E+03  0.00000000000E+00 0.  1.
        -15    1    3    3    0    0 -0.14663767863E+03 -0.13392663494E+03  0.48821385196E+03  0.52705950099E+03  0.00000000000E+00 0.  1.
         15    1    4    4    0    0  0.61450203062E+02  0.13531950871E+02  0.10070256913E+02  0.63723239285E+02  0.00000000000E+00 0. -1.
         15    1    3    3    0    0  0.52671795102E+02  0.52595523484E+02  0.14089674655E+03  0.15935024405E+03  0.00000000000E+00 0. -1.
        -16    1    3    3    0    0 -0.36332714216E+02 -0.71502735905E+02  0.92245983930E+02  0.12223759207E+03  0.00000000000E+00 0.  1.
         16    1    1    2    0    0  0.12379373930E+03  0.30703993625E+03  0.64726407509E+02  0.33732465100E+03  0.00000000000E+00 0. -1.
    9900018    1    1    2    0    0 -0.12239936509E+03 -0.11978921544E+03  0.38760723955E+03  0.43345773872E+03  0.91187600000E+02 0.  0.
<mgrwt>
<rscale>  0 0.13588765E+04</rscale>
<asrwt>0</asrwt>
<pdfrwt beam="1">  1        2 0.22029687E+00 0.13588765E+04</pdfrwt>
<pdfrwt beam="2">  1       -2 0.49598089E-01 0.13588765E+04</pdfrwt>
<totfact> 0.52093215E+01</totfact>
</mgrwt>
</event>
<event>
11    1  0.4651426E-011  0.1844386E+04  0.7818608E-02  0.8683045E-01
          1   -1    0    0  501    0  0.00000000000E+00  0.00000000000E+00  0.10091392613E+04  0.10091392613E+04  0.00000000000E+00 0. -1.
         -1   -1    0    0    0  501 -0.00000000000E+00 -0.00000000000E+00 -0.84273813669E+03  0.84273813669E+03  0.00000000000E+00 0.  1.
    9900016    2    1    2    0    0  0.78854044820E+00 -0.55990384517E+03 -0.47380616834E+02  0.90326890881E+03  0.70721769006E+03 0.  0.
         23    2    3    3    0    0 -0.73184405884E+02 -0.30952038003E+03  0.16448766494E+02  0.33002158715E+03  0.86515103576E+02 0.  0.
        -15    1    4    4    0    0 -0.42740089967E+02 -0.28965980787E+03  0.20122825218E+02  0.29348670785E+03  0.00000000000E+00 0.  1.
        -15    1    3    3    0    0 -0.16599037342E+03 -0.35306083310E+02  0.41993776959E+02  0.17482219793E+03  0.00000000000E+00 0.  1.
         15    1    3    3    0    0  0.11570827166E+03 -0.11135033287E+03  0.55495508046E+02  0.16990306699E+03  0.00000000000E+00 0. -1.
         15    1    4    4    0    0 -0.30444315918E+02 -0.19860572154E+02 -0.36740587243E+01  0.36534879300E+02  0.00000000000E+00 0. -1.
        -16    1    1    2    0    0 -0.69096998796E+01  0.72847690256E+03  0.13308266518E+03  0.74056555232E+03  0.00000000000E+00 0.  1.
         16    1    3    3    0    0  0.12425504809E+03 -0.10372704896E+03 -0.16131866833E+03  0.22852205674E+03  0.00000000000E+00 0. -1.
    9900018    1    1    2    0    0  0.61211594314E+01 -0.16857305739E+03  0.80699076265E+02  0.20804293685E+03  0.91187600000E+02 0.  0.
<mgrwt>
<rscale>  0 0.18443862E+04</rscale>
<asrwt>0</asrwt>
<pdfrwt beam="1">  1        1 0.15525219E+00 0.18443862E+04</pdfrwt>
<pdfrwt beam="2">  1       -1 0.12965202E+00 0.18443862E+04</pdfrwt>
<totfact> 0.71451451E+00</totfact>
</mgrwt>
</event>
<event>
11    1  0.4651426E-011  0.1431887E+04  0.7818608E-02  0.8931055E-01
          1   -1    0    0  501    0  0.00000000000E+00  0.00000000000E+00  0.17263896373E+04  0.17263896373E+04  0.00000000000E+00 0. -1.
         -1   -1    0    0    0  501 -0.00000000000E+00 -0.00000000000E+00 -0.29690580836E+03  0.29690580836E+03  0.00000000000E+00 0.  1.
    9900016    2    1    2    0    0  0.16656679254E+03  0.19308414834E+03  0.81737315353E+03  0.11103342122E+04  0.70690678737E+03 0.  0.
         23    2    3    3    0    0 -0.16879010519E+03  0.70531919674E+02  0.46589426100E+02  0.21242334110E+03  0.97407648141E+02 0.  0.
        -15    1    3    3    0    0  0.11513995988E+03  0.14108379772E+03  0.15911050598E+03  0.24182225177E+03  0.00000000000E+00 0.  1.
        -15    1    4    4    0    0 -0.10153008461E+03 -0.10344859650E+02  0.22173858361E+02  0.10443684310E+03  0.00000000000E+00 0.  1.
         15    1    4    4    0    0 -0.67260020584E+02  0.80876779324E+02  0.24415567739E+02  0.10798649800E+03  0.00000000000E+00 0. -1.
         15    1    3    3    0    0  0.19143022927E+02 -0.29428101511E+02  0.72870731217E+02  0.80886413899E+02  0.00000000000E+00 0. -1.
        -16    1    1    2    0    0 -0.34678925795E+03  0.90022295459E+01  0.16939796535E+03  0.38605634333E+03  0.00000000000E+00 0.  1.
         16    1    3    3    0    0  0.20107391492E+03  0.10896532459E+02  0.53880249023E+03  0.57520220546E+03  0.00000000000E+00 0. -1.
    9900018    1    1    2    0    0  0.18022246541E+03 -0.20208637789E+03  0.44271271005E+03  0.52690489009E+03  0.91187600000E+02 0.  0.
<mgrwt>
<rscale>  0 0.14318870E+04</rscale>
<asrwt>0</asrwt>
<pdfrwt beam="1">  1        1 0.26559840E+00 0.14318870E+04</pdfrwt>
<pdfrwt beam="2">  1       -1 0.45677818E-01 0.14318870E+04</pdfrwt>
<totfact> 0.21182037E+01</totfact>
</mgrwt>
</event>
<event>
11    1  0.4651426E-011  0.1960738E+04  0.7818608E-02  0.8625200E-01
         -1   -1    0    0    0  501 -0.00000000000E+00  0.00000000000E+00  0.32275459822E+03  0.32275459822E+03  0.00000000000E+00 0.  1.
          1   -1    0    0  501    0  0.00000000000E+00 -0.00000000000E+00 -0.29778775495E+04  0.29778775495E+04  0.00000000000E+00 0. -1.
    9900016    2    1    2    0    0  0.11808647346E+03 -0.30080167816E+03 -0.43958631910E+03  0.89866757244E+03  0.71410167975E+03 0.  0.
         23    2    3    3    0    0  0.46851588054E+02 -0.16786027203E+03 -0.11317945246E+03  0.22558730609E+03  0.87794658037E+02 0.  0.
        -15    1    4    4    0    0 -0.18387190443E+02 -0.63939942347E+01 -0.20667384065E+02  0.28392123886E+02  0.00000000000E+00 0.  1.
        -15    1    3    3    0    0 -0.23575515372E+03  0.27156826714E+02 -0.14100214860E+03  0.27604273519E+03  0.00000000000E+00 0.  1.
         15    1    3    3    0    0  0.17636629955E+03 -0.92787781819E+02 -0.13887245881E+03  0.24289957573E+03  0.00000000000E+00 0. -1.
         15    1    4    4    0    0  0.65238778497E+02 -0.16146627780E+03 -0.92512068395E+02  0.19719518220E+03  0.00000000000E+00 0. -1.
        -16    1    3    3    0    0  0.13062373957E+03 -0.67310451020E+02 -0.46532259229E+02  0.15413795544E+03  0.00000000000E+00 0.  1.
         16    1    1    2    0    0 -0.91428689802E+02  0.29841353171E+03 -0.22707211247E+04  0.22920698653E+04  0.00000000000E+00 0. -1.
    9900018    1    1    2    0    0 -0.26657783662E+02  0.23881464462E+01  0.55184492527E+02  0.10989470998E+03  0.91187600000E+02 0.  0.
<mgrwt>
<rscale>  0 0.19607383E+04</rscale>
<asrwt>0</asrwt>
<pdfrwt beam="1">  1        1 0.45813499E+00 0.19607383E+04</pdfrwt>
<pdfrwt beam="2">  1       -1 0.49654555E-01 0.19607383E+04</pdfrwt>
<totfact> 0.23532978E+00</totfact>
</mgrwt>
</event>
<event>
11    1  0.4651426E-011  0.2715892E+04  0.7818608E-02  0.8329867E-01
         -1   -1    0    0    0  501 -0.00000000000E+00  0.00000000000E+00  0.19289065515E+04  0.19289065515E+04  0.00000000000E+00 0.  1.
          1   -1    0    0  501    0  0.00000000000E+00 -0.00000000000E+00 -0.95599078743E+03  0.95599078743E+03  0.00000000000E+00 0. -1.
    9900016    2    1    2    0    0  0.54417986187E+02 -0.16306108886E+02  0.11191257719E+04  0.13296851810E+04  0.71581630389E+03 0.  0.
         23    2    3    3    0    0 -0.85889907114E+02 -0.16413809028E+03  0.25574998633E+03  0.32792150281E+03  0.88351953409E+02 0.  0.
        -15    1    4    4    0    0 -0.55017306019E+02 -0.15642638569E+03  0.24175688635E+03  0.29315953030E+03  0.00000000000E+00 0.  1.
        -15    1    3    3    0    0  0.16982323002E+03  0.26402727853E+03  0.80747070129E+03  0.86634823639E+03  0.00000000000E+00 0.  1.
         15    1    3    3    0    0 -0.35213249925E+02 -0.94930796188E+02  0.44142094352E+02  0.11045521051E+03  0.00000000000E+00 0. -1.
         15    1    4    4    0    0 -0.30872601094E+02 -0.77117045832E+01  0.13993099973E+02  0.34761972510E+02  0.00000000000E+00 0. -1.
        -16    1    3    3    0    0  0.56979132012E+01 -0.21264500946E+02  0.11762989924E+02  0.24960231314E+02  0.00000000000E+00 0.  1.
         16    1    1    2    0    0  0.27013814204E+03 -0.47366755242E+02 -0.78422693509E+03  0.83080088530E+03  0.00000000000E+00 0. -1.
    9900018    1    1    2    0    0 -0.32455612822E+03  0.63672864128E+02  0.63801692725E+03  0.72441127258E+03  0.91187600000E+02 0.  0.
<mgrwt>
<rscale>  0 0.27158917E+04</rscale>
<asrwt>0</asrwt>
<pdfrwt beam="1">  1        1 0.14707551E+00 0.27158917E+04</pdfrwt>
<pdfrwt beam="2">  1       -1 0.29675485E+00 0.27158917E+04</pdfrwt>
<totfact> 0.49547586E-01</totfact>
</mgrwt>
</event>
<event>
11    1  0.4651426E-011  0.1549986E+04  0.7818608E-02  0.8851877E-01
          1   -1    0    0  501    0  0.00000000000E+00  0.00000000000E+00  0.11069048918E+04  0.11069048918E+04  0.00000000000E+00 0. -1.
         -1   -1    0    0    0  501 -0.00000000000E+00 -0.00000000000E+00 -0.54260671420E+03  0.54260671420E+03  0.00000000000E+00 0.  1.
    9900016    2    1    2    0    0  0.15442919870E+03 -0.13440908416E+03  0.17079342049E+03  0.76521752335E+03  0.71726793197E+03 0.  0.
         23    2    3    3    0    0 -0.20596024922E+03 -0.87879905947E+00  0.18955887190E+03  0.29433819723E+03  0.91005559654E+02 0.  0.
        -15    1    3    3    0    0  0.18786909202E+03  0.38702833160E+02 -0.31358358897E+02  0.19436062282E+03  0.00000000000E+00 0.  1.
        -15    1    4    4    0    0 -0.19460296326E+03 -0.10082102915E+02  0.13301230483E+03  0.23593269241E+03  0.00000000000E+00 0.  1.
         15    1    3    3    0    0  0.11412039975E+03 -0.83480416951E+02  0.67775795635E+02  0.15679924785E+03  0.00000000000E+00 0. -1.
         15    1    4    4    0    0 -0.11357285952E+02  0.92033038558E+01  0.56546567073E+02  0.58405504825E+02  0.00000000000E+00 0. -1.
        -16    1    3    3    0    0  0.58399956144E+02 -0.88752701310E+02 -0.55182888144E+02  0.11971945544E+03  0.00000000000E+00 0.  1.
         16    1    1    2    0    0 -0.30952502026E+03  0.23689638288E+03  0.51373182234E+03  0.64486124063E+03  0.00000000000E+00 0. -1.
    9900018    1    1    2    0    0  0.15509582156E+03 -0.10248729872E+03 -0.12022706519E+03  0.23943284207E+03  0.91187600000E+02 0.  0.
<mgrwt>
<rscale>  0 0.15499858E+04</rscale>
<asrwt>0</asrwt>
<pdfrwt beam="1">  1        1 0.17029306E+00 0.15499858E+04</pdfrwt>
<pdfrwt beam="2">  1       -1 0.83477956E-01 0.15499858E+04</pdfrwt>
<totfact> 0.17187020E+01</totfact>
</mgrwt>
</event>
<event>
11    1  0.4651426E-011  0.2060427E+04  0.7818608E-02  0.8578879E-01
         -1   -1    0    0    0  501 -0.00000000000E+00  0.00000000000E+00  0.10696052437E+04  0.10696052437E+04  0.00000000000E+00 0.  1.
          1   -1    0    0  501    0  0.00000000000E+00 -0.00000000000E+00 -0.99227230584E+03  0.99227230584E+03  0.00000000000E+00 0. -1.
    9900016    2    1    2    0    0  0.68220565739E+02 -0.29998636043E+03  0.61990690961E+03  0.98988233046E+03  0.70776874015E+03 0.  0.
         23    2    3    3    0    0 -0.32126026194E+02 -0.21534810798E+03  0.13010664485E+03  0.27117860770E+03  0.95933357457E+02 0.  0.
        -15    1    4    4    0    0  0.11653760924E+02 -0.81466824160E+02  0.44468538776E+01  0.82416188288E+02  0.00000000000E+00 0.  1.
        -15    1    3    3    0    0  0.65131500994E+02  0.63748332445E+02  0.18187078039E+03  0.20342798006E+03  0.00000000000E+00 0.  1.
         15    1    4    4    0    0 -0.43779787118E+02 -0.13388128382E+03  0.12565979097E+03  0.18876241942E+03  0.00000000000E+00 0. -1.
         15    1    3    3    0    0  0.79010459238E+02 -0.72798936898E+02 -0.69442570672E+02  0.12792422954E+03  0.00000000000E+00 0. -1.
        -16    1    1    2    0    0  0.32730659076E+03  0.18406695962E+03  0.11195329426E+02  0.37568016367E+03  0.00000000000E+00 0.  1.
         16    1    3    3    0    0 -0.43795368299E+02 -0.75587648000E+02  0.37737205505E+03  0.38735151316E+03  0.00000000000E+00 0. -1.
    9900018    1    1    2    0    0 -0.39552715650E+03  0.11591940081E+03 -0.55376930120E+03  0.69631505538E+03  0.91187600000E+02 0.  0.
<mgrwt>
<rscale>  0 0.20604268E+04</rscale>
<asrwt>0</asrwt>
<pdfrwt beam="1">  1        1 0.15265728E+00 0.20604268E+04</pdfrwt>
<pdfrwt beam="2">  1       -1 0.16455465E+00 0.20604268E+04</pdfrwt>
<totfact> 0.38239204E+00</totfact>
</mgrwt>
</event>
<event>
11    1  0.4651426E-011  0.1249877E+04  0.7818608E-02  0.9070286E-01
          2   -1    0    0  501    0  0.00000000000E+00  0.00000000000E+00  0.31766167209E+04  0.31766167209E+04  0.00000000000E+00 0. -1.
         -2   -1    0    0    0  501 -0.00000000000E+00 -0.00000000000E+00 -0.12294466116E+03  0.12294466116E+03  0.00000000000E+00 0.  1.
    9900016    2    1    2    0    0  0.11063419690E+03 -0.51437894593E+01  0.22247923787E+04  0.23382239657E+04  0.71086130958E+03 0.  0.
         23    2    3    3    0    0 -0.25486447021E+02 -0.98925000952E+02  0.11068330347E+03  0.17598786000E+03  0.91023175093E+02 0.  0.
        -15    1    3    3    0    0  0.13927386010E+03  0.63352304855E+02  0.34896785595E+03  0.38103712040E+03  0.00000000000E+00 0.  1.
        -15    1    4    4    0    0 -0.29434336233E+02 -0.84053997889E+02  0.30189104962E+02  0.94036358761E+02  0.00000000000E+00 0. -1.
         15    1    4    4    0    0  0.39478892114E+01 -0.14871003063E+02  0.80494198507E+02  0.81951501235E+02  0.00000000000E+00 0.  1.
         15    1    3    3    0    0  0.18669419530E+02 -0.80294077821E+02  0.28285231604E+03  0.29462029606E+03  0.00000000000E+00 0. -1.
        -16    1    1    2    0    0  0.26561662320E+02  0.99860559942E+02 -0.75364694237E+01  0.10360719912E+03  0.00000000000E+00 0.  1.
         16    1    3    3    0    0 -0.21822635710E+02  0.11072298446E+03  0.14822889032E+04  0.14865786893E+04  0.00000000000E+00 0. -1.
    9900018    1    1    2    0    0 -0.13719585922E+03 -0.94716770483E+02  0.83641615047E+03  0.85773021724E+03  0.91187600000E+02 0.  0.
<mgrwt>
<rscale>  0 0.12498769E+04</rscale>
<asrwt>0</asrwt>
<pdfrwt beam="1">  1        2 0.48871020E+00 0.12498769E+04</pdfrwt>
<pdfrwt beam="2">  1       -2 0.18914566E-01 0.12498769E+04</pdfrwt>
<totfact> 0.31641227E+01</totfact>
</mgrwt>
</event>
<event>
11    1  0.4651426E-011  0.2092846E+04  0.7818608E-02  0.8564401E-01
          1   -1    0    0  501    0  0.00000000000E+00  0.00000000000E+00  0.25015595446E+04  0.25015595446E+04  0.00000000000E+00 0. -1.
         -1   -1    0    0    0  501 -0.00000000000E+00 -0.00000000000E+00 -0.43772755657E+03  0.43772755657E+03  0.00000000000E+00 0.  1.
    9900016    2    1    2    0    0  0.14850687922E+02 -0.17524358757E+03  0.14167149029E+04  0.15921409945E+04  0.70491203166E+03 0.  0.
         23    2    3    3    0    0  0.57401143941E+02  0.14156861204E+02  0.10404884136E+03  0.15226432972E+03  0.94143277369E+02 0.  0.
        -15    1    3    3    0    0  0.16463399051E+03 -0.64769284211E+02  0.11602283466E+03  0.21156726866E+03  0.00000000000E+00 0.  1.
        -15    1    4    4    0    0  0.38637308516E+02  0.26884907591E+01  0.11934788413E+03  0.12547504548E+03  0.00000000000E+00 0.  1.
         15    1    4    4    0    0  0.18763835426E+02  0.11468370445E+02 -0.15299042773E+02  0.26789284244E+02  0.00000000000E+00 0. -1.
         15    1    3    3    0    0 -0.17064484373E+03 -0.11531553517E+03  0.11501609348E+04  0.11684551816E+04  0.00000000000E+00 0. -1.
        -16    1    1    2    0    0 -0.28654712391E+02 -0.52895662931E+02 -0.33208893132E+03  0.33749385476E+03  0.00000000000E+00 0.  1.
         16    1    3    3    0    0 -0.36539602797E+02 -0.93156293925E+01  0.46482292025E+02  0.59854214517E+02  0.00000000000E+00 0. -1.
    9900018    1    1    2    0    0  0.13804024470E+02  0.22813925050E+03  0.97920601644E+03  0.10096522519E+04  0.91187600000E+02 0.  0.
<mgrwt>
<rscale>  0 0.20928464E+04</rscale>
<asrwt>0</asrwt>
<pdfrwt beam="1">  1        1 0.38485531E+00 0.20928464E+04</pdfrwt>
<pdfrwt beam="2">  1       -1 0.67342703E-01 0.20928464E+04</pdfrwt>
<totfact> 0.27781184E+00</totfact>
</mgrwt>
</event>
<event>
11    1  0.4651426E-011  0.1277559E+04  0.7818608E-02  0.9047553E-01
         -1   -1    0    0    0  501 -0.00000000000E+00  0.00000000000E+00  0.46219951750E+03  0.46219951750E+03  0.00000000000E+00 0.  1.
          1   -1    0    0  501    0  0.00000000000E+00 -0.00000000000E+00 -0.88282043330E+03  0.88282043330E+03  0.00000000000E+00 0. -1.
    9900016    2    1    2    0    0  0.20584708428E+03  0.18651487678E+02 -0.28032249772E+03  0.79092380847E+03  0.71011187004E+03 0.  0.
         23    2    3    3    0    0  0.74094407729E+02  0.88394668204E+02  0.14119070926E+02  0.14901492073E+03  0.93287189976E+02 0.  0.
        -15    1    4    4    0    0  0.80157674325E+02  0.99678752472E+02 -0.26192095646E+01  0.12793735462E+03  0.00000000000E+00 0.  1.
        -15    1    3    3    0    0  0.22526722431E+02 -0.17698686954E+03 -0.13767540284E+03  0.22535820766E+03  0.00000000000E+00 0.  1.
         15    1    3    3    0    0  0.20206780498E+03  0.44295366075E+02 -0.20789185611E+03  0.29327887940E+03  0.00000000000E+00 0. -1.
         15    1    4    4    0    0 -0.60632665961E+01 -0.11284084268E+02  0.16738280491E+02  0.21077566116E+02  0.00000000000E+00 0. -1.
        -16    1    3    3    0    0 -0.92841850865E+02  0.62948322935E+02  0.51125690306E+02  0.12327180067E+03  0.00000000000E+00 0.  1.
         16    1    1    2    0    0 -0.15474084772E+03 -0.19958705299E+02 -0.31441974227E+03  0.35100264130E+03  0.00000000000E+00 0. -1.
    9900018    1    1    2    0    0 -0.51106236557E+02  0.13072176210E+01  0.17412132419E+03  0.20309350104E+03  0.91187600000E+02 0.  0.
<mgrwt>
<rscale>  0 0.12775589E+04</rscale>
<asrwt>0</asrwt>
<pdfrwt beam="1">  1        1 0.13581853E+00 0.12775589E+04</pdfrwt>
<pdfrwt beam="2">  1       -1 0.71107618E-01 0.12775589E+04</pdfrwt>
<totfact> 0.36969219E+01</totfact>
</mgrwt>
</event>
<event>
11    1  0.4651426E-011  0.1242352E+04  0.7818608E-02  0.9076573E-01
         -1   -1    0    0    0  501 -0.00000000000E+00  0.00000000000E+00  0.12970743068E+04  0.12970743068E+04  0.00000000000E+00 0.  1.
          1   -1    0    0  501    0  0.00000000000E+00 -0.00000000000E+00 -0.29748456319E+03  0.29748456319E+03  0.00000000000E+00 0. -1.
    9900016    2    1    2    0    0 -0.21107389606E+01  0.18931584362E+02  0.38739640821E+03  0.81124200625E+03  0.71251298620E+03 0.  0.
         23    2    3    3    0    0 -0.73942827707E+02  0.45698565988E+02  0.28522045899E+02  0.12951038893E+03  0.91670786164E+02 0.  0.
        -15    1    3    3    0    0 -0.65567935155E+02 -0.10685435550E+03  0.27539016323E+03  0.30258345859E+03  0.00000000000E+00 0.  1.
        -15    1    4    4    0    0 -0.33148645890E+02  0.70052654939E+02  0.26680671972E+02  0.81963805702E+02  0.00000000000E+00 0.  1.
         15    1    4    4    0    0 -0.40794181817E+02 -0.24354088951E+02  0.18413739274E+01  0.47546583228E+02  0.00000000000E+00 0. -1.
         15    1    3    3    0    0  0.18770837799E+03  0.17290751113E+03  0.20084483669E+02  0.25599771299E+03  0.00000000000E+00 0. -1.
        -16    1    1    2    0    0 -0.15953780886E+03 -0.38999274715E+02  0.56829136142E+03  0.59154740077E+03  0.00000000000E+00 0.  1.
         16    1    3    3    0    0 -0.50308354092E+02 -0.92820137252E+02  0.63399715405E+02  0.12315044573E+03  0.00000000000E+00 0. -1.
    9900018    1    1    2    0    0  0.16164854782E+03  0.20067690353E+02  0.43901973949E+02  0.19176946295E+03  0.91187600000E+02 0.  0.
<mgrwt>
<rscale>  0 0.12423519E+04</rscale>
<asrwt>0</asrwt>
<pdfrwt beam="1">  1        1 0.45766857E-01 0.12423519E+04</pdfrwt>
<pdfrwt beam="2">  1       -1 0.19954989E+00 0.12423519E+04</pdfrwt>
<totfact> 0.13261023E+01</totfact>
</mgrwt>
</event>
<event>
11    1  0.4651426E-011  0.1510455E+04  0.7818608E-02  0.8877530E-01
         -4   -1    0    0    0  501 -0.00000000000E+00  0.00000000000E+00  0.16108339442E+04  0.16108339442E+04  0.00000000000E+00 0.  1.
          4   -1    0    0  501    0  0.00000000000E+00 -0.00000000000E+00 -0.35408258102E+03  0.35408258102E+03  0.00000000000E+00 0. -1.
    9900016    2    1    2    0    0  0.24135815448E+02 -0.20294807340E+03  0.11247696946E+03  0.71229775013E+03  0.67301304452E+03 0.  0.
         23    2    3    3    0    0 -0.58316987006E+02 -0.36443612851E+03  0.74589638534E+02  0.38750267333E+03  0.91543131506E+02 0.  0.
        -15    1    3    3    0    0  0.23165281332E+00  0.53162764480E+02  0.56407969235E+01  0.53461685160E+02  0.00000000000E+00 0.  1.
        -15    1    4    4    0    0 -0.76843241372E+02 -0.19181356947E+03  0.39210092286E+02  0.21032061363E+03  0.00000000000E+00 0.  1.
         15    1    4    4    0    0  0.18526254366E+02 -0.17262255904E+03  0.35379546248E+02  0.17718205971E+03  0.00000000000E+00 0. -1.
         15    1    3    3    0    0  0.11292119327E+03  0.11131765232E+03 -0.63449992303E+02  0.17078851581E+03  0.00000000000E+00 0. -1.
        -16    1    1    2    0    0 -0.76918665300E+02  0.10427345638E+03  0.10911251167E+04  0.10987918161E+04  0.00000000000E+00 0.  1.
         16    1    3    3    0    0 -0.30700043629E+02 -0.29923616924E+01  0.95696526306E+02  0.10054487582E+03  0.00000000000E+00 0. -1.
    9900018    1    1    2    0    0  0.52782849852E+02  0.98674617025E+02  0.53149277038E+02  0.15382695904E+03  0.91187600000E+02 0.  0.
<mgrwt>
<rscale>  0 0.15104546E+04</rscale>
<asrwt>0</asrwt>
<pdfrwt beam="1">  1        4 0.54474244E-01 0.15104546E+04</pdfrwt>
<pdfrwt beam="2">  1       -4 0.24782060E+00 0.15104546E+04</pdfrwt>
<totfact> 0.40636341E-01</totfact>
</mgrwt>
</event>
<event>
11    1  0.4651426E-011  0.2266023E+04  0.7818608E-02  0.8491439E-01
          1   -1    0    0  501    0  0.00000000000E+00  0.00000000000E+00  0.37829727128E+04  0.37829727128E+04  0.00000000000E+00 0. -1.
         -1   -1    0    0    0  501 -0.00000000000E+00 -0.00000000000E+00 -0.33934043218E+03  0.33934043218E+03  0.00000000000E+00 0.  1.
    9900016    2    1    2    0    0 -0.47691296907E+03 -0.33166160102E+03  0.19659089800E+04  0.21676925788E+04  0.70473229032E+03 0.  0.
         23    2    3    3    0    0 -0.36991992074E+02  0.53936689026E+02  0.31585099759E+03  0.33410965298E+03  0.87119651246E+02 0.  0.
        -15    1    3    3    0    0 -0.21247318323E+03 -0.32304138032E+03  0.39146766958E+03  0.55022497518E+03  0.00000000000E+00 0.  1.
        -15    1    4    4    0    0 -0.25017900972E+02 -0.83063236390E+01  0.24650476646E+02  0.36090668881E+02  0.00000000000E+00 0. -1.
         15    1    3    3    0    0 -0.18262107731E+03 -0.11601235569E+02  0.90566087183E+03  0.92396247830E+03  0.00000000000E+00 0. -1.
         15    1    4    4    0    0 -0.11974091101E+02  0.62243012665E+02  0.29120052094E+03  0.29801898409E+03  0.00000000000E+00 0.  1.
        -16    1    3    3    0    0 -0.44826716458E+02 -0.50955674159E+02  0.35292944099E+03  0.35939547236E+03  0.00000000000E+00 0.  1.
         16    1    1    2    0    0 -0.45502128680E+02  0.29784511722E+03  0.13822670524E+04  0.14147241292E+04  0.00000000000E+00 0. -1.
    9900018    1    1    2    0    0  0.52241509775E+03  0.33816483796E+02  0.95456248245E+02  0.53989643697E+03  0.91187600000E+02 0.  0.
<mgrwt>
<rscale>  0 0.22660235E+04</rscale>
<asrwt>0</asrwt>
<pdfrwt beam="1">  1        1 0.58199577E+00 0.22660235E+04</pdfrwt>
<pdfrwt beam="2">  1       -1 0.52206223E-01 0.22660235E+04</pdfrwt>
<totfact> 0.49516127E-01</totfact>
</mgrwt>
</event>
<event>
11    1  0.4651426E-011  0.2316132E+04  0.7818608E-02  0.8471587E-01
         -3   -1    0    0    0  501 -0.00000000000E+00  0.00000000000E+00  0.94563790359E+03  0.94563790359E+03  0.00000000000E+00 0.  1.
          3   -1    0    0  501    0  0.00000000000E+00 -0.00000000000E+00 -0.14182142748E+04  0.14182142748E+04  0.00000000000E+00 0. -1.
    9900016    2    1    2    0    0 -0.35294992917E+03 -0.19484518171E+03 -0.54598039628E+03  0.98335660636E+03  0.71158788973E+03 0.  0.
         23    2    3    3    0    0  0.80725325398E+02  0.34008874273E+02 -0.46257284233E+02  0.13788441650E+03  0.95912430257E+02 0.  0.
        -15    1    3    3    0    0 -0.12627010316E+03  0.85358425763E+02 -0.45728970313E+02  0.15912680015E+03  0.00000000000E+00 0.  1.
        -15    1    4    4    0    0  0.26250205210E+02 -0.13759690979E+02  0.23106944767E+02  0.37581022682E+02  0.00000000000E+00 0.  1.
         15    1    3    3    0    0 -0.14897385102E+03 -0.29757463045E+03 -0.39493626430E+03  0.51644798560E+03  0.00000000000E+00 0. -1.
         15    1    4    4    0    0  0.54475120188E+02  0.47768565252E+02 -0.69364229000E+02  0.10030339381E+03  0.00000000000E+00 0. -1.
        -16    1    1    2    0    0  0.49089611126E+03 -0.13908962962E+03  0.56652470370E+03  0.76241403254E+03  0.00000000000E+00 0.  1.
         16    1    3    3    0    0 -0.15843130039E+03 -0.16637851301E+02 -0.59057877441E+02  0.16989740412E+03  0.00000000000E+00 0. -1.
    9900018    1    1    2    0    0 -0.13794618210E+03  0.33393481133E+03 -0.49312067862E+03  0.61808153948E+03  0.91187600000E+02 0.  0.
<mgrwt>
<rscale>  0 0.23161323E+04</rscale>
<asrwt>0</asrwt>
<pdfrwt beam="1">  1        3 0.21818681E+00 0.23161323E+04</pdfrwt>
<pdfrwt beam="2">  1       -3 0.14548275E+00 0.23161323E+04</pdfrwt>
<totfact> 0.93735643E-02</totfact>
</mgrwt>
</event>
<event>
11    1  0.4651426E-011  0.1901321E+04  0.7818608E-02  0.8654199E-01
          1   -1    0    0  501    0  0.00000000000E+00  0.00000000000E+00  0.41982436706E+03  0.41982436706E+03  0.00000000000E+00 0. -1.
         -1   -1    0    0    0  501 -0.00000000000E+00 -0.00000000000E+00 -0.21526985001E+04  0.21526985001E+04  0.00000000000E+00 0.  1.
    9900016    2    1    2    0    0 -0.19837048054E+03 -0.88101010839E+00 -0.62964519281E+03  0.97374838303E+03  0.71580808943E+03 0.  0.
         23    2    3    3    0    0  0.10394782682E+03  0.13594615536E+03 -0.75362288871E+02  0.20850131693E+03  0.92232406011E+02 0.  0.
        -15    1    4    4    0    0  0.32709626953E+02  0.10831066830E+03 -0.21893385377E+02  0.11524079524E+03  0.00000000000E+00 0.  1.
        -15    1    3    3    0    0 -0.18604566316E+03  0.55035719370E+02 -0.43683833338E+03  0.47798498794E+03  0.00000000000E+00 0.  1.
         15    1    3    3    0    0 -0.13134050985E+03 -0.17140549637E+03 -0.13653317268E+03  0.25548283887E+03  0.00000000000E+00 0. -1.
         15    1    4    4    0    0  0.71238199863E+02  0.27635487058E+02 -0.53468903494E+02  0.93260521688E+02  0.00000000000E+00 0. -1.
        -16    1    1    2    0    0  0.13940896489E+03 -0.44734028630E+02 -0.13327655471E+04  0.13407833517E+04  0.00000000000E+00 0.  1.
         16    1    3    3    0    0  0.15067865663E+02 -0.20457388465E+02  0.19088602126E+02  0.31779239285E+02  0.00000000000E+00 0. -1.
    9900018    1    1    2    0    0  0.58961515644E+02  0.45615038739E+02  0.22953660688E+03  0.25799113237E+03  0.91187600000E+02 0.  0.
<mgrwt>
<rscale>  0 0.19013209E+04</rscale>
<asrwt>0</asrwt>
<pdfrwt beam="1">  1        1 0.64588365E-01 0.19013209E+04</pdfrwt>
<pdfrwt beam="2">  1       -1 0.33118438E+00 0.19013209E+04</pdfrwt>
<totfact> 0.10895400E+00</totfact>
</mgrwt>
</event>
<event>
11    1  0.4651426E-011  0.1179678E+04  0.7818608E-02  0.9130833E-01
         -3   -1    0    0    0  501 -0.00000000000E+00  0.00000000000E+00  0.38947861342E+03  0.38947861342E+03  0.00000000000E+00 0.  1.
          3   -1    0    0  501    0  0.00000000000E+00 -0.00000000000E+00 -0.89327118456E+03  0.89327118456E+03  0.00000000000E+00 0. -1.
    9900016    2    1    2    0    0  0.56514073652E+02  0.19394982488E+03 -0.10696557221E+03  0.74526250073E+03  0.70934067010E+03 0.  0.
         23    2    3    3    0    0  0.17687109020E+02 -0.14357655516E+01  0.19654649279E+02  0.95033794614E+02  0.91270047838E+02 0.  0.
        -15    1    4    4    0    0 -0.11359441577E+02  0.16200037890E+02  0.47271683203E+02  0.51245391728E+02  0.00000000000E+00 0. -1.
        -15    1    3    3    0    0 -0.23209731661E+03 -0.33818978453E+02 -0.16255194643E+03  0.28536997560E+03  0.00000000000E+00 0.  1.
         15    1    3    3    0    0  0.23649222592E+03  0.17141242279E+03  0.49465234498E+02  0.29623909437E+03  0.00000000000E+00 0. -1.
         15    1    4    4    0    0  0.29046550597E+02 -0.17635803441E+02 -0.27617033923E+02  0.43788402886E+02  0.00000000000E+00 0.  1.
        -16    1    3    3    0    0  0.34432055323E+02  0.57792146100E+02 -0.13533509555E+02  0.68619636151E+02  0.00000000000E+00 0.  1.
         16    1    1    2    0    0 -0.15485397704E+03 -0.82371157547E+02 -0.26931932877E+03  0.32139953742E+03  0.00000000000E+00 0. -1.
    9900018    1    1    2    0    0  0.98339903391E+02 -0.11157866733E+03 -0.12750767016E+03  0.21608775983E+03  0.91187600000E+02 0.  0.
<mgrwt>
<rscale>  0 0.11796780E+04</rscale>
<asrwt>0</asrwt>
<pdfrwt beam="1">  1        3 0.13742634E+00 0.11796780E+04</pdfrwt>
<pdfrwt beam="2">  1       -3 0.59919787E-01 0.11796780E+04</pdfrwt>
<totfact> 0.28549757E+00</totfact>
</mgrwt>
</event>
<event>
11    1  0.5313806E-011  0.2900894E+04  0.7818608E-02  0.8272612E-01
         -1   -1    0    0    0  501 -0.00000000000E+00  0.00000000000E+00  0.10986133026E+04  0.10986133026E+04  0.00000000000E+00 0.  1.
          1   -1    0    0  501    0  0.00000000000E+00 -0.00000000000E+00 -0.19149562464E+04  0.19149562464E+04  0.00000000000E+00 0. -1.
    9900016    2    1    2    0    0  0.36453740503E+02  0.64299738424E+03 -0.17827632362E+02  0.96050871424E+03  0.71237957180E+03 0.  0.
         23    2    3    3    0    0  0.61884386069E+02  0.72908277759E+02  0.77721126666E+02  0.15414180015E+03  0.92594961087E+02 0.  0.
        -15    1    3    3    0    0  0.21646180306E+02  0.19578032502E+03  0.14508993966E+03  0.24464174496E+03  0.00000000000E+00 0.  1.
        -15    1    4    4    0    0  0.63752190922E+02  0.57284129425E+02  0.11976645504E+02  0.86540472432E+02  0.00000000000E+00 0.  1.
         15    1    3    3    0    0 -0.26784690254E+02  0.23608492440E+03 -0.32191058570E+03  0.40009990796E+03  0.00000000000E+00 0. -1.
         15    1    4    4    0    0 -0.18678048524E+01  0.15624148334E+02  0.65744481161E+02  0.67601327718E+02  0.00000000000E+00 0. -1.
        -16    1    1    2    0    0 -0.29797058973E+03  0.41600247742E+02  0.48588236870E+03  0.57148817063E+03  0.00000000000E+00 0.  1.
         16    1    3    3    0    0 -0.20292135618E+02  0.13822385706E+03  0.81271887013E+02  0.16162526116E+03  0.00000000000E+00 0. -1.
    9900018    1    1    2    0    0  0.26151684922E+03 -0.68459763198E+03 -0.12843976801E+04  0.14815726642E+04  0.91187600000E+02 0.  0.
<mgrwt>
<rscale>  0 0.29008939E+04</rscale>
<asrwt>0</asrwt>
<pdfrwt beam="1">  1        1 0.29460865E+00 0.29008939E+04</pdfrwt>
<pdfrwt beam="2">  1       -1 0.16901743E+00 0.29008939E+04</pdfrwt>
<totfact> 0.73089973E-01</totfact>
</mgrwt>
</event>
<event>
11    1  0.4651426E-011  0.2026462E+04  0.7818608E-02  0.8594348E-01
          1   -1    0    0  501    0  0.00000000000E+00  0.00000000000E+00  0.12304156939E+04  0.12304156939E+04  0.00000000000E+00 0. -1.
         -1   -1    0    0    0  501 -0.00000000000E+00 -0.00000000000E+00 -0.83438230287E+03  0.83438230287E+03  0.00000000000E+00 0.  1.
    9900016    2    1    2    0    0  0.22654824939E+03  0.31380962207E+03 -0.28288379408E+03  0.85881633358E+03  0.71255993829E+03 0.  0.
         23    2    3    3    0    0  0.19524611918E+01  0.32964161115E+02  0.95230278865E+02  0.13510300730E+03  0.89964262602E+02 0.  0.
        -15    1    3    3    0    0  0.27704956328E+03  0.23716384451E+03 -0.46635009491E+03  0.59201820975E+03  0.00000000000E+00 0.  1.
        -15    1    4    4    0    0 -0.19298910769E+02  0.19289657053E+02  0.10463853112E+03  0.10813769473E+03  0.00000000000E+00 0.  1.
         15    1    4    4    0    0  0.21251371960E+02  0.13674504062E+02 -0.94082522549E+01  0.26965312571E+02  0.00000000000E+00 0. -1.
         15    1    3    3    0    0 -0.41831732854E+02  0.21295210607E+02  0.95039504745E+02  0.10599946854E+03  0.00000000000E+00 0. -1.
        -16    1    3    3    0    0 -0.10622042234E+02  0.22386405834E+02 -0.68034827777E+01  0.25695647984E+02  0.00000000000E+00 0.  1.
         16    1    1    2    0    0 -0.15005302510E+03 -0.49407604576E+03  0.80461949285E+03  0.95605417086E+03  0.00000000000E+00 0. -1.
    9900018    1    1    2    0    0 -0.76495224290E+02  0.18026642369E+03 -0.12570230775E+03  0.24992749232E+03  0.91187600000E+02 0.  0.
<mgrwt>
<rscale>  0 0.20264620E+04</rscale>
<asrwt>0</asrwt>
<pdfrwt beam="1">  1        1 0.18929472E+00 0.20264620E+04</pdfrwt>
<pdfrwt beam="2">  1       -1 0.12836651E+00 0.20264620E+04</pdfrwt>
<totfact> 0.49207901E+00</totfact>
</mgrwt>
</event>
<event>
11    1  0.4651426E-011  0.9691562E+03  0.7818608E-02  0.9343036E-01
         -1   -1    0    0    0  501 -0.00000000000E+00  0.00000000000E+00  0.69170707061E+03  0.69170707061E+03  0.00000000000E+00 0.  1.
          1   -1    0    0  501    0  0.00000000000E+00 -0.00000000000E+00 -0.33947307406E+03  0.33947307406E+03  0.00000000000E+00 0. -1.
    9900016    2    1    2    0    0 -0.14059373910E+02 -0.82579890190E+02  0.34445336359E+03  0.78968784206E+03  0.70564981681E+03 0.  0.
         23    2    3    3    0    0  0.11964542006E+03  0.56633500586E+02 -0.50697962363E+02  0.16870063347E+03  0.91472621125E+02 0.  0.
        -15    1    3    3    0    0  0.69983111396E+01 -0.12184031674E+03  0.21310898061E+03  0.24557987858E+03  0.00000000000E+00 0.  1.
        -15    1    4    4    0    0  0.53080429660E+01  0.45707437637E+02 -0.15969025024E+02  0.48706826376E+02  0.00000000000E+00 0. -1.
         15    1    3    3    0    0 -0.46217609865E+02  0.11807571583E+03 -0.37136092533E+01  0.12685319477E+03  0.00000000000E+00 0. -1.
         15    1    4    4    0    0  0.11433737709E+03  0.10926062949E+02 -0.34728937340E+02  0.11999380709E+03  0.00000000000E+00 0.  1.
        -16    1    1    2    0    0  0.43956298221E+01  0.83319829977E-01  0.92020172555E+02  0.92125135879E+02  0.00000000000E+00 0.  1.
         16    1    3    3    0    0 -0.94485495242E+02 -0.13544878986E+03  0.18575595459E+03  0.24855413525E+03  0.00000000000E+00 0. -1.
    9900018    1    1    2    0    0  0.96637440874E+01  0.82496570360E+02 -0.84239539600E+02  0.14936716673E+03  0.91187600000E+02 0.  0.
<mgrwt>
<rscale>  0 0.96915618E+03</rscale>
<asrwt>0</asrwt>
<pdfrwt beam="1">  1        1 0.52226627E-01 0.96915618E+03</pdfrwt>
<pdfrwt beam="2">  1       -1 0.10641647E+00 0.96915618E+03</pdfrwt>
<totfact> 0.61820044E+01</totfact>
</mgrwt>
</event>
<event>
11    1  0.4651426E-011  0.1533228E+04  0.7818608E-02  0.8862652E-01
          1   -1    0    0  501    0  0.00000000000E+00  0.00000000000E+00  0.11960222450E+04  0.11960222450E+04  0.00000000000E+00 0. -1.
         -1   -1    0    0    0  501 -0.00000000000E+00 -0.00000000000E+00 -0.49137635816E+03  0.49137635816E+03  0.00000000000E+00 0.  1.
    9900016    2    1    2    0    0  0.18246795152E+03  0.29976577915E+03  0.14233134229E+03  0.80604950478E+03  0.71155008079E+03 0.  0.
         23    2    3    3    0    0  0.35932138197E+03  0.17921634705E+03  0.42026046434E+02  0.41413688608E+03  0.92264929610E+02 0.  0.
        -15    1    3    3    0    0  0.36562187898E+02 -0.57692791321E+02 -0.61271762831E-01  0.68302675706E+02  0.00000000000E+00 0.  1.
        -15    1    4    4    0    0  0.12545870190E+03  0.57520009131E+02 -0.29160762296E+02  0.14106306175E+03  0.00000000000E+00 0.  1.
         15    1    3    3    0    0 -0.13131458243E+03  0.16586383610E+03  0.27860873406E+02  0.21337891168E+03  0.00000000000E+00 0. -1.
         15    1    4    4    0    0  0.23386268008E+03  0.12169633792E+03  0.71186808730E+02  0.27307382433E+03  0.00000000000E+00 0. -1.
        -16    1    3    3    0    0 -0.82101035919E+02  0.12378387329E+02  0.72505694216E+02  0.11023103132E+03  0.00000000000E+00 0.  1.
         16    1    1    2    0    0 -0.17684439997E+03 -0.11270731348E+03  0.62877282544E+03  0.66282135325E+03  0.00000000000E+00 0. -1.
    9900018    1    1    2    0    0 -0.56235515518E+01 -0.18705846567E+03 -0.66458280862E+02  0.21852774515E+03  0.91187600000E+02 0.  0.
<mgrwt>
<rscale>  0 0.15332280E+04</rscale>
<asrwt>0</asrwt>
<pdfrwt beam="1">  1        1 0.18400342E+00 0.15332280E+04</pdfrwt>
<pdfrwt beam="2">  1       -1 0.75596363E-01 0.15332280E+04</pdfrwt>
<totfact> 0.18251400E+01</totfact>
</mgrwt>
</event>
<event>
11    1  0.4651426E-011  0.9232696E+03  0.7818608E-02  0.9396952E-01
          2   -1    0    0  501    0  0.00000000000E+00  0.00000000000E+00  0.16069694003E+04  0.16069694003E+04  0.00000000000E+00 0. -1.
         -2   -1    0    0    0  501 -0.00000000000E+00 -0.00000000000E+00 -0.13261403926E+03  0.13261403926E+03  0.00000000000E+00 0.  1.
    9900016    2    1    2    0    0 -0.96665982067E+02  0.19026565976E+01  0.11252365663E+04  0.13330360285E+04  0.70815237842E+03 0.  0.
         23    2    3    3    0    0 -0.17059417638E+03  0.93118721375E+01  0.26655597628E+03  0.32916421928E+03  0.90043938097E+02 0.  0.
        -15    1    3    3    0    0  0.10318839100E+03  0.67304921110E+02  0.64333075597E+02  0.13898395971E+03  0.00000000000E+00 0.  1.
        -15    1    4    4    0    0 -0.80604885479E+02  0.41467549859E+02  0.17364416597E+03  0.19588006950E+03  0.00000000000E+00 0. -1.
         15    1    4    4    0    0 -0.89989290905E+02 -0.32155677721E+02  0.92911810313E+02  0.13328414978E+03  0.00000000000E+00 0.  1.
         15    1    3    3    0    0  0.14026794264E+02  0.13036407668E+03  0.26836784335E+03  0.29868519011E+03  0.00000000000E+00 0. -1.
        -16    1    1    2    0    0  0.64783094474E+02 -0.64771215812E+02  0.17869767525E+03  0.20081090326E+03  0.00000000000E+00 0.  1.
         16    1    3    3    0    0 -0.43286990943E+02 -0.20507821333E+03  0.52597967107E+03  0.56620265943E+03  0.00000000000E+00 0. -1.
    9900018    1    1    2    0    0  0.31882887593E+02  0.62868559214E+02  0.17042111947E+03  0.20573650773E+03  0.91187600000E+02 0.  0.
<mgrwt>
<rscale>  0 0.92326963E+03</rscale>
<asrwt>0</asrwt>
<pdfrwt beam="1">  1        2 0.24722605E+00 0.92326963E+03</pdfrwt>
<pdfrwt beam="2">  1       -2 0.20402161E-01 0.92326963E+03</pdfrwt>
<totfact> 0.22864266E+02</totfact>
</mgrwt>
</event>
