<event>
11    1  0.2080830E-015  0.5536665E+04  0.7818608E-02  0.7750664E-01
         -2   -1    0    0    0  501 -0.00000000000E+00  0.00000000000E+00  0.23585320969E+04  0.23585320969E+04  0.00000000000E+00 0.  1.
          2   -1    0    0  501    0  0.00000000000E+00 -0.00000000000E+00 -0.32493361437E+04  0.32493361437E+04  0.00000000000E+00 0. -1.
    9900016    2    1    2    0    0  0.78766980277E+02  0.90197712578E+03 -0.10834577579E+04  0.24213016329E+04  0.19669910807E+04 0.  0.
         24    2    3    3    0    0 -0.48965801050E+03 -0.26503552312E+03  0.19888952408E+03  0.59662630713E+03  0.79981946780E+02 0.  0.
        -15    1    1    2    0    0 -0.92840300695E+02 -0.90648275590E+03 -0.70947364504E+03  0.11548520083E+04  0.00000000000E+00 0.  1.
        -15    1    4    4    0    0 -0.47585904534E+03 -0.23991908090E+03  0.18087803681E+03  0.56277869595E+03  0.00000000000E+00 0.  1.
         15    1    3    3    0    0  0.56842499077E+03  0.11670126489E+04 -0.12823472820E+04  0.18246753258E+04  0.00000000000E+00 0. -1.
         15    1    1    2    0    0  0.69326127716E+03  0.35485509091E+03  0.31798684195E+03  0.84121873826E+03  0.00000000000E+00 0. -1.
        -16    1    1    2    0    0 -0.63486291991E+03 -0.43284940705E+03  0.68185536672E+03  0.10272956134E+04  0.00000000000E+00 0.  1.
         16    1    4    4    0    0 -0.13798965156E+02 -0.25116442216E+02  0.18011487265E+02  0.33847611178E+02  0.00000000000E+00 0. -1.
    9900018    1    1    2    0    0 -0.44325036831E+02  0.82499946252E+02 -0.97714852624E+02  0.16320024767E+03  0.91187600000E+02 0.  0.
<mgrwt>
<rscale>  0 0.55366646E+04</rscale>
<asrwt>0</asrwt>
<pdfrwt beam="1">  1        2 0.49989787E+00 0.55366646E+04</pdfrwt>
<pdfrwt beam="2">  1       -2 0.36285109E+00 0.55366646E+04</pdfrwt>
<totfact> 0.10822194E-02</totfact>
</mgrwt>
</event>
<event>
11    1  0.2080830E-015  0.4436297E+04  0.7818608E-02  0.8021749E-01
          2   -1    0    0  501    0  0.00000000000E+00  0.00000000000E+00  0.34416661581E+04  0.34416661581E+04  0.00000000000E+00 0. -1.
         -2   -1    0    0    0  501 -0.00000000000E+00 -0.00000000000E+00 -0.37145616107E+04  0.37145616107E+04  0.00000000000E+00 0.  1.
    9900016    2    1    2    0    0  0.88198420074E+03 -0.72263760777E+03 -0.15130281864E+04  0.27360512865E+04  0.19739860960E+04 0.  0.
         24    2    3    3    0    0  0.36773149845E+03 -0.12185214780E+04 -0.15661579644E+04  0.20196858575E+04  0.79114766666E+02 0.  0.
        -15    1    4    4    0    0  0.19784373850E+03 -0.56295783276E+03 -0.68772510153E+03  0.91051056095E+03  0.00000000000E+00 0.  1.
        -15    1    1    2    0    0  0.86008774946E+03  0.49405747795E+03  0.11795456919E+04  0.15411592285E+04  0.00000000000E+00 0.  1.
         15    1    1    2    0    0 -0.17113515643E+04  0.66070647579E+03 -0.51018284581E+03  0.19040860695E+04  0.00000000000E+00 0. -1.
         15    1    3    3    0    0  0.51425270229E+03  0.49588387021E+03  0.53129778002E+02  0.71636542900E+03  0.00000000000E+00 0. -1.
        -16    1    1    2    0    0 -0.13684231244E+03 -0.39062306591E+03  0.67763782973E+03  0.79404359224E+03  0.00000000000E+00 0.  1.
         16    1    4    4    0    0  0.16988775995E+03 -0.65556364523E+03 -0.87843286292E+03  0.11091752966E+04  0.00000000000E+00 0. -1.
    9900018    1    1    2    0    0  0.10612192653E+03 -0.41503280058E+02 -0.10686794196E+03  0.18088759205E+03  0.91187600000E+02 0.  0.
<mgrwt>
<rscale>  0 0.39158108E+04</rscale>
<asrwt>0</asrwt>
<pdfrwt beam="1">  1        2 0.52948710E+00 0.44362969E+04</pdfrwt>
<pdfrwt beam="2">  1       -2 0.57147102E+00 0.44362969E+04</pdfrwt>
<totfact> 0.42295216E-04</totfact>
</mgrwt>
</event>
<event>
11    1  0.2080830E-015  0.2748908E+04  0.7818608E-02  0.8690031E-01
         -2   -1    0    0    0  501 -0.00000000000E+00  0.00000000000E+00  0.15532739484E+04  0.15532739484E+04  0.00000000000E+00 0. -1.
          2   -1    0    0  501    0  0.00000000000E+00 -0.00000000000E+00 -0.21770131094E+04  0.21770131094E+04  0.00000000000E+00 0.  1.
    9900016    2    1    2    0    0  0.16915252410E+03 -0.36328923454E+02 -0.39151893492E+03  0.20185572818E+04  0.19726515294E+04 0.  0.
         24    2    3    3    0    0  0.41243322313E+03  0.75620058859E+03 -0.72135767030E+03  0.11263229419E+04  0.79410246144E+02 0.  0.
        -15    1    4    4    0    0  0.16467936835E+03  0.30063954013E+03 -0.33830653266E+03  0.48161679527E+03  0.00000000000E+00 0.  1.
        -15    1    1    2    0    0  0.23227062347E+03 -0.33309988281E+03 -0.75017880643E+03  0.85303775770E+03  0.00000000000E+00 0.  1.
         15    1    1    2    0    0 -0.21124028252E+03  0.65379586269E+02  0.21277140091E+03  0.30686905401E+03  0.00000000000E+00 0. -1.
         15    1    3    3    0    0 -0.24328069903E+03 -0.79252951205E+03  0.32983873538E+03  0.89223433993E+03  0.00000000000E+00 0. -1.
        -16    1    1    2    0    0 -0.19986035964E+03  0.24973576652E+03  0.30959673020E+03  0.44515418878E+03  0.00000000000E+00 0.  1.
         16    1    4    4    0    0  0.24775385478E+03  0.45556104846E+03 -0.38305113765E+03  0.64470614662E+03  0.00000000000E+00 0. -1.
    9900018    1    1    2    0    0  0.96774945951E+01  0.54313453479E+02 -0.44095508255E+01  0.10666877548E+03  0.91187600000E+02 0.  0.
<mgrwt>
<rscale>  0 0.18309121E+04</rscale>
<asrwt>0</asrwt>
<pdfrwt beam="1">  1        2 0.33492509E+00 0.27489077E+04</pdfrwt>
<pdfrwt beam="2">  1       -2 0.23896522E+00 0.27489077E+04</pdfrwt>
<totfact> 0.33933935E-01</totfact>
</mgrwt>
</event>
<event>
11    1  0.2080830E-015  0.2615894E+04  0.7818608E-02  0.8523914E-01
         -2   -1    0    0    0  501 -0.00000000000E+00  0.00000000000E+00  0.12417150020E+04  0.12417150020E+04  0.00000000000E+00 0.  1.
          2   -1    0    0  501    0  0.00000000000E+00 -0.00000000000E+00 -0.30762292902E+04  0.30762292902E+04  0.00000000000E+00 0. -1.
    9900016    2    1    2    0    0  0.17241901061E+01  0.14358865154E+02 -0.69971042684E+03  0.21812678864E+04  0.20659442783E+04 0.  0.
        -24    2    3    3    0    0 -0.13600014575E+03 -0.33321853784E+03  0.64218052404E+03  0.73947107807E+03  0.69935800949E+02 0.  0.
        -15    1    3    3    0    0  0.12472789680E+03  0.33549442814E+03 -0.12825612100E+04  0.13315693061E+04  0.00000000000E+00 0.  1.
        -15    1    1    2    0    0 -0.31959881600E+03 -0.10021227646E+03  0.27562534454E+03  0.43376864120E+03  0.00000000000E+00 0.  1.
         15    1    1    2    0    0  0.56200436038E+03 -0.16160668527E+03 -0.70098167197E+03  0.91287508798E+03  0.00000000000E+00 0. -1.
         15    1    4    4    0    0 -0.45882564863E+02 -0.14431218006E+03  0.33648400799E+03  0.36898875688E+03  0.00000000000E+00 0. -1.
        -16    1    4    4    0    0 -0.90117580885E+02 -0.18890635777E+03  0.30569651604E+03  0.37048232119E+03  0.00000000000E+00 0.  1.
         16    1    1    2    0    0 -0.24412973450E+03  0.24746009657E+03 -0.70944753394E+03  0.79003267659E+03  0.00000000000E+00 0. -1.
    9900018    1    3    3    0    0  0.12996439055E+02  0.12082974849E+02 -0.59329740852E+02  0.11022750225E+03  0.91187600000E+02 0.  0.
<mgrwt>
<rscale>  0 0.21868674E+04</rscale>
<asrwt>0</asrwt>
<pdfrwt beam="1">  1        2 0.47326603E+00 0.26158939E+04</pdfrwt>
<pdfrwt beam="2">  1       -2 0.19103308E+00 0.26158939E+04</pdfrwt>
<totfact> 0.20269207E-01</totfact>
</mgrwt>
</event>
<event>
11    1  0.2080830E-015  0.2551627E+04  0.7818608E-02  0.8705127E-01
          1   -1    0    0  501    0  0.00000000000E+00  0.00000000000E+00  0.21880492331E+04  0.21880492331E+04  0.00000000000E+00 0. -1.
         -1   -1    0    0    0  501 -0.00000000000E+00 -0.00000000000E+00 -0.11630587471E+04  0.11630587471E+04  0.00000000000E+00 0.  1.
    9900016    2    1    2    0    0 -0.97471789263E+02 -0.16127388660E+03  0.89165643475E+03  0.21793137748E+04  0.19796078690E+04 0.  0.
         24    2    3    3    0    0 -0.93108051800E+03  0.34366909091E+03  0.59759169247E+03  0.11613034625E+04  0.80563801486E+02 0.  0.
        -15    1    1    2    0    0  0.34739342707E+03  0.48392084974E+02 -0.15410351255E+03  0.38310818268E+03  0.00000000000E+00 0.  1.
        -15    1    4    4    0    0 -0.63664201172E+03  0.24604677621E+03  0.45204120973E+03  0.81865335916E+03  0.00000000000E+00 0.  1.
         15    1    1    2    0    0 -0.44497523666E+03  0.18444451039E+02  0.17317315437E+03  0.47784108280E+03  0.00000000000E+00 0. -1.
         15    1    3    3    0    0  0.83360872874E+03 -0.50494297751E+03  0.29406474228E+03  0.10180103122E+04  0.00000000000E+00 0. -1.
        -16    1    1    2    0    0  0.17610680655E+03  0.67777592799E+02  0.97944617332E+02  0.21260422729E+03  0.00000000000E+00 0.  1.
         16    1    4    4    0    0 -0.29443850628E+03  0.97622314701E+02  0.14555048274E+03  0.34265010336E+03  0.00000000000E+00 0. -1.
    9900018    1    1    2    0    0  0.18946792303E+02  0.26659757790E+02  0.16319792019E+02  0.98240712687E+02  0.91187600000E+02 0.  0.
<mgrwt>
<rscale>  0 0.18022056E+04</rscale>
<asrwt>0</asrwt>
<pdfrwt beam="1">  1        1 0.33662296E+00 0.25516273E+04</pdfrwt>
<pdfrwt beam="2">  1       -1 0.17893212E+00 0.25516273E+04</pdfrwt>
<totfact> 0.40803235E-01</totfact>
</mgrwt>
</event>
<event>
11    1  0.2080830E-015  0.4172036E+04  0.7818608E-02  0.7970713E-01
         -2   -1    0    0    0  501 -0.00000000000E+00  0.00000000000E+00  0.28643014476E+04  0.28643014476E+04  0.00000000000E+00 0. -1.
          2   -1    0    0  501    0  0.00000000000E+00 -0.00000000000E+00 -0.15192082569E+04  0.15192082569E+04  0.00000000000E+00 0.  1.
    9900016    2    1    2    0    0 -0.70332493024E+03  0.47913949030E+03  0.12383430523E+04  0.24920384823E+04  0.19880949860E+04 0.  0.
         24    2    3    3    0    0 -0.11704873728E+04 -0.10599092401E+03  0.12832458070E+04  0.17419487498E+04  0.79942978089E+02 0.  0.
        -15    1    1    2    0    0  0.52863524296E+03 -0.22192876685E+03  0.88225934064E+02  0.58007879904E+03  0.00000000000E+00 0.  1.
        -15    1    4    4    0    0 -0.26381705051E+03 -0.87289906810E+01  0.24535379691E+03  0.36038051706E+03  0.00000000000E+00 0.  1.
         15    1    3    3    0    0  0.46716244259E+03  0.58513041431E+03 -0.44902754658E+02  0.75008973256E+03  0.00000000000E+00 0. -1.
         15    1    1    2    0    0 -0.28158210891E+03 -0.35747496991E+03  0.31968546236E+03  0.55612555508E+03  0.00000000000E+00 0. -1.
        -16    1    1    2    0    0  0.48439629198E+03  0.56884233809E+02 -0.38473445241E+03  0.62120542706E+03  0.00000000000E+00 0.  1.
         16    1    4    4    0    0 -0.90667032232E+03 -0.97261933325E+02  0.10378920101E+04  0.13815682327E+04  0.00000000000E+00 0. -1.
    9900018    1    1    2    0    0 -0.28124495791E+02  0.43380012649E+02  0.83573194387E+02  0.13406144104E+03  0.91187600000E+02 0.  0.
<mgrwt>
<rscale>  0 0.41720357E+04</rscale>
<asrwt>0</asrwt>
<pdfrwt beam="1">  1        2 0.23372435E+00 0.41720357E+04</pdfrwt>
<pdfrwt beam="2">  1       -2 0.44066176E+00 0.41720357E+04</pdfrwt>
<totfact> 0.38553616E-02</totfact>
</mgrwt>
</event>
<event>
11    1  0.2080830E-015  0.2817435E+04  0.7818608E-02  0.8589239E-01
          2   -1    0    0  501    0  0.00000000000E+00  0.00000000000E+00  0.28207587150E+04  0.28207587150E+04  0.00000000000E+00 0. -1.
         -2   -1    0    0    0  501 -0.00000000000E+00 -0.00000000000E+00 -0.11959335558E+04  0.11959335558E+04  0.00000000000E+00 0.  1.
    9900016    2    1    2    0    0  0.15702588935E+03  0.43432658722E+03  0.89427083942E+03  0.23017336070E+04  0.20700146254E+04 0.  0.
        -24    2    3    3    0    0  0.73506036822E+03  0.83246135355E+03  0.24660874809E+02  0.11141122886E+04  0.85629333101E+02 0.  0.
        -15    1    3    3    0    0 -0.53630927338E+03 -0.40961279073E+03  0.84912115826E+03  0.10846275934E+04  0.00000000000E+00 0.  1.
        -15    1    1    2    0    0  0.48457296360E+03 -0.84264790682E+02  0.23042574587E+03  0.54314596230E+03  0.00000000000E+00 0.  1.
         15    1    1    2    0    0 -0.12889437348E+03  0.57856043676E+02  0.49692917643E+03  0.51662335186E+03  0.00000000000E+00 0. -1.
         15    1    4    4    0    0  0.37861713304E+03  0.47605473239E+03 -0.15475842621E+02  0.60845586805E+03  0.00000000000E+00 0. -1.
        -16    1    4    4    0    0  0.35644323518E+03  0.35640662116E+03  0.40136717430E+02  0.50565642051E+03  0.00000000000E+00 0.  1.
         16    1    1    2    0    0 -0.51270447948E+03 -0.40791784022E+03  0.31993974934E+01  0.65518934957E+03  0.00000000000E+00 0. -1.
    9900018    1    3    3    0    0 -0.41725205488E+02  0.11478024406E+02  0.20488806346E+02  0.10299372503E+03  0.91187600000E+02 0.  0.
<mgrwt>
<rscale>  0 0.20376039E+04</rscale>
<asrwt>0</asrwt>
<pdfrwt beam="1">  1        2 0.43396288E+00 0.28174351E+04</pdfrwt>
<pdfrwt beam="2">  1       -2 0.18398978E+00 0.28174351E+04</pdfrwt>
<totfact> 0.32361513E-01</totfact>
</mgrwt>
</event>
<event>
11    1  0.2080830E-015  0.7323954E+04  0.7818608E-02  0.7544918E-01
         -2   -1    0    0    0  501 -0.00000000000E+00  0.00000000000E+00  0.39587922359E+04  0.39587922359E+04  0.00000000000E+00 0. -1.
          2   -1    0    0  501    0  0.00000000000E+00 -0.00000000000E+00 -0.33874160635E+04  0.33874160635E+04  0.00000000000E+00 0.  1.
    9900016    2    1    2    0    0  0.11527932756E+03  0.10981934335E+03  0.21000479004E+04  0.28914572661E+04  0.19811547961E+04 0.  0.
         24    2    3    3    0    0 -0.42787655934E+03 -0.65256328446E+03  0.17022989998E+04  0.18743782246E+04  0.80960816503E+02 0.  0.
        -15    1    1    2    0    0  0.42215887178E+03  0.85839756565E+03 -0.10095162624E+04  0.13907507245E+04  0.00000000000E+00 0.  1.
        -15    1    4    4    0    0 -0.21809001265E+03 -0.36447395916E+03  0.10118325559E+04  0.10973648626E+04  0.00000000000E+00 0.  1.
         15    1    3    3    0    0  0.54315588690E+03  0.76238262782E+03  0.39774890057E+03  0.10170790415E+04  0.00000000000E+00 0. -1.
         15    1    1    2    0    0  0.35137751801E+03 -0.15288693016E+04  0.17154440152E+03  0.15780795237E+04  0.00000000000E+00 0. -1.
        -16    1    1    2    0    0 -0.91051355173E+03  0.53159422790E+03 -0.81136280329E+03  0.13303897736E+04  0.00000000000E+00 0.  1.
         16    1    4    4    0    0 -0.20978654669E+03 -0.28808932531E+03  0.69046644394E+03  0.77701336200E+03  0.00000000000E+00 0. -1.
    9900018    1    1    2    0    0  0.21697834375E+02  0.29058164694E+02  0.12066293620E+03  0.15553101144E+03  0.91187600000E+02 0.  0.
<mgrwt>
<rscale>  0 0.73239542E+04</rscale>
<asrwt>0</asrwt>
<pdfrwt beam="1">  1        2 0.52114093E+00 0.73239542E+04</pdfrwt>
<pdfrwt beam="2">  1       -2 0.60904496E+00 0.73239542E+04</pdfrwt>
<totfact> 0.28584701E-04</totfact>
</mgrwt>
</event>
<event>
11    1  0.2080830E-015  0.5087901E+04  0.7818608E-02  0.7815089E-01
         -2   -1    0    0    0  501 -0.00000000000E+00  0.00000000000E+00  0.27831097100E+04  0.27831097100E+04  0.00000000000E+00 0.  1.
          2   -1    0    0  501    0  0.00000000000E+00 -0.00000000000E+00 -0.23253432427E+04  0.23253432427E+04  0.00000000000E+00 0. -1.
    9900016    2    1    2    0    0  0.68599587912E+02 -0.78332111992E+03  0.41381692976E+03  0.21740423108E+04  0.19841667363E+04 0.  0.
        -24    2    3    3    0    0  0.75932798567E+03 -0.10673859192E+04  0.53533081234E+03  0.14173626207E+04  0.80287169806E+02 0.  0.
        -15    1    3    3    0    0 -0.69072839775E+03  0.28406479931E+03 -0.12151388259E+03  0.75667969005E+03  0.00000000000E+00 0.  1.
        -15    1    1    2    0    0  0.10812485981E+04  0.24912521914E+03  0.18843099598E+03  0.11254635250E+04  0.00000000000E+00 0.  1.
         15    1    1    2    0    0 -0.31835187761E+03  0.12820245680E+03 -0.58534305894E+03  0.67853539669E+03  0.00000000000E+00 0. -1.
         15    1    4    4    0    0  0.38422729966E+03 -0.56740391582E+03  0.24013114305E+03  0.72611348104E+03  0.00000000000E+00 0. -1.
        -16    1    4    4    0    0  0.37510068601E+03 -0.49998200341E+03  0.29519966929E+03  0.69124913969E+03  0.00000000000E+00 0.  1.
         16    1    1    2    0    0 -0.85040878787E+03  0.41472770969E+03  0.41644138206E+03  0.10337396212E+04  0.00000000000E+00 0. -1.
    9900018    1    1    2    0    0  0.18912479423E+02 -0.87342657094E+01  0.24420218497E+02  0.96672099080E+02  0.91187600000E+02 0.  0.
<mgrwt>
<rscale>  0 0.50879015E+04</rscale>
<asrwt>0</asrwt>
<pdfrwt beam="1">  1        2 0.35774512E+00 0.50879015E+04</pdfrwt>
<pdfrwt beam="2">  1       -2 0.42817072E+00 0.50879015E+04</pdfrwt>
<totfact> 0.15378743E-02</totfact>
</mgrwt>
</event>
<event>
11    1  0.2080830E-015  0.3142515E+04  0.7818608E-02  0.8322538E-01
         -2   -1    0    0    0  501 -0.00000000000E+00  0.00000000000E+00  0.55189704307E+04  0.55189704307E+04  0.00000000000E+00 0. -1.
          2   -1    0    0  501    0  0.00000000000E+00 -0.00000000000E+00 -0.11219465841E+04  0.11219465841E+04  0.00000000000E+00 0.  1.
    9900016    2    1    2    0    0 -0.87468194996E+02 -0.10842600528E+03  0.10773812357E+04  0.22639667364E+04  0.19863001215E+04 0.  0.
        -24    2    3    3    0    0 -0.93324093421E+03  0.31229252013E+03  0.27480431101E+03  0.10244243515E+04  0.73909290149E+02 0.  0.
        -15    1    3    3    0    0  0.84577273921E+03 -0.42071852541E+03  0.80257692465E+03  0.12395423849E+04  0.00000000000E+00 0.  1.
        -15    1    1    2    0    0 -0.10241753302E+04  0.36675144505E+03  0.11052641235E+04  0.15508225276E+04  0.00000000000E+00 0.  1.
         15    1    4    4    0    0 -0.49580488520E+03  0.17344238316E+03  0.10906198102E+03  0.53646925370E+03  0.00000000000E+00 0. -1.
         15    1    1    2    0    0  0.79117690731E+03  0.42982931619E+03  0.13662968767E+04  0.16363011016E+04  0.00000000000E+00 0. -1.
        -16    1    4    4    0    0 -0.43743604901E+03  0.13885013697E+03  0.16574232999E+03  0.48795509779E+03  0.00000000000E+00 0.  1.
         16    1    1    2    0    0  0.31574500877E+03 -0.65170135046E+03  0.80409654734E+03  0.10821186710E+04  0.00000000000E+00 0. -1.
    9900018    1    1    2    0    0  0.47216091011E+01 -0.36453405494E+02  0.43985063477E+02  0.10770797820E+03  0.91187600000E+02 0.  0.
<mgrwt>
<rscale>  0 0.27387567E+04</rscale>
<asrwt>0</asrwt>
<pdfrwt beam="1">  1        2 0.17260717E+00 0.31425152E+04</pdfrwt>
<pdfrwt beam="2">  1       -2 0.84907235E+00 0.31425152E+04</pdfrwt>
<totfact> 0.57668767E-04</totfact>
</mgrwt>
</event>
<event>
11    1  0.2080830E-015  0.3294056E+04  0.7818608E-02  0.8392897E-01
          2   -1    0    0  501    0  0.00000000000E+00  0.00000000000E+00  0.36532526614E+04  0.36532526614E+04  0.00000000000E+00 0. -1.
         -2   -1    0    0    0  501 -0.00000000000E+00 -0.00000000000E+00 -0.13646339404E+04  0.13646339404E+04  0.00000000000E+00 0.  1.
    9900016    2    1    2    0    0 -0.24485102394E+03 -0.98065229098E+02  0.12236753465E+04  0.23503468119E+04  0.19892661887E+04 0.  0.
         24    2    3    3    0    0 -0.50998151753E+03  0.84067305206E+03  0.36861637073E+03  0.10531769729E+04  0.80569093402E+02 0.  0.
        -15    1    4    4    0    0 -0.34238876871E+03  0.59581498906E+03  0.29251122174E+03  0.74685231805E+03  0.00000000000E+00 0.  1.
        -15    1    1    2    0    0 -0.18385081681E+03  0.94780604259E+02 -0.76367081343E+02  0.22049130799E+03  0.00000000000E+00 0.  1.
         15    1    1    2    0    0 -0.59329294637E+03  0.49356692112E+03  0.91864733390E+03  0.11997990456E+04  0.00000000000E+00 0. -1.
         15    1    3    3    0    0  0.26513049359E+03 -0.93873828116E+03  0.85505897574E+03  0.12971698390E+04  0.00000000000E+00 0. -1.
        -16    1    1    2    0    0  0.10127476428E+04 -0.49086074862E+03  0.16126764324E+03  0.11369297759E+04  0.00000000000E+00 0.  1.
         16    1    4    4    0    0 -0.16759274882E+03  0.24485806299E+03  0.76105148987E+02  0.30632465486E+03  0.00000000000E+00 0. -1.
    9900018    1    1    2    0    0  0.92471443103E+01  0.57845233868E+00  0.61395478725E+02  0.11031966047E+03  0.91187600000E+02 0.  0.
<mgrwt>
<rscale>  0 0.25285143E+04</rscale>
<asrwt>0</asrwt>
<pdfrwt beam="1">  1        2 0.56203887E+00 0.32940558E+04</pdfrwt>
<pdfrwt beam="2">  1       -2 0.20994368E+00 0.32940558E+04</pdfrwt>
<totfact> 0.58325096E-02</totfact>
</mgrwt>
</event>
<event>
11    1  0.2080830E-015  0.2861486E+04  0.7818608E-02  0.8387321E-01
         -1   -1    0    0    0  501 -0.00000000000E+00  0.00000000000E+00  0.17553341807E+04  0.17553341807E+04  0.00000000000E+00 0. -1.
          1   -1    0    0  501    0  0.00000000000E+00 -0.00000000000E+00 -0.31069870674E+04  0.31069870674E+04  0.00000000000E+00 0.  1.
    9900016    2    1    2    0    0  0.17451749014E+03  0.10871420141E+04 -0.46680294362E+03  0.23930405344E+04  0.20727768568E+04 0.  0.
        -24    2    3    3    0    0  0.61384728766E+03  0.42694129490E+03  0.61533740616E+03  0.97177591142E+03  0.81369138705E+02 0.  0.
        -15    1    3    3    0    0 -0.40691176980E+03  0.60239322452E+03 -0.10878565333E+04  0.13083908523E+04  0.00000000000E+00 0.  1.
        -15    1    1    2    0    0 -0.49511442141E+03 -0.85046979745E+03 -0.49602397225E+03  0.11020330974E+04  0.00000000000E+00 0.  1.
         15    1    1    2    0    0  0.48148929478E+03 -0.48714410072E+03  0.19478349423E+03  0.71209685119E+03  0.00000000000E+00 0. -1.
         15    1    4    4    0    0  0.24056638493E+03  0.14175411344E+03  0.18704597189E+03  0.33608423027E+03  0.00000000000E+00 0. -1.
        -16    1    4    4    0    0  0.37328090273E+03  0.28518718146E+03  0.42829143427E+03  0.63569168115E+03  0.00000000000E+00 0.  1.
         16    1    1    2    0    0 -0.16089236351E+03  0.25047188403E+03 -0.58360946510E+03  0.65515076515E+03  0.00000000000E+00 0. -1.
    9900018    1    3    3    0    0 -0.32418027720E+02  0.57807494727E+02  0.57161835056E+01  0.11287377072E+03  0.91187600000E+02 0.  0.
<mgrwt>
<rscale>  0 0.25444444E+04</rscale>
<asrwt>0</asrwt>
<pdfrwt beam="1">  1        1 0.47799801E+00 0.28614863E+04</pdfrwt>
<pdfrwt beam="2">  1       -1 0.27005141E+00 0.28614863E+04</pdfrwt>
<totfact> 0.21141548E-02</totfact>
</mgrwt>
</event>
<event>
11    1  0.2080830E-015  0.3213874E+04  0.7818608E-02  0.8246744E-01
          2   -1    0    0  501    0  0.00000000000E+00  0.00000000000E+00  0.36359637801E+04  0.36359637801E+04  0.00000000000E+00 0. -1.
         -2   -1    0    0    0  501 -0.00000000000E+00 -0.00000000000E+00 -0.21726798996E+04  0.21726798996E+04  0.00000000000E+00 0.  1.
    9900016    2    1    2    0    0 -0.15054710464E+04 -0.33858457084E+03  0.77809405176E+03  0.26972904253E+04  0.20709569532E+04 0.  0.
         24    2    3    3    0    0 -0.16713224649E+04 -0.30249047749E+02  0.11258183897E+04  0.20170938592E+04  0.83467380621E+02 0.  0.
        -15    1    1    2    0    0 -0.31863409770E+03 -0.12909761609E+02 -0.38582942781E+03  0.50055838573E+03  0.00000000000E+00 0.  1.
        -15    1    4    4    0    0 -0.89816624712E+03 -0.40640776845E+02  0.56455937762E+03  0.10616409803E+04  0.00000000000E+00 0.  1.
         15    1    1    2    0    0  0.17068634468E+04 -0.26616458858E+03  0.94685070640E+03  0.19699626074E+04  0.00000000000E+00 0. -1.
         15    1    3    3    0    0  0.25958210958E+03 -0.32324861379E+03 -0.35857664919E+03  0.54813296861E+03  0.00000000000E+00 0. -1.
        -16    1    1    2    0    0  0.11724169726E+03  0.61765892104E+03  0.12416855009E+03  0.64083226132E+03  0.00000000000E+00 0.  1.
         16    1    4    4    0    0 -0.77315621781E+03  0.10391729096E+02  0.56125901211E+03  0.95545287893E+03  0.00000000000E+00 0. -1.
    9900018    1    3    3    0    0 -0.93730691052E+02  0.14913090697E+02  0.10852311228E+02  0.13206359745E+03  0.91187600000E+02 0.  0.
<mgrwt>
<rscale>  0 0.29894722E+04</rscale>
<asrwt>0</asrwt>
<pdfrwt beam="1">  1        2 0.55937904E+00 0.32138739E+04</pdfrwt>
<pdfrwt beam="2">  1       -2 0.33425845E+00 0.32138739E+04</pdfrwt>
<totfact> 0.99996233E-03</totfact>
</mgrwt>
</event>
<event>
11    1  0.2080830E-015  0.2803143E+04  0.7818608E-02  0.8539760E-01
          2   -1    0    0  501    0  0.00000000000E+00  0.00000000000E+00  0.30901417691E+04  0.30901417691E+04  0.00000000000E+00 0.  1.
         -2   -1    0    0    0  501 -0.00000000000E+00 -0.00000000000E+00 -0.12497665292E+04  0.12497665292E+04  0.00000000000E+00 0. -1.
    9900016    2    1    2    0    0  0.44265303111E+03  0.46526696329E+03  0.71642108394E+03  0.22838266010E+04  0.20712773162E+04 0.  0.
        -24    2    3    3    0    0 -0.44124705648E+03 -0.50716068441E+03  0.55099073913E+03  0.87307992238E+03  0.82260753608E+02 0.  0.
        -15    1    3    3    0    0  0.90023337509E+03  0.93358916404E+03  0.12673478707E+03  0.13031003657E+04  0.00000000000E+00 0.  1.
        -15    1    1    2    0    0  0.22267638342E+03 -0.55985052377E+03  0.40412687443E+03  0.72549011801E+03  0.00000000000E+00 0.  1.
         15    1    1    2    0    0 -0.13953955998E+03 -0.24278567547E+03  0.64279349864E+03  0.70114167963E+03  0.00000000000E+00 0. -1.
         15    1    4    4    0    0 -0.20459901967E+03 -0.26845378046E+03  0.23114251528E+03  0.40909051989E+03  0.00000000000E+00 0. -1.
        -16    1    4    4    0    0 -0.23664803681E+03 -0.23870690395E+03  0.31984822385E+03  0.46398940249E+03  0.00000000000E+00 0.  1.
         16    1    1    2    0    0 -0.52578985455E+03  0.33736923595E+03  0.77033782849E+02  0.62944989969E+03  0.00000000000E+00 0. -1.
    9900018    1    3    3    0    0 -0.16333287492E+02  0.38838483655E+02  0.38695557740E+02  0.10764631287E+03  0.91187600000E+02 0.  0.
<mgrwt>
<rscale>  0 0.21494669E+04</rscale>
<asrwt>0</asrwt>
<pdfrwt beam="1">  1        2 0.47540642E+00 0.28031428E+04</pdfrwt>
<pdfrwt beam="2">  1       -2 0.19227177E+00 0.28031428E+04</pdfrwt>
<totfact> 0.19234776E-01</totfact>
</mgrwt>
</event>
<event>
11    1  0.2080830E-015  0.3694687E+04  0.7818608E-02  0.8069140E-01
          2   -1    0    0  501    0  0.00000000000E+00  0.00000000000E+00  0.10506185805E+04  0.10506185805E+04  0.00000000000E+00 0. -1.
         -2   -1    0    0    0  501 -0.00000000000E+00 -0.00000000000E+00 -0.32482559674E+04  0.32482559674E+04  0.00000000000E+00 0.  1.
    9900016    2    1    2    0    0  0.24267579939E+03 -0.18889561709E+03 -0.12333903568E+04  0.23571322518E+04  0.19850056883E+04 0.  0.
        -24    2    3    3    0    0 -0.33901675879E+03 -0.82075023077E+03 -0.47402510613E+02  0.89283253648E+03  0.79621831923E+02 0.  0.
        -15    1    1    2    0    0 -0.61512798918E+03 -0.22037407091E+03 -0.80297089043E+02  0.65832727173E+03  0.00000000000E+00 0.  1.
        -15    1    3    3    0    0  0.58169255818E+03  0.63185461368E+03 -0.11859878462E+04  0.14642997153E+04  0.00000000000E+00 0.  1.
         15    1    4    4    0    0 -0.50141805205E+02 -0.20129034697E+03 -0.25203039674E+02  0.20896697735E+03  0.00000000000E+00 0. -1.
         15    1    1    2    0    0  0.33034361843E+03 -0.70756824426E+02 -0.51241472857E+03  0.61376077465E+03  0.00000000000E+00 0. -1.
        -16    1    4    4    0    0 -0.28887495359E+03 -0.61945988380E+03 -0.22199470939E+02  0.68386555913E+03  0.00000000000E+00 0.  1.
         16    1    1    2    0    0  0.19248164764E+02  0.45742081266E+03 -0.33031067208E+03  0.56454356058E+03  0.00000000000E+00 0. -1.
    9900018    1    1    2    0    0  0.22860406595E+02  0.22605699763E+02 -0.41224540479E+02  0.10511068919E+03  0.91187600000E+02 0.  0.
<mgrwt>
<rscale>  0 0.36946870E+04</rscale>
<asrwt>0</asrwt>
<pdfrwt beam="1">  1        2 0.16163363E+00 0.36946870E+04</pdfrwt>
<pdfrwt beam="2">  1       -2 0.49973167E+00 0.36946870E+04</pdfrwt>
<totfact> 0.31308061E-02</totfact>
</mgrwt>
</event>
<event>
11    1  0.2080830E-015  0.3855122E+04  0.7818608E-02  0.8233125E-01
          2   -1    0    0  501    0  0.00000000000E+00  0.00000000000E+00  0.21138925885E+04  0.21138925885E+04  0.00000000000E+00 0. -1.
         -2   -1    0    0    0  501 -0.00000000000E+00 -0.00000000000E+00 -0.34073669898E+04  0.34073669898E+04  0.00000000000E+00 0.  1.
    9900016    2    1    2    0    0  0.63717077071E+03 -0.16205954622E+03  0.17045851942E+03  0.21743116795E+04  0.20655084811E+04 0.  0.
         24    2    3    3    0    0  0.52774011325E+03  0.79901210599E+03 -0.30058267809E+03  0.10067233768E+04  0.78816485623E+02 0.  0.
        -15    1    4    4    0    0  0.27622999692E+03  0.34839733300E+03 -0.14747436536E+03  0.46843612295E+03  0.00000000000E+00 0.  1.
        -15    1    1    2    0    0  0.48820904902E+02  0.46771877931E+03 -0.60056662630E+03  0.76277428503E+03  0.00000000000E+00 0.  1.
         15    1    3    3    0    0  0.80978170508E+02 -0.96521840882E+03  0.45679951425E+03  0.10709200890E+04  0.00000000000E+00 0. -1.
         15    1    1    2    0    0  0.39917937395E+03  0.36594430494E+03  0.48547694859E+03  0.72728761472E+03  0.00000000000E+00 0. -1.
        -16    1    1    2    0    0 -0.10851710496E+04 -0.67160353804E+03 -0.13488432430E+04  0.18568859990E+04  0.00000000000E+00 0.  1.
         16    1    4    4    0    0  0.25151011632E+03  0.45061477299E+03 -0.15310831273E+03  0.53828725386E+03  0.00000000000E+00 0. -1.
    9900018    1    3    3    0    0  0.28452486957E+02  0.41467566156E+01  0.14241683255E+02  0.96668213701E+02  0.91187600000E+02 0.  0.
<mgrwt>
<rscale>  0 0.30374198E+04</rscale>
<asrwt>0</asrwt>
<pdfrwt beam="1">  1        2 0.32521425E+00 0.38551218E+04</pdfrwt>
<pdfrwt beam="2">  1       -2 0.52421030E+00 0.38551218E+04</pdfrwt>
<totfact> 0.51964927E-03</totfact>
</mgrwt>
</event>
<event>
11    1  0.2080830E-015  0.3343877E+04  0.7818608E-02  0.8316566E-01
         -2   -1    0    0    0  501 -0.00000000000E+00  0.00000000000E+00  0.21988366273E+04  0.21988366273E+04  0.00000000000E+00 0.  1.
          2   -1    0    0  501    0  0.00000000000E+00 -0.00000000000E+00 -0.28525382090E+04  0.28525382090E+04  0.00000000000E+00 0. -1.
    9900016    2    1    2    0    0  0.10434204594E+02  0.13832245157E+04 -0.43895236781E+02  0.24909748552E+04  0.20711373696E+04 0.  0.
        -24    2    3    3    0    0  0.49224559899E+03  0.15624654509E+03  0.74684967784E+03  0.91154298230E+03  0.80046578317E+02 0.  0.
        -15    1    1    2    0    0 -0.34445232588E+03 -0.65825945776E+03  0.22950884707E+03  0.77757779637E+03  0.00000000000E+00 0.  1.
        -15    1    3    3    0    0 -0.46544090379E+03  0.10907632404E+04 -0.76862690058E+03  0.14132186646E+04  0.00000000000E+00 0.  1.
         15    1    4    4    0    0  0.34634222478E+03  0.13549484956E+03  0.48637786849E+03  0.61227054631E+03  0.00000000000E+00 0. -1.
         15    1    1    2    0    0  0.63198711450E+03 -0.48126626044E+03  0.67952546017E+02  0.79727189518E+03  0.00000000000E+00 0. -1.
        -16    1    4    4    0    0  0.14590337422E+03  0.20751695535E+02  0.26047180935E+03  0.29927243599E+03  0.00000000000E+00 0.  1.
         16    1    1    2    0    0 -0.29796899322E+03 -0.24369879748E+03 -0.90726773799E+03  0.98555028954E+03  0.00000000000E+00 0. -1.
    9900018    1    3    3    0    0 -0.16370490604E+02  0.13621473017E+03 -0.22118014042E+02  0.16621320831E+03  0.91187600000E+02 0.  0.
<mgrwt>
<rscale>  0 0.27575626E+04</rscale>
<asrwt>0</asrwt>
<pdfrwt beam="1">  1        2 0.43885203E+00 0.33438774E+04</pdfrwt>
<pdfrwt beam="2">  1       -2 0.33828256E+00 0.33438774E+04</pdfrwt>
<totfact> 0.31315745E-02</totfact>
</mgrwt>
</event>
<event>
11    1  0.2080830E-015  0.5127039E+04  0.7818608E-02  0.7809204E-01
          2   -1    0    0  501    0  0.00000000000E+00  0.00000000000E+00  0.28332482512E+04  0.28332482512E+04  0.00000000000E+00 0. -1.
         -2   -1    0    0    0  501 -0.00000000000E+00 -0.00000000000E+00 -0.23194695279E+04  0.23194695279E+04  0.00000000000E+00 0.  1.
    9900016    2    1    2    0    0 -0.10792220052E+04 -0.10167511909E+04 -0.93902854748E+02  0.25505480432E+04  0.20731556753E+04 0.  0.
        -24    2    3    3    0    0 -0.10118499618E+04  0.35944185888E+02  0.62430360368E+03  0.11921357693E+04  0.79374889441E+02 0.  0.
        -15    1    1    2    0    0  0.87476968517E+03  0.10033881176E+04 -0.38958074574E+03  0.13870050015E+04  0.00000000000E+00 0.  1.
        -15    1    3    3    0    0 -0.53120109419E+02 -0.10018217997E+04 -0.74508923649E+03  0.12496506051E+04  0.00000000000E+00 0.  1.
         15    1    1    2    0    0  0.69207391199E+02 -0.28912938686E+03  0.21884723650E+03  0.36916064019E+03  0.00000000000E+00 0. -1.
         15    1    4    4    0    0 -0.79590168607E+03  0.31055734169E+02  0.45194700628E+03  0.91579476358E+03  0.00000000000E+00 0. -1.
        -16    1    4    4    0    0 -0.21594827575E+03  0.48884517194E+01  0.17235659740E+03  0.27634100569E+03  0.00000000000E+00 0.  1.
         16    1    1    2    0    0  0.13524492886E+03  0.30249246017E+03  0.77841508733E+03  0.84600409422E+03  0.00000000000E+00 0. -1.
    9900018    1    3    3    0    0 -0.14251933988E+02 -0.50873577132E+02  0.26882778061E+02  0.10876166890E+03  0.91187600000E+02 0.  0.
<mgrwt>
<rscale>  0 0.51270393E+04</rscale>
<asrwt>0</asrwt>
<pdfrwt beam="1">  1        2 0.43588434E+00 0.51270393E+04</pdfrwt>
<pdfrwt beam="2">  1       -2 0.35684147E+00 0.51270393E+04</pdfrwt>
<totfact> 0.22403700E-02</totfact>
</mgrwt>
</event>
<event>
11    1  0.2080830E-015  0.3948022E+04  0.7818608E-02  0.8110594E-01
          1   -1    0    0  501    0  0.00000000000E+00  0.00000000000E+00  0.36292495814E+04  0.36292495814E+04  0.00000000000E+00 0. -1.
         -1   -1    0    0    0  501 -0.00000000000E+00 -0.00000000000E+00 -0.35506981671E+04  0.35506981671E+04  0.00000000000E+00 0.  1.
    9900016    2    1    2    0    0  0.12080591971E+02 -0.12452600148E+04  0.67943747275E+02  0.23451692906E+04  0.19860473820E+04 0.  0.
        -24    2    3    3    0    0 -0.45919599937E+03 -0.58030041104E+03  0.90840917679E+03  0.11744195144E+04  0.80277210153E+02 0.  0.
        -15    1    3    3    0    0  0.47127659134E+03 -0.66495960374E+03 -0.84046542952E+03  0.11707497762E+04  0.00000000000E+00 0.  1.
        -15    1    1    2    0    0  0.64974274623E+03  0.15366941434E+04 -0.18290759969E+04  0.24757046530E+04  0.00000000000E+00 0.  1.
         15    1    4    4    0    0 -0.35278446392E+03 -0.47064032517E+03  0.67345815674E+03  0.89415048092E+03  0.00000000000E+00 0. -1.
         15    1    1    2    0    0  0.32356056188E+03 -0.45997477068E+02  0.29260467853E+03  0.43866240208E+03  0.00000000000E+00 0. -1.
        -16    1    4    4    0    0 -0.10641153545E+03 -0.10966008587E+03  0.23495102005E+03  0.28026903349E+03  0.00000000000E+00 0.  1.
         16    1    1    2    0    0 -0.97175988584E+03 -0.20497977279E+03  0.15207867504E+04  0.18163497249E+04  0.00000000000E+00 0. -1.
    9900018    1    1    2    0    0 -0.13624014240E+02 -0.40456878741E+02  0.26292234969E+02  0.10406167794E+03  0.91187600000E+02 0.  0.
<mgrwt>
<rscale>  0 0.35135163E+04</rscale>
<asrwt>0</asrwt>
<pdfrwt beam="1">  1        1 0.55834609E+00 0.39480223E+04</pdfrwt>
<pdfrwt beam="2">  1       -1 0.54626126E+00 0.39480223E+04</pdfrwt>
<totfact> 0.11209503E-04</totfact>
</mgrwt>
</event>
<event>
11    1  0.2080830E-015  0.3765620E+04  0.7818608E-02  0.8531539E-01
          2   -1    0    0  501    0  0.00000000000E+00  0.00000000000E+00  0.16791245595E+04  0.16791245595E+04  0.00000000000E+00 0. -1.
         -2   -1    0    0    0  501 -0.00000000000E+00 -0.00000000000E+00 -0.26939521459E+04  0.26939521459E+04  0.00000000000E+00 0.  1.
    9900016    2    1    2    0    0  0.76072703334E+03 -0.19810557707E+02 -0.12717927254E+04  0.25506000510E+04  0.20758144923E+04 0.  0.
        -24    2    3    3    0    0 -0.80549356821E+02 -0.20605195012E+03 -0.14703583541E+04  0.14890168378E+04  0.79195003929E+02 0.  0.
        -15    1    3    3    0    0  0.80817358176E+03  0.18605152678E+03  0.33479553081E+03  0.89434208015E+03  0.00000000000E+00 0.  1.
        -15    1    1    2    0    0  0.11300350832E+03 -0.63542727968E+02 -0.23032263231E+02  0.13167367360E+03  0.00000000000E+00 0. -1.
         15    1    1    2    0    0  0.21742894528E+03 -0.11269570104E+03 -0.34120321362E+03  0.41999440504E+03  0.00000000000E+00 0.  1.
         15    1    4    4    0    0 -0.65759303763E+02 -0.13279367870E+03 -0.72948753042E+03  0.74438599138E+03  0.00000000000E+00 0. -1.
        -16    1    4    4    0    0 -0.14790053058E+02 -0.73258271428E+02 -0.74087082368E+03  0.74463084638E+03  0.00000000000E+00 0.  1.
         16    1    1    2    0    0 -0.10911594869E+04  0.19604898672E+03  0.62120061582E+03  0.12708085758E+04  0.00000000000E+00 0. -1.
    9900018    1    3    3    0    0  0.33102808398E+02  0.18986563284E+00 -0.13622990212E+03  0.16724113309E+03  0.91187600000E+02 0.  0.
<mgrwt>
<rscale>  0 0.21687736E+04</rscale>
<asrwt>0</asrwt>
<pdfrwt beam="1">  1        2 0.25832686E+00 0.37656200E+04</pdfrwt>
<pdfrwt beam="2">  1       -2 0.41445417E+00 0.37656200E+04</pdfrwt>
<totfact> 0.47478572E-02</totfact>
</mgrwt>
</event>
<event>
11    1  0.2080830E-015  0.3348961E+04  0.7818608E-02  0.8388854E-01
         -2   -1    0    0    0  501 -0.00000000000E+00  0.00000000000E+00  0.19316997481E+04  0.19316997481E+04  0.00000000000E+00 0.  1.
          2   -1    0    0  501    0  0.00000000000E+00 -0.00000000000E+00 -0.25730906540E+04  0.25730906540E+04  0.00000000000E+00 0. -1.
    9900016    2    1    2    0    0 -0.18510154178E+03 -0.73458167010E+03  0.38503399737E+03  0.21458458449E+04  0.19704137637E+04 0.  0.
        -24    2    3    3    0    0 -0.10711285545E+04 -0.25866353093E+03  0.17923358740E+03  0.11192515964E+04  0.79851453612E+02 0.  0.
        -15    1    1    2    0    0 -0.34947587156E+03  0.19720372706E+03  0.36773219970E+03  0.54428821911E+03  0.00000000000E+00 0.  1.
        -15    1    3    3    0    0  0.88602701270E+03 -0.47591813917E+03  0.20580040997E+03  0.10265942486E+04  0.00000000000E+00 0.  1.
         15    1    1    2    0    0  0.50814868624E+03  0.52971638493E+03 -0.83823277995E+03  0.11142031813E+04  0.00000000000E+00 0. -1.
         15    1    4    4    0    0 -0.16726571352E+03 -0.68786201556E+02  0.18835337877E+02  0.18183544868E+03  0.00000000000E+00 0. -1.
        -16    1    4    4    0    0 -0.90386284096E+03 -0.18987732938E+03  0.16039824952E+03  0.93741614768E+03  0.00000000000E+00 0.  1.
         16    1    1    2    0    0 -0.12853626938E+02  0.62692374894E+02 -0.58073787444E+03  0.58425339400E+03  0.00000000000E+00 0. -1.
    9900018    1    1    2    0    0  0.39282354039E+02 -0.55030816779E+02  0.24813551428E+02  0.11619976275E+03  0.91187600000E+02 0.  0.
<mgrwt>
<rscale>  0 0.25400530E+04</rscale>
<asrwt>0</asrwt>
<pdfrwt beam="1">  1        2 0.39586010E+00 0.33489613E+04</pdfrwt>
<pdfrwt beam="2">  1       -2 0.29718458E+00 0.33489613E+04</pdfrwt>
<totfact> 0.83720529E-02</totfact>
</mgrwt>
</event>
<event>
11    1  0.2080830E-015  0.4191871E+04  0.7818608E-02  0.8529736E-01
         -2   -1    0    0    0  501 -0.00000000000E+00  0.00000000000E+00  0.41197791905E+04  0.41197791905E+04  0.00000000000E+00 0. -1.
          2   -1    0    0  501    0  0.00000000000E+00 -0.00000000000E+00 -0.12990293276E+04  0.12990293276E+04  0.00000000000E+00 0.  1.
    9900016    2    1    2    0    0  0.37015909623E+03  0.34878760329E+03  0.34733646216E+04  0.40263723901E+04  0.19719894220E+04 0.  0.
         24    2    3    3    0    0 -0.26833197218E+03 -0.15346122908E+03 -0.12127199091E+03  0.34108581917E+03  0.77975920219E+02 0.  0.
        -15    1    1    2    0    0 -0.14608057108E+03  0.68422509257E+02 -0.12141250648E+03  0.20189643323E+03  0.00000000000E+00 0.  1.
        -15    1    4    4    0    0 -0.11693881332E+03 -0.49220325594E+02 -0.12465971319E+02  0.12748618338E+03  0.00000000000E+00 0.  1.
         15    1    3    3    0    0  0.63849106840E+03  0.50224883237E+03  0.35946366125E+04  0.36852865709E+04  0.00000000000E+00 0. -1.
         15    1    1    2    0    0  0.10783910649E+03  0.17526138091E+02  0.31839224321E+02  0.11379883395E+03  0.00000000000E+00 0. -1.
        -16    1    1    2    0    0 -0.30412210144E+03 -0.43435748828E+03 -0.71934964909E+03  0.89365574908E+03  0.00000000000E+00 0.  1.
         16    1    4    4    0    0 -0.15139315886E+03 -0.10424090349E+03 -0.10880601960E+03  0.21359963579E+03  0.00000000000E+00 0. -1.
    9900018    1    1    2    0    0 -0.27795530188E+02 -0.37876235782E+00  0.15630817250E+03  0.18308511175E+03  0.91187600000E+02 0.  0.
<mgrwt>
<rscale>  0 0.21730347E+04</rscale>
<asrwt>0</asrwt>
<pdfrwt beam="1">  1        2 0.19985067E+00 0.41918712E+04</pdfrwt>
<pdfrwt beam="2">  1       -2 0.63381218E+00 0.41918712E+04</pdfrwt>
<totfact> 0.48410261E-03</totfact>
</mgrwt>
</event>
<event>
11    1  0.2080830E-015  0.8412407E+04  0.7818608E-02  0.7447067E-01
         -2   -1    0    0    0  501 -0.00000000000E+00  0.00000000000E+00  0.48833999235E+04  0.48833999235E+04  0.00000000000E+00 0.  1.
          2   -1    0    0  501    0  0.00000000000E+00 -0.00000000000E+00 -0.36229159319E+04  0.36229159319E+04  0.00000000000E+00 0. -1.
    9900016    2    1    2    0    0 -0.57340568888E+03 -0.87639138258E+02  0.12514287439E+04  0.24153316039E+04  0.19827451055E+04 0.  0.
        -24    2    3    3    0    0 -0.77620140762E+03  0.25692787470E+03  0.16546931305E+04  0.18474630491E+04  0.81300698820E+02 0.  0.
        -15    1    3    3    0    0  0.20279571874E+03 -0.34456701296E+03 -0.40326438667E+03  0.56786855478E+03  0.00000000000E+00 0.  1.
        -15    1    1    2    0    0 -0.63125081585E+03 -0.23508143242E+04  0.33227736157E+03  0.24566672189E+04  0.00000000000E+00 0.  1.
         15    1    4    4    0    0 -0.69434607519E+03  0.22723190113E+03  0.15287211073E+04  0.16943255392E+04  0.00000000000E+00 0. -1.
         15    1    1    2    0    0  0.18245813722E+04  0.14766077835E+04 -0.38048966398E+03  0.23778646123E+04  0.00000000000E+00 0. -1.
        -16    1    4    4    0    0 -0.81855332438E+02  0.29695973574E+02  0.12597202326E+03  0.15313750990E+03  0.00000000000E+00 0.  1.
         16    1    1    2    0    0 -0.62821307598E+03  0.95424326875E+03 -0.10117114425E+02  0.11425122497E+04  0.00000000000E+00 0. -1.
    9900018    1    1    2    0    0  0.82882085262E+01  0.76024102097E+01  0.67384664617E+02  0.11394017053E+03  0.91187600000E+02 0.  0.
<mgrwt>
<rscale>  0 0.84124069E+04</rscale>
<asrwt>0</asrwt>
<pdfrwt beam="1">  1        2 0.55737168E+00 0.84124069E+04</pdfrwt>
<pdfrwt beam="2">  1       -2 0.75129230E+00 0.84124069E+04</pdfrwt>
<totfact> 0.53958942E-05</totfact>
</mgrwt>
</event>
