<event>
11    1  0.1238154E-014  0.3058451E+04  0.7818608E-02  0.8227234E-01
         -2   -1    0    0    0  501 -0.00000000000E+00  0.00000000000E+00  0.14527937831E+04  0.14527937831E+04  0.00000000000E+00 0.  1.
          2   -1    0    0  501    0  0.00000000000E+00 -0.00000000000E+00 -0.16096780352E+04  0.16096780352E+04  0.00000000000E+00 0. -1.
    9900016    2    1    2    0    0  0.26833527231E+03 -0.49939952313E+03 -0.30632218913E+03  0.22367592912E+04  0.21419279029E+04 0.  0.
         24    2    3    3    0    0 -0.46295231298E+02 -0.89438656255E+03 -0.83740104526E+03  0.12273194055E+04  0.54789057183E+02 0.  0.
        -15    1    4    4    0    0  0.67773319550E+01 -0.37855288612E+03 -0.34491406656E+03  0.51216592343E+03  0.00000000000E+00 0.  1.
        -15    1    3    3    0    0  0.70631344820E+01  0.15964330919E+02 -0.33205404535E+01  0.17770023053E+02  0.00000000000E+00 0.  1.
         15    1    3    3    0    0  0.38417004382E+03  0.33078129849E+03  0.66287141962E+03  0.83450668598E+03  0.00000000000E+00 0. -1.
         15    1    3    3    0    0 -0.76602674697E+02  0.48241410014E+02 -0.12847202304E+03  0.15716317671E+03  0.00000000000E+00 0. -1.
        -16    1    1    2    0    0 -0.26898096461E+03  0.60676180668E+03  0.16522995528E+03  0.68396753394E+03  0.00000000000E+00 0.  1.
         16    1    4    4    0    0 -0.53072563253E+02 -0.51583367643E+03 -0.49248697870E+03  0.71515348206E+03  0.00000000000E+00 0. -1.
    9900018    1    1    2    0    0  0.64569229527E+00 -0.10736228355E+03 -0.15792018279E+02  0.14174499315E+03  0.91187600000E+02 0.  0.
<mgrwt>
<rscale>  0 0.30584507E+04</rscale>
<asrwt>0</asrwt>
<pdfrwt beam="1">  1        2 0.24764277E+00 0.30584507E+04</pdfrwt>
<pdfrwt beam="2">  1       -2 0.22350674E+00 0.30584507E+04</pdfrwt>
<totfact> 0.88125904E-01</totfact>
</mgrwt>
</event>
<event>
12    1  0.1238154E-014  0.3377860E+04  0.7818608E-02  0.8143362E-01
          1   -1    0    0  501    0  0.00000000000E+00  0.00000000000E+00  0.14874830860E+04  0.14874830860E+04  0.00000000000E+00 0. -1.
         -1   -1    0    0    0  501 -0.00000000000E+00 -0.00000000000E+00 -0.19176579959E+04  0.19176579959E+04  0.00000000000E+00 0.  1.
    9900016    2    1    2    0    0 -0.18642689298E+03 -0.40541156588E+03 -0.10321443767E+04  0.24194807754E+04  0.21423005588E+04 0.  0.
         23    2    3    3    0    0 -0.33405607943E+00  0.19205529492E+03  0.56127137530E+03  0.59596201163E+03  0.57094786808E+02 0.  0.
        -24    2    3    3    0    0 -0.38288037402E+03 -0.32217142059E+03 -0.65898452726E+03  0.82970055708E+03  0.61242160362E+02 0.  0.
        -15    1    3    3    0    0  0.19678753712E+03 -0.27529544020E+03 -0.93443122478E+03  0.99381820672E+03  0.00000000000E+00 0.  1.
        -15    1    4    4    0    0 -0.14838507839E+02  0.18108059669E+03  0.52107827712E+03  0.55184502779E+03  0.00000000000E+00 0.  1.
         15    1    5    5    0    0 -0.14309213453E+03 -0.12884872345E+03 -0.20667251384E+03  0.28247279599E+03  0.00000000000E+00 0. -1.
         15    1    4    4    0    0  0.14504451760E+02  0.10974698230E+02  0.40193098180E+02  0.44116983843E+02  0.00000000000E+00 0. -1.
        -16    1    5    5    0    0 -0.23978823949E+03 -0.19332269714E+03 -0.45231201341E+03  0.54722776109E+03  0.00000000000E+00 0.  1.
         16    1    1    2    0    0  0.13412958981E+03  0.43120869897E+03  0.70434209744E+03  0.83667764351E+03  0.00000000000E+00 0. -1.
    9900018    1    1    2    0    0  0.52297303175E+02 -0.25797133096E+02 -0.10237263058E+03  0.14898266302E+03  0.91187600000E+02 0.  0.
<mgrwt>
<rscale>  0 0.33778596E+04</rscale>
<asrwt>0</asrwt>
<pdfrwt beam="1">  1        1 0.22884355E+00 0.33778596E+04</pdfrwt>
<pdfrwt beam="2">  1       -1 0.29502431E+00 0.33778596E+04</pdfrwt>
<totfact> 0.19564646E-01</totfact>
</mgrwt>
</event>
<event>
11    1  0.1238154E-014  0.2891628E+04  0.7818608E-02  0.8275373E-01
         -2   -1    0    0    0  501 -0.00000000000E+00  0.00000000000E+00  0.13837540965E+04  0.13837540965E+04  0.00000000000E+00 0.  1.
          2   -1    0    0  501    0  0.00000000000E+00 -0.00000000000E+00 -0.15106574940E+04  0.15106574940E+04  0.00000000000E+00 0. -1.
    9900016    2    1    2    0    0  0.11995142010E+03 -0.19304985098E+03 -0.62200876468E+03  0.23496309807E+04  0.22543766886E+04 0.  0.
         23    2    3    3    0    0  0.35730529012E+03 -0.35744742884E+03  0.66193382471E+03  0.83601523094E+03  0.73002351688E+02 0.  0.
        -15    1    3    3    0    0 -0.13677607768E+03 -0.39848105799E+02 -0.39214398068E+03  0.41721992827E+03  0.00000000000E+00 0.  1.
        -15    1    4    4    0    0  0.31336974357E+03 -0.31495029339E+03  0.53729460261E+03  0.69719421504E+03  0.00000000000E+00 0. -1.
         15    1    4    4    0    0  0.43935546548E+02 -0.42497135444E+02  0.12463922210E+03  0.13882101590E+03  0.00000000000E+00 0.  1.
         15    1    3    3    0    0 -0.85122641072E+01  0.12424043468E+03 -0.25036249933E+02  0.12702345477E+03  0.00000000000E+00 0. -1.
        -16    1    1    2    0    0 -0.11995142010E+03  0.19304985098E+03  0.49510536722E+03  0.54478060978E+03  0.00000000000E+00 0.  1.
         16    1    3    3    0    0 -0.14822694687E+03  0.12836067211E+03 -0.81964454653E+03  0.84277213562E+03  0.00000000000E+00 0. -1.
    9900018    1    3    3    0    0  0.56161418641E+02 -0.48355423140E+02 -0.47117812239E+02  0.12660023110E+03  0.91187600000E+02 0.  0.
<mgrwt>
<rscale>  0 0.28916283E+04</rscale>
<asrwt>0</asrwt>
<pdfrwt beam="1">  1        2 0.23240884E+00 0.28916283E+04</pdfrwt>
<pdfrwt beam="2">  1       -2 0.21288525E+00 0.28916283E+04</pdfrwt>
<totfact> 0.11864055E+00</totfact>
</mgrwt>
</event>
<event>
11    1  0.1238154E-014  0.2365849E+04  0.7818608E-02  0.8452401E-01
          2   -1    0    0  501    0  0.00000000000E+00  0.00000000000E+00  0.13076806852E+04  0.13076806852E+04  0.00000000000E+00 0. -1.
         -2   -1    0    0    0  501 -0.00000000000E+00 -0.00000000000E+00 -0.10700702013E+04  0.10700702013E+04  0.00000000000E+00 0.  1.
    9900016    2    1    2    0    0  0.88200523267E+02 -0.84532824360E+02  0.24262803973E+03  0.22554794402E+04  0.22390609659E+04 0.  0.
         24    2    3    3    0    0  0.96858538679E+02 -0.38126416677E+03  0.10584185564E+03  0.41748207254E+03  0.91350101848E+02 0.  0.
        -15    1    4    4    0    0  0.33609697761E+02 -0.15626698686E+03  0.89503730245E+02  0.18319361532E+03  0.00000000000E+00 0.  1.
        -15    1    3    3    0    0 -0.10365970147E+03 -0.56666039667E+03 -0.15606471579E+03  0.59682956895E+03  0.00000000000E+00 0.  1.
         15    1    3    3    0    0 -0.14260415161E+03 -0.57362901785E+02  0.77128956284E+02  0.17197477272E+03  0.00000000000E+00 0. -1.
         15    1    3    3    0    0  0.25502880336E+03  0.91737538596E+03  0.17665079646E+03  0.96841251190E+03  0.00000000000E+00 0. -1.
        -16    1    1    2    0    0 -0.88200523267E+02  0.84532824360E+02 -0.50175558554E+01  0.12227144624E+03  0.00000000000E+00 0.  1.
         16    1    4    4    0    0  0.63248840917E+02 -0.22499717991E+03  0.16338125394E+02  0.23428845722E+03  0.00000000000E+00 0. -1.
    9900018    1    3    3    0    0 -0.17422965696E+02  0.33792549003E+01  0.39071147130E+02  0.10078051413E+03  0.91187600000E+02 0.  0.
<mgrwt>
<rscale>  0 0.23658488E+04</rscale>
<asrwt>0</asrwt>
<pdfrwt beam="1">  1        2 0.20118164E+00 0.23658488E+04</pdfrwt>
<pdfrwt beam="2">  1       -2 0.16462618E+00 0.23658488E+04</pdfrwt>
<totfact> 0.34376147E+00</totfact>
</mgrwt>
</event>
<event>
11    1  0.1238154E-014  0.2648480E+04  0.7818608E-02  0.8351918E-01
          3   -1    0    0  501    0  0.00000000000E+00  0.00000000000E+00  0.14428371987E+04  0.14428371987E+04  0.00000000000E+00 0. -1.
         -3   -1    0    0    0  501 -0.00000000000E+00 -0.00000000000E+00 -0.12153909827E+04  0.12153909827E+04  0.00000000000E+00 0.  1.
    9900016    2    1    2    0    0  0.34492382369E+03  0.83311359158E+02  0.97705884781E+02  0.21909098761E+04  0.21597746221E+04 0.  0.
         24    2    3    3    0    0  0.61569099272E+03  0.26673802680E+02  0.73119481243E+03  0.96080990797E+03  0.93396655522E+02 0.  0.
        -15    1    3    3    0    0 -0.26251304976E+02 -0.19630390534E+02 -0.30463497585E+02  0.44749390281E+02  0.00000000000E+00 0.  1.
        -15    1    4    4    0    0  0.19892669712E+03 -0.26895320698E+02  0.19814387878E+03  0.28205706125E+03  0.00000000000E+00 0.  1.
         15    1    3    3    0    0 -0.59716148993E+03  0.19683141728E+03 -0.48609099718E+03  0.79475084739E+03  0.00000000000E+00 0. -1.
         15    1    3    3    0    0  0.35264562588E+03 -0.12056347027E+03 -0.11693443288E+03  0.39059973043E+03  0.00000000000E+00 0. -1.
        -16    1    1    2    0    0 -0.34731041546E+03 -0.82306479833E+02  0.92003368208E+02  0.36859666449E+03  0.00000000000E+00 0.  1.
         16    1    4    4    0    0  0.41676429560E+03  0.53569123377E+02  0.53305093365E+03  0.67875284672E+03  0.00000000000E+00 0. -1.
    9900018    1    1    2    0    0  0.23865917658E+01 -0.10048793259E+01  0.37736963011E+02  0.98721640858E+02  0.91187600000E+02 0.  0.
<mgrwt>
<rscale>  0 0.26484798E+04</rscale>
<asrwt>0</asrwt>
<pdfrwt beam="1">  1        3 0.22197495E+00 0.26484798E+04</pdfrwt>
<pdfrwt beam="2">  1       -3 0.18698323E+00 0.26484798E+04</pdfrwt>
<totfact> 0.43932761E-02</totfact>
</mgrwt>
</event>
<event>
12    1  0.1238154E-014  0.2841881E+04  0.7818608E-02  0.8290383E-01
         -2   -1    0    0    0  501 -0.00000000000E+00  0.00000000000E+00  0.79933477080E+03  0.79933477080E+03  0.00000000000E+00 0.  1.
          2   -1    0    0  501    0  0.00000000000E+00 -0.00000000000E+00 -0.25259410103E+04  0.25259410103E+04  0.00000000000E+00 0. -1.
    9900016    2    1    2    0    0 -0.18811504114E+03 -0.75972705183E+02 -0.77268704235E+03  0.22914154882E+04  0.21476453510E+04 0.  0.
         23    2    3    3    0    0 -0.10681266636E+03 -0.36196423878E+03 -0.10218510541E+04  0.10919679340E+04  0.76074544798E+02 0.  0.
        -24    2    3    3    0    0  0.40283604708E+02 -0.11541759807E+03 -0.39781222731E+03  0.42841532704E+03  0.10169136391E+03 0.  0.
        -15    1    4    4    0    0 -0.10481197142E+03 -0.23364988536E+03 -0.65208557063E+03  0.70056649199E+03  0.00000000000E+00 0.  1.
        -15    1    3    3    0    0 -0.12158597949E+03  0.40140913167E+03  0.64697623904E+03  0.77103222713E+03  0.00000000000E+00 0.  1.
         15    1    4    4    0    0 -0.20006949449E+01 -0.12831435343E+03 -0.36976548345E+03  0.39140144204E+03  0.00000000000E+00 0. -1.
         15    1    5    5    0    0 -0.13671679713E+02  0.61557896373E+01 -0.90125115594E+01  0.17493825678E+02  0.00000000000E+00 0. -1.
        -16    1    5    5    0    0  0.53955284421E+02 -0.12157338771E+03 -0.38879971575E+03  0.41092150136E+03  0.00000000000E+00 0.  1.
         16    1    1    2    0    0  0.22212120038E+03  0.30940474212E+02 -0.86784262832E+03  0.89635147578E+03  0.00000000000E+00 0. -1.
    9900018    1    1    2    0    0 -0.34006159238E+02  0.45032230971E+02 -0.86076568819E+02  0.13750881712E+03  0.91187600000E+02 0.  0.
<mgrwt>
<rscale>  0 0.28418814E+04</rscale>
<asrwt>0</asrwt>
<pdfrwt beam="1">  1        2 0.38860631E+00 0.28418814E+04</pdfrwt>
<pdfrwt beam="2">  1       -2 0.12297458E+00 0.28418814E+04</pdfrwt>
<totfact> 0.14561631E+00</totfact>
</mgrwt>
</event>
<event>
11    1  0.1238154E-014  0.2886831E+04  0.7818608E-02  0.8276807E-01
          2   -1    0    0  501    0  0.00000000000E+00  0.00000000000E+00  0.11402722678E+04  0.11402722678E+04  0.00000000000E+00 0. -1.
         -2   -1    0    0    0  501 -0.00000000000E+00 -0.00000000000E+00 -0.18271495104E+04  0.18271495104E+04  0.00000000000E+00 0.  1.
    9900016    2    1    2    0    0  0.47482868287E+03 -0.22965854563E+03 -0.33457787762E+03  0.23331346443E+04  0.22479701036E+04 0.  0.
         24    2    3    3    0    0 -0.18269578482E+03  0.16186834028E+03  0.30585202195E+03  0.40653767783E+03  0.11021939387E+03 0.  0.
        -15    1    4    4    0    0 -0.71983130060E+02  0.45114173523E+02  0.35802590420E+02  0.92188313504E+02  0.00000000000E+00 0.  1.
        -15    1    3    3    0    0  0.29600055775E+02  0.17318476341E+03 -0.30749775501E+03  0.35415250234E+03  0.00000000000E+00 0.  1.
         15    1    3    3    0    0  0.27063113917E+03  0.37895837349E+02 -0.62991668154E+03  0.68663843008E+03  0.00000000000E+00 0. -1.
         15    1    3    3    0    0  0.38060755262E+03 -0.62426778859E+03  0.29715890936E+03  0.78922480853E+03  0.00000000000E+00 0. -1.
        -16    1    1    2    0    0 -0.47482868287E+03  0.22965854563E+03 -0.35229936496E+03  0.63428713388E+03  0.00000000000E+00 0.  1.
         16    1    4    4    0    0 -0.11071265476E+03  0.11675416676E+03  0.27004943153E+03  0.31434936432E+03  0.00000000000E+00 0. -1.
    9900018    1    3    3    0    0 -0.23314279880E+02  0.21660301925E+02 -0.17437239039E+00  0.96581225532E+02  0.91187600000E+02 0.  0.
<mgrwt>
<rscale>  0 0.28868307E+04</rscale>
<asrwt>0</asrwt>
<pdfrwt beam="1">  1        2 0.17542650E+00 0.28868307E+04</pdfrwt>
<pdfrwt beam="2">  1       -2 0.28109992E+00 0.28868307E+04</pdfrwt>
<totfact> 0.73733621E-01</totfact>
</mgrwt>
</event>
<event>
12    1  0.1238154E-014  0.2745019E+04  0.7818608E-02  0.8320544E-01
          2   -1    0    0  501    0  0.00000000000E+00  0.00000000000E+00  0.16214054829E+04  0.16214054829E+04  0.00000000000E+00 0.  1.
         -2   -1    0    0    0  501 -0.00000000000E+00 -0.00000000000E+00 -0.11618203817E+04  0.11618203817E+04  0.00000000000E+00 0. -1.
    9900016    2    1    2    0    0 -0.27317718883E+03 -0.31264407261E+03  0.58623382892E+03  0.23491613615E+04  0.22366307043E+04 0.  0.
         23    2    3    3    0    0 -0.22865250959E+03  0.25738459405E+03  0.21582382624E+03  0.42536882691E+03  0.12581699226E+03 0.  0.
        -24    2    3    3    0    0 -0.69703627357E+02 -0.34110239243E+03  0.10373094470E+04  0.10960389158E+04  0.63882535402E+02 0.  0.
        -15    1    4    4    0    0 -0.21147603453E+03  0.15461080375E+03  0.14552850311E+03  0.29967508911E+03  0.00000000000E+00 0.  1.
        -15    1    3    3    0    0  0.26991243387E+02 -0.18309836465E+03 -0.69714592987E+03  0.72129465955E+03  0.00000000000E+00 0.  1.
         15    1    4    4    0    0 -0.17176475059E+02  0.10277379030E+03  0.70295323129E+02  0.12569373780E+03  0.00000000000E+00 0. -1.
         15    1    5    5    0    0 -0.64868906377E+02 -0.26405483049E+03  0.72446964149E+03  0.77381470002E+03  0.00000000000E+00 0. -1.
        -16    1    5    5    0    0 -0.48347209804E+01 -0.77047561944E+02  0.31283980552E+03  0.32222421580E+03  0.00000000000E+00 0.  1.
         16    1    1    2    0    0  0.27317718883E+03  0.31264407261E+03 -0.12664872780E+03  0.43406450314E+03  0.00000000000E+00 0. -1.
    9900018    1    3    3    0    0 -0.18122952700E+01 -0.45827909577E+02  0.30246485533E+02  0.10645895919E+03  0.91187600000E+02 0.  0.
<mgrwt>
<rscale>  0 0.27450187E+04</rscale>
<asrwt>0</asrwt>
<pdfrwt beam="1">  1        2 0.24944700E+00 0.27450187E+04</pdfrwt>
<pdfrwt beam="2">  1       -2 0.17874160E+00 0.27450187E+04</pdfrwt>
<totfact> 0.17545771E+00</totfact>
</mgrwt>
</event>
<event>
12    1  0.1238154E-014  0.2790962E+04  0.7818608E-02  0.8306080E-01
          2   -1    0    0  501    0  0.00000000000E+00  0.00000000000E+00  0.25911592180E+04  0.25911592180E+04  0.00000000000E+00 0. -1.
         -2   -1    0    0    0  501 -0.00000000000E+00 -0.00000000000E+00 -0.75154303642E+03  0.75154303642E+03  0.00000000000E+00 0.  1.
    9900016    2    1    2    0    0 -0.14984223082E+03  0.12078919970E+03  0.98037298317E+03  0.23643830348E+04  0.21429263226E+04 0.  0.
         23    2    3    3    0    0 -0.32395413457E+03 -0.57882841540E+03  0.53297229519E+03  0.85729188226E+03  0.10440923413E+03 0.  0.
        -24    2    3    3    0    0 -0.32659349397E+03  0.47181076229E+01 -0.23365834874E+03  0.41281850263E+03  0.95589336926E+02 0.  0.
        -15    1    4    4    0    0 -0.12387493900E+02 -0.63454085001E+02  0.84610327594E+02  0.10648370037E+03  0.00000000000E+00 0.  1.
        -15    1    3    3    0    0  0.50070539771E+03  0.69489950748E+03  0.68105903673E+03  0.10942726499E+04  0.00000000000E+00 0.  1.
         15    1    5    5    0    0 -0.19832606278E+03  0.22479329323E+02 -0.88618256551E+02  0.21838439234E+03  0.00000000000E+00 0. -1.
         15    1    4    4    0    0 -0.31156664067E+03 -0.51537433040E+03  0.44836196759E+03  0.75080818189E+03  0.00000000000E+00 0. -1.
        -16    1    5    5    0    0 -0.12826743119E+03 -0.17761221700E+02 -0.14504009219E+03  0.19443411029E+03  0.00000000000E+00 0.  1.
         16    1    1    2    0    0  0.13727892807E+03 -0.19571207319E+03  0.81871702337E+03  0.85290461603E+03  0.00000000000E+00 0. -1.
    9900018    1    1    2    0    0  0.12563302752E+02  0.74922873495E+02  0.40526175065E+02  0.12541460365E+03  0.91187600000E+02 0.  0.
<mgrwt>
<rscale>  0 0.27909623E+04</rscale>
<asrwt>0</asrwt>
<pdfrwt beam="1">  1        2 0.39863987E+00 0.27909623E+04</pdfrwt>
<pdfrwt beam="2">  1       -2 0.11562201E+00 0.27909623E+04</pdfrwt>
<totfact> 0.15602335E+00</totfact>
</mgrwt>
</event>
<event>
11    1  0.1238154E-014  0.2782297E+04  0.7818608E-02  0.8308785E-01
          1   -1    0    0  501    0  0.00000000000E+00  0.00000000000E+00  0.19707612028E+04  0.19707612028E+04  0.00000000000E+00 0. -1.
         -1   -1    0    0    0  501 -0.00000000000E+00 -0.00000000000E+00 -0.98200366254E+03  0.98200366254E+03  0.00000000000E+00 0.  1.
    9900016    2    1    2    0    0  0.37039062414E+03 -0.19950691993E+03  0.10607384268E+04  0.24318588066E+04  0.21475053014E+04 0.  0.
        -24    2    3    3    0    0  0.13896842421E+03  0.42450152904E+01 -0.67191467188E+02  0.16503827696E+03  0.58246858417E+02 0.  0.
        -15    1    3    3    0    0  0.32881598928E+03 -0.25508632967E+03  0.21275377908E+02  0.41670329024E+03  0.00000000000E+00 0.  1.
        -15    1    3    3    0    0 -0.33856004979E+03  0.47220668598E+03  0.12206033810E+04  0.13518412167E+04  0.00000000000E+00 0.  1.
         15    1    3    3    0    0  0.24116626043E+03 -0.42087229153E+03 -0.11394886491E+03  0.49827602266E+03  0.00000000000E+00 0. -1.
         15    1    4    4    0    0  0.20273953931E+02  0.29133116193E+00 -0.37487478592E+02  0.42619586260E+02  0.00000000000E+00 0. -1.
        -16    1    4    4    0    0  0.11869447028E+03  0.39536841284E+01 -0.29703988597E+02  0.12241869070E+03  0.00000000000E+00 0.  1.
         16    1    1    2    0    0 -0.33472444746E+03  0.22113485343E+03 -0.10613083035E+03  0.41497570083E+03  0.00000000000E+00 0. -1.
    9900018    1    1    2    0    0 -0.35666176674E+02 -0.21627933503E+02  0.34149943782E+02  0.10593035788E+03  0.91187600000E+02 0.  0.
<mgrwt>
<rscale>  0 0.27822974E+04</rscale>
<asrwt>0</asrwt>
<pdfrwt beam="1">  1        1 0.30319403E+00 0.27822974E+04</pdfrwt>
<pdfrwt beam="2">  1       -1 0.15107749E+00 0.27822974E+04</pdfrwt>
<totfact> 0.92546325E-01</totfact>
</mgrwt>
</event>
<event>
12    1  0.1238154E-014  0.3216192E+04  0.7818608E-02  0.8184554E-01
         -2   -1    0    0    0  501 -0.00000000000E+00  0.00000000000E+00  0.28434063455E+04  0.28434063455E+04  0.00000000000E+00 0. -1.
          2   -1    0    0  501    0  0.00000000000E+00 -0.00000000000E+00 -0.90946280483E+03  0.90946280483E+03  0.00000000000E+00 0.  1.
    9900016    2    1    2    0    0  0.36644801469E+03 -0.71741845926E+03  0.12704872095E+04  0.27092467586E+04  0.22531992491E+04 0.  0.
         23    2    3    3    0    0 -0.37113211192E+03 -0.19089365124E+03  0.28433331128E+03  0.51944348167E+03  0.12164155609E+03 0.  0.
        -24    2    3    3    0    0 -0.36723501659E+03  0.21791668964E+02  0.76064495879E+03  0.85055470336E+03  0.97601822888E+02 0.  0.
        -15    1    4    4    0    0 -0.29939677708E+03 -0.11171246402E+03  0.16632410737E+03  0.36025243016E+03  0.00000000000E+00 0. -1.
        -15    1    3    3    0    0  0.10687666490E+04 -0.57175480532E+03  0.16940535541E+03  0.12238724941E+04  0.00000000000E+00 0.  1.
         15    1    5    5    0    0 -0.21265104483E+03  0.92536960233E+01  0.32858798040E+03  0.39150499182E+03  0.00000000000E+00 0. -1.
         15    1    4    4    0    0 -0.71735334835E+02 -0.79181187223E+02  0.11800920391E+03  0.15919105151E+03  0.00000000000E+00 0.  1.
        -16    1    5    5    0    0 -0.15458397177E+03  0.12537972941E+02  0.43205697839E+03  0.45904971154E+03  0.00000000000E+00 0.  1.
         16    1    1    2    0    0 -0.36644801469E+03  0.71741845926E+03  0.66345633120E+03  0.10436223917E+04  0.00000000000E+00 0. -1.
    9900018    1    3    3    0    0  0.36048494164E+02  0.23438328336E+02  0.56103584016E+02  0.11537607941E+03  0.91187600000E+02 0.  0.
<mgrwt>
<rscale>  0 0.32161917E+04</rscale>
<asrwt>0</asrwt>
<pdfrwt beam="1">  1        2 0.13991736E+00 0.32161917E+04</pdfrwt>
<pdfrwt beam="2">  1       -2 0.43744713E+00 0.32161917E+04</pdfrwt>
<totfact> 0.10198321E-01</totfact>
</mgrwt>
</event>
<event>
11    1  0.1238154E-014  0.2780226E+04  0.7818608E-02  0.8309434E-01
         -2   -1    0    0    0  501 -0.00000000000E+00  0.00000000000E+00  0.76436864078E+03  0.76436864078E+03  0.00000000000E+00 0.  1.
          2   -1    0    0  501    0  0.00000000000E+00 -0.00000000000E+00 -0.25281179539E+04  0.25281179539E+04  0.00000000000E+00 0. -1.
    9900016    2    1    2    0    0  0.20658019170E+03 -0.15902649414E+03 -0.98408592396E+03  0.24703918302E+04  0.22508766931E+04 0.  0.
         23    2    3    3    0    0 -0.16558634008E+03 -0.13238628599E+03  0.42612410468E+03  0.48979562275E+03  0.11564183815E+03 0.  0.
        -15    1    3    3    0    0  0.29046535192E+03  0.60586937401E+03 -0.84537654140E+03  0.10798654156E+04  0.00000000000E+00 0.  1.
        -15    1    4    4    0    0 -0.49964029834E+02 -0.15617912229E+01  0.18793362155E+03  0.19446822254E+03  0.00000000000E+00 0. -1.
         15    1    3    3    0    0  0.31704385602E+02 -0.39120778542E+03 -0.34698722046E+03  0.52387864110E+03  0.00000000000E+00 0. -1.
         15    1    4    4    0    0 -0.11562231024E+03 -0.13082449477E+03  0.23819048314E+03  0.29532740021E+03  0.00000000000E+00 0.  1.
        -16    1    3    3    0    0  0.72819586429E+01 -0.18692831794E+03 -0.17013535704E+03  0.25286609635E+03  0.00000000000E+00 0.  1.
         16    1    1    2    0    0 -0.20658019170E+03  0.15902649414E+03 -0.77966338919E+03  0.82209476454E+03  0.00000000000E+00 0. -1.
    9900018    1    3    3    0    0  0.42714835616E+02 -0.54373478813E+02 -0.47710909738E+02  0.12398605438E+03  0.91187600000E+02 0.  0.
<mgrwt>
<rscale>  0 0.27802260E+04</rscale>
<asrwt>0</asrwt>
<pdfrwt beam="1">  1        2 0.38894122E+00 0.27802260E+04</pdfrwt>
<pdfrwt beam="2">  1       -2 0.11759518E+00 0.27802260E+04</pdfrwt>
<totfact> 0.16309025E+00</totfact>
</mgrwt>
</event>
<event>
12    1  0.1238154E-014  0.2877853E+04  0.7818608E-02  0.8279497E-01
          2   -1    0    0  501    0  0.00000000000E+00  0.00000000000E+00  0.15892154611E+04  0.15892154611E+04  0.00000000000E+00 0. -1.
         -2   -1    0    0    0  501 -0.00000000000E+00 -0.00000000000E+00 -0.13028501016E+04  0.13028501016E+04  0.00000000000E+00 0.  1.
    9900016    2    1    2    0    0 -0.40734344772E+03 -0.22178675811E+03  0.18665166426E+02  0.22012915662E+04  0.21517941631E+04 0.  0.
         23    2    3    3    0    0  0.63575569495E+03  0.43134423941E+03 -0.39564434507E+03  0.87318387291E+03  0.12518974232E+03 0.  0.
        -24    2    3    3    0    0 -0.52914184282E+02 -0.59630715224E+02  0.86671085495E+02  0.12808445388E+03  0.50378737265E+02 0.  0.
        -15    1    4    4    0    0  0.10425434453E+03  0.20049723930E+02 -0.47474973641E+02  0.11629631510E+03  0.00000000000E+00 0.  1.
        -15    1    3    3    0    0 -0.99018495840E+03 -0.59350028229E+03  0.32763842600E+03  0.12000232394E+04  0.00000000000E+00 0.  1.
         15    1    5    5    0    0 -0.55956365805E+02 -0.29199330229E+02  0.51380367898E+02  0.81385858509E+02  0.00000000000E+00 0. -1.
         15    1    4    4    0    0  0.53150135042E+03  0.41129451548E+03 -0.34816937143E+03  0.75688755781E+03  0.00000000000E+00 0. -1.
        -16    1    5    5    0    0  0.30421815226E+01 -0.30431384994E+02  0.35290717596E+02  0.46698595370E+02  0.00000000000E+00 0.  1.
         16    1    1    2    0    0  0.42888484229E+03  0.28870335738E+03  0.25002521630E+03  0.57428603091E+03  0.00000000000E+00 0. -1.
    9900018    1    1    2    0    0 -0.21541394565E+02 -0.66916599276E+02  0.17674976775E+02  0.11648796563E+03  0.91187600000E+02 0.  0.
<mgrwt>
<rscale>  0 0.28778530E+04</rscale>
<asrwt>0</asrwt>
<pdfrwt beam="1">  1        2 0.24449469E+00 0.28778530E+04</pdfrwt>
<pdfrwt beam="2">  1       -2 0.20043848E+00 0.28778530E+04</pdfrwt>
<totfact> 0.12919371E+00</totfact>
</mgrwt>
</event>
<event>
12    1  0.1238154E-014  0.5143376E+04  0.7818608E-02  0.7806763E-01
          2   -1    0    0  501    0  0.00000000000E+00  0.00000000000E+00  0.12328566360E+04  0.12328566360E+04  0.00000000000E+00 0. -1.
         -2   -1    0    0    0  501 -0.00000000000E+00 -0.00000000000E+00 -0.53644345922E+04  0.53644345922E+04  0.00000000000E+00 0.  1.
    9900016    2    1    2    0    0 -0.18989233405E+04  0.66372583935E+03 -0.17522745788E+04  0.34816008705E+04  0.22371045079E+04 0.  0.
         23    2    3    3    0    0  0.28044885948E+03 -0.19052176717E+03 -0.41610442141E+03  0.54130813820E+03  0.70153434803E+02 0.  0.
        -24    2    3    3    0    0 -0.54633878014E+03 -0.13191517870E+03 -0.67266637090E+03  0.88210707724E+03  0.98717638345E+02 0.  0.
        -15    1    4    4    0    0  0.24897567246E+03 -0.14069019609E+03 -0.36172356121E+03  0.46111446679E+03  0.00000000000E+00 0. -1.
        -15    1    3    3    0    0 -0.15248039478E+04  0.94855816901E+03 -0.56840001332E+03  0.18835785766E+04  0.00000000000E+00 0.  1.
         15    1    5    5    0    0 -0.29071456069E+03 -0.11171160432E+03 -0.41189651525E+03  0.51638471861E+03  0.00000000000E+00 0. -1.
         15    1    4    4    0    0  0.31473187025E+02 -0.49831571078E+02 -0.54380860201E+02  0.80193671408E+02  0.00000000000E+00 0.  1.
        -16    1    5    5    0    0 -0.25562421945E+03 -0.20203574376E+02 -0.26076985565E+03  0.36572235863E+03  0.00000000000E+00 0.  1.
         16    1    1    2    0    0  0.18989233405E+04 -0.66372583935E+03 -0.23793033775E+04  0.31156903577E+04  0.00000000000E+00 0. -1.
    9900018    1    3    3    0    0 -0.10822947203E+03  0.37604616212E+02 -0.95103773124E+02  0.17460707841E+03  0.91187600000E+02 0.  0.
<mgrwt>
<rscale>  0 0.51433759E+04</rscale>
<asrwt>0</asrwt>
<pdfrwt beam="1">  1        2 0.18967025E+00 0.51433759E+04</pdfrwt>
<pdfrwt beam="2">  1       -2 0.82529764E+00 0.51433759E+04</pdfrwt>
<totfact> 0.68095653E-04</totfact>
</mgrwt>
</event>
<event>
12    1  0.1238154E-014  0.2557886E+04  0.7818608E-02  0.8382649E-01
          1   -1    0    0  501    0  0.00000000000E+00  0.00000000000E+00  0.85872445556E+03  0.85872445556E+03  0.00000000000E+00 0. -1.
         -1   -1    0    0    0  501 -0.00000000000E+00 -0.00000000000E+00 -0.19047963645E+04  0.19047963645E+04  0.00000000000E+00 0.  1.
    9900016    2    1    2    0    0 -0.72592555188E+02  0.19733390108E+03 -0.11459118021E+04  0.25307583836E+04  0.22466450076E+04 0.  0.
         23    2    3    3    0    0  0.74777963698E+02  0.57557814923E+03 -0.45357117596E+03  0.74406877584E+03  0.10502181581E+03 0.  0.
        -24    2    3    3    0    0  0.39080611832E+03  0.24821440108E+02  0.32199383810E+03  0.51625328407E+03  0.97426359493E+02 0.  0.
        -15    1    3    3    0    0 -0.54296021607E+03 -0.39664081940E+03 -0.91287332407E+03  0.11337845658E+04  0.00000000000E+00 0.  1.
        -15    1    4    4    0    0  0.96033762179E+02  0.46542411813E+03 -0.39236127435E+03  0.61627060844E+03  0.00000000000E+00 0.  1.
         15    1    5    5    0    0  0.23520988843E+03 -0.30045109246E+02  0.21098972126E+03  0.31740047682E+03  0.00000000000E+00 0. -1.
         15    1    4    4    0    0 -0.21255798481E+02  0.11015403110E+03 -0.61209901606E+02  0.12779816740E+03  0.00000000000E+00 0. -1.
        -16    1    5    5    0    0  0.15559622990E+03  0.54866549355E+02  0.11100411684E+03  0.19885280725E+03  0.00000000000E+00 0.  1.
         16    1    1    2    0    0  0.72592555188E+02 -0.19733390108E+03  0.99839893159E+02  0.23276243651E+03  0.00000000000E+00 0. -1.
    9900018    1    3    3    0    0  0.47835788578E+01 -0.64248688566E+01 -0.10146114020E+03  0.13665175788E+03  0.91187600000E+02 0.  0.
<mgrwt>
<rscale>  0 0.25578860E+04</rscale>
<asrwt>0</asrwt>
<pdfrwt beam="1">  1        1 0.13211146E+00 0.25578860E+04</pdfrwt>
<pdfrwt beam="2">  1       -1 0.29304559E+00 0.25578860E+04</pdfrwt>
<totfact> 0.63774733E-01</totfact>
</mgrwt>
</event>
