<event>
12    1  0.1022686E-011  0.8887610E+03  0.7818608E-02  0.9439741E-01
          1   -1    0    0  501    0  0.00000000000E+00  0.00000000000E+00  0.19266698100E+04  0.19266698100E+04  0.00000000000E+00 0. -1.
         -1   -1    0    0    0  501 -0.00000000000E+00 -0.00000000000E+00 -0.10249499817E+03  0.10249499817E+03  0.00000000000E+00 0.  1.
    9900016    2    1    2    0    0  0.13739450415E+03 -0.67134004838E+02  0.16350079064E+04  0.17859193715E+04  0.70204908870E+03 0.  0.
         23    2    3    3    0    0 -0.54096646683E+02  0.17982158776E+02  0.22643394956E+03  0.25878374716E+03  0.11156562672E+03 0.  0.
         23    2    3    3    0    0 -0.83541425535E+02 -0.73703367042E+02  0.31006254900E+03  0.34214512424E+03  0.92266709370E+02 0.  0.
        -15    1    4    4    0    0 -0.14040543493E+02  0.46397278971E+02  0.19391512769E+03  0.19988226811E+03  0.00000000000E+00 0.  1.
        -15    1    5    5    0    0 -0.53592138070E+02 -0.92905942310E+02  0.20737880939E+03  0.23347291484E+03  0.00000000000E+00 0. -1.
         15    1    4    4    0    0 -0.40056103190E+02 -0.28415120196E+02  0.32518821869E+02  0.58901479050E+02  0.00000000000E+00 0. -1.
         15    1    5    5    0    0 -0.29949287465E+02  0.19202575269E+02  0.10268373961E+03  0.10867220941E+03  0.00000000000E+00 0.  1.
        -16    1    1    2    0    0 -0.13739450415E+03  0.67134004838E+02  0.18916690538E+03  0.24324543669E+03  0.00000000000E+00 0.  1.
         16    1    3    3    0    0  0.25796002746E+03  0.10070484412E+03  0.52800255973E+03  0.59621434441E+03  0.00000000000E+00 0. -1.
    9900018    1    3    3    0    0  0.17072548916E+02 -0.11211764069E+03  0.57050884811E+03  0.58877615564E+03  0.91187600000E+02 0.  0.
<mgrwt>
<rscale>  0 0.88876098E+03</rscale>
<asrwt>0</asrwt>
<pdfrwt beam="1">  1        1 0.29641071E+00 0.88876098E+03</pdfrwt>
<pdfrwt beam="2">  1       -1 0.15768463E-01 0.88876098E+03</pdfrwt>
<totfact> 0.10292001E+02</totfact>
</mgrwt>
</event>
<event>
12    1  0.1022686E-011  0.1378536E+04  0.7818608E-02  0.8969503E-01
         -1   -1    0    0    0  501 -0.00000000000E+00  0.00000000000E+00  0.51145386187E+03  0.51145386187E+03  0.00000000000E+00 0.  1.
          1   -1    0    0  501    0  0.00000000000E+00 -0.00000000000E+00 -0.92890191529E+03  0.92890191529E+03  0.00000000000E+00 0. -1.
    9900016    2    1    2    0    0 -0.34171674958E+03 -0.37095805901E+03 -0.26394008872E+03  0.91315096524E+03  0.71400286862E+03 0.  0.
         23    2    3    3    0    0 -0.56396231769E+02 -0.19776707401E+03 -0.14727162548E+03  0.26459896564E+03  0.77661640628E+02 0.  0.
         23    2    3    3    0    0 -0.64648503727E+02 -0.10586915622E+03 -0.20658342975E+03  0.25750136395E+03  0.90788389779E+02 0.  0.
        -15    1    5    5    0    0 -0.80679348216E+02 -0.92684557752E+02 -0.20169239099E+03  0.23617663953E+03  0.00000000000E+00 0. -1.
        -15    1    4    4    0    0 -0.36963778007E+02 -0.40267799533E+02 -0.11741739275E+02  0.55907825973E+02  0.00000000000E+00 0.  1.
         15    1    5    5    0    0  0.16030844489E+02 -0.13184598463E+02 -0.48910387562E+01  0.21324724425E+02  0.00000000000E+00 0.  1.
         15    1    4    4    0    0 -0.19432453762E+02 -0.15749927448E+03 -0.13552988620E+03  0.20869113967E+03  0.00000000000E+00 0. -1.
        -16    1    1    2    0    0  0.34171674958E+03  0.37095805901E+03 -0.15350796470E+03  0.52720481192E+03  0.00000000000E+00 0.  1.
         16    1    3    3    0    0  0.65136565467E+02 -0.36713647609E+02  0.41843819558E+02  0.85682958147E+02  0.00000000000E+00 0. -1.
    9900018    1    3    3    0    0 -0.28580857955E+03 -0.30608181172E+02  0.48071146952E+02  0.30536767751E+03  0.91187600000E+02 0.  0.
<mgrwt>
<rscale>  0 0.13785361E+04</rscale>
<asrwt>0</asrwt>
<pdfrwt beam="1">  1        1 0.14290799E+00 0.13785361E+04</pdfrwt>
<pdfrwt beam="2">  1       -1 0.78685210E-01 0.13785361E+04</pdfrwt>
<totfact> 0.27209470E+01</totfact>
</mgrwt>
</event>
<event>
12    1  0.1022686E-011  0.9150512E+03  0.7818608E-02  0.9406960E-01
         -2   -1    0    0    0  501 -0.00000000000E+00  0.00000000000E+00  0.14620011170E+03  0.14620011170E+03  0.00000000000E+00 0. -1.
          2   -1    0    0  501    0  0.00000000000E+00 -0.00000000000E+00 -0.14318023272E+04  0.14318023272E+04  0.00000000000E+00 0.  1.
    9900016    2    1    2    0    0 -0.14426869030E+03  0.19244445592E+02 -0.10410488635E+04  0.12934147623E+04  0.75362802994E+03 0.  0.
         23    2    3    3    0    0 -0.23458203974E+03 -0.15761530505E+03 -0.27770185535E+03  0.40395958184E+03  0.78700098706E+02 0.  0.
         23    2    3    3    0    0  0.78892569969E+02  0.46123081893E+02 -0.30207197808E+03  0.32810853199E+03  0.89757186585E+02 0.  0.
        -15    1    4    4    0    0 -0.21589486628E+03 -0.15221596153E+03 -0.22232607292E+03  0.34526681702E+03  0.00000000000E+00 0.  1.
        -15    1    5    5    0    0  0.48514085399E+02 -0.22063008522E+02 -0.11805850311E+03  0.12953070287E+03  0.00000000000E+00 0.  1.
         15    1    4    4    0    0 -0.18687173458E+02 -0.53993435161E+01 -0.55375782430E+02  0.58692764818E+02  0.00000000000E+00 0. -1.
         15    1    5    5    0    0  0.30378484570E+02  0.68186090415E+02 -0.18401347497E+03  0.19857782913E+03  0.00000000000E+00 0. -1.
        -16    1    1    2    0    0  0.14426869030E+03 -0.19244445592E+02 -0.24455335206E+03  0.28458767663E+03  0.00000000000E+00 0.  1.
         16    1    3    3    0    0 -0.24403142974E+02  0.16078748686E+03 -0.11229533343E+03  0.19763190842E+03  0.00000000000E+00 0. -1.
    9900018    1    3    3    0    0  0.35823922449E+02 -0.30050818110E+02 -0.34897969660E+03  0.36371474004E+03  0.91187600000E+02 0.  0.
<mgrwt>
<rscale>  0 0.91505117E+03</rscale>
<asrwt>0</asrwt>
<pdfrwt beam="1">  1        2 0.22027728E+00 0.91505117E+03</pdfrwt>
<pdfrwt beam="2">  1       -2 0.22492325E-01 0.91505117E+03</pdfrwt>
<totfact> 0.24118990E+02</totfact>
</mgrwt>
</event>
<event>
11    1  0.1022686E-011  0.9079819E+03  0.7818608E-02  0.9415658E-01
          1   -1    0    0  501    0  0.00000000000E+00  0.00000000000E+00  0.19783100861E+04  0.19783100861E+04  0.00000000000E+00 0. -1.
         -1   -1    0    0    0  501 -0.00000000000E+00 -0.00000000000E+00 -0.10418376689E+03  0.10418376689E+03  0.00000000000E+00 0.  1.
    9900016    2    1    2    0    0  0.16928197874E+03 -0.23933471032E+02  0.16058273348E+04  0.17643530911E+04  0.71065547306E+03 0.  0.
         23    2    3    3    0    0  0.14049408628E+02 -0.70092359932E+02  0.15422834880E+03  0.18946344786E+03  0.83664148219E+02 0.  0.
        -15    1    3    3    0    0  0.65045950873E+02  0.49862685954E+02  0.35507933288E+03  0.36441541654E+03  0.00000000000E+00 0.  1.
        -15    1    4    4    0    0  0.22059023171E+01 -0.29083581262E+02 -0.27892486787E+00  0.29168450475E+02  0.00000000000E+00 0.  1.
         15    1    3    3    0    0 -0.35922243182E+02  0.93707735265E+02  0.15511451471E+03  0.18474863972E+03  0.00000000000E+00 0. -1.
         15    1    4    4    0    0  0.11843506311E+02 -0.41008778670E+02  0.15450727367E+03  0.16029499738E+03  0.00000000000E+00 0. -1.
        -16    1    1    2    0    0 -0.16928197874E+03  0.23933471032E+02  0.26829898440E+03  0.31814076191E+03  0.00000000000E+00 0.  1.
         16    1    3    3    0    0  0.93226566084E+02 -0.82808072548E+02  0.59097191755E+02  0.13798857770E+03  0.00000000000E+00 0. -1.
    9900018    1    3    3    0    0  0.32882296340E+02 -0.14603459770E+02  0.88230794669E+03  0.88773700928E+03  0.91187600000E+02 0.  0.
<mgrwt>
<rscale>  0 0.90798193E+03</rscale>
<asrwt>0</asrwt>
<pdfrwt beam="1">  1        1 0.30435537E+00 0.90798193E+03</pdfrwt>
<pdfrwt beam="2">  1       -1 0.16028273E-01 0.90798193E+03</pdfrwt>
<totfact> 0.92364653E+01</totfact>
</mgrwt>
</event>
<event>
12    1  0.1022686E-011  0.9611095E+03  0.7818608E-02  0.9352259E-01
         -2   -1    0    0    0  501 -0.00000000000E+00  0.00000000000E+00  0.60650852891E+03  0.60650852891E+03  0.00000000000E+00 0.  1.
          2   -1    0    0  501    0  0.00000000000E+00 -0.00000000000E+00 -0.38075786343E+03  0.38075786343E+03  0.00000000000E+00 0. -1.
    9900016    2    1    2    0    0  0.76623961513E+02  0.14526919490E+03  0.38187015336E+02  0.73795836335E+03  0.71843575039E+03 0.  0.
         23    2    3    3    0    0  0.24047435307E+03  0.14056683742E+03  0.20987334373E+02  0.28967009580E+03  0.76689933720E+02 0.  0.
         23    2    3    3    0    0 -0.17927268802E+03  0.56320085247E+02 -0.26511048290E+02  0.21080730180E+03  0.91794521289E+02 0.  0.
        -15    1    5    5    0    0 -0.97520215968E+02  0.51953128039E+02 -0.55889949216E+02  0.12382651759E+03  0.00000000000E+00 0. -1.
        -15    1    4    4    0    0  0.80638444780E+02  0.77824795258E+01  0.93076723186E+01  0.81546051579E+02  0.00000000000E+00 0.  1.
         15    1    5    5    0    0 -0.81752472056E+02  0.43669572072E+01  0.29378900926E+02  0.86980784212E+02  0.00000000000E+00 0.  1.
         15    1    4    4    0    0  0.15983590829E+03  0.13278435789E+03  0.11679662054E+02  0.20812404422E+03  0.00000000000E+00 0. -1.
        -16    1    1    2    0    0 -0.76623961513E+02 -0.14526919490E+03  0.18756365014E+03  0.24930802899E+03  0.00000000000E+00 0.  1.
         16    1    3    3    0    0  0.20307838084E+02 -0.64664719154E+02  0.10625442622E+03  0.12603149322E+03  0.00000000000E+00 0. -1.
    9900018    1    3    3    0    0 -0.48855416145E+01  0.13046991394E+02 -0.62543696970E+02  0.11144947252E+03  0.91187600000E+02 0.  0.
<mgrwt>
<rscale>  0 0.96110955E+03</rscale>
<asrwt>0</asrwt>
<pdfrwt beam="1">  1        2 0.58578133E-01 0.96110955E+03</pdfrwt>
<pdfrwt beam="2">  1       -2 0.93309004E-01 0.96110955E+03</pdfrwt>
<totfact> 0.81769882E+01</totfact>
</mgrwt>
</event>
<event>
12    1  0.1022686E-011  0.1019929E+04  0.7818608E-02  0.9286954E-01
         -2   -1    0    0    0  501 -0.00000000000E+00  0.00000000000E+00  0.56558896331E+03  0.56558896331E+03  0.00000000000E+00 0.  1.
          2   -1    0    0  501    0  0.00000000000E+00 -0.00000000000E+00 -0.45981018346E+03  0.45981018346E+03  0.00000000000E+00 0. -1.
    9900016    2    1    2    0    0 -0.19799203233E+02  0.24611007957E+03  0.17360485732E+03  0.76934728387E+03  0.70766829589E+03 0.  0.
         23    2    3    3    0    0  0.64055812468E+02 -0.64705383206E+01  0.64195373424E+02  0.11902042058E+03  0.76810152777E+02 0.  0.
         23    2    3    3    0    0  0.89132260715E+02  0.14126519102E+03  0.13874203054E+03  0.23708766646E+03  0.95188215953E+02 0.  0.
        -15    1    4    4    0    0  0.78192582938E+02  0.34377848848E+00  0.34568389290E+02  0.85493694202E+02  0.00000000000E+00 0.  1.
        -15    1    5    5    0    0  0.79439775676E+02  0.12870473189E+03  0.70219466688E+02  0.16675238971E+03  0.00000000000E+00 0.  1.
         15    1    4    4    0    0 -0.14136770471E+02 -0.68143168091E+01  0.29626984135E+02  0.33526726381E+02  0.00000000000E+00 0. -1.
         15    1    5    5    0    0  0.96924850397E+01  0.12560459131E+02  0.68522563851E+02  0.70335276758E+02  0.00000000000E+00 0. -1.
        -16    1    1    2    0    0  0.19799203233E+02 -0.24611007957E+03 -0.67826077464E+02  0.25605186290E+03  0.00000000000E+00 0.  1.
         16    1    3    3    0    0 -0.15241909560E+03  0.20337254350E+03 -0.88769508655E+02  0.26920623660E+03  0.00000000000E+00 0. -1.
    9900018    1    3    3    0    0 -0.20568180815E+02 -0.92057116641E+02  0.59436962007E+02  0.14403296023E+03  0.91187600000E+02 0.  0.
<mgrwt>
<rscale>  0 0.10199286E+04</rscale>
<asrwt>0</asrwt>
<pdfrwt beam="1">  1        2 0.70740028E-01 0.10199286E+04</pdfrwt>
<pdfrwt beam="2">  1       -2 0.87013687E-01 0.10199286E+04</pdfrwt>
<totfact> 0.77331793E+01</totfact>
</mgrwt>
</event>
<event>
12    1  0.1022686E-011  0.1260787E+04  0.7818608E-02  0.9061253E-01
         -2   -1    0    0    0  501 -0.00000000000E+00  0.00000000000E+00  0.49182070049E+03  0.49182070049E+03  0.00000000000E+00 0.  1.
          2   -1    0    0  501    0  0.00000000000E+00 -0.00000000000E+00 -0.80800926794E+03  0.80800926794E+03  0.00000000000E+00 0. -1.
    9900016    2    1    2    0    0 -0.40246373661E+03  0.36528018716E+01 -0.37039215432E+03  0.89371615300E+03  0.70678696360E+03 0.  0.
         23    2    3    3    0    0 -0.33663957239E+02  0.18817296292E+03 -0.55370228821E+02  0.22656514358E+03  0.10827546375E+03 0.  0.
         23    2    3    3    0    0 -0.93181110363E+02  0.30949033816E+02 -0.88341202013E+02  0.15937874648E+03  0.89201204217E+02 0.  0.
        -15    1    5    5    0    0 -0.25202795658E+02 -0.13147783897E+02 -0.71050830704E+02  0.76526241735E+02  0.00000000000E+00 0.  1.
        -15    1    4    4    0    0 -0.66663852335E+02  0.16785282291E+03 -0.50304101399E+02  0.18748104433E+03  0.00000000000E+00 0.  1.
         15    1    5    5    0    0 -0.67978314705E+02  0.44096817713E+02 -0.17290371309E+02  0.82852504745E+02  0.00000000000E+00 0. -1.
         15    1    4    4    0    0  0.32999895096E+02  0.20320140018E+02 -0.50661274222E+01  0.39084099244E+02  0.00000000000E+00 0. -1.
        -16    1    1    2    0    0  0.40246373661E+03 -0.36528018716E+01  0.54203586869E+02  0.40611381542E+03  0.00000000000E+00 0.  1.
         16    1    3    3    0    0 -0.38005844628E+02 -0.99159196775E+02  0.47208180111E+02  0.11621360850E+03  0.00000000000E+00 0. -1.
    9900018    1    3    3    0    0 -0.23761282438E+03 -0.11630999809E+03 -0.27388890360E+03  0.39155865445E+03  0.91187600000E+02 0.  0.
<mgrwt>
<rscale>  0 0.12607866E+04</rscale>
<asrwt>0</asrwt>
<pdfrwt beam="1">  1        2 0.12430912E+00 0.12607866E+04</pdfrwt>
<pdfrwt beam="2">  1       -2 0.75664724E-01 0.12607866E+04</pdfrwt>
<totfact> 0.52329746E+01</totfact>
</mgrwt>
</event>
<event>
12    1  0.1022686E-011  0.1417370E+04  0.7818608E-02  0.8941341E-01
          2   -1    0    0  501    0  0.00000000000E+00  0.00000000000E+00  0.68439592141E+03  0.68439592141E+03  0.00000000000E+00 0. -1.
         -2   -1    0    0    0  501 -0.00000000000E+00 -0.00000000000E+00 -0.73383559047E+03  0.73383559047E+03  0.00000000000E+00 0.  1.
    9900016    2    1    2    0    0  0.48350186531E+03 -0.25852518252E+02 -0.25430634994E+03  0.89248179633E+03  0.70527273498E+03 0.  0.
         23    2    3    3    0    0  0.44295290309E+02  0.45526666920E+02 -0.10365429445E+03  0.14328676349E+03  0.75842822259E+02 0.  0.
         23    2    3    3    0    0  0.71058075596E+02 -0.86300749761E+02  0.96812510642E+02  0.17438568696E+03  0.92415561901E+02 0.  0.
        -15    1    4    4    0    0  0.39179911667E+02 -0.12149495835E+02 -0.42226492754E+02  0.58870641389E+02  0.00000000000E+00 0.  1.
        -15    1    5    5    0    0  0.90850511121E+02 -0.69687009249E+02  0.59604174538E+02  0.12908428352E+03  0.00000000000E+00 0.  1.
         15    1    4    4    0    0  0.51153786421E+01  0.57676162756E+02 -0.61427801696E+02  0.84416122098E+02  0.00000000000E+00 0. -1.
         15    1    5    5    0    0 -0.19792435525E+02 -0.16613740512E+02  0.37208336104E+02  0.45301403438E+02  0.00000000000E+00 0. -1.
        -16    1    3    3    0    0  0.19879002303E+03  0.17348142666E+03 -0.84723205129E+02  0.27711243231E+03  0.00000000000E+00 0.  1.
         16    1    1    2    0    0 -0.48350186531E+03  0.25852518252E+02  0.20486668089E+03  0.52574971554E+03  0.00000000000E+00 0. -1.
    9900018    1    3    3    0    0  0.16935847637E+03 -0.15855986207E+03 -0.16274136101E+03  0.29769691358E+03  0.91187600000E+02 0.  0.
<mgrwt>
<rscale>  0 0.14173695E+04</rscale>
<asrwt>0</asrwt>
<pdfrwt beam="1">  1        2 0.10529168E+00 0.14173695E+04</pdfrwt>
<pdfrwt beam="2">  1       -2 0.11289778E+00 0.14173695E+04</pdfrwt>
<totfact> 0.25276617E+01</totfact>
</mgrwt>
</event>
<event>
12    1  0.1022686E-011  0.1028793E+04  0.7818608E-02  0.9277517E-01
          2   -1    0    0  501    0  0.00000000000E+00  0.00000000000E+00  0.13110443200E+04  0.13110443200E+04  0.00000000000E+00 0.  1.
         -2   -1    0    0    0  501 -0.00000000000E+00 -0.00000000000E+00 -0.20182658846E+03  0.20182658846E+03  0.00000000000E+00 0. -1.
    9900016    2    1    2    0    0  0.12278352868E+03 -0.15304853342E+03  0.10796267265E+04  0.13144388645E+04  0.72364080285E+03 0.  0.
         23    2    3    3    0    0 -0.96383075753E+02 -0.25475075880E+03  0.32134434641E+03  0.43576070598E+03  0.11152379793E+03 0.  0.
         23    2    3    3    0    0  0.79951888120E+02  0.94152750150E+02  0.36447551188E+03  0.39535725046E+03  0.90597527310E+02 0.  0.
        -15    1    5    5    0    0  0.48693600139E+02  0.19354820460E+02  0.24782452554E+03  0.25330351602E+03  0.00000000000E+00 0. -1.
        -15    1    4    4    0    0 -0.66837520404E+02 -0.24592355365E+03  0.24537584951E+03  0.35377246345E+03  0.00000000000E+00 0. -1.
         15    1    5    5    0    0  0.31258287981E+02  0.74797929690E+02  0.11665098634E+03  0.14205373444E+03  0.00000000000E+00 0.  1.
         15    1    4    4    0    0 -0.29545555349E+02 -0.88272051528E+01  0.75968496903E+02  0.81988242532E+02  0.00000000000E+00 0.  1.
        -16    1    3    3    0    0  0.39961942373E+02  0.47648048649E+02  0.31709796051E+03  0.32313837583E+03  0.00000000000E+00 0.  1.
         16    1    1    2    0    0 -0.12278352868E+03  0.15304853342E+03  0.29591005117E+02  0.19843204399E+03  0.00000000000E+00 0. -1.
    9900018    1    3    3    0    0  0.99252773939E+02 -0.40098573422E+02  0.76708907653E+02  0.16018253223E+03  0.91187600000E+02 0.  0.
<mgrwt>
<rscale>  0 0.10287927E+04</rscale>
<asrwt>0</asrwt>
<pdfrwt beam="1">  1        2 0.20169912E+00 0.10287927E+04</pdfrwt>
<pdfrwt beam="2">  1       -2 0.31050245E-01 0.10287927E+04</pdfrwt>
<totfact> 0.15591077E+02</totfact>
</mgrwt>
</event>
<event>
12    1  0.1022686E-011  0.9646479E+03  0.7818608E-02  0.9348191E-01
          1   -1    0    0  501    0  0.00000000000E+00  0.00000000000E+00  0.23338729674E+04  0.23338729674E+04  0.00000000000E+00 0. -1.
         -1   -1    0    0    0  501 -0.00000000000E+00 -0.00000000000E+00 -0.99678250055E+02  0.99678250055E+02  0.00000000000E+00 0.  1.
    9900016    2    1    2    0    0 -0.46544155548E+02 -0.20324421297E+03  0.17463726792E+04  0.19030374010E+04  0.72681445124E+03 0.  0.
         23    2    3    3    0    0  0.17110876269E+03 -0.35333862830E+02  0.46314184322E+03  0.50740999802E+03  0.11152510308E+03 0.  0.
         23    2    3    3    0    0 -0.10700443361E+03  0.51010505268E+02  0.34908555116E+03  0.37917960370E+03  0.88681618028E+02 0.  0.
        -15    1    5    5    0    0 -0.65925709833E+02  0.41956467751E+02  0.10176269190E+03  0.12830506563E+03  0.00000000000E+00 0. -1.
        -15    1    4    4    0    0  0.82415339148E+02 -0.16244030158E+02  0.36165892609E+03  0.37128605612E+03  0.00000000000E+00 0. -1.
         15    1    5    5    0    0 -0.41078723781E+02  0.90540375169E+01  0.24732285925E+03  0.25087453807E+03  0.00000000000E+00 0.  1.
         15    1    4    4    0    0  0.88693423541E+02 -0.19089832672E+02  0.10148291713E+03  0.13612394190E+03  0.00000000000E+00 0.  1.
        -16    1    1    2    0    0  0.46544155548E+02  0.20324421297E+03  0.48782203816E+03  0.53051381644E+03  0.00000000000E+00 0.  1.
         16    1    3    3    0    0 -0.24500852257E+02 -0.25969646306E+03  0.51923199266E+03  0.58107177430E+03  0.00000000000E+00 0. -1.
    9900018    1    3    3    0    0 -0.86147632365E+02  0.40775607654E+02  0.41491329215E+03  0.43537602499E+03  0.91187600000E+02 0.  0.
<mgrwt>
<rscale>  0 0.96464786E+03</rscale>
<asrwt>0</asrwt>
<pdfrwt beam="1">  1        1 0.35905734E+00 0.96464786E+03</pdfrwt>
<pdfrwt beam="2">  1       -1 0.15335117E-01 0.96464786E+03</pdfrwt>
<totfact> 0.56884797E+01</totfact>
</mgrwt>
</event>
<event>
12    1  0.1022686E-011  0.9766537E+03  0.7818608E-02  0.9334528E-01
         -1   -1    0    0    0  501 -0.00000000000E+00  0.00000000000E+00  0.54820602171E+03  0.54820602171E+03  0.00000000000E+00 0.  1.
          1   -1    0    0  501    0  0.00000000000E+00 -0.00000000000E+00 -0.43498814364E+03  0.43498814364E+03  0.00000000000E+00 0. -1.
    9900016    2    1    2    0    0 -0.94224237966E+02 -0.19430241750E+03  0.15878104206E+03  0.76249609473E+03  0.71383278062E+03 0.  0.
         23    2    3    3    0    0  0.58085679861E+02 -0.68372994875E+02 -0.78216004211E+02  0.14115423408E+03  0.75881235161E+02 0.  0.
         23    2    3    3    0    0 -0.54832882323E+02 -0.47100655413E+02  0.65577731787E+02  0.13278155481E+03  0.90029915396E+02 0.  0.
        -15    1    4    4    0    0  0.29310448991E+02  0.10355418263E+02 -0.87643032895E+01  0.32297834596E+02  0.00000000000E+00 0.  1.
        -15    1    5    5    0    0 -0.66665942791E+02 -0.62586598009E+02  0.38023430873E+02  0.99031366111E+02  0.00000000000E+00 0. -1.
         15    1    5    5    0    0  0.11833060468E+02  0.15485942595E+02  0.27554300914E+02  0.33750188695E+02  0.00000000000E+00 0.  1.
         15    1    4    4    0    0  0.28775230870E+02 -0.78728413138E+02 -0.69451700921E+02  0.10885639948E+03  0.00000000000E+00 0. -1.
        -16    1    3    3    0    0 -0.18074426082E+03 -0.36107462538E+02 -0.83312557650E+02  0.20227016323E+03  0.00000000000E+00 0.  1.
         16    1    1    2    0    0  0.94224237966E+02  0.19430241750E+03 -0.45563163992E+02  0.22069807063E+03  0.00000000000E+00 0. -1.
    9900018    1    3    3    0    0  0.83267225314E+02 -0.42721304669E+02  0.25473187214E+03  0.28629014262E+03  0.91187600000E+02 0.  0.
<mgrwt>
<rscale>  0 0.97665371E+03</rscale>
<asrwt>0</asrwt>
<pdfrwt beam="1">  1        1 0.66921253E-01 0.97665371E+03</pdfrwt>
<pdfrwt beam="2">  1       -1 0.84339388E-01 0.97665371E+03</pdfrwt>
<totfact> 0.74991743E+01</totfact>
</mgrwt>
</event>
<event>
12    1  0.1022686E-011  0.7621088E+03  0.7818608E-02  0.9616543E-01
         -1   -1    0    0    0  501 -0.00000000000E+00  0.00000000000E+00  0.19219182418E+03  0.19219182418E+03  0.00000000000E+00 0.  1.
          1   -1    0    0  501    0  0.00000000000E+00 -0.00000000000E+00 -0.75550796901E+03  0.75550796901E+03  0.00000000000E+00 0. -1.
    9900016    2    1    2    0    0  0.42859109699E+02 -0.14065367031E+02 -0.52865241004E+03  0.89081119728E+03  0.71556724403E+03 0.  0.
         23    2    3    3    0    0  0.15562286153E+03 -0.21316888478E+03 -0.33416058843E+03  0.43216102398E+03  0.73759089715E+02 0.  0.
         23    2    3    3    0    0 -0.18613350152E+03  0.11126139260E+03 -0.14921970425E+03  0.27925818878E+03  0.93240752852E+02 0.  0.
        -15    1    4    4    0    0  0.98218867610E+02 -0.10587560874E+03 -0.12907636609E+03  0.19369382737E+03  0.00000000000E+00 0.  1.
        -15    1    5    5    0    0 -0.14199541565E+03  0.11512449129E+03 -0.14755007140E+03  0.23491992280E+03  0.00000000000E+00 0.  1.
         15    1    4    4    0    0  0.57403993922E+02 -0.10729327604E+03 -0.20508422234E+03  0.23846719660E+03  0.00000000000E+00 0. -1.
         15    1    5    5    0    0 -0.44138085873E+02 -0.38630986916E+01 -0.16696328527E+01  0.44338265977E+02  0.00000000000E+00 0. -1.
        -16    1    3    3    0    0  0.14203247544E+02  0.21935624726E+02 -0.45270806221E+02  0.52271883157E+02  0.00000000000E+00 0.  1.
         16    1    1    2    0    0 -0.42859109699E+02  0.14065367031E+02 -0.34663734791E+02  0.56888595901E+02  0.00000000000E+00 0. -1.
    9900018    1    3    3    0    0  0.59166502147E+02  0.65906500428E+02 -0.13111349527E-02  0.12712010136E+03  0.91187600000E+02 0.  0.
<mgrwt>
<rscale>  0 0.76210880E+03</rscale>
<asrwt>0</asrwt>
<pdfrwt beam="1">  1        1 0.11623200E+00 0.76210880E+03</pdfrwt>
<pdfrwt beam="2">  1       -1 0.29567973E-01 0.76210880E+03</pdfrwt>
<totfact> 0.25611577E+02</totfact>
</mgrwt>
</event>
<event>
12    1  0.1022686E-011  0.7794627E+03  0.7818608E-02  0.9590229E-01
          3   -1    0    0  501    0  0.00000000000E+00  0.00000000000E+00  0.66861801009E+03  0.66861801009E+03  0.00000000000E+00 0. -1.
         -3   -1    0    0    0  501 -0.00000000000E+00 -0.00000000000E+00 -0.22717087895E+03  0.22717087895E+03  0.00000000000E+00 0.  1.
    9900016    2    1    2    0    0  0.21935157627E+02  0.66161984313E+02  0.40982794947E+03  0.81924914800E+03  0.70594026591E+03 0.  0.
         23    2    3    3    0    0 -0.18622729647E+02 -0.11473329263E+03  0.57891712098E+00  0.13816479287E+03  0.74690296205E+02 0.  0.
         23    2    3    3    0    0  0.58073356834E+02  0.42362174280E+02  0.10377609550E+03  0.15666585497E+03  0.92777386977E+02 0.  0.
        -15    1    5    5    0    0  0.72884246504E+02  0.31617543995E+02  0.37392238095E+02  0.87806388984E+02  0.00000000000E+00 0.  1.
        -15    1    4    4    0    0  0.11538446396E+02 -0.10080465868E+03  0.13823019813E+02  0.10240015055E+03  0.00000000000E+00 0.  1.
         15    1    5    5    0    0 -0.14810889670E+02  0.10744630286E+02  0.66383857402E+02  0.68859465989E+02  0.00000000000E+00 0. -1.
         15    1    4    4    0    0 -0.30161176044E+02 -0.13928633951E+02 -0.13244102692E+02  0.35764642319E+02  0.00000000000E+00 0. -1.
        -16    1    1    2    0    0 -0.21935157627E+02 -0.66161984313E+02  0.31619181680E+02  0.76539741040E+02  0.00000000000E+00 0.  1.
         16    1    3    3    0    0 -0.14135230573E+03  0.19599219893E+03  0.10026979744E+03  0.26162463311E+03  0.00000000000E+00 0. -1.
    9900018    1    3    3    0    0  0.12383683617E+03 -0.57459096267E+02  0.20520313941E+03  0.26279386704E+03  0.91187600000E+02 0.  0.
<mgrwt>
<rscale>  0 0.77946274E+03</rscale>
<asrwt>0</asrwt>
<pdfrwt beam="1">  1        3 0.10286431E+00 0.77946274E+03</pdfrwt>
<pdfrwt beam="2">  1       -3 0.34949366E-01 0.77946274E+03</pdfrwt>
<totfact> 0.17468056E+01</totfact>
</mgrwt>
</event>
<event>
12    1  0.1022686E-011  0.8877033E+03  0.7818608E-02  0.9441085E-01
          2   -1    0    0  501    0  0.00000000000E+00  0.00000000000E+00  0.71777317541E+03  0.71777317541E+03  0.00000000000E+00 0. -1.
         -2   -1    0    0    0  501 -0.00000000000E+00 -0.00000000000E+00 -0.27446590641E+03  0.27446590641E+03  0.00000000000E+00 0.  1.
    9900016    2    1    2    0    0  0.68163266413E+02 -0.14013318295E+03  0.36272512400E+03  0.81680527110E+03  0.71506488899E+03 0.  0.
         23    2    3    3    0    0  0.72046630919E+02 -0.14381676742E+02  0.10768199842E+03  0.17406972770E+03  0.11535730435E+03 0.  0.
         23    2    3    3    0    0 -0.12468496603E+02  0.71994521596E+02  0.16753587145E+02  0.12002948359E+03  0.93742838139E+02 0.  0.
        -15    1    5    5    0    0 -0.29722734484E+02  0.42026954489E+02  0.50214390557E+02  0.71910992677E+02  0.00000000000E+00 0. -1.
        -15    1    4    4    0    0 -0.16318220155E+02 -0.37183372599E+02  0.56060952180E+02  0.69222235345E+02  0.00000000000E+00 0.  1.
         15    1    4    4    0    0  0.88364851074E+02  0.22801695857E+02  0.51621046237E+02  0.10484749236E+03  0.00000000000E+00 0. -1.
         15    1    5    5    0    0  0.17254237881E+02  0.29967567107E+02 -0.33460803412E+02  0.48118490917E+02  0.00000000000E+00 0.  1.
        -16    1    1    2    0    0 -0.68163266413E+02  0.14013318295E+03  0.80582144997E+02  0.17543381072E+03  0.00000000000E+00 0.  1.
         16    1    3    3    0    0 -0.17899188406E+03 -0.17947313498E+03  0.10403680432E+03  0.27399335282E+03  0.00000000000E+00 0. -1.
    9900018    1    3    3    0    0  0.18757701616E+03 -0.18272892821E+02  0.13425273412E+03  0.24871270698E+03  0.91187600000E+02 0.  0.
<mgrwt>
<rscale>  0 0.88770325E+03</rscale>
<asrwt>0</asrwt>
<pdfrwt beam="1">  1        2 0.11042664E+00 0.88770325E+03</pdfrwt>
<pdfrwt beam="2">  1       -2 0.42225524E-01 0.88770325E+03</pdfrwt>
<totfact> 0.21160680E+02</totfact>
</mgrwt>
</event>
<event>
12    1  0.1022686E-011  0.1030735E+04  0.7818608E-02  0.9275463E-01
          2   -1    0    0  501    0  0.00000000000E+00  0.00000000000E+00  0.69033562383E+03  0.69033562383E+03  0.00000000000E+00 0. -1.
         -2   -1    0    0    0  501 -0.00000000000E+00 -0.00000000000E+00 -0.38474586746E+03  0.38474586746E+03  0.00000000000E+00 0.  1.
    9900016    2    1    2    0    0 -0.17494151824E+03 -0.39051573146E+02  0.43360742899E+03  0.85481328052E+03  0.71453536085E+03 0.  0.
         23    2    3    3    0    0 -0.11490768022E+02  0.13227737666E+03  0.97971548865E+02  0.19521266509E+03  0.10430828393E+03 0.  0.
         23    2    3    3    0    0  0.31061588676E+01 -0.37268755949E+02 -0.52176807650E+02  0.10763036971E+03  0.86390212603E+02 0.  0.
        -15    1    4    4    0    0 -0.82043354556E+01  0.35342289275E+02  0.91006289378E+02  0.97972104386E+02  0.00000000000E+00 0. -1.
        -15    1    5    5    0    0 -0.40386818484E+02 -0.23085779102E+02 -0.36974108866E+02  0.59423337423E+02  0.00000000000E+00 0.  1.
         15    1    4    4    0    0 -0.32864325664E+01  0.96935087388E+02  0.69652594871E+01  0.97240560702E+02  0.00000000000E+00 0.  1.
         15    1    5    5    0    0  0.43492977352E+02 -0.14182976847E+02 -0.15202698784E+02  0.48207032283E+02  0.00000000000E+00 0. -1.
        -16    1    1    2    0    0  0.17494151824E+03  0.39051573146E+02 -0.12801767261E+03  0.22026821076E+03  0.00000000000E+00 0.  1.
         16    1    3    3    0    0 -0.12753504987E+03 -0.16269332158E+03  0.70703255203E+02  0.21847941809E+03  0.00000000000E+00 0. -1.
    9900018    1    3    3    0    0 -0.39021859218E+02  0.28633127723E+02  0.31710943257E+03  0.33349082764E+03  0.91187600000E+02 0.  0.
<mgrwt>
<rscale>  0 0.10307352E+04</rscale>
<asrwt>0</asrwt>
<pdfrwt beam="1">  1        2 0.10620548E+00 0.10307352E+04</pdfrwt>
<pdfrwt beam="2">  1       -2 0.59191672E-01 0.10307352E+04</pdfrwt>
<totfact> 0.11083794E+02</totfact>
</mgrwt>
</event>
<event>
12    1  0.1022686E-011  0.9321144E+03  0.7818608E-02  0.9386304E-01
          1   -1    0    0  501    0  0.00000000000E+00  0.00000000000E+00  0.18114622049E+03  0.18114622049E+03  0.00000000000E+00 0. -1.
         -1   -1    0    0    0  501 -0.00000000000E+00 -0.00000000000E+00 -0.11990826893E+04  0.11990826893E+04  0.00000000000E+00 0.  1.
    9900016    2    1    2    0    0  0.56472147547E+02 -0.84142396343E+02 -0.54483742819E+03  0.89639862079E+03  0.70456626224E+03 0.  0.
         23    2    3    3    0    0 -0.13450902341E+03 -0.13816374521E+03 -0.53019178019E+03  0.56889367297E+03  0.73176427189E+02 0.  0.
         23    2    3    3    0    0  0.88501703753E+02 -0.68802040007E+01  0.23923886453E+02  0.13613739292E+03  0.10040492336E+03 0.  0.
        -15    1    4    4    0    0 -0.38506657405E+02 -0.26233968575E+02 -0.22714073022E+03  0.23187042739E+03  0.00000000000E+00 0.  1.
        -15    1    5    5    0    0  0.54954648498E+02  0.17439666447E+02  0.58525512957E+02  0.82154677434E+02  0.00000000000E+00 0.  1.
         15    1    5    5    0    0  0.33547055255E+02 -0.24319870448E+02 -0.34601626505E+02  0.53982715490E+02  0.00000000000E+00 0. -1.
         15    1    4    4    0    0 -0.96002366002E+02 -0.11192977664E+03 -0.30305104997E+03  0.33702324558E+03  0.00000000000E+00 0. -1.
        -16    1    1    2    0    0 -0.56472147547E+02  0.84142396343E+02 -0.47309904059E+03  0.48383028896E+03  0.00000000000E+00 0.  1.
         16    1    3    3    0    0  0.81248203439E+02  0.42523485121E+02 -0.13283485257E+02  0.92660500374E+02  0.00000000000E+00 0. -1.
    9900018    1    3    3    0    0  0.21231263762E+02  0.18378067747E+02 -0.25286049198E+02  0.98707054524E+02  0.91187600000E+02 0.  0.
<mgrwt>
<rscale>  0 0.93211436E+03</rscale>
<asrwt>0</asrwt>
<pdfrwt beam="1">  1        1 0.27868649E-01 0.93211436E+03</pdfrwt>
<pdfrwt beam="2">  1       -1 0.18447426E+00 0.93211436E+03</pdfrwt>
<totfact> 0.33015816E+01</totfact>
</mgrwt>
</event>
<event>
11    1  0.1022686E-011  0.1595027E+04  0.7818608E-02  0.8823609E-01
         -2   -1    0    0    0  501 -0.00000000000E+00  0.00000000000E+00  0.13959684517E+04  0.13959684517E+04  0.00000000000E+00 0.  1.
          2   -1    0    0  501    0  0.00000000000E+00 -0.00000000000E+00 -0.45561783198E+03  0.45561783198E+03  0.00000000000E+00 0. -1.
    9900016    2    1    2    0    0  0.20412358033E+03 -0.51715245239E+03  0.18841407439E+03  0.91642765367E+03  0.70372344421E+03 0.  0.
         23    2    3    3    0    0  0.27325507115E+03 -0.11885297192E+03  0.85197863478E+02  0.32291517057E+03  0.90670660074E+02 0.  0.
        -15    1    4    4    0    0  0.12204754433E+03 -0.65174648843E+02  0.85151068569E+02  0.16246243383E+03  0.00000000000E+00 0.  1.
        -15    1    3    3    0    0 -0.61350627337E+02 -0.23806508625E+03  0.29800851935E+02  0.24764283866E+03  0.00000000000E+00 0.  1.
         15    1    4    4    0    0  0.15120752683E+03 -0.53678323079E+02  0.46794909793E-01  0.16045273674E+03  0.00000000000E+00 0. -1.
         15    1    3    3    0    0 -0.51681069577E+01  0.20734598813E+02  0.12407046724E+02  0.24709668672E+02  0.00000000000E+00 0. -1.
        -16    1    1    2    0    0 -0.20412358033E+03  0.51715245239E+03  0.75193654529E+03  0.93515862997E+03  0.00000000000E+00 0.  1.
         16    1    3    3    0    0 -0.82912479604E+02 -0.14141924415E+03  0.94294017347E+02  0.18911701033E+03  0.00000000000E+00 0. -1.
    9900018    1    3    3    0    0  0.80299723071E+02 -0.39549748883E+02 -0.33285705098E+02  0.13204296543E+03  0.91187600000E+02 0.  0.
<mgrwt>
<rscale>  0 0.15950274E+04</rscale>
<asrwt>0</asrwt>
<pdfrwt beam="1">  1        2 0.70095052E-01 0.15950274E+04</pdfrwt>
<pdfrwt beam="2">  1       -2 0.21476438E+00 0.15950274E+04</pdfrwt>
<totfact> 0.70139770E+00</totfact>
</mgrwt>
</event>
<event>
11    1  0.1022686E-011  0.1218365E+04  0.7818608E-02  0.9096932E-01
          2   -1    0    0  501    0  0.00000000000E+00  0.00000000000E+00  0.61689419815E+03  0.61689419815E+03  0.00000000000E+00 0. -1.
         -2   -1    0    0    0  501 -0.00000000000E+00 -0.00000000000E+00 -0.60156729471E+03  0.60156729471E+03  0.00000000000E+00 0.  1.
    9900016    2    1    2    0    0  0.71348589084E+02  0.18449809095E+03  0.35822173152E+03  0.82259910534E+03  0.71359394086E+03 0.  0.
         23    2    3    3    0    0  0.16683174708E+03 -0.97290523772E+01  0.84999530923E+02  0.20580266164E+03  0.84866536321E+02 0.  0.
        -15    1    3    3    0    0 -0.51056466718E+02 -0.13186118434E+02  0.18030572952E+02  0.55729149231E+02  0.00000000000E+00 0.  1.
        -15    1    4    4    0    0  0.10688785939E+03 -0.46428173313E+02  0.60977826787E+02  0.13152522618E+03  0.00000000000E+00 0.  1.
         15    1    4    4    0    0  0.59943887686E+02  0.36699120936E+02  0.24021704136E+02  0.74277435456E+02  0.00000000000E+00 0. -1.
         15    1    3    3    0    0 -0.45814841954E+02 -0.46558113548E+02  0.25933651632E+02  0.70279527370E+02  0.00000000000E+00 0. -1.
        -16    1    1    2    0    0 -0.71348589084E+02 -0.18449809095E+03 -0.34289482809E+03  0.39586238752E+03  0.00000000000E+00 0.  1.
         16    1    3    3    0    0 -0.12985543836E+03  0.19585831681E+03  0.43571446318E+02  0.23900080767E+03  0.00000000000E+00 0. -1.
    9900018    1    3    3    0    0  0.13124358904E+03  0.58113058498E+02  0.18568652970E+03  0.25178695942E+03  0.91187600000E+02 0.  0.
<mgrwt>
<rscale>  0 0.12183651E+04</rscale>
<asrwt>0</asrwt>
<pdfrwt beam="1">  1        2 0.94906800E-01 0.12183651E+04</pdfrwt>
<pdfrwt beam="2">  1       -2 0.92548815E-01 0.12183651E+04</pdfrwt>
<totfact> 0.46830003E+01</totfact>
</mgrwt>
</event>
<event>
12    1  0.1022686E-011  0.1404626E+04  0.7818608E-02  0.8950476E-01
          2   -1    0    0  501    0  0.00000000000E+00  0.00000000000E+00  0.50631121702E+03  0.50631121702E+03  0.00000000000E+00 0. -1.
         -2   -1    0    0    0  501 -0.00000000000E+00 -0.00000000000E+00 -0.97419105198E+03  0.97419105198E+03  0.00000000000E+00 0.  1.
    9900016    2    1    2    0    0 -0.22022942894E+03 -0.33084914934E+03  0.60809921402E+02  0.81908332500E+03  0.71360877641E+03 0.  0.
         23    2    3    3    0    0 -0.32478176850E+02 -0.30966743349E+03  0.17199885416E+03  0.36415842407E+03  0.77967946309E+02 0.  0.
         23    2    3    3    0    0 -0.10917153336E+03  0.47215921722E+02 -0.20605645456E+03  0.25500635486E+03  0.91767159653E+02 0.  0.
        -15    1    5    5    0    0 -0.81656057836E+02  0.69353393717E+02 -0.18530452189E+03  0.21404525417E+03  0.00000000000E+00 0.  1.
        -15    1    4    4    0    0 -0.32578511174E+02 -0.15727606987E+03  0.47830339935E+02  0.16758539007E+03  0.00000000000E+00 0.  1.
         15    1    4    4    0    0  0.10033432409E+00 -0.15239136362E+03  0.12416851423E+03  0.19657303401E+03  0.00000000000E+00 0. -1.
         15    1    5    5    0    0 -0.27515475522E+02 -0.22137471995E+02 -0.20751932672E+02  0.40961100683E+02  0.00000000000E+00 0. -1.
        -16    1    1    2    0    0  0.22022942894E+03  0.33084914934E+03 -0.52868975637E+03  0.66141894400E+03  0.00000000000E+00 0.  1.
         16    1    3    3    0    0  0.16072760154E+02  0.13590499684E+02  0.12339724183E+02  0.24398854349E+02  0.00000000000E+00 0. -1.
    9900018    1    3    3    0    0 -0.94652478881E+02 -0.81988137260E+02  0.82527797617E+02  0.17551969172E+03  0.91187600000E+02 0.  0.
<mgrwt>
<rscale>  0 0.14046264E+04</rscale>
<asrwt>0</asrwt>
<pdfrwt beam="1">  1        2 0.77894034E-01 0.14046264E+04</pdfrwt>
<pdfrwt beam="2">  1       -2 0.14987555E+00 0.14046264E+04</pdfrwt>
<totfact> 0.17714617E+01</totfact>
</mgrwt>
</event>
<event>
12    1  0.1022686E-011  0.9981711E+03  0.7818608E-02  0.9310553E-01
          1   -1    0    0  501    0  0.00000000000E+00  0.00000000000E+00  0.14359061911E+04  0.14359061911E+04  0.00000000000E+00 0. -1.
         -1   -1    0    0    0  501 -0.00000000000E+00 -0.00000000000E+00 -0.17346981836E+03  0.17346981836E+03  0.00000000000E+00 0.  1.
    9900016    2    1    2    0    0  0.24261702174E+02 -0.23710492094E+03  0.10756166278E+04  0.13065410861E+04  0.70234685581E+03 0.  0.
         23    2    3    3    0    0 -0.28142866914E+02 -0.40425528899E+02 -0.26831496502E+02  0.11832750180E+03  0.10418840690E+03 0.  0.
         23    2    3    3    0    0  0.16357176720E+03 -0.14968118421E+03  0.48051928282E+03  0.53658237000E+03  0.88666108000E+02 0.  0.
        -15    1    4    4    0    0 -0.22644688541E+01 -0.46061342708E+02  0.30420286692E+02  0.55246438381E+02  0.00000000000E+00 0. -1.
        -15    1    5    5    0    0  0.51590820961E+02 -0.19713166703E+02  0.55738713124E+02  0.78466718356E+02  0.00000000000E+00 0.  1.
         15    1    4    4    0    0 -0.25878398060E+02  0.56358138097E+01 -0.57251783194E+02  0.63081063421E+02  0.00000000000E+00 0.  1.
         15    1    5    5    0    0  0.11198094624E+03 -0.12996801750E+03  0.42478056969E+03  0.45811565164E+03  0.00000000000E+00 0. -1.
        -16    1    1    2    0    0 -0.24261702174E+02  0.23710492094E+03  0.18681974498E+03  0.30283492342E+03  0.00000000000E+00 0.  1.
         16    1    3    3    0    0 -0.90005139923E+02 -0.39458944841E+02  0.26785674926E+03  0.28531591554E+03  0.00000000000E+00 0. -1.
    9900018    1    3    3    0    0 -0.21162058189E+02 -0.75392629974E+01  0.35407209221E+03  0.36631529871E+03  0.91187600000E+02 0.  0.
<mgrwt>
<rscale>  0 0.99817110E+03</rscale>
<asrwt>0</asrwt>
<pdfrwt beam="1">  1        1 0.22090864E+00 0.99817110E+03</pdfrwt>
<pdfrwt beam="2">  1       -1 0.26687665E-01 0.99817110E+03</pdfrwt>
<totfact> 0.90947127E+01</totfact>
</mgrwt>
</event>
<event>
12    1  0.1022686E-011  0.9669599E+03  0.7818608E-02  0.9345544E-01
          1   -1    0    0  501    0  0.00000000000E+00  0.00000000000E+00  0.13330054983E+04  0.13330054983E+04  0.00000000000E+00 0. -1.
         -1   -1    0    0    0  501 -0.00000000000E+00 -0.00000000000E+00 -0.17535775886E+03  0.17535775886E+03  0.00000000000E+00 0.  1.
    9900016    2    1    2    0    0 -0.29818530031E+02  0.16645756934E+03  0.11145662222E+04  0.13338545632E+04  0.71296063363E+03 0.  0.
         23    2    3    3    0    0 -0.57439074446E+02 -0.10919341482E+03  0.18371684271E+03  0.24769663471E+03  0.11126228218E+03 0.  0.
         23    2    3    3    0    0  0.73686111944E+02 -0.26121558588E+01  0.42828789259E+03  0.44435092312E+03  0.92632378190E+02 0.  0.
        -15    1    4    4    0    0  0.23048572409E+02 -0.44993490117E+02  0.11003191412E+03  0.12108952460E+03  0.00000000000E+00 0.  1.
        -15    1    5    5    0    0 -0.12832380050E+02 -0.17386232417E+02  0.33069787941E+02  0.39503948282E+02  0.00000000000E+00 0.  1.
         15    1    4    4    0    0 -0.80487646855E+02 -0.64199924706E+02  0.73684928594E+02  0.12660711011E+03  0.00000000000E+00 0. -1.
         15    1    5    5    0    0  0.86518491994E+02  0.14774076558E+02  0.39521810465E+03  0.40484697484E+03  0.00000000000E+00 0. -1.
        -16    1    1    2    0    0  0.29818530031E+02 -0.16645756934E+03  0.43081517268E+02  0.17450869392E+03  0.00000000000E+00 0.  1.
         16    1    3    3    0    0 -0.18772490789E+02  0.21591923572E+03  0.13107815366E+03  0.25328838334E+03  0.00000000000E+00 0. -1.
    9900018    1    3    3    0    0 -0.27293076741E+02  0.62343904301E+02  0.37148333320E+03  0.38851862205E+03  0.91187600000E+02 0.  0.
<mgrwt>
<rscale>  0 0.96695989E+03</rscale>
<asrwt>0</asrwt>
<pdfrwt beam="1">  1        1 0.20507776E+00 0.96695989E+03</pdfrwt>
<pdfrwt beam="2">  1       -1 0.26978118E-01 0.96695989E+03</pdfrwt>
<totfact> 0.10562695E+02</totfact>
</mgrwt>
</event>
<event>
12    1  0.1022686E-011  0.8154227E+03  0.7818608E-02  0.9537958E-01
         -2   -1    0    0    0  501 -0.00000000000E+00  0.00000000000E+00  0.18510066823E+03  0.18510066823E+03  0.00000000000E+00 0.  1.
          2   -1    0    0  501    0  0.00000000000E+00 -0.00000000000E+00 -0.89804389527E+03  0.89804389527E+03  0.00000000000E+00 0. -1.
    9900016    2    1    2    0    0 -0.40172794922E+02  0.84851421699E+02 -0.62416294823E+03  0.95393328256E+03  0.71525918687E+03 0.  0.
         23    2    3    3    0    0 -0.31176311246E+02  0.11907276163E+03 -0.72836292485E+02  0.16276626511E+03  0.77701007782E+02 0.  0.
         23    2    3    3    0    0  0.36785091043E+01  0.13671228217E+03  0.34290580672E+02  0.16768480846E+03  0.90766577209E+02 0.  0.
        -15    1    4    4    0    0  0.20794488421E+02  0.41984802902E+02 -0.46792395711E+02  0.66216785786E+02  0.00000000000E+00 0. -1.
        -15    1    5    5    0    0 -0.29535263264E+02  0.11905565524E+03  0.41282925491E+02  0.12942511641E+03  0.00000000000E+00 0. -1.
         15    1    4    4    0    0 -0.51970799667E+02  0.77087958730E+02 -0.26043896773E+02  0.96549479327E+02  0.00000000000E+00 0.  1.
         15    1    5    5    0    0  0.33213772368E+02  0.17656626935E+02 -0.69923448185E+01  0.38259692049E+02  0.00000000000E+00 0.  1.
        -16    1    1    2    0    0  0.40172794922E+02 -0.84851421699E+02 -0.88780278807E+02  0.12921128094E+03  0.00000000000E+00 0.  1.
         16    1    3    3    0    0 -0.32106713822E+02 -0.52615433539E+02 -0.13639476894E+03  0.14967550873E+03  0.00000000000E+00 0. -1.
    9900018    1    3    3    0    0  0.19431721041E+02 -0.11831818856E+03 -0.44922246748E+03  0.47380670026E+03  0.91187600000E+02 0.  0.
<mgrwt>
<rscale>  0 0.81542265E+03</rscale>
<asrwt>0</asrwt>
<pdfrwt beam="1">  1        2 0.13816060E+00 0.81542265E+03</pdfrwt>
<pdfrwt beam="2">  1       -2 0.28477025E-01 0.81542265E+03</pdfrwt>
<totfact> 0.33351959E+02</totfact>
</mgrwt>
</event>
<event>
12    1  0.1022686E-011  0.9891392E+03  0.7818608E-02  0.9320538E-01
          1   -1    0    0  501    0  0.00000000000E+00  0.00000000000E+00  0.12416524674E+04  0.12416524674E+04  0.00000000000E+00 0. -1.
         -1   -1    0    0    0  501 -0.00000000000E+00 -0.00000000000E+00 -0.19699479195E+03  0.19699479195E+03  0.00000000000E+00 0.  1.
    9900016    2    1    2    0    0  0.54833540280E+02 -0.22469819138E+03  0.89134887538E+03  0.11611592731E+04  0.70731325836E+03 0.  0.
         23    2    3    3    0    0 -0.35649107796E+02 -0.16675901232E+03  0.28494538829E+03  0.34911730881E+03  0.10774782563E+03 0.  0.
         23    2    3    3    0    0 -0.24927812598E+01  0.55628958544E+02 -0.49065114062E+02  0.11972701724E+03  0.93948806547E+02 0.  0.
        -15    1    4    4    0    0 -0.44019785489E+02 -0.39890106978E+02  0.35677221511E+02  0.69295211119E+02  0.00000000000E+00 0.  1.
        -15    1    5    5    0    0  0.20503986603E+02 -0.46911671704E+01 -0.50974491696E+02  0.55143624470E+02  0.00000000000E+00 0. -1.
         15    1    5    5    0    0 -0.22996767863E+02  0.60320125715E+02  0.19093776346E+01  0.64583392767E+02  0.00000000000E+00 0.  1.
         15    1    4    4    0    0  0.83706776930E+01 -0.12686890534E+03  0.24926816678E+03  0.27982209769E+03  0.00000000000E+00 0. -1.
        -16    1    1    2    0    0 -0.54833540280E+02  0.22469819138E+03  0.15330880005E+03  0.27748798627E+03  0.00000000000E+00 0.  1.
         16    1    3    3    0    0  0.89385901029E+02 -0.36185093942E+02  0.37880593607E+03  0.39088762775E+03  0.00000000000E+00 0. -1.
    9900018    1    3    3    0    0  0.35895283072E+01 -0.77383043665E+02  0.27666266508E+03  0.30142731927E+03  0.91187600000E+02 0.  0.
<mgrwt>
<rscale>  0 0.98913916E+03</rscale>
<asrwt>0</asrwt>
<pdfrwt beam="1">  1        1 0.19102345E+00 0.98913916E+03</pdfrwt>
<pdfrwt beam="2">  1       -1 0.30306892E-01 0.98913916E+03</pdfrwt>
<totfact> 0.10009248E+02</totfact>
</mgrwt>
</event>
<event>
11    1  0.1022686E-011  0.9584808E+03  0.7818608E-02  0.9355292E-01
          1   -1    0    0  501    0  0.00000000000E+00  0.00000000000E+00  0.83510091250E+03  0.83510091250E+03  0.00000000000E+00 0. -1.
         -1   -1    0    0    0  501 -0.00000000000E+00 -0.00000000000E+00 -0.27502226054E+03  0.27502226054E+03  0.00000000000E+00 0.  1.
    9900016    2    1    2    0    0 -0.72885588843E+01 -0.12488412245E+03  0.24013592943E+03  0.76659367965E+03  0.71718298777E+03 0.  0.
         23    2    3    3    0    0 -0.10505567547E+03 -0.18417917845E+03  0.10096499330E+03  0.25177577189E+03  0.90765878583E+02 0.  0.
        -15    1    3    3    0    0 -0.60193636797E+02  0.45880841170E+02  0.35147915594E+02  0.83448795485E+02  0.00000000000E+00 0.  1.
        -15    1    4    4    0    0 -0.57061414513E+02 -0.36819047520E+02  0.20878297955E+01  0.67941197514E+02  0.00000000000E+00 0. -1.
         15    1    3    3    0    0  0.31275314555E+02  0.58127284334E+01 -0.78927916691E+02  0.85097292234E+02  0.00000000000E+00 0. -1.
         15    1    4    4    0    0 -0.47994260960E+02 -0.14736013093E+03  0.98877163505E+02  0.18383457438E+03  0.00000000000E+00 0.  1.
        -16    1    3    3    0    0  0.17310742123E+03 -0.23401834764E+02  0.63267139211E+02  0.18578631828E+03  0.00000000000E+00 0.  1.
         16    1    1    2    0    0  0.72885588843E+01  0.12488412245E+03  0.31994272252E+03  0.34352949339E+03  0.00000000000E+00 0. -1.
    9900018    1    3    3    0    0 -0.46421982401E+02  0.31003321163E+02  0.11968379802E+03  0.16048550176E+03  0.91187600000E+02 0.  0.
<mgrwt>
<rscale>  0 0.95848076E+03</rscale>
<asrwt>0</asrwt>
<pdfrwt beam="1">  1        1 0.12847706E+00 0.95848076E+03</pdfrwt>
<pdfrwt beam="2">  1       -1 0.42311117E-01 0.95848076E+03</pdfrwt>
<totfact> 0.11370729E+02</totfact>
</mgrwt>
</event>
<event>
12    1  0.1022686E-011  0.9103751E+03  0.7818608E-02  0.9412704E-01
          2   -1    0    0  501    0  0.00000000000E+00  0.00000000000E+00  0.11890267467E+04  0.11890267467E+04  0.00000000000E+00 0.  1.
         -2   -1    0    0    0  501 -0.00000000000E+00 -0.00000000000E+00 -0.17425656291E+03  0.17425656291E+03  0.00000000000E+00 0. -1.
    9900016    2    1    2    0    0 -0.13856640444E+03 -0.88439769550E+02  0.74221742575E+03  0.10449953155E+04  0.71701203689E+03 0.  0.
         23    2    3    3    0    0 -0.13225392460E+03 -0.16822443231E+03  0.24226386612E+03  0.33137960850E+03  0.73007560564E+02 0.  0.
         23    2    3    3    0    0 -0.63961213699E+02  0.98206030057E+02 -0.30976132968E+02  0.15192418717E+03  0.91574978218E+02 0.  0.
        -15    1    5    5    0    0 -0.42486476422E+02  0.10225821559E+03  0.38602737386E+01  0.11080047405E+03  0.00000000000E+00 0.  1.
        -15    1    4    4    0    0 -0.34390714138E+01 -0.53440009975E+02  0.55933381788E+02  0.77435166924E+02  0.00000000000E+00 0.  1.
         15    1    5    5    0    0 -0.21474737276E+02 -0.40521855379E+01 -0.34836406707E+02  0.41123713122E+02  0.00000000000E+00 0. -1.
         15    1    4    4    0    0 -0.12881485319E+03 -0.11478442233E+03  0.18633048434E+03  0.25394444157E+03  0.00000000000E+00 0. -1.
        -16    1    1    2    0    0  0.13856640444E+03  0.88439769550E+02  0.27255275801E+03  0.31828799408E+03  0.00000000000E+00 0.  1.
         16    1    3    3    0    0  0.20292442177E+02 -0.68733550258E+02  0.18038976605E+03  0.19410448691E+03  0.00000000000E+00 0. -1.
    9900018    1    3    3    0    0  0.37356291684E+02  0.50312182961E+02  0.35053992654E+03  0.36758703293E+03  0.91187600000E+02 0.  0.
<mgrwt>
<rscale>  0 0.91037512E+03</rscale>
<asrwt>0</asrwt>
<pdfrwt beam="1">  1        2 0.18292719E+00 0.91037512E+03</pdfrwt>
<pdfrwt beam="2">  1       -2 0.26808703E-01 0.91037512E+03</pdfrwt>
<totfact> 0.24301716E+02</totfact>
</mgrwt>
</event>
<event>
12    1  0.1022686E-011  0.9677830E+03  0.7818608E-02  0.9344603E-01
         -2   -1    0    0    0  501 -0.00000000000E+00  0.00000000000E+00  0.47510185521E+03  0.47510185521E+03  0.00000000000E+00 0.  1.
          2   -1    0    0  501    0  0.00000000000E+00 -0.00000000000E+00 -0.49284375260E+03  0.49284375260E+03  0.00000000000E+00 0. -1.
    9900016    2    1    2    0    0 -0.17080983572E+03 -0.13278370444E+03  0.51531602690E+02  0.74077534136E+03  0.70660108134E+03 0.  0.
         23    2    3    3    0    0 -0.60965781679E+02 -0.19639729834E+03  0.10375751786E+03  0.23829916780E+03  0.61091288500E+02 0.  0.
         23    2    3    3    0    0 -0.13440174893E+03 -0.21233648044E+01  0.40155381782E+02  0.16660268935E+03  0.89864690623E+02 0.  0.
        -15    1    5    5    0    0 -0.94703591869E+02 -0.38052251382E+02  0.47471530088E+02  0.11256238411E+03  0.00000000000E+00 0.  1.
        -15    1    4    4    0    0 -0.65007641796E+02 -0.10820514238E+03  0.59998416559E+02  0.13976464617E+03  0.00000000000E+00 0.  1.
         15    1    5    5    0    0 -0.39698157060E+02  0.35928886577E+02 -0.73161483058E+01  0.54040305242E+02  0.00000000000E+00 0. -1.
         15    1    4    4    0    0  0.40418601168E+01 -0.88192155965E+02  0.43759101298E+02  0.98534521632E+02  0.00000000000E+00 0. -1.
        -16    1    3    3    0    0  0.13338817977E+03 -0.18409217686E+02 -0.10441114723E+03  0.17039070827E+03  0.00000000000E+00 0.  1.
         16    1    1    2    0    0  0.17080983572E+03  0.13278370444E+03 -0.69273500083E+02  0.22717026645E+03  0.00000000000E+00 0. -1.
    9900018    1    3    3    0    0 -0.10883048488E+03  0.84146176387E+02  0.12029850284E+02  0.16548277593E+03  0.91187600000E+02 0.  0.
<mgrwt>
<rscale>  0 0.96778299E+03</rscale>
<asrwt>0</asrwt>
<pdfrwt beam="1">  1        2 0.75822116E-01 0.96778299E+03</pdfrwt>
<pdfrwt beam="2">  1       -2 0.73092593E-01 0.96778299E+03</pdfrwt>
<totfact> 0.10595082E+02</totfact>
</mgrwt>
</event>
<event>
12    1  0.1022686E-011  0.8471716E+03  0.7818608E-02  0.9494141E-01
          2   -1    0    0  501    0  0.00000000000E+00  0.00000000000E+00  0.13331700058E+03  0.13331700058E+03  0.00000000000E+00 0. -1.
         -2   -1    0    0    0  501 -0.00000000000E+00 -0.00000000000E+00 -0.13458517971E+04  0.13458517971E+04  0.00000000000E+00 0.  1.
    9900016    2    1    2    0    0 -0.84095226947E+02 -0.59070217843E+02 -0.11487054567E+04  0.13581915996E+04  0.71735548875E+03 0.  0.
         23    2    3    3    0    0  0.82103214950E+00  0.16870887160E+03 -0.21215711274E+03  0.28045028437E+03  0.71960850935E+02 0.  0.
         23    2    3    3    0    0  0.41155816551E+02 -0.13367344362E+03 -0.13886410921E+03  0.21735970310E+03  0.91649380471E+02 0.  0.
        -15    1    4    4    0    0  0.34262056912E+02  0.10606685353E+03 -0.14321442305E+03  0.18147847512E+03  0.00000000000E+00 0.  1.
        -15    1    5    5    0    0 -0.26746640590E+02 -0.16328300461E+02 -0.31372064595E+02  0.44341883313E+02  0.00000000000E+00 0.  1.
         15    1    4    4    0    0 -0.33441024762E+02  0.62642018069E+02 -0.68942689681E+02  0.98971809246E+02  0.00000000000E+00 0. -1.
         15    1    5    5    0    0  0.67902457141E+02 -0.11734514316E+03 -0.10749204461E+03  0.17301781979E+03  0.00000000000E+00 0. -1.
        -16    1    1    2    0    0  0.84095226947E+02  0.59070217843E+02 -0.63829339873E+02  0.12097719810E+03  0.00000000000E+00 0.  1.
         16    1    3    3    0    0  0.74487685578E+02  0.74646575036E+01 -0.25872504468E+03  0.26933767869E+03  0.00000000000E+00 0. -1.
    9900018    1    3    3    0    0 -0.20055976123E+03 -0.10157030332E+03 -0.53895919005E+03  0.59104393346E+03  0.91187600000E+02 0.  0.
<mgrwt>
<rscale>  0 0.84717159E+03</rscale>
<asrwt>0</asrwt>
<pdfrwt beam="1">  1        2 0.20510308E-01 0.84717159E+03</pdfrwt>
<pdfrwt beam="2">  1       -2 0.20705412E+00 0.84717159E+03</pdfrwt>
<totfact> 0.33387373E+01</totfact>
</mgrwt>
</event>
<event>
12    1  0.1022686E-011  0.1347466E+04  0.7818608E-02  0.8992748E-01
         -2   -1    0    0    0  501 -0.00000000000E+00  0.00000000000E+00  0.23670598070E+03  0.23670598070E+03  0.00000000000E+00 0.  1.
          2   -1    0    0  501    0  0.00000000000E+00 -0.00000000000E+00 -0.19176379166E+04  0.19176379166E+04  0.00000000000E+00 0. -1.
    9900016    2    1    2    0    0  0.28036987949E+02  0.42746060769E+02 -0.18476321739E+04  0.19799814363E+04  0.70990741627E+03 0.  0.
         23    2    3    3    0    0 -0.32940395558E+02 -0.11025494920E+03 -0.19637382362E+03  0.23950764864E+03  0.74565485815E+02 0.  0.
         23    2    3    3    0    0  0.52174298119E+02 -0.51684746064E+02 -0.21424682336E+03  0.24481127830E+03  0.92937561321E+02 0.  0.
        -15    1    4    4    0    0 -0.38838607562E+00 -0.57999600268E+02 -0.15456272242E+03  0.16508706684E+03  0.00000000000E+00 0.  1.
        -15    1    5    5    0    0  0.56404433554E+02 -0.75105712645E+02 -0.15925976908E+03  0.18489457062E+03  0.00000000000E+00 0. -1.
         15    1    4    4    0    0 -0.32552009482E+02 -0.52255348928E+02 -0.41811101195E+02  0.74420581804E+02  0.00000000000E+00 0. -1.
         15    1    5    5    0    0 -0.42301354349E+01  0.23420966582E+02 -0.54987054273E+02  0.59916707679E+02  0.00000000000E+00 0.  1.
        -16    1    1    2    0    0 -0.28036987949E+02 -0.42746060769E+02  0.16670023807E+03  0.17436246092E+03  0.00000000000E+00 0.  1.
         16    1    3    3    0    0 -0.71630936474E+02  0.18019978574E+02 -0.10217675619E+04  0.10244338247E+04  0.00000000000E+00 0. -1.
    9900018    1    3    3    0    0  0.80434021863E+02  0.18666577746E+03 -0.41524396508E+03  0.47122868469E+03  0.91187600000E+02 0.  0.
<mgrwt>
<rscale>  0 0.13474663E+04</rscale>
<asrwt>0</asrwt>
<pdfrwt beam="1">  1        2 0.29502122E+00 0.13474663E+04</pdfrwt>
<pdfrwt beam="2">  1       -2 0.36416304E-01 0.13474663E+04</pdfrwt>
<totfact> 0.51506295E+01</totfact>
</mgrwt>
</event>
<event>
12    1  0.1022686E-011  0.2130608E+04  0.7818608E-02  0.8547879E-01
         -1   -1    0    0    0  501 -0.00000000000E+00  0.00000000000E+00  0.91432416918E+03  0.91432416918E+03  0.00000000000E+00 0.  1.
          1   -1    0    0  501    0  0.00000000000E+00 -0.00000000000E+00 -0.12412144520E+04  0.12412144520E+04  0.00000000000E+00 0. -1.
    9900016    2    1    2    0    0  0.11062810382E+03  0.84372217587E+03  0.24709306390E+03  0.11291066606E+04  0.69980081548E+03 0.  0.
         23    2    3    3    0    0 -0.12338850511E+03  0.29800237304E+03 -0.12479381725E+03  0.36485199894E+03  0.11624692157E+03 0.  0.
         23    2    3    3    0    0  0.14197329778E+03  0.18518464415E+03  0.23402058680E+03  0.34347984551E+03  0.93610894212E+02 0.  0.
        -15    1    4    4    0    0 -0.65928785581E+02  0.97011611487E+02 -0.10039070653E+03  0.15438960940E+03  0.00000000000E+00 0.  1.
        -15    1    5    5    0    0  0.14347801884E+03  0.16748586531E+03  0.17408643229E+03  0.28096893578E+03  0.00000000000E+00 0.  1.
         15    1    4    4    0    0 -0.57459719529E+02  0.20099076155E+03 -0.24403110718E+02  0.21046238954E+03  0.00000000000E+00 0. -1.
         15    1    5    5    0    0 -0.15047210652E+01  0.17698778846E+02  0.59934154510E+02  0.62510909727E+02  0.00000000000E+00 0. -1.
        -16    1    3    3    0    0  0.28327871065E+01  0.12058636626E+03  0.11769217624E+02  0.12119245395E+03  0.00000000000E+00 0.  1.
         16    1    1    2    0    0 -0.11062810382E+03 -0.84372217587E+03 -0.57398334672E+03  0.10264319606E+04  0.00000000000E+00 0. -1.
    9900018    1    3    3    0    0  0.89210524045E+02  0.23994879241E+03  0.12609707673E+03  0.29958236219E+03  0.91187600000E+02 0.  0.
<mgrwt>
<rscale>  0 0.21306078E+04</rscale>
<asrwt>0</asrwt>
<pdfrwt beam="1">  1        1 0.19095607E+00 0.21306078E+04</pdfrwt>
<pdfrwt beam="2">  1       -1 0.14066526E+00 0.21306078E+04</pdfrwt>
<totfact> 0.37868349E+00</totfact>
</mgrwt>
</event>
<event>
12    1  0.1022686E-011  0.1008749E+04  0.7818608E-02  0.9299001E-01
          2   -1    0    0  501    0  0.00000000000E+00  0.00000000000E+00  0.73841768863E+03  0.73841768863E+03  0.00000000000E+00 0. -1.
         -2   -1    0    0    0  501 -0.00000000000E+00 -0.00000000000E+00 -0.34451159322E+03  0.34451159322E+03  0.00000000000E+00 0.  1.
    9900016    2    1    2    0    0 -0.16319958506E+03  0.18183096166E+03  0.35984881670E+03  0.83623817659E+03  0.71421741362E+03 0.  0.
         23    2    3    3    0    0  0.13373962447E+03  0.22488563921E+03  0.27103286564E+02  0.28280281273E+03  0.10384124839E+03 0.  0.
         23    2    3    3    0    0 -0.19905845201E+03  0.44941655671E+02  0.24320799152E+03  0.32927497101E+03  0.87337618833E+02 0.  0.
        -15    1    5    5    0    0 -0.47579156589E+02  0.49040316237E+02  0.97448476190E+02  0.11901652940E+03  0.00000000000E+00 0. -1.
        -15    1    4    4    0    0  0.76332964768E+02  0.12841422130E+03  0.66918007929E+02  0.16369164160E+03  0.00000000000E+00 0. -1.
         15    1    4    4    0    0  0.57406659700E+02  0.96471417908E+02 -0.39814721365E+02  0.11911117113E+03  0.00000000000E+00 0.  1.
         15    1    5    5    0    0 -0.15147929542E+03 -0.40986605665E+01  0.14575951533E+03  0.21025844161E+03  0.00000000000E+00 0.  1.
        -16    1    3    3    0    0  0.26519566492E+02  0.24305695108E+01  0.13679225908E+02  0.29938541990E+02  0.00000000000E+00 0.  1.
         16    1    1    2    0    0  0.16319958506E+03 -0.18183096166E+03  0.34057278717E+02  0.24669110526E+03  0.00000000000E+00 0. -1.
    9900018    1    3    3    0    0 -0.12440032401E+03 -0.90426902732E+02  0.75858312709E+02  0.19422185086E+03  0.91187600000E+02 0.  0.
<mgrwt>
<rscale>  0 0.10087486E+04</rscale>
<asrwt>0</asrwt>
<pdfrwt beam="1">  1        2 0.11360272E+00 0.10087486E+04</pdfrwt>
<pdfrwt beam="2">  1       -2 0.53001784E-01 0.10087486E+04</pdfrwt>
<totfact> 0.12821444E+02</totfact>
</mgrwt>
</event>
