<event>
12    1  0.6668979E-012  0.3533747E+04  0.7818608E-02  0.8403422E-01
         -1   -1    0    0    0  501 -0.00000000000E+00  0.00000000000E+00  0.16024979464E+04  0.16024979464E+04  0.00000000000E+00 0.  1.
          1   -1    0    0  501    0  0.00000000000E+00 -0.00000000000E+00 -0.33487576955E+04  0.33487576955E+04  0.00000000000E+00 0. -1.
        -24    2    1    2    0    0 -0.41275151795E+03  0.77697071614E+03  0.21563497248E+03  0.90942424002E+03  0.80664104034E+02 0.  0.
    9900016    2    1    2    0    0 -0.51877855162E+03 -0.59368576960E+03 -0.78790738825E+03  0.24228897172E+04  0.21512792824E+04 0.  0.
         23    2    4    4    0    0 -0.85876803729E+02  0.60223710005E+03 -0.95754517878E+03  0.11397636854E+04  0.11001881275E+03 0.  0.
        -15    1    1    2    0    0  0.93623956702E+03 -0.12379569983E+03 -0.11780857635E+04  0.15098860779E+04  0.00000000000E+00 0.  1.
        -15    1    5    5    0    0 -0.30319392278E+02  0.50472054536E+03 -0.76881003788E+03  0.92017985677E+03  0.00000000000E+00 0. -1.
         15    1    5    5    0    0 -0.55557411451E+02  0.97516554687E+02 -0.18873514089E+03  0.21958382867E+03  0.00000000000E+00 0.  1.
         15    1    3    3    0    0 -0.23442484622E+03  0.44085069743E+03  0.81117424403E+02  0.50585015814E+03  0.00000000000E+00 0. -1.
        -16    1    3    3    0    0 -0.17832667173E+03  0.33612001871E+03  0.13451754808E+03  0.40357408189E+03  0.00000000000E+00 0.  1.
         16    1    4    4    0    0 -0.43290174789E+03 -0.11959228697E+04  0.16963779053E+03  0.12831260318E+04  0.00000000000E+00 0. -1.
    9900018    1    1    2    0    0 -0.47094974509E+01 -0.59489246704E+02  0.40984302246E+01  0.10905560675E+03  0.91187600000E+02 0.  0.
<mgrwt>
<rscale>  0 0.24987744E+04</rscale>
<asrwt>0</asrwt>
<pdfrwt beam="1">  1        1 0.51519349E+00 0.35337473E+04</pdfrwt>
<pdfrwt beam="2">  1       -1 0.24653815E+00 0.35337473E+04</pdfrwt>
<totfact> 0.18924005E-02</totfact>
</mgrwt>
</event>
<event>
11    1  0.6668979E-012  0.4310667E+04  0.7818608E-02  0.7944649E-01
         -2   -1    0    0    0  501 -0.00000000000E+00  0.00000000000E+00  0.29056480887E+04  0.29056480887E+04  0.00000000000E+00 0. -1.
          2   -1    0    0  501    0  0.00000000000E+00 -0.00000000000E+00 -0.15987696810E+04  0.15987696810E+04  0.00000000000E+00 0.  1.
         24    2    1    2    0    0 -0.48859680861E+03 -0.12843521405E+04  0.18829131691E+03  0.13892808350E+04  0.79751841548E+02 0.  0.
    9900016    2    1    2    0    0  0.54353607947E+03  0.13396522911E+04  0.79282633256E+03  0.27801794720E+04  0.22384647803E+04 0.  0.
        -15    1    3    3    0    0 -0.19232361832E+03 -0.52181851823E+03  0.11533768033E+03  0.56796630238E+03  0.00000000000E+00 0.  1.
        -15    1    4    4    0    0  0.33337048212E+02  0.74713549215E+02 -0.12979436331E+01  0.81823944402E+02  0.00000000000E+00 0.  1.
         15    1    1    2    0    0 -0.54939270870E+02 -0.55300150564E+02  0.32576075823E+03  0.33495746258E+03  0.00000000000E+00 0. -1.
         15    1    4    4    0    0 -0.73715167702E+03  0.54277517663E+03  0.74346963121E+03  0.11792983422E+04  0.00000000000E+00 0. -1.
        -16    1    4    4    0    0  0.12391477722E+04  0.64060910293E+03  0.34350238214E+02  0.13953663186E+04  0.00000000000E+00 0.  1.
         16    1    3    3    0    0 -0.29627319029E+03 -0.76253362226E+03  0.72953636582E+02  0.82131453260E+03  0.00000000000E+00 0. -1.
    9900018    1    4    4    0    0  0.82029360457E+01  0.81554462290E+02  0.16304406777E+02  0.12369086690E+03  0.91187600000E+02 0.  0.
<mgrwt>
<rscale>  0 0.43106668E+04</rscale>
<asrwt>0</asrwt>
<pdfrwt beam="1">  1        2 0.24596457E+00 0.43106668E+04</pdfrwt>
<pdfrwt beam="2">  1       -2 0.44702278E+00 0.43106668E+04</pdfrwt>
<totfact> 0.31232713E-02</totfact>
</mgrwt>
</event>
<event>
11    1  0.6668979E-012  0.2727448E+04  0.7818608E-02  0.8718292E-01
         -1   -1    0    0    0  501 -0.00000000000E+00  0.00000000000E+00  0.12512707787E+04  0.12512707787E+04  0.00000000000E+00 0.  1.
          1   -1    0    0  501    0  0.00000000000E+00 -0.00000000000E+00 -0.22241504810E+04  0.22241504810E+04  0.00000000000E+00 0. -1.
        -24    2    1    2    0    0  0.34641579430E+03  0.34014816809E+03 -0.51044119498E+03  0.70904798699E+03  0.80586323480E+02 0.  0.
    9900016    2    1    2    0    0  0.54748903890E+02 -0.45723185139E+03 -0.31462739981E+03  0.23231015418E+04  0.22551611837E+04 0.  0.
        -15    1    4    4    0    0  0.62168792560E+03 -0.77884676837E+03  0.32329101873E+03  0.10476713455E+04  0.00000000000E+00 0.  1.
        -15    1    1    2    0    0 -0.40116469819E+03  0.11708368329E+03 -0.14781110752E+03  0.44327173097E+03  0.00000000000E+00 0.  1.
         15    1    4    4    0    0  0.56080849763E+02 -0.14900078715E+03 -0.49118101316E+02  0.16660997616E+03  0.00000000000E+00 0. -1.
         15    1    3    3    0    0  0.77611643650E+02  0.95170930581E+02 -0.85048352853E+02  0.14937970271E+03  0.00000000000E+00 0. -1.
        -16    1    3    3    0    0  0.26880415065E+03  0.24497723751E+03 -0.42539284212E+03  0.55966828429E+03  0.00000000000E+00 0.  1.
         16    1    4    4    0    0 -0.64009978054E+03  0.46218061731E+03 -0.62693607892E+03  0.10081604531E+04  0.00000000000E+00 0. -1.
    9900018    1    4    4    0    0  0.17079909071E+02  0.84350868234E+01  0.38135761691E+02  0.10065976702E+03  0.91187600000E+02 0.  0.
<mgrwt>
<rscale>  0 0.17776197E+04</rscale>
<asrwt>0</asrwt>
<pdfrwt beam="1">  1        1 0.34217699E+00 0.27274478E+04</pdfrwt>
<pdfrwt beam="2">  1       -1 0.19250320E+00 0.27274478E+04</pdfrwt>
<totfact> 0.30426585E-01</totfact>
</mgrwt>
</event>
<event>
11    1  0.6668979E-012  0.3513858E+04  0.7818608E-02  0.8110514E-01
          1   -1    0    0  501    0  0.00000000000E+00  0.00000000000E+00  0.18151782684E+04  0.18151782684E+04  0.00000000000E+00 0. -1.
         -1   -1    0    0    0  501 -0.00000000000E+00 -0.00000000000E+00 -0.17005494033E+04  0.17005494033E+04  0.00000000000E+00 0.  1.
        -24    2    1    2    0    0  0.20951266876E+03 -0.39520448571E+03  0.70500492714E+03  0.83866430335E+03  0.79017229283E+02 0.  0.
    9900016    2    1    2    0    0 -0.13683482859E+03  0.61825424857E+03 -0.63720204059E+03  0.23419233108E+04  0.21627797547E+04 0.  0.
        -15    1    4    4    0    0 -0.20589511318E+03 -0.35408537341E+03 -0.71678625578E+03  0.82556149727E+03  0.00000000000E+00 0.  1.
        -15    1    1    2    0    0 -0.57886123872E+02 -0.22048524076E+03  0.72528510764E+02  0.23921732714E+03  0.00000000000E+00 0.  1.
         15    1    3    3    0    0  0.10153925055E+03 -0.11663561386E+03  0.26484859425E+03  0.30669017542E+03  0.00000000000E+00 0. -1.
         15    1    4    4    0    0  0.49373129922E+03  0.49590784574E+02 -0.12867274190E+02  0.49638232089E+03  0.00000000000E+00 0. -1.
        -16    1    3    3    0    0  0.10797341821E+03 -0.27856887184E+03  0.44015633289E+03  0.53197412793E+03  0.00000000000E+00 0.  1.
         16    1    4    4    0    0 -0.42467101463E+03  0.92274883741E+03  0.92451489380E+02  0.10199794927E+04  0.00000000000E+00 0. -1.
    9900018    1    1    2    0    0 -0.14791716296E+02 -0.25645221052E+01 -0.25702532232E+02  0.95922730369E+02  0.91187600000E+02 0.  0.
<mgrwt>
<rscale>  0 0.35138585E+04</rscale>
<asrwt>0</asrwt>
<pdfrwt beam="1">  1        1 0.27925820E+00 0.35138585E+04</pdfrwt>
<pdfrwt beam="2">  1       -1 0.26162298E+00 0.35138585E+04</pdfrwt>
<totfact> 0.18986004E-01</totfact>
</mgrwt>
</event>
<event>
12    1  0.6668979E-012  0.6231904E+04  0.7818608E-02  0.7662295E-01
         -2   -1    0    0    0  501 -0.00000000000E+00  0.00000000000E+00  0.24987746229E+04  0.24987746229E+04  0.00000000000E+00 0. -1.
          2   -1    0    0  501    0  0.00000000000E+00 -0.00000000000E+00 -0.38855672704E+04  0.38855672704E+04  0.00000000000E+00 0.  1.
        -24    2    1    2    0    0 -0.73641812418E+03  0.19663271835E+04 -0.78032031201E+03  0.22414414031E+04  0.80034542846E+02 0.  0.
    9900016    2    1    2    0    0  0.13388523020E+04 -0.16858793652E+04 -0.11140999522E+04  0.33066805940E+04  0.22490449365E+04 0.  0.
         23    2    4    4    0    0  0.32448626145E+03  0.12254375579E+03  0.50870234003E+03  0.62484833512E+03  0.10653199144E+03 0.  0.
        -15    1    5    5    0    0  0.11614400650E+03  0.39427380709E+02  0.98448882157E+02  0.15727724245E+03  0.00000000000E+00 0.  1.
        -15    1    1    2    0    0 -0.60243417785E+03 -0.28044781835E+03  0.50762761680E+03  0.83621989620E+03  0.00000000000E+00 0.  1.
         15    1    5    5    0    0  0.20834225495E+03  0.83116375084E+02  0.41025345787E+03  0.46757109267E+03  0.00000000000E+00 0. -1.
         15    1    3    3    0    0 -0.21712393579E+03  0.51005468021E+03 -0.17894827013E+03  0.58251271546E+03  0.00000000000E+00 0. -1.
        -16    1    3    3    0    0 -0.51929418839E+03  0.14562725033E+04 -0.60137204187E+03  0.16589286877E+04  0.00000000000E+00 0.  1.
         16    1    4    4    0    0  0.96271779895E+03 -0.17117955182E+04 -0.16084978891E+04  0.25385694625E+04  0.00000000000E+00 0. -1.
    9900018    1    4    4    0    0  0.51648241627E+02 -0.96627602739E+02 -0.14304403102E+02  0.14326279634E+03  0.91187600000E+02 0.  0.
<mgrwt>
<rscale>  0 0.62319040E+04</rscale>
<asrwt>0</asrwt>
<pdfrwt beam="1">  1        2 0.59777958E+00 0.62319040E+04</pdfrwt>
<pdfrwt beam="2">  1       -2 0.38442686E+00 0.62319040E+04</pdfrwt>
<totfact> 0.26050802E-03</totfact>
</mgrwt>
</event>
<event>
12    1  0.6668979E-012  0.4675834E+04  0.7818608E-02  0.8243190E-01
         -2   -1    0    0    0  501 -0.00000000000E+00  0.00000000000E+00  0.29769475282E+04  0.29769475282E+04  0.00000000000E+00 0. -1.
          2   -1    0    0  501    0  0.00000000000E+00 -0.00000000000E+00 -0.34469281400E+04  0.34469281400E+04  0.00000000000E+00 0.  1.
        -24    2    1    2    0    0  0.73353204449E+03  0.29392610321E+03  0.12167751169E+04  0.14531040648E+04  0.80671701746E+02 0.  0.
    9900016    2    1    2    0    0 -0.49426625964E+03 -0.17225595356E+04 -0.19805791993E+04  0.34927412141E+04  0.22505636482E+04 0.  0.
         23    2    4    4    0    0 -0.39362193235E+03 -0.35646989906E+03 -0.19423464012E+04  0.20163440742E+04  0.10452209524E+03 0.  0.
        -15    1    1    2    0    0 -0.23926578485E+03  0.14286334324E+04  0.29382347061E+03  0.14780303893E+04  0.00000000000E+00 0.  1.
        -15    1    5    5    0    0 -0.33571958210E+03 -0.34309029793E+03 -0.17748873619E+04  0.18386526963E+04  0.00000000000E+00 0. -1.
         15    1    3    3    0    0  0.46176819338E+03  0.14736306152E+03  0.71007437684E+03  0.85973912146E+03  0.00000000000E+00 0. -1.
         15    1    5    5    0    0 -0.57902350250E+02 -0.13379601126E+02 -0.16745903938E+03  0.17769137784E+03  0.00000000000E+00 0.  1.
        -16    1    3    3    0    0  0.27176385111E+03  0.14656304169E+03  0.50670074007E+03  0.59336494331E+03  0.00000000000E+00 0.  1.
         16    1    4    4    0    0 -0.39863436126E+02 -0.12932775390E+04  0.84259150632E+02  0.12966323654E+04  0.00000000000E+00 0. -1.
    9900018    1    4    4    0    0 -0.60780891160E+02 -0.72812097490E+02 -0.12249194873E+03  0.17976477455E+03  0.91187600000E+02 0.  0.
<mgrwt>
<rscale>  0 0.30018943E+04</rscale>
<asrwt>0</asrwt>
<pdfrwt beam="1">  1        2 0.53029664E+00 0.46758342E+04</pdfrwt>
<pdfrwt beam="2">  1       -2 0.45799193E+00 0.46758342E+04</pdfrwt>
<totfact> 0.19226880E-03</totfact>
</mgrwt>
</event>
<event>
11    1  0.6668979E-012  0.2968663E+04  0.7818608E-02  0.8563279E-01
         -2   -1    0    0    0  501 -0.00000000000E+00  0.00000000000E+00  0.18002182572E+04  0.18002182572E+04  0.00000000000E+00 0.  1.
          2   -1    0    0  501    0  0.00000000000E+00 -0.00000000000E+00 -0.29494426439E+04  0.29494426439E+04  0.00000000000E+00 0. -1.
         24    2    1    2    0    0  0.62531553149E+03  0.38144150731E+03  0.88448878144E+03  0.11511964002E+04  0.80097502878E+02 0.  0.
    9900016    2    1    2    0    0 -0.61714385586E+02 -0.96161473184E+02 -0.12095178056E+04  0.25600383142E+04  0.22533990223E+04 0.  0.
        -15    1    3    3    0    0  0.22638683234E+03  0.14262573167E+03  0.38445327247E+03  0.46839877872E+03  0.00000000000E+00 0.  1.
        -15    1    4    4    0    0  0.82861720119E+02 -0.14374235942E+02  0.61857401436E+02  0.10439837850E+03  0.00000000000E+00 0. -1.
         15    1    4    4    0    0  0.73570292063E+03  0.24267790095E+03  0.39959890763E+02  0.77572427054E+03  0.00000000000E+00 0.  1.
         15    1    1    2    0    0 -0.56360114590E+03 -0.28528003413E+03 -0.82419536255E+03  0.10384261867E+04  0.00000000000E+00 0. -1.
        -16    1    4    4    0    0 -0.90306428244E+03 -0.28927249440E+03 -0.12098349390E+04  0.15371741131E+04  0.00000000000E+00 0.  1.
         16    1    3    3    0    0  0.39892869915E+03  0.23881577564E+03  0.50003550897E+03  0.68279762150E+03  0.00000000000E+00 0. -1.
    9900018    1    4    4    0    0  0.22785256107E+02 -0.35192643797E+02 -0.10150015877E+03  0.14274155210E+03  0.91187600000E+02 0.  0.
<mgrwt>
<rscale>  0 0.20953855E+04</rscale>
<asrwt>0</asrwt>
<pdfrwt beam="1">  1        2 0.45376040E+00 0.29686626E+04</pdfrwt>
<pdfrwt beam="2">  1       -2 0.27695666E+00 0.29686626E+04</pdfrwt>
<totfact> 0.67344486E-02</totfact>
</mgrwt>
</event>
<event>
11    1  0.6668979E-012  0.3820569E+04  0.7818608E-02  0.8506608E-01
         -2   -1    0    0    0  501 -0.00000000000E+00  0.00000000000E+00  0.28338452221E+04  0.28338452221E+04  0.00000000000E+00 0.  1.
          2   -1    0    0  501    0  0.00000000000E+00 -0.00000000000E+00 -0.16120397178E+04  0.16120397178E+04  0.00000000000E+00 0. -1.
        -24    2    1    2    0    0  0.28417315005E+03 -0.32941782085E+03  0.23052882330E+03  0.49881307399E+03  0.80002903109E+02 0.  0.
    9900016    2    1    2    0    0  0.30567729104E+03 -0.78071155928E+03  0.27003810452E+03  0.23256910283E+04  0.21524332826E+04 0.  0.
        -15    1    4    4    0    0 -0.23324595664E+03 -0.15585859275E+03  0.16217958354E+03  0.32403363180E+03  0.00000000000E+00 0.  1.
        -15    1    1    2    0    0 -0.65906607982E+03  0.11385047163E+04  0.72750067415E+03  0.15032692099E+04  0.00000000000E+00 0.  1.
         15    1    3    3    0    0  0.12905595758E+03 -0.12477362165E+03  0.13587198579E+03  0.22513350122E+03  0.00000000000E+00 0. -1.
         15    1    4    4    0    0 -0.22976288275E+03  0.15056480142E+03  0.70538965800E+03  0.75699095855E+03  0.00000000000E+00 0. -1.
        -16    1    3    3    0    0  0.15511719247E+03 -0.20464419920E+03  0.94656837511E+02  0.27367957277E+03  0.00000000000E+00 0.  1.
         16    1    4    4    0    0  0.76868613043E+03 -0.77541776795E+03 -0.59753113701E+03  0.12446664379E+04  0.00000000000E+00 0. -1.
    9900018    1    1    2    0    0  0.69215638720E+02 -0.28375336132E+02 -0.62620976273E+01  0.11811162773E+03  0.91187600000E+02 0.  0.
<mgrwt>
<rscale>  0 0.22286241E+04</rscale>
<asrwt>0</asrwt>
<pdfrwt beam="1">  1        2 0.24800611E+00 0.38205689E+04</pdfrwt>
<pdfrwt beam="2">  1       -2 0.43597619E+00 0.38205689E+04</pdfrwt>
<totfact> 0.37176844E-02</totfact>
</mgrwt>
</event>
