<event>
11    1  0.2059121E-014  0.1062179E+04  0.7818608E-02  0.1002403E+00
          2   -1    0    0  501    0  0.00000000000E+00  0.00000000000E+00  0.51983428034E+03  0.51983428034E+03  0.00000000000E+00 0. -1.
         -2   -1    0    0    0  501 -0.00000000000E+00 -0.00000000000E+00 -0.83982604443E+03  0.83982604443E+03  0.00000000000E+00 0.  1.
        -24    2    1    2    0    0  0.24293749377E+02 -0.23627856129E+02 -0.28756544959E+03  0.29698649856E+03  0.66019926399E+02 0.  0.
         24    2    1    2    0    0  0.16090028393E+03 -0.96406117188E+02  0.20136890291E+03  0.28460307505E+03  0.72570203744E+02 0.  0.
        -15    1    1    2    0    0 -0.11876330312E+03 -0.45877044518E+02 -0.21040184460E+03  0.24592348728E+03  0.00000000000E+00 0.  1.
        -15    1    4    4    0    0  0.16001731736E+02 -0.19322519339E+02  0.70051644592E+02  0.74408655963E+02  0.00000000000E+00 0.  1.
         15    1    1    2    0    0  0.81928297196E+02  0.28293150022E+03  0.69581344046E+02  0.30266159838E+03  0.00000000000E+00 0. -1.
         15    1    3    3    0    0  0.41738942496E+02  0.34840073107E+01 -0.15535510845E+03  0.16090210486E+03  0.00000000000E+00 0. -1.
        -16    1    3    3    0    0 -0.17445193120E+02 -0.27111863440E+02 -0.13221034115E+03  0.13608439370E+03  0.00000000000E+00 0.  1.
         16    1    4    4    0    0  0.14489855219E+03 -0.77083597849E+02  0.13131725832E+03  0.21019441909E+03  0.00000000000E+00 0. -1.
    9900018    1    1    2    0    0 -0.14835902739E+03 -0.11702048238E+03 -0.92974716843E+02  0.22948566550E+03  0.91187600000E+02 0.  0.
<mgrwt>
<rscale>  0 0.54608918E+03</rscale>
<asrwt>0</asrwt>
<pdfrwt beam="1">  1        2 0.79974505E-01 0.10621790E+04</pdfrwt>
<pdfrwt beam="2">  1       -2 0.12920401E+00 0.10621790E+04</pdfrwt>
<totfact> 0.25732175E+01</totfact>
</mgrwt>
</event>
<event>
11    1  0.2059121E-014  0.2739669E+04  0.7818608E-02  0.8322247E-01
         -1   -1    0    0    0  501 -0.00000000000E+00  0.00000000000E+00  0.10249830919E+04  0.10249830919E+04  0.00000000000E+00 0.  1.
          1   -1    0    0  501    0  0.00000000000E+00 -0.00000000000E+00 -0.18307099148E+04  0.18307099148E+04  0.00000000000E+00 0. -1.
    9900016    2    1    2    0    0  0.23641381771E+03  0.44852614080E+03 -0.73422448519E+03  0.19687996300E+04  0.17549983465E+04 0.  0.
         24    2    3    3    0    0 -0.21871368060E+03 -0.16842998949E+03  0.33416820598E+03  0.44051826617E+03  0.78635980940E+02 0.  0.
        -15    1    4    4    0    0 -0.18192445336E+03 -0.16809672014E+03  0.26890530391E+03  0.36559961231E+03  0.00000000000E+00 0.  1.
        -15    1    1    2    0    0 -0.41294668379E+03 -0.24716605325E+03  0.55272586016E+02  0.48442861218E+03  0.00000000000E+00 0.  1.
         15    1    3    3    0    0 -0.78209544708E+02  0.13780186712E+03 -0.69877063448E+03  0.71650993508E+03  0.00000000000E+00 0. -1.
         15    1    1    2    0    0  0.87048918025E+02 -0.44007567966E+02  0.81078266480E+02  0.12683794962E+03  0.00000000000E+00 0. -1.
        -16    1    1    2    0    0  0.89483948050E+02 -0.15735251959E+03 -0.20785319027E+03  0.27562681488E+03  0.00000000000E+00 0.  1.
         16    1    4    4    0    0 -0.36789227235E+02 -0.33326935922E+00  0.65262902073E+02  0.74918653858E+02  0.00000000000E+00 0. -1.
    9900018    1    3    3    0    0  0.53333704302E+03  0.47915426318E+03 -0.36962205669E+03  0.81177142877E+03  0.91187600000E+02 0.  0.
<mgrwt>
<rscale>  0 0.27396691E+04</rscale>
<asrwt>0</asrwt>
<pdfrwt beam="1">  1        1 0.28164768E+00 0.27396691E+04</pdfrwt>
<pdfrwt beam="2">  1       -1 0.15768971E+00 0.27396691E+04</pdfrwt>
<totfact> 0.10282116E+00</totfact>
</mgrwt>
</event>
<event>
11    1  0.2059121E-014  0.2395019E+04  0.7818608E-02  0.8441371E-01
         -1   -1    0    0    0  501 -0.00000000000E+00  0.00000000000E+00  0.14997040117E+04  0.14997040117E+04  0.00000000000E+00 0.  1.
          1   -1    0    0  501    0  0.00000000000E+00 -0.00000000000E+00 -0.95620766610E+03  0.95620766610E+03  0.00000000000E+00 0. -1.
    9900016    2    1    2    0    0  0.34056950711E+03  0.35598003339E+02  0.31935846919E+03  0.17729742758E+04  0.17100272348E+04 0.  0.
        -24    2    3    3    0    0  0.40312153683E+02 -0.37987230063E+03  0.70188715983E+03  0.80315305445E+03  0.80505957682E+02 0.  0.
        -15    1    3    3    0    0  0.45518224266E+03  0.37711726287E+03 -0.48028273129E+03  0.76162970396E+03  0.00000000000E+00 0.  1.
        -15    1    1    2    0    0 -0.35547177524E+02 -0.55912999210E+02  0.32755453591E+02  0.73910655866E+02  0.00000000000E+00 0.  1.
         15    1    1    2    0    0  0.11164420323E+03 -0.73981619203E+02 -0.14659001006E+02  0.13473156425E+03  0.00000000000E+00 0. -1.
         15    1    4    4    0    0  0.37944958557E+02 -0.24079586333E+03  0.36759093797E+03  0.44107319727E+03  0.00000000000E+00 0. -1.
        -16    1    4    4    0    0  0.23671951258E+01 -0.13907643731E+03  0.33429622186E+03  0.36207985718E+03  0.00000000000E+00 0.  1.
         16    1    1    2    0    0 -0.41666653282E+03  0.94296615074E+02  0.20604142379E+03  0.47429518182E+03  0.00000000000E+00 0. -1.
    9900018    1    3    3    0    0 -0.15492488923E+03  0.38353041105E+02  0.97754040648E+02  0.20819151741E+03  0.91187600000E+02 0.  0.
<mgrwt>
<rscale>  0 0.23950186E+04</rscale>
<asrwt>0</asrwt>
<pdfrwt beam="1">  1        1 0.14710887E+00 0.23950186E+04</pdfrwt>
<pdfrwt beam="2">  1       -1 0.23072369E+00 0.23950186E+04</pdfrwt>
<totfact> 0.13713472E+00</totfact>
</mgrwt>
</event>
