<event>
11    1  0.2815681E-016  0.2823725E+04  0.7818608E-02  0.8507200E-01
         -2   -1    0    0    0  501 -0.00000000000E+00  0.00000000000E+00  0.15057319289E+04  0.15057319289E+04  0.00000000000E+00 0. -1.
          2   -1    0    0  501    0  0.00000000000E+00 -0.00000000000E+00 -0.26043732461E+04  0.26043732461E+04  0.00000000000E+00 0.  1.
    9900016    2    1    2    0    0 -0.31446749919E+03 -0.38962454494E+03 -0.40978581289E+03  0.21561175621E+04  0.20567502121E+04 0.  0.
         24    2    3    3    0    0 -0.82370723552E+03 -0.94906055868E+03 -0.25714019410E+03  0.12875062149E+04  0.11109284435E+03 0.  0.
        -15    1    4    4    0    0 -0.70684725902E+03 -0.86740800482E+03 -0.23222443423E+03  0.11427851427E+04  0.00000000000E+00 0.  1.
        -15    1    1    2    0    0  0.39434358358E+03 -0.11597122974E+03 -0.34325385391E+03  0.53551787670E+03  0.00000000000E+00 0.  1.
         15    1    1    2    0    0 -0.45779368239E+03  0.89671829645E+02  0.30608081042E+03  0.55794404305E+03  0.00000000000E+00 0. -1.
         15    1    3    3    0    0  0.50190035308E+03  0.57182084462E+03 -0.15405566744E+03  0.77628357669E+03  0.00000000000E+00 0. -1.
        -16    1    1    2    0    0  0.37791759799E+03  0.41592394503E+03 -0.65168246077E+03  0.86052569316E+03  0.00000000000E+00 0.  1.
         16    1    4    4    0    0 -0.11685997650E+03 -0.81652553853E+02 -0.24915759876E+02  0.14472107224E+03  0.00000000000E+00 0. -1.
    9900018    1    3    3    0    0  0.73393832573E+01 -0.12384830882E+02  0.14100486546E+01  0.92327770544E+02  0.91187600000E+02 0.  0.
<mgrwt>
<rscale>  0 0.22271779E+04</rscale>
<asrwt>0</asrwt>
<pdfrwt beam="1">  1        2 0.40067281E+00 0.28237248E+04</pdfrwt>
<pdfrwt beam="2">  1       -2 0.23165106E+00 0.28237248E+04</pdfrwt>
<totfact> 0.21186269E-01</totfact>
</mgrwt>
</event>
<event>
11    1  0.2815681E-016  0.3434599E+04  0.7818608E-02  0.8314489E-01
          1   -1    0    0  501    0  0.00000000000E+00  0.00000000000E+00  0.42195224494E+04  0.42195224494E+04  0.00000000000E+00 0. -1.
         -1   -1    0    0    0  501 -0.00000000000E+00 -0.00000000000E+00 -0.15497299232E+04  0.15497299232E+04  0.00000000000E+00 0.  1.
    9900016    2    1    2    0    0  0.49689724495E+03 -0.63401873337E+03  0.69993645901E+03  0.23284378633E+04  0.20694987824E+04 0.  0.
        -24    2    3    3    0    0  0.68767465488E+03 -0.93500282971E+03  0.11559508133E+04  0.16389967473E+04  0.54418125636E+02 0.  0.
        -15    1    3    3    0    0 -0.23263244110E+03  0.31055590616E+03 -0.44122253310E+03  0.58757139755E+03  0.00000000000E+00 0.  1.
        -15    1    1    2    0    0  0.27097210853E+03 -0.62458406538E+03  0.14638860062E+04  0.16144638049E+04  0.00000000000E+00 0.  1.
         15    1    1    2    0    0  0.18548873953E+03  0.50838430250E+03  0.17734714626E+03  0.56948457557E+03  0.00000000000E+00 0. -1.
         15    1    4    4    0    0  0.40755655999E+03 -0.58413404946E+03  0.73659198843E+03  0.10246378359E+04  0.00000000000E+00 0. -1.
        -16    1    4    4    0    0  0.28011809488E+03 -0.35086878025E+03  0.41935882484E+03  0.61435891139E+03  0.00000000000E+00 0.  1.
         16    1    1    2    0    0 -0.95335809300E+03  0.75021849625E+03  0.32862291468E+03  0.12568661288E+04  0.00000000000E+00 0. -1.
    9900018    1    3    3    0    0  0.41855031171E+02 -0.95718098204E+01 -0.14791821156E+02  0.10186971849E+03  0.91187600000E+02 0.  0.
<mgrwt>
<rscale>  0 0.27641400E+04</rscale>
<asrwt>0</asrwt>
<pdfrwt beam="1">  1        1 0.64915730E+00 0.34345990E+04</pdfrwt>
<pdfrwt beam="2">  1       -1 0.23841999E+00 0.34345990E+04</pdfrwt>
<totfact> 0.39375283E-03</totfact>
</mgrwt>
</event>
<event>
11    1  0.2815681E-016  0.3817203E+04  0.7818608E-02  0.8187261E-01
         -1   -1    0    0    0  501 -0.00000000000E+00  0.00000000000E+00  0.44522860853E+04  0.44522860853E+04  0.00000000000E+00 0.  1.
          1   -1    0    0  501    0  0.00000000000E+00 -0.00000000000E+00 -0.25089027686E+04  0.25089027686E+04  0.00000000000E+00 0. -1.
    9900016    2    1    2    0    0  0.54511550289E+02  0.64029868582E+02  0.62747484541E+03  0.20854415181E+04  0.19870254932E+04 0.  0.
        -24    2    3    3    0    0  0.57976451941E+02  0.91525291237E+03 -0.14842699494E+03  0.93365319484E+03  0.92890003982E+02 0.  0.
        -15    1    3    3    0    0 -0.34649016522E+01 -0.85122304378E+03  0.77590184034E+03  0.11517883233E+04  0.00000000000E+00 0.  1.
        -15    1    1    2    0    0  0.98421531308E+03 -0.70575600790E+03 -0.50581503544E+03  0.13124862572E+04  0.00000000000E+00 0.  1.
         15    1    4    4    0    0 -0.11552270523E+02  0.32332589620E+03 -0.83477936659E+02  0.33412820297E+03  0.00000000000E+00 0. -1.
         15    1    1    2    0    0 -0.43733941018E+03 -0.51078278768E+03 -0.48917395636E+03  0.83153831870E+03  0.00000000000E+00 0. -1.
        -16    1    4    4    0    0  0.69528722464E+02  0.59192701616E+03 -0.64949058277E+02  0.59952499187E+03  0.00000000000E+00 0.  1.
         16    1    1    2    0    0 -0.61826239547E+03  0.11328352639E+04  0.22986123701E+04  0.26361302989E+04  0.00000000000E+00 0. -1.
    9900018    1    1    2    0    0  0.16874942284E+02  0.19673663091E+02  0.12285092910E+02  0.95592460990E+02  0.91187600000E+02 0.  0.
<mgrwt>
<rscale>  0 0.32058987E+04</rscale>
<asrwt>0</asrwt>
<pdfrwt beam="1">  1        1 0.38598504E+00 0.38172031E+04</pdfrwt>
<pdfrwt beam="2">  1       -1 0.68496709E+00 0.38172031E+04</pdfrwt>
<totfact> 0.22179636E-04</totfact>
</mgrwt>
</event>
<event>
11    1  0.2815681E-016  0.4377982E+04  0.7818608E-02  0.7932354E-01
         -2   -1    0    0    0  501 -0.00000000000E+00  0.00000000000E+00  0.10715101567E+04  0.10715101567E+04  0.00000000000E+00 0.  1.
          2   -1    0    0  501    0  0.00000000000E+00 -0.00000000000E+00 -0.44718951974E+04  0.44718951974E+04  0.00000000000E+00 0. -1.
    9900016    2    1    2    0    0  0.34258255609E+03  0.12913033876E+03 -0.55793150108E+03  0.20763926273E+04  0.19662353193E+04 0.  0.
        -24    2    3    3    0    0  0.19150125559E+03 -0.41625175680E+03 -0.11596178978E+04  0.12503819074E+04  0.93824247585E+02 0.  0.
        -15    1    3    3    0    0  0.15108130049E+03  0.54538209556E+03  0.60168639670E+03  0.82601071996E+03  0.00000000000E+00 0.  1.
        -15    1    1    2    0    0  0.41695061204E+02 -0.62495726947E+03 -0.81186844424E+03  0.10253976973E+04  0.00000000000E+00 0.  1.
         15    1    1    2    0    0 -0.57294121980E+03 -0.39362492138E+02 -0.11283983560E+04  0.12661334436E+04  0.00000000000E+00 0. -1.
         15    1    4    4    0    0  0.13389682014E+03 -0.18000010625E+03 -0.53890733064E+03  0.58373753324E+03  0.00000000000E+00 0. -1.
        -16    1    4    4    0    0  0.57604435457E+02 -0.23625165055E+03 -0.62071056714E+03  0.66664437411E+03  0.00000000000E+00 0.  1.
         16    1    1    2    0    0  0.19939098459E+03  0.49839942465E+03 -0.92905239297E+03  0.10729851351E+04  0.00000000000E+00 0. -1.
    9900018    1    1    2    0    0 -0.10727382084E+02  0.36789998207E+02  0.26865653668E+02  0.10249645084E+03  0.91187600000E+02 0.  0.
<mgrwt>
<rscale>  0 0.43779818E+04</rscale>
<asrwt>0</asrwt>
<pdfrwt beam="1">  1        2 0.68798387E+00 0.43779818E+04</pdfrwt>
<pdfrwt beam="2">  1       -2 0.16484772E+00 0.43779818E+04</pdfrwt>
<totfact> 0.23095349E-02</totfact>
</mgrwt>
</event>
<event>
11    1  0.2815681E-016  0.2815389E+04  0.7818608E-02  0.8325883E-01
         -2   -1    0    0    0  501 -0.00000000000E+00  0.00000000000E+00  0.40543070091E+04  0.40543070091E+04  0.00000000000E+00 0. -1.
          2   -1    0    0  501    0  0.00000000000E+00 -0.00000000000E+00 -0.32136739645E+04  0.32136739645E+04  0.00000000000E+00 0.  1.
    9900016    2    1    2    0    0  0.39854156861E+03 -0.59507063264E+03 -0.10930393550E+04  0.24473178733E+04  0.20692233572E+04 0.  0.
         24    2    3    3    0    0  0.81493867802E+03 -0.34046001856E+03 -0.14825888877E+04  0.17285572865E+04  0.99007118083E+02 0.  0.
        -15    1    1    2    0    0  0.31647238650E+03 -0.32249034541E+03 -0.26520894887E+03  0.52391848685E+03  0.00000000000E+00 0.  1.
        -15    1    4    4    0    0  0.17539876264E+03 -0.39539326932E+02 -0.35093772092E+03  0.39431633022E+03  0.00000000000E+00 0.  1.
         15    1    3    3    0    0 -0.41645332095E+03 -0.21796346010E+03  0.40352613306E+03  0.61949558395E+03  0.00000000000E+00 0. -1.
         15    1    1    2    0    0 -0.30561361433E+03  0.87978413379E+03  0.31370804163E+04  0.32724139930E+04  0.00000000000E+00 0. -1.
        -16    1    1    2    0    0 -0.40940034078E+03  0.37776844263E+02 -0.93819906785E+03  0.10243306204E+04  0.00000000000E+00 0.  1.
         16    1    4    4    0    0  0.63953991539E+03 -0.30092069163E+03 -0.11316511668E+04  0.13342409562E+04  0.00000000000E+00 0. -1.
    9900018    1    3    3    0    0  0.56211536039E-01 -0.36647153976E+02 -0.13976600315E+02  0.99265002918E+02  0.91187600000E+02 0.  0.
<mgrwt>
<rscale>  0 0.27282927E+04</rscale>
<asrwt>0</asrwt>
<pdfrwt beam="1">  1        2 0.49441138E+00 0.28153887E+04</pdfrwt>
<pdfrwt beam="2">  1       -2 0.62373954E+00 0.28153887E+04</pdfrwt>
<totfact> 0.41187810E-04</totfact>
</mgrwt>
</event>
<event>
11    1  0.2815681E-016  0.3248424E+04  0.7818608E-02  0.8239128E-01
          2   -1    0    0  501    0  0.00000000000E+00  0.00000000000E+00  0.25224403592E+04  0.25224403592E+04  0.00000000000E+00 0. -1.
         -2   -1    0    0    0  501 -0.00000000000E+00 -0.00000000000E+00 -0.34600960539E+04  0.34600960539E+04  0.00000000000E+00 0.  1.
    9900016    2    1    2    0    0  0.66471380763E+03  0.48522437102E+03 -0.26932095688E+03  0.21571619015E+04  0.19757344344E+04 0.  0.
        -24    2    3    3    0    0  0.35323260961E+03 -0.28218463750E+03 -0.96888382850E+03  0.10730376769E+04  0.90953486690E+02 0.  0.
        -15    1    1    2    0    0 -0.10101168574E+04  0.26283599953E+03 -0.11119151493E+04  0.15250488935E+04  0.00000000000E+00 0.  1.
        -15    1    3    3    0    0  0.31148119801E+03  0.76740900852E+03  0.69956287161E+03  0.10841242246E+04  0.00000000000E+00 0.  1.
         15    1    4    4    0    0  0.31079638044E+03 -0.27987566659E+03 -0.86540216910E+03  0.96116892018E+03  0.00000000000E+00 0. -1.
         15    1    1    2    0    0 -0.42870829019E+03 -0.11057368898E+04 -0.13871486833E+03  0.11940212236E+04  0.00000000000E+00 0. -1.
        -16    1    4    4    0    0  0.42436229173E+02 -0.23089709162E+01 -0.10348165940E+03  0.11186875670E+03  0.00000000000E+00 0.  1.
         16    1    1    2    0    0  0.70246549496E+03  0.36548317541E+03  0.59343028501E+03  0.98954293807E+03  0.00000000000E+00 0. -1.
    9900018    1    1    2    0    0  0.71645844970E+02 -0.78066561248E+01 -0.11135005212E+02  0.11676145647E+03  0.91187600000E+02 0.  0.
<mgrwt>
<rscale>  0 0.30161733E+04</rscale>
<asrwt>0</asrwt>
<pdfrwt beam="1">  1        2 0.38806775E+00 0.32484241E+04</pdfrwt>
<pdfrwt beam="2">  1       -2 0.53232247E+00 0.32484241E+04</pdfrwt>
<totfact> 0.27956126E-03</totfact>
</mgrwt>
</event>
