<event>
10    1  0.1223568E-013  0.1387182E+04  0.7818608E-02  0.8963149E-01
          1   -1    0    0  501    0  0.00000000000E+00  0.00000000000E+00  0.11357379211E+04  0.11357379211E+04  0.00000000000E+00 0. -1.
         -1   -1    0    0    0  501 -0.00000000000E+00 -0.00000000000E+00 -0.42357376624E+03  0.42357376624E+03  0.00000000000E+00 0.  1.
    9900016    2    1    2    0    0  0.39463751978E+03  0.16057999912E+03  0.46820580398E+03  0.89525397893E+03  0.63303894333E+03 0.  0.
        -15    1    1    2    0    0 -0.13645585434E+03 -0.10343321355E+03  0.14963241219E+03  0.22739500572E+03  0.00000000000E+00 0.  1.
        -15    1    3    3    0    0 -0.66909388165E+02 -0.75253485072E+02  0.41390808446E+02  0.10887218315E+03  0.00000000000E+00 0.  1.
         15    1    1    2    0    0 -0.22027312191E+03  0.37757488136E+01  0.20751267633E+03  0.30264833612E+03  0.00000000000E+00 0. -1.
         15    1    3    3    0    0  0.25332661486E+03  0.28610548743E+02  0.10505052736E+03  0.27573275213E+03  0.00000000000E+00 0. -1.
        -16    1    1    2    0    0 -0.37908543527E+02 -0.60922534387E+02 -0.11318673765E+03  0.13401436658E+03  0.00000000000E+00 0.  1.
         16    1    3    3    0    0 -0.43237326232E+02  0.90342897221E+00  0.93306686656E+02  0.10284172470E+03  0.00000000000E+00 0. -1.
    9900018    1    3    3    0    0  0.25145761931E+03  0.20631950648E+03  0.22845778152E+03  0.40780731895E+03  0.91187600000E+02 0.  0.
<mgrwt>
<rscale>  0 0.13871825E+04</rscale>
<asrwt>0</asrwt>
<pdfrwt beam="1">  1        1 0.17472891E+00 0.13871825E+04</pdfrwt>
<pdfrwt beam="2">  1       -1 0.65165195E-01 0.13871825E+04</pdfrwt>
<totfact> 0.27777164E+01</totfact>
</mgrwt>
</event>
<event>
10    1  0.1223568E-013  0.1216603E+04  0.7818608E-02  0.9098447E-01
          1   -1    0    0  501    0  0.00000000000E+00  0.00000000000E+00  0.56117463556E+03  0.56117463556E+03  0.00000000000E+00 0. -1.
         -1   -1    0    0    0  501 -0.00000000000E+00 -0.00000000000E+00 -0.65938599426E+03  0.65938599426E+03  0.00000000000E+00 0.  1.
    9900016    2    1    2    0    0  0.56761789626E+02 -0.19409806740E+03  0.15944925525E+03  0.67862172036E+03  0.62785939016E+03 0.  0.
        -15    1    3    3    0    0  0.22076241241E+03  0.43581389915E+02  0.61262449980E+02  0.23321335309E+03  0.00000000000E+00 0. -1.
        -15    1    1    2    0    0 -0.37040349617E+02  0.19842533976E+03 -0.10935354926E+02  0.20214891775E+03  0.00000000000E+00 0.  1.
         15    1    1    2    0    0  0.97559232859E+02 -0.13229542689E+02 -0.49597018532E+02  0.11023923513E+03  0.00000000000E+00 0.  1.
         15    1    3    3    0    0  0.33499699723E+02  0.28684679596E+02  0.95522880713E+01  0.45125236093E+02  0.00000000000E+00 0. -1.
        -16    1    1    2    0    0 -0.11728067287E+03  0.89022703217E+01 -0.19712824049E+03  0.22955075658E+03  0.00000000000E+00 0.  1.
         16    1    3    3    0    0 -0.13919506330E+03 -0.11456038503E+03 -0.24913758625E+02  0.18198912835E+03  0.00000000000E+00 0. -1.
    9900018    1    3    3    0    0 -0.58305259207E+02 -0.15180375187E+03  0.11354827582E+03  0.21829400283E+03  0.91187600000E+02 0.  0.
<mgrwt>
<rscale>  0 0.12166030E+04</rscale>
<asrwt>0</asrwt>
<pdfrwt beam="1">  1        1 0.86334560E-01 0.12166030E+04</pdfrwt>
<pdfrwt beam="2">  1       -1 0.10144400E+00 0.12166030E+04</pdfrwt>
<totfact> 0.34387085E+01</totfact>
</mgrwt>
</event>
<event>
11    1  0.1223568E-013  0.2236778E+04  0.7818608E-02  0.8503274E-01
          1   -1    0    0  501    0  0.00000000000E+00  0.00000000000E+00  0.68557400298E+03  0.68557400298E+03  0.00000000000E+00 0. -1.
         -1   -1    0    0    0  501 -0.00000000000E+00 -0.00000000000E+00 -0.18244475095E+04  0.18244475095E+04  0.00000000000E+00 0.  1.
    9900016    2    1    2    0    0 -0.15449368057E+03 -0.48093759440E+03 -0.40996394692E+02  0.78719080335E+03  0.60234490904E+03 0.  0.
         23    2    3    3    0    0  0.27853364037E+01 -0.20996078471E+03 -0.17274936609E+03  0.29650383607E+03  0.11824082250E+03 0.  0.
        -15    1    4    4    0    0  0.39827217469E+02 -0.17077071877E+02 -0.20192798595E+02  0.47807768723E+02  0.00000000000E+00 0.  1.
        -15    1    1    2    0    0 -0.45026892448E+02  0.37104154029E+03 -0.46959594556E+03  0.60018297023E+03  0.00000000000E+00 0.  1.
         15    1    1    2    0    0  0.49460313417E+03  0.22275421369E+03 -0.59470802953E+03  0.80494058192E+03  0.00000000000E+00 0. -1.
         15    1    4    4    0    0 -0.37041881065E+02 -0.19288371283E+03 -0.15255656750E+03  0.24869606735E+03  0.00000000000E+00 0. -1.
        -16    1    1    2    0    0 -0.29508256115E+03 -0.11285815958E+03 -0.33573136736E+02  0.31770715697E+03  0.00000000000E+00 0.  1.
         16    1    3    3    0    0 -0.12628579177E+03 -0.29922188075E+03  0.18836910362E+03  0.37545273247E+03  0.00000000000E+00 0. -1.
    9900018    1    3    3    0    0 -0.30993225203E+02  0.28245071060E+02 -0.56616132222E+02  0.11523423480E+03  0.91187600000E+02 0.  0.
<mgrwt>
<rscale>  0 0.22367778E+04</rscale>
<asrwt>0</asrwt>
<pdfrwt beam="1">  1        1 0.10547292E+00 0.22367778E+04</pdfrwt>
<pdfrwt beam="2">  1       -1 0.28068424E+00 0.22367778E+04</pdfrwt>
<totfact> 0.11259891E+00</totfact>
</mgrwt>
</event>
<event>
11    1  0.1223568E-013  0.2491331E+04  0.7818608E-02  0.8406080E-01
         -1   -1    0    0    0  501 -0.00000000000E+00  0.00000000000E+00  0.88754494380E+03  0.88754494380E+03  0.00000000000E+00 0.  1.
          1   -1    0    0  501    0  0.00000000000E+00 -0.00000000000E+00 -0.17482865496E+04  0.17482865496E+04  0.00000000000E+00 0. -1.
    9900016    2    1    2    0    0 -0.45264733502E+03  0.62213087292E+03 -0.11126642977E+04  0.15899483330E+04  0.83545043493E+03 0.  0.
         23    2    3    3    0    0 -0.46565936168E+03  0.18382622396E+03 -0.10210798993E+04  0.11419885355E+04  0.10441710942E+03 0.  0.
        -15    1    4    4    0    0 -0.27030547065E+03  0.90559623288E+02 -0.46714956538E+03  0.54726118926E+03  0.00000000000E+00 0. -1.
        -15    1    1    2    0    0  0.41163229014E+03 -0.37168423056E+03  0.66273218906E+02  0.55855389093E+03  0.00000000000E+00 0.  1.
         15    1    1    2    0    0  0.39144602380E+02 -0.18973183857E+03 -0.44958997491E+02  0.19887629803E+03  0.00000000000E+00 0. -1.
         15    1    4    4    0    0 -0.19535389104E+03  0.93266600676E+02 -0.55393033391E+03  0.59472734624E+03  0.00000000000E+00 0.  1.
        -16    1    1    2    0    0 -0.83484982306E+01  0.37735031385E+02  0.48641844009E+02  0.62126153953E+02  0.00000000000E+00 0.  1.
         16    1    3    3    0    0  0.13012026661E+02  0.43830464895E+03 -0.91584398431E+02  0.44795979749E+03  0.00000000000E+00 0. -1.
    9900018    1    1    2    0    0  0.10218940728E+02 -0.98449835175E+02  0.18196662646E+03  0.22632681753E+03  0.91187600000E+02 0.  0.
<mgrwt>
<rscale>  0 0.24913313E+04</rscale>
<asrwt>0</asrwt>
<pdfrwt beam="1">  1        1 0.26896716E+00 0.24913313E+04</pdfrwt>
<pdfrwt beam="2">  1       -1 0.13654538E+00 0.24913313E+04</pdfrwt>
<totfact> 0.17570308E+00</totfact>
</mgrwt>
</event>
<event>
11    1  0.1223568E-013  0.2038387E+04  0.7818608E-02  0.8588881E-01
          2   -1    0    0  501    0  0.00000000000E+00  0.00000000000E+00  0.54776524989E+03  0.54776524989E+03  0.00000000000E+00 0. -1.
         -2   -1    0    0    0  501 -0.00000000000E+00 -0.00000000000E+00 -0.18963521240E+04  0.18963521240E+04  0.00000000000E+00 0.  1.
    9900016    2    1    2    0    0 -0.68106542143E+03  0.29633797507E+03 -0.12917737024E+04  0.16992052716E+04  0.81667187596E+03 0.  0.
         23    2    3    3    0    0  0.11942899467E+02 -0.52280924210E+02 -0.41207132583E+02  0.93496082924E+02  0.64556656222E+02 0.  0.
        -15    1    3    3    0    0 -0.37842994034E+03  0.37629959504E+02 -0.35124209962E+03  0.51768353861E+03  0.00000000000E+00 0.  1.
        -15    1    4    4    0    0 -0.20265708149E+02  0.12367361864E+01 -0.36997701527E+01  0.20637750419E+02  0.00000000000E+00 0. -1.
         15    1    3    3    0    0 -0.27360198825E+02  0.87323553867E+02 -0.40875328784E+01  0.91600717599E+02  0.00000000000E+00 0.  1.
         15    1    4    4    0    0  0.32208607616E+02 -0.53517660396E+02 -0.37507362431E+02  0.72858332505E+02  0.00000000000E+00 0. -1.
        -16    1    3    3    0    0 -0.12387084290E+03  0.21007800450E+03 -0.58638310800E+03  0.63507629702E+03  0.00000000000E+00 0.  1.
         16    1    1    2    0    0  0.68106542143E+03 -0.29633797507E+03 -0.56813171718E+02  0.74491210234E+03  0.00000000000E+00 0. -1.
    9900018    1    3    3    0    0 -0.16334733883E+03  0.13587381412E+02 -0.30885382933E+03  0.36134863542E+03  0.91187600000E+02 0.  0.
<mgrwt>
<rscale>  0 0.20383874E+04</rscale>
<asrwt>0</asrwt>
<pdfrwt beam="1">  1        2 0.84271578E-01 0.20383874E+04</pdfrwt>
<pdfrwt beam="2">  1       -2 0.29174648E+00 0.20383874E+04</pdfrwt>
<totfact> 0.18304647E+00</totfact>
</mgrwt>
</event>
