<event>
11    1  0.6067635E-014  0.1369547E+04  0.7818608E-02  0.9311675E-01
          2   -1    0    0  501    0  0.00000000000E+00  0.00000000000E+00  0.10927104629E+04  0.10927104629E+04  0.00000000000E+00 0. -1.
         -2   -1    0    0    0  501 -0.00000000000E+00 -0.00000000000E+00 -0.72868296513E+03  0.72868296513E+03  0.00000000000E+00 0.  1.
    9900016    2    1    2    0    0 -0.41579024098E+02 -0.47368477535E+03 -0.41819553437E+02  0.92375126774E+03  0.79086120651E+03 0.  0.
         23    2    3    3    0    0  0.15455163894E+03  0.62359043501E+01 -0.10633195115E+03  0.20819040186E+03  0.90064776629E+02 0.  0.
        -15    1    4    4    0    0  0.30152161200E+02  0.31808930269E+02 -0.57098341255E+02  0.71980424032E+02  0.00000000000E+00 0.  1.
        -15    1    1    2    0    0 -0.11157909802E+03  0.63362546850E+02  0.30124205589E+03  0.32743164736E+03  0.00000000000E+00 0.  1.
         15    1    4    4    0    0  0.12439947774E+03 -0.25573025918E+02 -0.49233609895E+02  0.13620997782E+03  0.00000000000E+00 0. -1.
         15    1    1    2    0    0  0.21775147642E+03  0.35249923265E+03  0.18335448899E+03  0.45308970760E+03  0.00000000000E+00 0. -1.
        -16    1    3    3    0    0 -0.17581917929E+03 -0.14052826225E+03  0.23416340995E+03  0.32479698098E+03  0.00000000000E+00 0.  1.
         16    1    1    2    0    0 -0.64593354306E+02  0.57822995845E+02 -0.78749493714E+02  0.11712080528E+03  0.00000000000E+00 0. -1.
    9900018    1    3    3    0    0 -0.20311483743E+02 -0.33939241745E+03 -0.16965101223E+03  0.39076388490E+03  0.91187600000E+02 0.  0.
<mgrwt>
<rscale>  0 0.99715084E+03</rscale>
<asrwt>0</asrwt>
<pdfrwt beam="1">  1        2 0.16810930E+00 0.13695470E+04</pdfrwt>
<pdfrwt beam="2">  1       -2 0.11210507E+00 0.13695470E+04</pdfrwt>
<totfact> 0.13354191E+01</totfact>
</mgrwt>
</event>
<event>
11    1  0.6067635E-014  0.1416868E+04  0.7818608E-02  0.9463231E-01
         -2   -1    0    0    0  501 -0.00000000000E+00  0.00000000000E+00  0.50526783037E+03  0.50526783037E+03  0.00000000000E+00 0.  1.
          2   -1    0    0  501    0  0.00000000000E+00 -0.00000000000E+00 -0.16048620940E+04  0.16048620940E+04  0.00000000000E+00 0. -1.
    9900016    2    1    2    0    0 -0.13474585803E+03 -0.18353007316E+03 -0.41749751756E+03  0.92553034920E+03  0.79401669763E+03 0.  0.
         23    2    3    3    0    0 -0.46270702596E+03 -0.15272608273E+03 -0.26876220042E+03  0.56410316696E+03  0.92499807478E+02 0.  0.
        -15    1    4    4    0    0 -0.32365374159E+03 -0.15006219949E+03 -0.19924234187E+03  0.40861708108E+03  0.00000000000E+00 0.  1.
        -15    1    1    2    0    0  0.45292604194E+02  0.14227170366E+03 -0.42699178336E+03  0.45234349859E+03  0.00000000000E+00 0.  1.
         15    1    4    4    0    0 -0.13905328437E+03 -0.26638832340E+01 -0.69519858556E+02  0.15548608588E+03  0.00000000000E+00 0. -1.
         15    1    1    2    0    0 -0.86928035974E+02 -0.17680299680E+01  0.19183487736E+03  0.21061868279E+03  0.00000000000E+00 0. -1.
        -16    1    3    3    0    0  0.32796116793E+03 -0.30803990432E+02 -0.14873531714E+03  0.36142718224E+03  0.00000000000E+00 0.  1.
         16    1    1    2    0    0 -0.15153594668E+02  0.50020557366E+02 -0.13080791458E+03  0.14086304735E+03  0.00000000000E+00 0. -1.
    9900018    1    1    2    0    0  0.19153488447E+03 -0.69941578983E+01 -0.31613192553E+03  0.38077434649E+03  0.91187600000E+02 0.  0.
<mgrwt>
<rscale>  0 0.87049781E+03</rscale>
<asrwt>0</asrwt>
<pdfrwt beam="1">  1        2 0.24690186E+00 0.14168681E+04</pdfrwt>
<pdfrwt beam="2">  1       -2 0.77733513E-01 0.14168681E+04</pdfrwt>
<totfact> 0.15776099E+01</totfact>
</mgrwt>
</event>
<event>
11    1  0.6067635E-014  0.2290996E+04  0.7818608E-02  0.8481480E-01
         -1   -1    0    0    0  501 -0.00000000000E+00  0.00000000000E+00  0.86242266056E+03  0.86242266056E+03  0.00000000000E+00 0.  1.
          1   -1    0    0  501    0  0.00000000000E+00 -0.00000000000E+00 -0.15214881888E+04  0.15214881888E+04  0.00000000000E+00 0. -1.
    9900016    2    1    2    0    0 -0.68532517582E+02 -0.14023193777E+03 -0.34005370858E+03  0.70403123906E+03  0.59637384124E+03 0.  0.
         23    2    3    3    0    0 -0.78156945476E+01  0.22201352332E+03 -0.77670258995E+02  0.25264074149E+03  0.91888984708E+02 0.  0.
        -15    1    4    4    0    0  0.40952694506E+02  0.92360863945E+02 -0.43289719476E+02  0.10991656922E+03  0.00000000000E+00 0. -1.
        -15    1    1    2    0    0 -0.10815386894E+03  0.31694716024E+03  0.12165500638E+03  0.35630422721E+03  0.00000000000E+00 0.  1.
         15    1    1    2    0    0 -0.18493828043E+03 -0.29074367134E+03 -0.43196119634E+03  0.55256178399E+03  0.00000000000E+00 0. -1.
         15    1    4    4    0    0 -0.48768389054E+02  0.12965265938E+03 -0.34380539520E+02  0.14272417228E+03  0.00000000000E+00 0.  1.
        -16    1    1    2    0    0  0.14495693569E+03  0.19085950684E+03  0.29452605714E+03  0.37971760940E+03  0.00000000000E+00 0.  1.
         16    1    3    3    0    0 -0.60716823035E+02 -0.36224546109E+03 -0.26238344958E+03  0.45139049757E+03  0.00000000000E+00 0. -1.
    9900018    1    1    2    0    0  0.21666773127E+03 -0.76831057980E+02 -0.30323168680E+03  0.39129598965E+03  0.91187600000E+02 0.  0.
<mgrwt>
<rscale>  0 0.22909962E+04</rscale>
<asrwt>0</asrwt>
<pdfrwt beam="1">  1        1 0.23407510E+00 0.22909962E+04</pdfrwt>
<pdfrwt beam="2">  1       -1 0.13268041E+00 0.22909962E+04</pdfrwt>
<totfact> 0.27534084E+00</totfact>
</mgrwt>
</event>
<event>
11    1  0.6067635E-014  0.6001252E+04  0.7818608E-02  0.7690247E-01
          1   -1    0    0  501    0  0.00000000000E+00  0.00000000000E+00  0.34832179468E+04  0.34832179468E+04  0.00000000000E+00 0. -1.
         -1   -1    0    0    0  501 -0.00000000000E+00 -0.00000000000E+00 -0.25848959199E+04  0.25848959199E+04  0.00000000000E+00 0.  1.
    9900016    2    1    2    0    0  0.16184704292E+03 -0.23110608122E+02  0.51203450628E+02  0.63160000632E+03  0.60792121950E+03 0.  0.
         23    2    3    3    0    0  0.13407731097E+03 -0.30445962699E+03  0.42205788497E+02  0.34874070144E+03  0.95741101277E+02 0.  0.
        -15    1    1    2    0    0 -0.23448474361E+04  0.70608094360E+03 -0.15379301324E+03  0.24536731829E+04  0.00000000000E+00 0.  1.
        -15    1    4    4    0    0  0.43582801665E+02 -0.10707222638E+03 -0.30832111521E+02  0.11964339248E+03  0.00000000000E+00 0. -1.
         15    1    4    4    0    0  0.90494509303E+02 -0.19738740061E+03  0.73037900018E+02  0.22909730896E+03  0.00000000000E+00 0.  1.
         15    1    1    2    0    0  0.48307289792E+03 -0.56637130009E+03  0.65128445610E+03  0.98909419017E+03  0.00000000000E+00 0. -1.
        -16    1    3    3    0    0  0.27769731953E+02  0.28134901887E+03  0.89976621315E+01  0.28285930488E+03  0.00000000000E+00 0.  1.
         16    1    1    2    0    0  0.13021840584E+04  0.17893725176E+03  0.58368867404E+03  0.14381913399E+04  0.00000000000E+00 0. -1.
    9900018    1    1    2    0    0  0.39774343692E+03 -0.29553628715E+03 -0.23406154059E+03  0.55555514740E+03  0.91187600000E+02 0.  0.
<mgrwt>
<rscale>  0 0.60012518E+04</rscale>
<asrwt>0</asrwt>
<pdfrwt beam="1">  1        1 0.53587969E+00 0.60012518E+04</pdfrwt>
<pdfrwt beam="2">  1       -1 0.39767629E+00 0.60012518E+04</pdfrwt>
<totfact> 0.12765798E-03</totfact>
</mgrwt>
</event>
