<event>
12    1  0.2078751E-010  0.2435847E+04  0.7818608E-02  0.9120917E-01
         -2   -1    0    0    0  501 -0.00000000000E+00  0.00000000000E+00  0.77015050757E+03  0.77015050757E+03  0.00000000000E+00 0.  1.
          2   -1    0    0  501    0  0.00000000000E+00 -0.00000000000E+00 -0.21523918767E+04  0.21523918767E+04  0.00000000000E+00 0. -1.
         23    2    1    2    0    0 -0.47586190629E+02  0.93718120535E+02 -0.72155516327E+02  0.15673744476E+03  0.91173880020E+02 0.  0.
    9900016    2    1    2    0    0 -0.76654971959E+02  0.20279432877E+03 -0.98434419031E+03  0.23081335184E+04  0.20764260953E+04 0.  0.
        -24    2    4    4    0    0  0.90594259726E+03  0.17767334990E+03 -0.68220603128E+03  0.11502689671E+04  0.73578657294E+02 0.  0.
        -15    1    3    3    0    0 -0.60111803730E+02  0.23359265895E+02 -0.50961554480E+02  0.82195889713E+02  0.00000000000E+00 0. -1.
        -15    1    4    4    0    0 -0.59844380230E+03 -0.26404378187E+02  0.81980007284E+02  0.60460970658E+03  0.00000000000E+00 0.  1.
         15    1    5    5    0    0  0.37797969062E+03  0.62962937906E+02 -0.32633484355E+03  0.50331640961E+03  0.00000000000E+00 0. -1.
         15    1    3    3    0    0  0.12525613101E+02  0.70358854640E+02 -0.21193961847E+02  0.74541555045E+02  0.00000000000E+00 0.  1.
        -16    1    5    5    0    0  0.52796290664E+03  0.11471041199E+03 -0.35587118772E+03  0.64695255750E+03  0.00000000000E+00 0.  1.
         16    1    1    2    0    0  0.12424116259E+03 -0.29651244931E+03 -0.32574166253E+03  0.45767142120E+03  0.00000000000E+00 0. -1.
    9900018    1    4    4    0    0 -0.38415376691E+03  0.51525357058E+02 -0.38411816632E+03  0.55325484466E+03  0.91187600000E+02 0.  0.
<mgrwt>
<rscale>  0 0.11908342E+04</rscale>
<asrwt>0</asrwt>
<pdfrwt beam="1">  1        2 0.33113721E+00 0.24358473E+04</pdfrwt>
<pdfrwt beam="2">  1       -2 0.11848470E+00 0.24358473E+04</pdfrwt>
<totfact> 0.26863934E+00</totfact>
</mgrwt>
</event>
<event>
12    1  0.2078618E-010  0.2817784E+04  0.7818608E-02  0.9051337E-01
          1   -1    0    0  501    0  0.00000000000E+00  0.00000000000E+00  0.10781021698E+04  0.10781021698E+04  0.00000000000E+00 0. -1.
         -1   -1    0    0    0  501 -0.00000000000E+00 -0.00000000000E+00 -0.20088434361E+04  0.20088434361E+04  0.00000000000E+00 0.  1.
         23    2    1    2    0    0 -0.62910634300E+02  0.39722654033E+02 -0.85274488663E+02  0.14505459186E+03  0.90738410012E+02 0.  0.
    9900016    2    1    2    0    0 -0.31154478630E+03 -0.56314302772E+03 -0.83772206649E+03  0.22982717709E+04  0.20410988827E+04 0.  0.
        -24    2    4    4    0    0 -0.73542292868E+02 -0.67607067853E+03  0.45466413024E+03  0.82142830065E+03  0.74464424900E+02 0.  0.
        -15    1    4    4    0    0 -0.15498944841E+03  0.38248967518E+03 -0.65964236184E+03  0.77810547246E+03  0.00000000000E+00 0.  1.
        -15    1    3    3    0    0  0.72051224217E+01  0.46261839748E+02 -0.31104738821E+02  0.56210109261E+02  0.00000000000E+00 0. -1.
         15    1    3    3    0    0 -0.70115756721E+02 -0.65391857150E+01 -0.54169749842E+02  0.88844482599E+02  0.00000000000E+00 0.  1.
         15    1    5    5    0    0 -0.15997567097E+02 -0.39027145979E+03  0.22918560056E+03  0.45287280111E+03  0.00000000000E+00 0. -1.
        -16    1    5    5    0    0 -0.57544725771E+02 -0.28579921874E+03  0.22547852968E+03  0.36855549954E+03  0.00000000000E+00 0.  1.
         16    1    1    2    0    0  0.37445542060E+03  0.52342037369E+03 -0.77447111392E+01  0.64361924316E+03  0.00000000000E+00 0. -1.
    9900018    1    4    4    0    0 -0.83013045030E+02 -0.26956202437E+03 -0.63274383489E+03  0.69873799783E+03  0.91187600000E+02 0.  0.
<mgrwt>
<rscale>  0 0.12728991E+04</rscale>
<asrwt>0</asrwt>
<pdfrwt beam="1">  1        1 0.16586187E+00 0.28177844E+04</pdfrwt>
<pdfrwt beam="2">  1       -1 0.30905283E+00 0.28177844E+04</pdfrwt>
<totfact> 0.32703549E-01</totfact>
</mgrwt>
</event>
<event>
11    1  0.2078618E-010  0.2276412E+04  0.7818608E-02  0.9067324E-01
         -1   -1    0    0    0  501 -0.00000000000E+00  0.00000000000E+00  0.78943059084E+03  0.78943059084E+03  0.00000000000E+00 0.  1.
          1   -1    0    0  501    0  0.00000000000E+00 -0.00000000000E+00 -0.20444972548E+04  0.20444972548E+04  0.00000000000E+00 0. -1.
         23    2    1    2    0    0  0.15741992806E+03 -0.10189112188E+03  0.42719574853E+02  0.21356538705E+03  0.92856760677E+02 0.  0.
         24    2    1    2    0    0 -0.24899968422E+03 -0.71551818138E+03 -0.21197776478E+03  0.79069632734E+03  0.79366231373E+02 0.  0.
        -15    1    3    3    0    0  0.15325986712E+03 -0.57346141208E+02  0.41464469137E+02  0.16880897186E+03  0.00000000000E+00 0.  1.
        -15    1    4    4    0    0 -0.61860241693E+02 -0.26382019287E+03 -0.10209843594E+03  0.28957188104E+03  0.00000000000E+00 0.  1.
         15    1    1    2    0    0 -0.18127047188E+03  0.62822142593E+03 -0.33229038085E+03  0.73344259570E+03  0.00000000000E+00 0. -1.
         15    1    3    3    0    0  0.41600609407E+01 -0.44544980677E+02  0.12551057160E+01  0.44756415193E+02  0.00000000000E+00 0. -1.
        -16    1    1    2    0    0  0.25899964399E+03 -0.17953630164E+03 -0.83678782200E+02  0.32606170856E+03  0.00000000000E+00 0.  1.
         16    1    4    4    0    0 -0.18713944253E+03 -0.45169798851E+03 -0.10987932884E+03  0.50112444630E+03  0.00000000000E+00 0. -1.
    9900018    1    1    2    0    0  0.13850584051E+02  0.36872417897E+03 -0.66983931095E+03  0.77016182697E+03  0.91187600000E+02 0.  0.
<mgrwt>
<rscale>  0 0.12534414E+04</rscale>
<asrwt>0</asrwt>
<pdfrwt beam="1">  1        1 0.31453803E+00 0.22764117E+04</pdfrwt>
<pdfrwt beam="2">  1       -1 0.12145086E+00 0.22764117E+04</pdfrwt>
<totfact> 0.15015119E+00</totfact>
</mgrwt>
</event>
<event>
12    1  0.2078618E-010  0.2715289E+04  0.7818608E-02  0.8984672E-01
          1   -1    0    0  501    0  0.00000000000E+00  0.00000000000E+00  0.94701641725E+03  0.94701641725E+03  0.00000000000E+00 0. -1.
         -1   -1    0    0    0  501 -0.00000000000E+00 -0.00000000000E+00 -0.22028895802E+04  0.22028895802E+04  0.00000000000E+00 0.  1.
         23    2    1    2    0    0 -0.41816619544E+01  0.14460183836E+03 -0.11177238603E+03  0.20342356625E+03  0.89223892948E+02 0.  0.
    9900016    2    1    2    0    0  0.16916209561E+03 -0.42998161173E+03 -0.80947948397E+03  0.24767680837E+04  0.22946945558E+04 0.  0.
         24    2    4    4    0    0  0.44065526965E+03 -0.23798441139E+03 -0.99412713396E+03  0.11159768178E+04  0.79384209229E+02 0.  0.
        -15    1    5    5    0    0  0.19156190768E+03 -0.60420788626E+02 -0.41288161663E+03  0.45914906678E+03  0.00000000000E+00 0.  1.
        -15    1    3    3    0    0 -0.24986411647E+02  0.13545542878E+03 -0.66907753919E+02  0.15313112514E+03  0.00000000000E+00 0.  1.
         15    1    4    4    0    0  0.19434154265E+03  0.32565622912E+03  0.46893830902E+03  0.60309514376E+03  0.00000000000E+00 0. -1.
         15    1    3    3    0    0  0.20804749692E+02  0.91464095795E+01 -0.44864632110E+02  0.50292441105E+02  0.00000000000E+00 0. -1.
        -16    1    1    2    0    0 -0.16498043366E+03  0.28537977337E+03 -0.33462129295E+03  0.46971434748E+03  0.00000000000E+00 0.  1.
         16    1    5    5    0    0  0.24909336196E+03 -0.17756362277E+03 -0.58124551732E+03  0.65682775102E+03  0.00000000000E+00 0. -1.
    9900018    1    4    4    0    0 -0.46583471668E+03 -0.51765342946E+03 -0.28429065903E+03  0.75769612214E+03  0.91187600000E+02 0.  0.
<mgrwt>
<rscale>  0 0.13581628E+04</rscale>
<asrwt>0</asrwt>
<pdfrwt beam="1">  1        1 0.14569483E+00 0.27152886E+04</pdfrwt>
<pdfrwt beam="2">  1       -1 0.33890609E+00 0.27152886E+04</pdfrwt>
<totfact> 0.26591480E-01</totfact>
</mgrwt>
</event>
