<event>
13    1  0.1045562E-007  0.4861873E+04  0.7818608E-02  0.7850175E-01
         -3   -1    0    0    0  501 -0.00000000000E+00  0.00000000000E+00  0.23385301960E+04  0.23385301960E+04  0.00000000000E+00 0.  1.
          3   -1    0    0  501    0  0.00000000000E+00 -0.00000000000E+00 -0.25269939176E+04  0.25269939176E+04  0.00000000000E+00 0. -1.
    9900016    2    1    2    0    0 -0.91460225788E+03 -0.10370142352E+04  0.69433918601E+03  0.23961112103E+04  0.18295754187E+04 0.  0.
         23    2    3    3    0    0 -0.38066387005E+03  0.40677947392E+03 -0.21390041247E+03  0.60878649303E+03  0.12038723055E+03 0.  0.
    9900016    2    1    2    0    0  0.91460225788E+03  0.10370142352E+04 -0.88280290761E+03  0.24694129034E+04  0.18457419375E+04 0.  0.
        -24    2    5    5    0    0  0.48144480024E+03  0.19906462073E+02  0.68170044137E+02  0.49168963505E+03  0.70186746510E+02 0.  0.
        -15    1    5    5    0    0  0.27612986979E+03 -0.29244717719E+03 -0.13574392330E+03  0.42449908027E+03  0.00000000000E+00 0.  1.
        -15    1    4    4    0    0 -0.34731226474E+03  0.32978552236E+03 -0.21473186389E+03  0.52487529316E+03  0.00000000000E+00 0.  1.
         15    1    4    4    0    0 -0.33351605311E+02  0.76993951558E+02  0.83145141547E+00  0.83911199877E+02  0.00000000000E+00 0. -1.
         15    1    6    6    0    0  0.40281526411E+03 -0.95770876497E+01  0.54137804303E+02  0.40654982408E+03  0.00000000000E+00 0. -1.
        -16    1    6    6    0    0  0.78629536131E+02  0.29483549723E+02  0.14032239834E+02  0.85139810965E+02  0.00000000000E+00 0.  1.
         16    1    3    3    0    0 -0.53393838783E+03 -0.14437937091E+04  0.90823959848E+03  0.17873247172E+04  0.00000000000E+00 0. -1.
    9900018    1    5    5    0    0  0.15702758785E+03  0.13095549503E+04 -0.81522902844E+03  0.15532241881E+04  0.91187600000E+02 0.  0.
<mgrwt>
<rscale>  0 0.48618727E+04</rscale>
<asrwt>0</asrwt>
<pdfrwt beam="1">  1        3 0.38876829E+00 0.48618727E+04</pdfrwt>
<pdfrwt beam="2">  1       -3 0.35977388E+00 0.48618727E+04</pdfrwt>
<totfact> 0.42518489E-04</totfact>
</mgrwt>
</event>
<event>
13    1  0.1045562E-007  0.4454356E+04  0.7818608E-02  0.7918677E-01
          2   -1    0    0  501    0  0.00000000000E+00  0.00000000000E+00  0.29077869556E+04  0.29077869556E+04  0.00000000000E+00 0. -1.
         -2   -1    0    0    0  501 -0.00000000000E+00 -0.00000000000E+00 -0.17058749167E+04  0.17058749167E+04  0.00000000000E+00 0.  1.
    9900016    2    1    2    0    0 -0.47030360804E+03 -0.34392726194E+03  0.17309135970E+04  0.25970388236E+04  0.18463686863E+04 0.  0.
         23    2    3    3    0    0 -0.45893831287E+03 -0.25185608667E+03 -0.26424249098E+03  0.59972710868E+03  0.12566880056E+03 0.  0.
    9900016    2    1    2    0    0  0.47030360804E+03  0.34392726194E+03 -0.52900155801E+03  0.20166230487E+04  0.18567321904E+04 0.  0.
        -24    2    5    5    0    0  0.62249142843E+03  0.31001469402E+03  0.22208082053E+03  0.73383381733E+03  0.74749526016E+02 0.  0.
        -15    1    5    5    0    0  0.99052329836E+02 -0.25762072252E+03  0.13882225144E+03  0.30895212932E+03  0.00000000000E+00 0.  1.
        -15    1    4    4    0    0 -0.15110173239E+03 -0.11690109171E+03 -0.15588935748E+03  0.24657471596E+03  0.00000000000E+00 0.  1.
         15    1    6    6    0    0  0.51797565169E+03  0.24368412189E+03  0.15504022008E+03  0.59305834185E+03  0.00000000000E+00 0. -1.
         15    1    4    4    0    0 -0.30783658048E+03 -0.13495499496E+03 -0.10835313350E+03  0.35315239272E+03  0.00000000000E+00 0. -1.
        -16    1    6    6    0    0  0.10451577674E+03  0.66330572129E+02  0.67040600455E+02  0.14077547548E+03  0.00000000000E+00 0.  1.
         16    1    3    3    0    0 -0.11365295176E+02 -0.92071175270E+02  0.19951560879E+04  0.19973117149E+04  0.00000000000E+00 0. -1.
    9900018    1    5    5    0    0 -0.25124015022E+03  0.29153329044E+03 -0.88990462998E+03  0.97383710207E+03  0.91187600000E+02 0.  0.
<mgrwt>
<rscale>  0 0.44543555E+04</rscale>
<asrwt>0</asrwt>
<pdfrwt beam="1">  1        2 0.44735184E+00 0.44543555E+04</pdfrwt>
<pdfrwt beam="2">  1       -2 0.26244230E+00 0.44543555E+04</pdfrwt>
<totfact> 0.81427002E-02</totfact>
</mgrwt>
</event>
<event>
13    1  0.1045562E-007  0.3963909E+04  0.7818608E-02  0.8011867E-01
         -2   -1    0    0    0  501 -0.00000000000E+00  0.00000000000E+00  0.26583531367E+04  0.26583531367E+04  0.00000000000E+00 0. -1.
          2   -1    0    0  501    0  0.00000000000E+00 -0.00000000000E+00 -0.14776609515E+04  0.14776609515E+04  0.00000000000E+00 0.  1.
    9900016    2    1    2    0    0 -0.45985873450E+03  0.10913032511E+03  0.11613130754E+04  0.22276395976E+04  0.18412904807E+04 0.  0.
         23    2    3    3    0    0  0.49494255602E+03 -0.70645464606E+02 -0.20453045102E+03  0.55148525578E+03  0.11110520474E+03 0.  0.
    9900016    2    1    2    0    0  0.45985873450E+03 -0.10913032511E+03  0.19379109853E+02  0.19083744906E+04  0.18488207493E+04 0.  0.
        -24    2    5    5    0    0  0.19898168536E+03 -0.59498443517E+01  0.74058564087E+03  0.77123276397E+03  0.81876571706E+02 0.  0.
        -15    1    4    4    0    0  0.47057360762E+03 -0.90375565426E+02 -0.20205728376E+03  0.52003308446E+03  0.00000000000E+00 0. -1.
        -15    1    5    5    0    0 -0.28779122210E+03 -0.12470283638E+03 -0.18432257509E+03  0.36379856598E+03  0.00000000000E+00 0.  1.
         15    1    4    4    0    0  0.24368948401E+02  0.19730100820E+02 -0.24731672619E+01  0.31452171321E+02  0.00000000000E+00 0.  1.
         15    1    6    6    0    0  0.12312156153E+03  0.32036191030E+02  0.37727094646E+03  0.39814394820E+03  0.00000000000E+00 0. -1.
        -16    1    6    6    0    0  0.75860123833E+02 -0.37986035382E+02  0.36331469442E+03  0.37308881577E+03  0.00000000000E+00 0.  1.
         16    1    3    3    0    0 -0.95480129052E+03  0.17977578971E+03  0.13658435264E+04  0.16761543418E+04  0.00000000000E+00 0. -1.
    9900018    1    5    5    0    0  0.54866827125E+03  0.21522355626E+02 -0.53688395593E+03  0.77334316070E+03  0.91187600000E+02 0.  0.
<mgrwt>
<rscale>  0 0.39639095E+04</rscale>
<asrwt>0</asrwt>
<pdfrwt beam="1">  1        2 0.22733245E+00 0.39639095E+04</pdfrwt>
<pdfrwt beam="2">  1       -2 0.40897741E+00 0.39639095E+04</pdfrwt>
<totfact> 0.66981906E-02</totfact>
</mgrwt>
</event>
<event>
13    1  0.1045562E-007  0.4089745E+04  0.7818608E-02  0.7986683E-01
          2   -1    0    0  501    0  0.00000000000E+00  0.00000000000E+00  0.14625249862E+04  0.14625249862E+04  0.00000000000E+00 0. -1.
         -2   -1    0    0    0  501 -0.00000000000E+00 -0.00000000000E+00 -0.28590985753E+04  0.28590985753E+04  0.00000000000E+00 0.  1.
    9900016    2    1    2    0    0  0.41295245084E+03  0.30498205655E+03  0.53783952446E+02  0.19199007086E+04  0.18492112469E+04 0.  0.
         23    2    3    3    0    0  0.47087829507E+03 -0.17997345951E+03 -0.79104340659E+03  0.94405721571E+03  0.10666555459E+03 0.  0.
    9900016    2    1    2    0    0 -0.41295245084E+03 -0.30498205655E+03 -0.14503575416E+04  0.24017228529E+04  0.18442320576E+04 0.  0.
        -24    2    5    5    0    0 -0.84736527203E+03  0.23538030798E+03 -0.97523904923E+03  0.13157816602E+04  0.82209371025E+02 0.  0.
        -15    1    5    5    0    0  0.13822294016E+03 -0.54461873993E+03 -0.55996489636E+02  0.56466871696E+03  0.00000000000E+00 0.  1.
        -15    1    4    4    0    0  0.43624228773E+03 -0.13350118586E+03 -0.72004380993E+03  0.85240424005E+03  0.00000000000E+00 0.  1.
         15    1    6    6    0    0 -0.64403181800E+03  0.15216933210E+03 -0.69463532666E+03  0.95940123268E+03  0.00000000000E+00 0. -1.
         15    1    4    4    0    0  0.34636007338E+02 -0.46472273651E+02 -0.70999596653E+02  0.91652975661E+02  0.00000000000E+00 0. -1.
        -16    1    6    6    0    0 -0.20333345403E+03  0.83210975881E+02 -0.28060372256E+03  0.35638042757E+03  0.00000000000E+00 0.  1.
         16    1    3    3    0    0 -0.57925844234E+02  0.48495551607E+03  0.84482735903E+03  0.97584349286E+03  0.00000000000E+00 0. -1.
    9900018    1    5    5    0    0  0.29618988103E+03  0.42563753907E+01 -0.41912200276E+03  0.52127247573E+03  0.91187600000E+02 0.  0.
<mgrwt>
<rscale>  0 0.40897448E+04</rscale>
<asrwt>0</asrwt>
<pdfrwt beam="1">  1        2 0.22500385E+00 0.40897448E+04</pdfrwt>
<pdfrwt beam="2">  1       -2 0.43986131E+00 0.40897448E+04</pdfrwt>
<totfact> 0.42290190E-02</totfact>
</mgrwt>
</event>
<event>
12    1  0.1045562E-007  0.5337228E+04  0.7818608E-02  0.7778492E-01
         -2   -1    0    0    0  501 -0.00000000000E+00  0.00000000000E+00  0.26751546071E+04  0.26751546071E+04  0.00000000000E+00 0.  1.
          2   -1    0    0  501    0  0.00000000000E+00 -0.00000000000E+00 -0.26620896122E+04  0.26620896122E+04  0.00000000000E+00 0. -1.
    9900016    2    1    2    0    0 -0.64781039594E+02  0.18908807413E+04  0.40751575355E+03  0.26758566153E+04  0.18478400839E+04 0.  0.
    9900016    2    1    2    0    0  0.64781039594E+02 -0.18908807413E+04 -0.39445075864E+03  0.26613876039E+04  0.18296901422E+04 0.  0.
         24    2    4    4    0    0  0.52759242377E+03 -0.59168026715E+03 -0.79855232838E+03  0.11281244989E+04  0.80868780784E+02 0.  0.
        -15    1    3    3    0    0 -0.19640353277E+03  0.19322362133E+02 -0.13985555645E+03  0.24188277747E+03  0.00000000000E+00 0.  1.
        -15    1    5    5    0    0  0.23635659507E+03 -0.29205510179E+03 -0.42945007051E+03  0.57060317698E+03  0.00000000000E+00 0.  1.
         15    1    3    3    0    0 -0.18449141203E+03 -0.12067645132E+03 -0.18518846916E+03  0.28791432081E+03  0.00000000000E+00 0. -1.
         15    1    4    4    0    0 -0.15265036349E+03 -0.20790209041E+03 -0.11487452656E+03  0.28235008327E+03  0.00000000000E+00 0. -1.
        -16    1    3    3    0    0  0.31611390521E+03  0.19922348305E+04  0.73255977916E+03  0.21460595171E+04  0.00000000000E+00 0.  1.
         16    1    5    5    0    0  0.29123582870E+03 -0.29962516536E+03 -0.36910225787E+03  0.55752132192E+03  0.00000000000E+00 0. -1.
    9900018    1    4    4    0    0 -0.31016102068E+03 -0.10912983837E+04  0.51897609630E+03  0.12509130217E+04  0.91187600000E+02 0.  0.
<mgrwt>
<rscale>  0 0.53372282E+04</rscale>
<asrwt>0</asrwt>
<pdfrwt beam="1">  1        2 0.40955225E+00 0.53372282E+04</pdfrwt>
<pdfrwt beam="2">  1       -2 0.41156225E+00 0.53372282E+04</pdfrwt>
<totfact> 0.12373141E-02</totfact>
</mgrwt>
</event>
