<event>
11    1  0.7977859E-011  0.5000954E+04  0.7818608E-02  0.8135015E-01
          2   -1    0    0  501    0  0.00000000000E+00  0.00000000000E+00  0.26415204069E+04  0.26415204069E+04  0.00000000000E+00 0. -1.
         -2   -1    0    0    0  501 -0.00000000000E+00 -0.00000000000E+00 -0.39021284710E+04  0.39021284710E+04  0.00000000000E+00 0.  1.
    9900016    2    1    2    0    0  0.40830944194E+03 -0.12667565529E+04 -0.11661968568E+04  0.28221433168E+04  0.21984287632E+04 0.  0.
        -24    2    3    3    0    0 -0.66968766321E+03 -0.12555548708E+04 -0.97556127502E+03  0.17273624431E+04  0.84626288122E+02 0.  0.
        -15    1    3    3    0    0  0.10779971051E+04 -0.11201682133E+02 -0.19063558175E+03  0.10947808737E+04  0.00000000000E+00 0.  1.
        -15    1    1    2    0    0 -0.60454202921E+03 -0.47789989725E+03  0.31775517023E+03  0.83356326999E+03  0.00000000000E+00 0. -1.
         15    1    4    4    0    0 -0.61999929513E+03 -0.11350981115E+04 -0.86006486790E+03  0.15532412645E+04  0.00000000000E+00 0. -1.
         15    1    1    2    0    0 -0.22771109821E+03  0.19522066363E+03  0.24480972703E+03  0.38716308476E+03  0.00000000000E+00 0.  1.
        -16    1    4    4    0    0 -0.49688368082E+02 -0.12045675934E+03 -0.11549640712E+03  0.17412117864E+03  0.00000000000E+00 0.  1.
         16    1    1    2    0    0 -0.48555874528E+03  0.13280528416E+04 -0.65954663293E+03  0.15602863218E+04  0.00000000000E+00 0. -1.
    9900018    1    1    2    0    0  0.90950243076E+03  0.22138294501E+03  0.25705283349E+01  0.94049288456E+03  0.91187600000E+02 0.  0.
<mgrwt>
<rscale>  0 0.34118035E+04</rscale>
<asrwt>0</asrwt>
<pdfrwt beam="1">  1        2 0.40638776E+00 0.50009544E+04</pdfrwt>
<pdfrwt beam="2">  1       -2 0.60032746E+00 0.50009544E+04</pdfrwt>
<totfact> 0.10228056E-03</totfact>
</mgrwt>
</event>
<event>
11    1  0.7977859E-011  0.4087914E+04  0.7818608E-02  0.8238977E-01
          2   -1    0    0  501    0  0.00000000000E+00  0.00000000000E+00  0.19357137961E+04  0.19357137961E+04  0.00000000000E+00 0.  1.
         -2   -1    0    0    0  501 -0.00000000000E+00 -0.00000000000E+00 -0.38400954024E+04  0.38400954024E+04  0.00000000000E+00 0. -1.
    9900016    2    1    2    0    0 -0.12809356026E+03  0.37738735742E+03 -0.16863135509E+02  0.22394563348E+04  0.22036449651E+04 0.  0.
         24    2    3    3    0    0  0.63440169565E+03  0.89285371824E+03  0.47432580656E+03  0.11962060478E+04  0.79187527107E+02 0.  0.
        -15    1    1    2    0    0  0.37035587261E+02 -0.32498641822E+03 -0.11112309350E+03  0.34545064577E+03  0.00000000000E+00 0.  1.
        -15    1    4    4    0    0  0.35298173069E+03  0.43707837422E+03  0.26378451004E+03  0.62065761507E+03  0.00000000000E+00 0.  1.
         15    1    1    2    0    0 -0.62558969706E+03  0.55933286072E+03 -0.92934095775E+03  0.12521542772E+04  0.00000000000E+00 0. -1.
         15    1    3    3    0    0 -0.76249525591E+03 -0.51546636082E+03 -0.49118894207E+03  0.10432502870E+04  0.00000000000E+00 0. -1.
        -16    1    1    2    0    0  0.75673948155E+03 -0.66564472362E+03  0.74191667787E+02  0.10105651610E+04  0.00000000000E+00 0.  1.
         16    1    4    4    0    0  0.28141996497E+03  0.45577534403E+03  0.21054129653E+03  0.57554843276E+03  0.00000000000E+00 0. -1.
    9900018    1    1    2    0    0 -0.40091811492E+02  0.53910923692E+02 -0.92124608728E+03  0.92818277983E+03  0.91187600000E+02 0.  0.
<mgrwt>
<rscale>  0 0.30167038E+04</rscale>
<asrwt>0</asrwt>
<pdfrwt beam="1">  1        2 0.29780212E+00 0.40879136E+04</pdfrwt>
<pdfrwt beam="2">  1       -2 0.59078390E+00 0.40879136E+04</pdfrwt>
<totfact> 0.30144292E-03</totfact>
</mgrwt>
</event>
<event>
11    1  0.7977859E-011  0.7155443E+04  0.7818608E-02  0.7561614E-01
         -2   -1    0    0    0  501 -0.00000000000E+00  0.00000000000E+00  0.28854019626E+04  0.28854019626E+04  0.00000000000E+00 0.  1.
          2   -1    0    0  501    0  0.00000000000E+00 -0.00000000000E+00 -0.44361555129E+04  0.44361555129E+04  0.00000000000E+00 0. -1.
    9900016    2    1    2    0    0  0.47405794033E+03 -0.35509706889E+03  0.37337765726E+03  0.23156345864E+04  0.22072443914E+04 0.  0.
        -24    2    3    3    0    0 -0.73579711040E+03  0.24390077354E+03  0.55058528786E+03  0.95403618618E+03  0.78459609543E+02 0.  0.
        -15    1    1    2    0    0  0.14592797642E+04  0.34483878861E+03 -0.89028298971E+03  0.17438506307E+04  0.00000000000E+00 0.  1.
        -15    1    3    3    0    0  0.12098550507E+04 -0.59899784243E+03 -0.17720763060E+03  0.13615984002E+04  0.00000000000E+00 0.  1.
         15    1    1    2    0    0 -0.11883286720E+04 -0.23700571691E+03  0.25726199490E+02  0.12120060148E+04  0.00000000000E+00 0. -1.
         15    1    4    4    0    0 -0.70704047105E+03  0.23815856843E+03  0.54561143722E+03  0.92429301191E+03  0.00000000000E+00 0. -1.
        -16    1    4    4    0    0 -0.28756639345E+02  0.57422051044E+01  0.49738506382E+01  0.29743174277E+02  0.00000000000E+00 0.  1.
         16    1    1    2    0    0 -0.10208042019E+04  0.64049930030E+03 -0.98308771974E+03  0.15552305414E+04  0.00000000000E+00 0. -1.
    9900018    1    1    2    0    0  0.27579516932E+03 -0.39323530310E+03 -0.76486697569E+02  0.49483570236E+03  0.91187600000E+02 0.  0.
<mgrwt>
<rscale>  0 0.71554432E+04</rscale>
<asrwt>0</asrwt>
<pdfrwt beam="1">  1        2 0.68248546E+00 0.71554432E+04</pdfrwt>
<pdfrwt beam="2">  1       -2 0.44390799E+00 0.71554432E+04</pdfrwt>
<totfact> 0.33083447E-04</totfact>
</mgrwt>
</event>
<event>
11    1  0.7977859E-011  0.4908452E+04  0.7818608E-02  0.8167799E-01
         -2   -1    0    0    0  501 -0.00000000000E+00  0.00000000000E+00  0.48028940109E+04  0.48028940109E+04  0.00000000000E+00 0.  1.
          2   -1    0    0  501    0  0.00000000000E+00 -0.00000000000E+00 -0.20328217712E+04  0.20328217712E+04  0.00000000000E+00 0. -1.
    9900016    2    1    2    0    0  0.12203223395E+03 -0.81379658664E+02  0.44702179196E+03  0.22631171684E+04  0.22136748452E+04 0.  0.
         24    2    3    3    0    0 -0.65652079828E+03 -0.34897031573E+03 -0.58033498089E+03  0.94660225300E+03  0.80419496951E+02 0.  0.
        -15    1    4    4    0    0 -0.54693563690E+03 -0.27460734130E+03 -0.51001084142E+03  0.79665478168E+03  0.00000000000E+00 0.  1.
        -15    1    1    2    0    0 -0.29149871365E+03  0.45976369067E+03  0.64809676431E+02  0.54822846102E+03  0.00000000000E+00 0.  1.
         15    1    3    3    0    0  0.77855303223E+03  0.26759065707E+03  0.10273567729E+04  0.13165149154E+04  0.00000000000E+00 0. -1.
         15    1    1    2    0    0 -0.90581191753E+02  0.27135353126E+03 -0.39068998418E+03  0.48422758592E+03  0.00000000000E+00 0. -1.
        -16    1    1    2    0    0 -0.46670100784E+03 -0.74051090686E+03  0.26617530435E+04  0.28019806385E+04  0.00000000000E+00 0.  1.
         16    1    4    4    0    0 -0.10958516138E+03 -0.74362974431E+02 -0.70324139472E+02  0.14994747132E+03  0.00000000000E+00 0. -1.
    9900018    1    1    2    0    0  0.72674867929E+03  0.90773343601E+02 -0.12822288099E+02  0.73816192819E+03  0.91187600000E+02 0.  0.
<mgrwt>
<rscale>  0 0.32807956E+04</rscale>
<asrwt>0</asrwt>
<pdfrwt beam="1">  1        2 0.31274181E+00 0.49084520E+04</pdfrwt>
<pdfrwt beam="2">  1       -2 0.73890677E+00 0.49084520E+04</pdfrwt>
<totfact> 0.72767029E-04</totfact>
</mgrwt>
</event>
<event>
11    1  0.7977859E-011  0.4001075E+04  0.7818608E-02  0.8250952E-01
          2   -1    0    0  501    0  0.00000000000E+00  0.00000000000E+00  0.21953690192E+04  0.21953690192E+04  0.00000000000E+00 0.  1.
         -2   -1    0    0    0  501 -0.00000000000E+00 -0.00000000000E+00 -0.31178310884E+04  0.31178310884E+04  0.00000000000E+00 0. -1.
    9900016    2    1    2    0    0  0.67484372463E+03  0.32131404062E+03 -0.86866716870E+03  0.24785010377E+04  0.21976642097E+04 0.  0.
         24    2    3    3    0    0  0.13069623605E+04  0.79273810050E+03 -0.62323920357E+03  0.16526381555E+04  0.78749352503E+02 0.  0.
        -15    1    1    2    0    0 -0.50192627513E+03 -0.23455610837E+03  0.28157840889E+03  0.62147643076E+03  0.00000000000E+00 0.  1.
        -15    1    4    4    0    0  0.82555147086E+03  0.48986750770E+03 -0.43102094716E+03  0.10522758493E+04  0.00000000000E+00 0.  1.
         15    1    1    2    0    0  0.91858700314E+03 -0.96347528436E+02 -0.29321650455E+03  0.96905151933E+03  0.00000000000E+00 0. -1.
         15    1    3    3    0    0 -0.63211863588E+03 -0.47142405987E+03 -0.24542796513E+03  0.82586288216E+03  0.00000000000E+00 0. -1.
        -16    1    1    2    0    0 -0.14144005946E+03  0.57557070590E+02  0.20639392072E+03  0.25674220009E+03  0.00000000000E+00 0.  1.
         16    1    4    4    0    0  0.48141088965E+03  0.30287059279E+03 -0.19221825641E+03  0.60036230624E+03  0.00000000000E+00 0. -1.
    9900018    1    1    2    0    0 -0.95006439317E+03 -0.47967474403E+02 -0.24855072554E+03  0.98742891964E+03  0.91187600000E+02 0.  0.
<mgrwt>
<rscale>  0 0.29748416E+04</rscale>
<asrwt>0</asrwt>
<pdfrwt beam="1">  1        2 0.33774908E+00 0.40010746E+04</pdfrwt>
<pdfrwt beam="2">  1       -2 0.47966632E+00 0.40010746E+04</pdfrwt>
<totfact> 0.87470057E-03</totfact>
</mgrwt>
</event>
<event>
11    1  0.7977859E-011  0.4831542E+04  0.7818608E-02  0.8319438E-01
         -2   -1    0    0    0  501 -0.00000000000E+00  0.00000000000E+00  0.20135683146E+04  0.20135683146E+04  0.00000000000E+00 0.  1.
          2   -1    0    0  501    0  0.00000000000E+00 -0.00000000000E+00 -0.53433106604E+04  0.53433106604E+04  0.00000000000E+00 0. -1.
    9900016    2    1    2    0    0  0.10443747314E+03 -0.62835337040E+03  0.63838297330E+03  0.23815680980E+04  0.22042229109E+04 0.  0.
         24    2    3    3    0    0  0.28025204885E+03 -0.69875508407E+03  0.14026546611E+04  0.15941810400E+04  0.84694815469E+02 0.  0.
        -15    1    1    2    0    0  0.18897188500E+03  0.28476965300E+03 -0.18610426648E+04  0.18921638219E+04  0.00000000000E+00 0. -1.
        -15    1    4    4    0    0  0.19216208281E+03 -0.38118822157E+03  0.83514513398E+03  0.93792223619E+03  0.00000000000E+00 0.  1.
         15    1    3    3    0    0 -0.17581457572E+03  0.70401713671E+02 -0.76427168778E+03  0.78738705797E+03  0.00000000000E+00 0. -1.
         15    1    1    2    0    0  0.32832566972E+02  0.14934855784E+03 -0.51855847035E+03  0.54063467920E+03  0.00000000000E+00 0.  1.
        -16    1    1    2    0    0 -0.49531690050E+03 -0.42225483494E+03  0.16703347892E+03  0.67196589246E+03  0.00000000000E+00 0.  1.
         16    1    4    4    0    0  0.88089966043E+02 -0.31756686250E+03  0.56750952711E+03  0.65625880385E+03  0.00000000000E+00 0. -1.
    9900018    1    1    2    0    0  0.16907497540E+03  0.61648999450E+03 -0.17555576629E+04  0.18705464834E+04  0.91187600000E+02 0.  0.
<mgrwt>
<rscale>  0 0.27485004E+04</rscale>
<asrwt>0</asrwt>
<pdfrwt beam="1">  1        2 0.82204778E+00 0.48315422E+04</pdfrwt>
<pdfrwt beam="2">  1       -2 0.30977975E+00 0.48315422E+04</pdfrwt>
<totfact> 0.21064987E-04</totfact>
</mgrwt>
</event>
