<event>
12    1  0.2099247E-012  0.1399264E+04  0.7818608E-02  0.8954351E-01
          2   -1    0    0  501    0  0.00000000000E+00  0.00000000000E+00  0.25321445054E+04  0.25321445054E+04  0.00000000000E+00 0. -1.
         -2   -1    0    0    0  501 -0.00000000000E+00 -0.00000000000E+00 -0.19330854758E+03  0.19330854758E+03  0.00000000000E+00 0.  1.
    9900016    2    1    2    0    0  0.39758534963E+03 -0.71065518777E+02  0.13467620605E+04  0.15264310255E+04  0.59422151565E+03 0.  0.
         23    2    3    3    0    0  0.25490086443E+03 -0.12005653746E+03  0.91763556153E+03  0.96308075758E+03  0.77983966103E+02 0.  0.
         23    2    3    3    0    0 -0.74052180908E+02 -0.48968298988E+02  0.15457651773E+03  0.20010310332E+03  0.90916072957E+02 0.  0.
        -15    1    4    4    0    0  0.60548867684E+02 -0.23911949499E+02  0.33808180403E+03  0.34429239451E+03  0.00000000000E+00 0.  1.
        -15    1    5    5    0    0 -0.44087636719E+02  0.11960755811E+02  0.10938427198E+03  0.11853985974E+03  0.00000000000E+00 0. -1.
         15    1    4    4    0    0  0.19435199674E+03 -0.96144587965E+02  0.57955375750E+03  0.61878836307E+03  0.00000000000E+00 0. -1.
         15    1    5    5    0    0 -0.29964544188E+02 -0.60929054799E+02  0.45192245750E+02  0.81563243578E+02  0.00000000000E+00 0.  1.
        -16    1    3    3    0    0  0.21673666611E+03  0.97959317674E+02  0.27454998127E+03  0.36324716458E+03  0.00000000000E+00 0.  1.
         16    1    1    2    0    0  0.11231386494E+03 -0.24761931861E+02  0.63352298209E+02  0.13130525967E+03  0.00000000000E+00 0. -1.
    9900018    1    1    2    0    0 -0.50989921457E+03  0.95827450639E+02  0.92872159911E+03  0.10677167679E+04  0.91187600000E+02 0.  0.
<mgrwt>
<rscale>  0 0.13992643E+04</rscale>
<asrwt>0</asrwt>
<pdfrwt beam="1">  1        2 0.38956067E+00 0.13992643E+04</pdfrwt>
<pdfrwt beam="2">  1       -2 0.29739778E-01 0.13992643E+04</pdfrwt>
<totfact> 0.33962884E+01</totfact>
</mgrwt>
</event>
<event>
12    1  0.2099247E-012  0.2352417E+04  0.7818608E-02  0.8457536E-01
         -2   -1    0    0    0  501 -0.00000000000E+00  0.00000000000E+00  0.64161627373E+03  0.64161627373E+03  0.00000000000E+00 0.  1.
          2   -1    0    0  501    0  0.00000000000E+00 -0.00000000000E+00 -0.21562214390E+04  0.21562214390E+04  0.00000000000E+00 0. -1.
    9900016    2    1    2    0    0 -0.13138571524E+03 -0.42631935811E+03 -0.20466904780E+03  0.80668927796E+03  0.64019354166E+03 0.  0.
         23    2    3    3    0    0  0.19287485187E+02 -0.15646512178E+03 -0.16793474050E+02  0.17138609638E+03  0.65098631653E+02 0.  0.
         23    2    3    3    0    0 -0.76109846154E+02 -0.36885287051E+03 -0.28286519882E+03  0.47915116513E+03  0.87908870863E+02 0.  0.
        -15    1    4    4    0    0  0.20149592474E+02 -0.14499436907E+03  0.52932202906E+01  0.14648341653E+03  0.00000000000E+00 0. -1.
        -15    1    5    5    0    0 -0.90678014796E+02 -0.35529213330E+03 -0.27127338874E+03  0.45611868389E+03  0.00000000000E+00 0. -1.
         15    1    4    4    0    0 -0.86210728756E+00 -0.11470752717E+02 -0.22086694340E+02  0.24902679851E+02  0.00000000000E+00 0.  1.
         15    1    5    5    0    0  0.14568168642E+02 -0.13560737212E+02 -0.11591810073E+02  0.23032481240E+02  0.00000000000E+00 0.  1.
        -16    1    3    3    0    0 -0.74563354269E+02  0.98998634186E+02  0.94989625071E+02  0.15615201645E+03  0.00000000000E+00 0.  1.
         16    1    1    2    0    0 -0.42331495233E+03  0.73800541860E+03 -0.83368117436E+03  0.11911640723E+04  0.00000000000E+00 0. -1.
    9900018    1    1    2    0    0  0.55470066756E+03 -0.31168606049E+03 -0.47625494309E+03  0.79998436242E+03  0.91187600000E+02 0.  0.
<mgrwt>
<rscale>  0 0.23524173E+04</rscale>
<asrwt>0</asrwt>
<pdfrwt beam="1">  1        2 0.33172637E+00 0.23524173E+04</pdfrwt>
<pdfrwt beam="2">  1       -2 0.98710198E-01 0.23524173E+04</pdfrwt>
<totfact> 0.42015638E+00</totfact>
</mgrwt>
</event>
<event>
12    1  0.2099247E-012  0.1177922E+04  0.7818608E-02  0.9132403E-01
         -1   -1    0    0    0  501 -0.00000000000E+00  0.00000000000E+00  0.12717907980E+03  0.12717907980E+03  0.00000000000E+00 0.  1.
          1   -1    0    0  501    0  0.00000000000E+00 -0.00000000000E+00 -0.27274559619E+04  0.27274559619E+04  0.00000000000E+00 0. -1.
    9900016    2    1    2    0    0 -0.93727859589E+02  0.31923902874E+03 -0.19208209737E+04  0.20980910571E+04  0.77571541291E+03 0.  0.
         23    2    3    3    0    0 -0.24112773644E+02  0.99399668780E+02 -0.19166086496E+03  0.23055515241E+03  0.77201497008E+02 0.  0.
         23    2    3    3    0    0  0.22528362458E+03  0.13658480143E+03 -0.78736474905E+03  0.83525268366E+03  0.91080612808E+02 0.  0.
        -15    1    4    4    0    0  0.97523426503E+00  0.20978646971E+02 -0.11870003597E+03  0.12054357407E+03  0.00000000000E+00 0. -1.
        -15    1    5    5    0    0  0.11952695140E+02  0.20409151091E+02 -0.22137439332E+02  0.32395471744E+02  0.00000000000E+00 0.  1.
         15    1    4    4    0    0 -0.25088007909E+02  0.78421021809E+02 -0.72960828992E+02  0.11001157834E+03  0.00000000000E+00 0.  1.
         15    1    5    5    0    0  0.21333092945E+03  0.11617565034E+03 -0.76522730971E+03  0.80285721191E+03  0.00000000000E+00 0. -1.
        -16    1    1    2    0    0  0.93727859589E+02 -0.31923902874E+03 -0.67945590833E+03  0.75654398451E+03  0.00000000000E+00 0.  1.
         16    1    3    3    0    0 -0.48301785892E+02  0.53583325604E+01  0.28122084395E+01  0.48679387471E+02  0.00000000000E+00 0. -1.
    9900018    1    3    3    0    0 -0.24659692464E+03  0.77896225977E+02 -0.94460756816E+03  0.98360383361E+03  0.91187600000E+02 0.  0.
<mgrwt>
<rscale>  0 0.11779225E+04</rscale>
<asrwt>0</asrwt>
<pdfrwt beam="1">  1        1 0.41960862E+00 0.11779225E+04</pdfrwt>
<pdfrwt beam="2">  1       -1 0.19566012E-01 0.11779225E+04</pdfrwt>
<totfact> 0.19934508E+01</totfact>
</mgrwt>
</event>
<event>
12    1  0.2099247E-012  0.1644494E+04  0.7818608E-02  0.8793670E-01
         -1   -1    0    0    0  501 -0.00000000000E+00  0.00000000000E+00  0.34418172346E+03  0.34418172346E+03  0.00000000000E+00 0.  1.
          1   -1    0    0  501    0  0.00000000000E+00 -0.00000000000E+00 -0.19643409944E+04  0.19643409944E+04  0.00000000000E+00 0. -1.
    9900016    2    1    2    0    0 -0.37450413876E+03  0.93768512515E+02 -0.34645963166E+03  0.97759948379E+03  0.82862572398E+03 0.  0.
         23    2    3    3    0    0 -0.52425567445E+02 -0.33408687478E+01  0.69918410631E+02  0.11706101606E+03  0.77814496141E+02 0.  0.
         23    2    3    3    0    0 -0.30888576102E+03  0.16526758468E+03 -0.28508301546E+03  0.46090125069E+03  0.91835991219E+02 0.  0.
        -15    1    4    4    0    0 -0.59522560224E+02 -0.23234657870E+02  0.27277438168E+02  0.69475485856E+02  0.00000000000E+00 0. -1.
        -15    1    5    5    0    0 -0.14568639913E+03  0.12677592679E+03 -0.17239591210E+03  0.25887644353E+03  0.00000000000E+00 0. -1.
         15    1    4    4    0    0  0.70969927789E+01  0.19893789122E+02  0.42640972463E+02  0.47585530203E+02  0.00000000000E+00 0.  1.
         15    1    5    5    0    0 -0.16319936188E+03  0.38491657887E+02 -0.11268710336E+03  0.20202480716E+03  0.00000000000E+00 0.  1.
        -16    1    1    2    0    0  0.37450413876E+03 -0.93768512515E+02 -0.12736996393E+04  0.13309232341E+04  0.00000000000E+00 0.  1.
         16    1    3    3    0    0  0.41897338816E+02  0.46688325061E+02 -0.21364119555E+03  0.22266060974E+03  0.00000000000E+00 0. -1.
    9900018    1    3    3    0    0 -0.55090149114E+02 -0.11484652847E+03  0.82346168716E+02  0.17697660729E+03  0.91187600000E+02 0.  0.
<mgrwt>
<rscale>  0 0.16444942E+04</rscale>
<asrwt>0</asrwt>
<pdfrwt beam="1">  1        1 0.30220630E+00 0.16444942E+04</pdfrwt>
<pdfrwt beam="2">  1       -1 0.52951036E-01 0.16444942E+04</pdfrwt>
<totfact> 0.10834869E+01</totfact>
</mgrwt>
</event>
<event>
11    1  0.2099247E-012  0.1041387E+04  0.7818608E-02  0.9264282E-01
         -1   -1    0    0    0  501 -0.00000000000E+00  0.00000000000E+00  0.19012294290E+03  0.19012294290E+03  0.00000000000E+00 0.  1.
          1   -1    0    0  501    0  0.00000000000E+00 -0.00000000000E+00 -0.14260334631E+04  0.14260334631E+04  0.00000000000E+00 0. -1.
    9900016    2    1    2    0    0 -0.18760091398E+03  0.23328917772E+01 -0.42908050690E+03  0.75636878716E+03  0.59395632456E+03 0.  0.
         23    2    3    3    0    0  0.86471053026E+02  0.14257427727E+03 -0.17210292108E+03  0.25509346744E+03  0.87456241262E+02 0.  0.
        -15    1    3    3    0    0 -0.95753954272E+02 -0.85748839258E+02 -0.19279969243E+03  0.23171837345E+03  0.00000000000E+00 0.  1.
        -15    1    4    4    0    0  0.26142157360E+02  0.10842954936E+03 -0.70003702433E+02  0.13168484317E+03  0.00000000000E+00 0.  1.
         15    1    4    4    0    0  0.60328895666E+02  0.34144727909E+02 -0.10209921865E+03  0.12340862427E+03  0.00000000000E+00 0. -1.
         15    1    3    3    0    0 -0.44547954878E+02  0.52887588745E+02 -0.69361100933E+02  0.97941715574E+02  0.00000000000E+00 0. -1.
        -16    1    3    3    0    0 -0.13377005786E+03 -0.10738013497E+03  0.51832075518E+01  0.17161523070E+03  0.00000000000E+00 0.  1.
         16    1    1    2    0    0  0.37236665304E+02 -0.36976783164E+02 -0.51249680871E+03  0.51517650439E+03  0.00000000000E+00 0. -1.
    9900018    1    1    2    0    0  0.15036424868E+03  0.34643891387E+02 -0.29433320462E+03  0.34461111448E+03  0.91187600000E+02 0.  0.
<mgrwt>
<rscale>  0 0.10413869E+04</rscale>
<asrwt>0</asrwt>
<pdfrwt beam="1">  1        1 0.21938977E+00 0.10413869E+04</pdfrwt>
<pdfrwt beam="2">  1       -1 0.29249683E-01 0.10413869E+04</pdfrwt>
<totfact> 0.78556899E+01</totfact>
</mgrwt>
</event>
<event>
12    1  0.2099247E-012  0.8539710E+03  0.7818608E-02  0.9485023E-01
         -2   -1    0    0    0  501 -0.00000000000E+00  0.00000000000E+00  0.66043966880E+03  0.66043966880E+03  0.00000000000E+00 0.  1.
          2   -1    0    0  501    0  0.00000000000E+00 -0.00000000000E+00 -0.27605342836E+03  0.27605342836E+03  0.00000000000E+00 0. -1.
    9900016    2    1    2    0    0  0.28462190916E+02  0.24399667751E+02  0.35895040433E+03  0.89118943442E+03  0.81484217807E+03 0.  0.
         25    2    3    3    0    0  0.51129867912E+02  0.13746370539E+03  0.68149572268E+02  0.20438601763E+03  0.12497498274E+03 0.  0.
         23    2    4    4    0    0  0.16572079649E+02  0.97203000656E+02  0.69290587181E+02  0.15039570012E+03  0.89970128271E+02 0.  0.
        -15    1    4    4    0    0  0.29108176493E+02  0.30454084033E+02 -0.42688682148E+01  0.42343363221E+02  0.00000000000E+00 0. -1.
        -15    1    5    5    0    0 -0.23998788816E+01  0.47561285026E+02 -0.15712711751E+02  0.50147029449E+02  0.00000000000E+00 0.  1.
         15    1    5    5    0    0  0.18971958530E+02  0.49641715630E+02  0.85003298932E+02  0.10024867067E+03  0.00000000000E+00 0. -1.
         15    1    4    4    0    0  0.54496117700E+01  0.98066207033E+01  0.31278533017E+01  0.11646954295E+02  0.00000000000E+00 0.  1.
        -16    1    1    2    0    0 -0.28462190916E+02 -0.24399667751E+02  0.25435836111E+02  0.45303662730E+02  0.00000000000E+00 0.  1.
         16    1    3    3    0    0 -0.26307917667E+03 -0.18705611195E+02  0.31617800278E+03  0.41173909522E+03  0.00000000000E+00 0. -1.
    9900018    1    3    3    0    0  0.24041149967E+03 -0.94358426446E+02 -0.25377170718E+02  0.27506432158E+03  0.91187600000E+02 0.  0.
<mgrwt>
<rscale>  0 0.85397104E+03</rscale>
<asrwt>0</asrwt>
<pdfrwt beam="1">  1        2 0.42469758E-01 0.85397104E+03</pdfrwt>
<pdfrwt beam="2">  1       -2 0.10160610E+00 0.85397104E+03</pdfrwt>
<totfact> 0.96303607E+01</totfact>
</mgrwt>
</event>
<event>
11    1  0.2099247E-012  0.6511456E+03  0.7818608E-02  0.9804632E-01
          1   -1    0    0  501    0  0.00000000000E+00  0.00000000000E+00  0.75424976892E+02  0.75424976892E+02  0.00000000000E+00 0. -1.
         -1   -1    0    0    0  501 -0.00000000000E+00 -0.00000000000E+00 -0.14053389206E+04  0.14053389206E+04  0.00000000000E+00 0.  1.
    9900016    2    1    2    0    0 -0.21927749781E+01  0.60973534919E+02 -0.13048435297E+04  0.14148009846E+04  0.54343592878E+03 0.  0.
         23    2    3    3    0    0  0.10381245264E+03 -0.70141542717E+02 -0.44088726687E+03  0.46734047013E+03  0.91261555984E+02 0.  0.
        -15    1    3    3    0    0  0.96224728038E+00  0.18554373808E+02 -0.22143296963E+02  0.28905298954E+02  0.00000000000E+00 0.  1.
        -15    1    4    4    0    0  0.54467042224E+02 -0.87121887370E+02 -0.29894653509E+03  0.31611060214E+03  0.00000000000E+00 0.  1.
         15    1    4    4    0    0  0.49345410411E+02  0.16980344654E+02 -0.14194073178E+03  0.15122986799E+03  0.00000000000E+00 0. -1.
         15    1    3    3    0    0 -0.30320522306E+02  0.29638949900E+02 -0.89697565436E+02  0.99214185827E+02  0.00000000000E+00 0. -1.
        -16    1    3    3    0    0 -0.15915968381E+03  0.11596895748E+03 -0.48369297461E+03  0.52224467229E+03  0.00000000000E+00 0.  1.
         16    1    1    2    0    0  0.21927749781E+01 -0.60973534919E+02 -0.25070413987E+02  0.65962912914E+02  0.00000000000E+00 0. -1.
    9900018    1    3    3    0    0  0.82512731220E+02 -0.33047203553E+02 -0.26842242585E+03  0.29709635738E+03  0.91187600000E+02 0.  0.
<mgrwt>
<rscale>  0 0.65114562E+03</rscale>
<asrwt>0</asrwt>
<pdfrwt beam="1">  1        1 0.11603844E-01 0.65114562E+03</pdfrwt>
<pdfrwt beam="2">  1       -1 0.21620596E+00 0.65114562E+03</pdfrwt>
<totfact> 0.65893799E+01</totfact>
</mgrwt>
</event>
<event>
11    1  0.2099247E-012  0.6716282E+03  0.7818608E-02  0.9767021E-01
          1   -1    0    0  501    0  0.00000000000E+00  0.00000000000E+00  0.40514441972E+03  0.40514441972E+03  0.00000000000E+00 0. -1.
         -1   -1    0    0    0  501 -0.00000000000E+00 -0.00000000000E+00 -0.27834792724E+03  0.27834792724E+03  0.00000000000E+00 0.  1.
    9900016    2    1    2    0    0  0.81958493153E+02 -0.95013510079E+02  0.10859425378E+03  0.55670085201E+03  0.53139285372E+03 0.  0.
         23    2    3    3    0    0 -0.51241674079E+02  0.55848055342E+01  0.39401190096E+02  0.11230140903E+03  0.91663806782E+02 0.  0.
        -15    1    3    3    0    0  0.95810924514E+01 -0.11889680208E+02  0.17348820626E+02  0.23111542682E+02  0.00000000000E+00 0.  1.
        -15    1    4    4    0    0  0.93796341969E+01 -0.17028838945E+02 -0.17485710266E+02  0.26147828915E+02  0.00000000000E+00 0.  1.
         15    1    3    3    0    0  0.24751936255E+02 -0.10076553655E+02 -0.36987402424E+01  0.26979176439E+02  0.00000000000E+00 0. -1.
         15    1    4    4    0    0 -0.60621308276E+02  0.22613644479E+02  0.56886900362E+02  0.86153580114E+02  0.00000000000E+00 0. -1.
        -16    1    1    2    0    0 -0.81958493153E+02  0.95013510079E+02  0.18202238693E+02  0.12679149495E+03  0.00000000000E+00 0.  1.
         16    1    3    3    0    0 -0.56606183008E+02 -0.10894244432E+03  0.14568401975E+03  0.19051653404E+03  0.00000000000E+00 0. -1.
    9900018    1    3    3    0    0  0.15547332153E+03  0.30310362571E+02 -0.90141036452E+02  0.20379218983E+03  0.91187600000E+02 0.  0.
<mgrwt>
<rscale>  0 0.67162820E+03</rscale>
<asrwt>0</asrwt>
<pdfrwt beam="1">  1        1 0.62329911E-01 0.67162820E+03</pdfrwt>
<pdfrwt beam="2">  1       -1 0.42822758E-01 0.67162820E+03</pdfrwt>
<totfact> 0.32095632E+02</totfact>
</mgrwt>
</event>
