<event>
11    1  0.1084834E-012  0.1174253E+04  0.7818608E-02  0.9135696E-01
          2   -1    0    0  501    0  0.00000000000E+00  0.00000000000E+00  0.19795934117E+03  0.19795934117E+03  0.00000000000E+00 0. -1.
         -2   -1    0    0    0  501 -0.00000000000E+00 -0.00000000000E+00 -0.17413551832E+04  0.17413551832E+04  0.00000000000E+00 0.  1.
    9900016    2    1    2    0    0 -0.33727500319E+03  0.37330542575E+02 -0.12989840489E+04  0.15211218393E+04  0.71505530812E+03 0.  0.
         23    2    3    3    0    0 -0.81088332651E+02 -0.16568615871E+03 -0.43673511145E+03  0.48204988249E+03  0.87219898857E+02 0.  0.
        -15    1    3    3    0    0  0.43457626668E+01 -0.40071833216E+02  0.85617439745E+01  0.41206078803E+02  0.00000000000E+00 0.  1.
        -15    1    4    4    0    0 -0.54656276295E+02 -0.65653947458E+02 -0.10970518815E+03  0.13904307844E+03  0.00000000000E+00 0.  1.
         15    1    3    3    0    0  0.48356417443E+02  0.84335854327E+02 -0.22730695596E+03  0.24722324256E+03  0.00000000000E+00 0. -1.
         15    1    4    4    0    0 -0.26432056356E+02 -0.10003221125E+03 -0.32702992330E+03  0.34300680405E+03  0.00000000000E+00 0. -1.
        -16    1    1    2    0    0  0.33727500319E+03 -0.37330542575E+02 -0.24441179313E+03  0.41819268502E+03  0.00000000000E+00 0.  1.
         16    1    3    3    0    0 -0.46855670748E+02  0.87579129706E+02 -0.18638237291E+03  0.21119646487E+03  0.00000000000E+00 0. -1.
    9900018    1    3    3    0    0 -0.26203317990E+03  0.71173550468E+02 -0.45712135254E+03  0.53944617062E+03  0.91187600000E+02 0.  0.
<mgrwt>
<rscale>  0 0.11742530E+04</rscale>
<asrwt>0</asrwt>
<pdfrwt beam="1">  1        2 0.30455282E-01 0.11742530E+04</pdfrwt>
<pdfrwt beam="2">  1       -2 0.26790081E+00 0.11742530E+04</pdfrwt>
<totfact> 0.86818401E+00</totfact>
</mgrwt>
</event>
<event>
11    1  0.1084834E-012  0.8208607E+03  0.7818608E-02  0.9530303E-01
         -1   -1    0    0    0  501 -0.00000000000E+00  0.00000000000E+00  0.51432029225E+03  0.51432029225E+03  0.00000000000E+00 0.  1.
          1   -1    0    0  501    0  0.00000000000E+00 -0.00000000000E+00 -0.32752564844E+03  0.32752564844E+03  0.00000000000E+00 0. -1.
    9900016    2    1    2    0    0  0.66535979743E+02 -0.65013241248E+02  0.21543265773E+03  0.74451201044E+03  0.70656432512E+03 0.  0.
         23    2    3    3    0    0 -0.19176644444E+03  0.18992907881E+02  0.84073105630E+02  0.23165727361E+03  0.97271298758E+02 0.  0.
        -15    1    4    4    0    0 -0.25163865892E+02 -0.97377289449E+01  0.53408055926E+02  0.59836978110E+02  0.00000000000E+00 0. -1.
        -15    1    3    3    0    0  0.16580420289E+03  0.90135816680E+02  0.12245069027E+03  0.22496593229E+03  0.00000000000E+00 0.  1.
         15    1    3    3    0    0 -0.13027513465E+02  0.23780137351E+02 -0.13590471784E+02  0.30330050491E+02  0.00000000000E+00 0. -1.
         15    1    4    4    0    0 -0.16660257855E+03  0.28730636826E+02  0.30665049705E+02  0.17182029550E+03  0.00000000000E+00 0.  1.
        -16    1    3    3    0    0  0.50625873642E+02 -0.35182522157E+02  0.12082781275E+02  0.62823423583E+02  0.00000000000E+00 0.  1.
         16    1    1    2    0    0 -0.66535979743E+02  0.65013241248E+02 -0.28638013919E+02  0.97333930257E+02  0.00000000000E+00 0. -1.
    9900018    1    3    3    0    0  0.54899861120E+02 -0.16273958100E+03  0.10416552339E+02  0.19473533047E+03  0.91187600000E+02 0.  0.
<mgrwt>
<rscale>  0 0.82086074E+03</rscale>
<asrwt>0</asrwt>
<pdfrwt beam="1">  1        1 0.50388561E-01 0.82086074E+03</pdfrwt>
<pdfrwt beam="2">  1       -1 0.79126199E-01 0.82086074E+03</pdfrwt>
<totfact> 0.12627054E+02</totfact>
</mgrwt>
</event>
<event>
11    1  0.1084834E-012  0.2237587E+04  0.7818608E-02  0.8502944E-01
         -1   -1    0    0    0  501 -0.00000000000E+00  0.00000000000E+00  0.92464650209E+03  0.92464650209E+03  0.00000000000E+00 0.  1.
          1   -1    0    0  501    0  0.00000000000E+00 -0.00000000000E+00 -0.13537059204E+04  0.13537059204E+04  0.00000000000E+00 0. -1.
    9900016    2    1    2    0    0 -0.10014220570E+04 -0.66818291124E+02 -0.18571007398E+03  0.12456231629E+04  0.71398740335E+03 0.  0.
         23    2    3    3    0    0 -0.27727451579E+03  0.30824567977E+01  0.15835197115E+03  0.33173560176E+03  0.89902747813E+02 0.  0.
        -15    1    4    4    0    0 -0.13492155085E+02  0.18691497676E+02 -0.11557304524E+01  0.23081292145E+02  0.00000000000E+00 0.  1.
        -15    1    3    3    0    0 -0.71151487396E+01  0.35621728443E+02 -0.26250753737E+02  0.44817797253E+02  0.00000000000E+00 0. -1.
         15    1    4    4    0    0 -0.26378236070E+03 -0.15609040878E+02  0.15950770160E+03  0.30865430962E+03  0.00000000000E+00 0. -1.
         15    1    3    3    0    0 -0.31171625118E+03 -0.73922630924E+02 -0.14382357343E+03  0.35116491409E+03  0.00000000000E+00 0.  1.
        -16    1    3    3    0    0 -0.40099676313E+02  0.71338688307E+02 -0.84285628644E+02  0.11747876270E+03  0.00000000000E+00 0.  1.
         16    1    1    2    0    0  0.10014220570E+04  0.66818291124E+02 -0.24334934430E+03  0.10327292596E+04  0.00000000000E+00 0. -1.
    9900018    1    3    3    0    0 -0.36521646495E+03 -0.10293853375E+03 -0.89702089317E+02  0.40042608709E+03  0.91187600000E+02 0.  0.
<mgrwt>
<rscale>  0 0.22375875E+04</rscale>
<asrwt>0</asrwt>
<pdfrwt beam="1">  1        1 0.20826245E+00 0.22375875E+04</pdfrwt>
<pdfrwt beam="2">  1       -1 0.14225331E+00 0.22375875E+04</pdfrwt>
<totfact> 0.30257031E+00</totfact>
</mgrwt>
</event>
<event>
11    1  0.1084834E-012  0.1107699E+04  0.7818608E-02  0.9197720E-01
          1   -1    0    0  501    0  0.00000000000E+00  0.00000000000E+00  0.44477642361E+03  0.44477642361E+03  0.00000000000E+00 0. -1.
         -1   -1    0    0    0  501 -0.00000000000E+00 -0.00000000000E+00 -0.68967039840E+03  0.68967039840E+03  0.00000000000E+00 0.  1.
    9900016    2    1    2    0    0  0.21371270922E+03  0.29852528812E+02 -0.42408410110E+03  0.85395903810E+03  0.70910818525E+03 0.  0.
         23    2    3    3    0    0  0.14821389606E+03  0.38856531206E+02  0.10413132816E+03  0.20686658148E+03  0.92050312469E+02 0.  0.
        -15    1    4    4    0    0  0.14522241392E+03  0.59972154006E+02  0.95460500280E+02  0.18384481465E+03  0.00000000000E+00 0.  1.
        -15    1    3    3    0    0  0.78727354019E+02  0.36316599048E+02 -0.12668061989E+03  0.15350853753E+03  0.00000000000E+00 0. -1.
         15    1    4    4    0    0  0.29914821394E+01 -0.21115622800E+02  0.86708278773E+01  0.23021766824E+02  0.00000000000E+00 0. -1.
         15    1    3    3    0    0  0.48358494622E+02  0.56090776679E+02 -0.10313822680E+03  0.12697327694E+03  0.00000000000E+00 0.  1.
        -16    1    3    3    0    0  0.20004726271E+02 -0.47534826102E+02 -0.18258292370E+03  0.18972683731E+03  0.00000000000E+00 0.  1.
         16    1    1    2    0    0 -0.21371270922E+03 -0.29852528812E+02  0.17919012631E+03  0.28048778392E+03  0.00000000000E+00 0. -1.
    9900018    1    3    3    0    0 -0.81591761751E+02 -0.53876552020E+02 -0.11581365886E+03  0.17688380484E+03  0.91187600000E+02 0.  0.
<mgrwt>
<rscale>  0 0.11076988E+04</rscale>
<asrwt>0</asrwt>
<pdfrwt beam="1">  1        1 0.68427142E-01 0.11076988E+04</pdfrwt>
<pdfrwt beam="2">  1       -1 0.10610314E+00 0.11076988E+04</pdfrwt>
<totfact> 0.43069597E+01</totfact>
</mgrwt>
</event>
<event>
11    1  0.1084834E-012  0.8061311E+03  0.7818608E-02  0.9551185E-01
         -1   -1    0    0    0  501 -0.00000000000E+00  0.00000000000E+00  0.12669322790E+03  0.12669322790E+03  0.00000000000E+00 0.  1.
          1   -1    0    0  501    0  0.00000000000E+00 -0.00000000000E+00 -0.12823245252E+04  0.12823245252E+04  0.00000000000E+00 0. -1.
    9900016    2    1    2    0    0 -0.32414929026E+02 -0.27959747034E+02 -0.11625826538E+04  0.13656496031E+04  0.71523977548E+03 0.  0.
         23    2    3    3    0    0 -0.10825639354E+03 -0.17361407942E+02 -0.74109300865E+02  0.16050698208E+03  0.90826414623E+02 0.  0.
        -15    1    3    3    0    0  0.12934436368E+03  0.65748420176E+02 -0.33657685075E+03  0.36651984343E+03  0.00000000000E+00 0. -1.
        -15    1    4    4    0    0 -0.10313658895E+03 -0.22591732951E+01 -0.90795231377E+02  0.13742646719E+03  0.00000000000E+00 0. -1.
         15    1    4    4    0    0 -0.51198045881E+01 -0.15102234646E+02  0.16685930511E+02  0.23080514885E+02  0.00000000000E+00 0.  1.
         15    1    3    3    0    0  0.74055674247E+01 -0.92929331448E+02 -0.11168374829E+03  0.14547839257E+03  0.00000000000E+00 0.  1.
        -16    1    1    2    0    0  0.32414929026E+02  0.27959747034E+02  0.69513565040E+01  0.43368150010E+02  0.00000000000E+00 0.  1.
         16    1    3    3    0    0 -0.67405643694E+02 -0.55327372715E+02 -0.71817900006E+02  0.11297101281E+03  0.00000000000E+00 0. -1.
    9900018    1    3    3    0    0  0.64971770971E+01  0.71909944895E+02 -0.56839485394E+03  0.58017337224E+03  0.91187600000E+02 0.  0.
<mgrwt>
<rscale>  0 0.80613109E+03</rscale>
<asrwt>0</asrwt>
<pdfrwt beam="1">  1        1 0.19728069E+00 0.80613109E+03</pdfrwt>
<pdfrwt beam="2">  1       -1 0.19491267E-01 0.80613109E+03</pdfrwt>
<totfact> 0.20121663E+02</totfact>
</mgrwt>
</event>
<event>
11    1  0.1084834E-012  0.1428487E+04  0.7818608E-02  0.8933453E-01
          2   -1    0    0  501    0  0.00000000000E+00  0.00000000000E+00  0.67357814159E+03  0.67357814159E+03  0.00000000000E+00 0. -1.
         -2   -1    0    0    0  501 -0.00000000000E+00 -0.00000000000E+00 -0.75736366321E+03  0.75736366321E+03  0.00000000000E+00 0.  1.
    9900016    2    1    2    0    0  0.33165419905E+03 -0.33781175152E+03  0.20292257470E+03  0.87748645907E+03  0.71041792441E+03 0.  0.
         23    2    3    3    0    0  0.12767048876E+03 -0.35038380061E+02  0.75533788764E+02  0.17672124325E+03  0.89429317306E+02 0.  0.
        -15    1    4    4    0    0  0.10708443020E+03  0.10846938178E+02  0.38679297388E+02  0.11437140948E+03  0.00000000000E+00 0.  1.
        -15    1    3    3    0    0 -0.25512797874E+02 -0.56952062596E+02 -0.34868644031E+02  0.71486100928E+02  0.00000000000E+00 0.  1.
         15    1    3    3    0    0 -0.92046562241E+01  0.36425566693E+02 -0.76757802584E+02  0.85459393062E+02  0.00000000000E+00 0. -1.
         15    1    4    4    0    0  0.20586058554E+02 -0.45885318239E+02  0.36854491376E+02  0.62349833771E+02  0.00000000000E+00 0. -1.
        -16    1    1    2    0    0 -0.33165419905E+03  0.33781175152E+03 -0.28670809632E+03  0.55345534572E+03  0.00000000000E+00 0.  1.
         16    1    3    3    0    0  0.15220391490E+03 -0.23934069205E+03  0.28614183327E+03  0.40289843301E+03  0.00000000000E+00 0. -1.
    9900018    1    3    3    0    0  0.86497249500E+02 -0.42906183515E+02 -0.47126600718E+02  0.14092128882E+03  0.91187600000E+02 0.  0.
<mgrwt>
<rscale>  0 0.14284868E+04</rscale>
<asrwt>0</asrwt>
<pdfrwt beam="1">  1        2 0.10362741E+00 0.14284868E+04</pdfrwt>
<pdfrwt beam="2">  1       -2 0.11651749E+00 0.14284868E+04</pdfrwt>
<totfact> 0.23853163E+01</totfact>
</mgrwt>
</event>
<event>
11    1  0.1084834E-012  0.1588453E+04  0.7818608E-02  0.8827673E-01
          1   -1    0    0  501    0  0.00000000000E+00  0.00000000000E+00  0.81349613122E+03  0.81349613122E+03  0.00000000000E+00 0. -1.
         -1   -1    0    0    0  501 -0.00000000000E+00 -0.00000000000E+00 -0.77541311886E+03  0.77541311886E+03  0.00000000000E+00 0.  1.
    9900016    2    1    2    0    0 -0.43965279082E+03 -0.34919805665E+03 -0.28087565936E+03  0.94317827398E+03  0.70388938139E+03 0.  0.
         23    2    3    3    0    0 -0.25310805996E+02 -0.28339511214E+02 -0.27438004117E+02  0.10622725090E+03  0.95329009054E+02 0.  0.
        -15    1    4    4    0    0 -0.61481058432E+02 -0.14514543467E+02 -0.23102245023E+02  0.67262963383E+02  0.00000000000E+00 0.  1.
        -15    1    3    3    0    0  0.11911667364E+02 -0.32535898407E+02  0.33450982808E+02  0.48160572623E+02  0.00000000000E+00 0. -1.
         15    1    3    3    0    0 -0.12111242701E+03  0.23142905876E+02  0.62196534176E+02  0.13810221914E+03  0.00000000000E+00 0.  1.
         15    1    4    4    0    0  0.36170252436E+02 -0.13824967747E+02 -0.43357590943E+01  0.38964287514E+02  0.00000000000E+00 0. -1.
        -16    1    3    3    0    0 -0.82410538645E+02 -0.29665569973E+03 -0.20199644494E+03  0.36823723988E+03  0.00000000000E+00 0.  1.
         16    1    1    2    0    0  0.43965279082E+03  0.34919805665E+03  0.31895867171E+03  0.64573097611E+03  0.00000000000E+00 0. -1.
    9900018    1    3    3    0    0 -0.22273068653E+03 -0.14809853169E+02 -0.14708872729E+03  0.28245099143E+03  0.91187600000E+02 0.  0.
<mgrwt>
<rscale>  0 0.15884528E+04</rscale>
<asrwt>0</asrwt>
<pdfrwt beam="1">  1        1 0.12515325E+00 0.15884528E+04</pdfrwt>
<pdfrwt beam="2">  1       -1 0.11929433E+00 0.15884528E+04</pdfrwt>
<totfact> 0.12985526E+01</totfact>
</mgrwt>
</event>
<event>
11    1  0.1084834E-012  0.9244466E+03  0.7818608E-02  0.9395528E-01
         -2   -1    0    0    0  501 -0.00000000000E+00  0.00000000000E+00  0.11414810247E+03  0.11414810247E+03  0.00000000000E+00 0.  1.
          2   -1    0    0  501    0  0.00000000000E+00 -0.00000000000E+00 -0.18716946412E+04  0.18716946412E+04  0.00000000000E+00 0. -1.
    9900016    2    1    2    0    0 -0.61024655811E+02  0.14337622278E+03 -0.16159076735E+04  0.17752665864E+04  0.71842403465E+03 0.  0.
         23    2    3    3    0    0 -0.80697293563E+02  0.71260886447E+02 -0.32384154542E+03  0.35379557242E+03  0.93315558201E+02 0.  0.
        -15    1    4    4    0    0 -0.61843880776E+02  0.34510028178E+01 -0.87554887428E+02  0.10724939777E+03  0.00000000000E+00 0. -1.
        -15    1    3    3    0    0  0.22679961767E+02 -0.54198325196E+02 -0.13624992120E+03  0.14837749205E+03  0.00000000000E+00 0.  1.
         15    1    4    4    0    0 -0.18853412787E+02  0.67809883629E+02 -0.23628665799E+03  0.24654617465E+03  0.00000000000E+00 0.  1.
         15    1    3    3    0    0 -0.75677992911E+01 -0.15398208534E+03 -0.48311200620E+03  0.50711435074E+03  0.00000000000E+00 0. -1.
        -16    1    1    2    0    0  0.61024655811E+02 -0.14337622278E+03 -0.14163886520E+03  0.21057615727E+03  0.00000000000E+00 0.  1.
         16    1    3    3    0    0  0.48540407102E+02  0.17775089011E+03 -0.20064140506E+03  0.27241241433E+03  0.00000000000E+00 0. -1.
    9900018    1    3    3    0    0 -0.43979931826E+02  0.10254485676E+03 -0.47206279566E+03  0.49356675688E+03  0.91187600000E+02 0.  0.
<mgrwt>
<rscale>  0 0.92444663E+03</rscale>
<asrwt>0</asrwt>
<pdfrwt beam="1">  1        2 0.28795300E+00 0.92444663E+03</pdfrwt>
<pdfrwt beam="2">  1       -2 0.17561248E-01 0.92444663E+03</pdfrwt>
<totfact> 0.21229050E+02</totfact>
</mgrwt>
</event>
<event>
11    1  0.1084834E-012  0.8756095E+03  0.7818608E-02  0.9456595E-01
         -2   -1    0    0    0  501 -0.00000000000E+00  0.00000000000E+00  0.40714318804E+03  0.40714318804E+03  0.00000000000E+00 0.  1.
          2   -1    0    0  501    0  0.00000000000E+00 -0.00000000000E+00 -0.47077543437E+03  0.47077543437E+03  0.00000000000E+00 0. -1.
    9900016    2    1    2    0    0  0.10058134880E+03  0.53268522994E+01 -0.16685221912E+03  0.73369883922E+03  0.70733962180E+03 0.  0.
         23    2    3    3    0    0  0.24815822810E+02 -0.82044286592E+01 -0.66731286392E+02  0.11441503845E+03  0.89188557166E+02 0.  0.
        -15    1    3    3    0    0  0.59189451936E+02 -0.39801614490E+02 -0.28764691185E+02  0.76908823912E+02  0.00000000000E+00 0. -1.
        -15    1    4    4    0    0 -0.11040134015E+02 -0.19698736052E+02 -0.72848465337E+02  0.76268103838E+02  0.00000000000E+00 0. -1.
         15    1    4    4    0    0  0.35855956825E+02  0.11494307393E+02  0.61171789444E+01  0.38146934615E+02  0.00000000000E+00 0.  1.
         15    1    3    3    0    0  0.11445151699E+03 -0.61138311576E+02  0.47580945552E+02  0.13820632859E+03  0.00000000000E+00 0.  1.
        -16    1    1    2    0    0 -0.10058134880E+03 -0.53268522994E+01  0.10321997279E+03  0.14421978319E+03  0.00000000000E+00 0.  1.
         16    1    3    3    0    0 -0.30301133995E+02 -0.10914403880E+03  0.23623458870E+02  0.11570932433E+03  0.00000000000E+00 0. -1.
    9900018    1    3    3    0    0 -0.67574308939E+02  0.22361524582E+03 -0.14256064596E+03  0.28845932393E+03  0.91187600000E+02 0.  0.
<mgrwt>
<rscale>  0 0.87560953E+03</rscale>
<asrwt>0</asrwt>
<pdfrwt beam="1">  1        2 0.72426990E-01 0.87560953E+03</pdfrwt>
<pdfrwt beam="2">  1       -2 0.62637414E-01 0.87560953E+03</pdfrwt>
<totfact> 0.15684892E+02</totfact>
</mgrwt>
</event>
<event>
11    1  0.1084834E-012  0.8138882E+03  0.7818608E-02  0.9540129E-01
          2   -1    0    0  501    0  0.00000000000E+00  0.00000000000E+00  0.88905986591E+03  0.88905986591E+03  0.00000000000E+00 0. -1.
         -2   -1    0    0    0  501 -0.00000000000E+00 -0.00000000000E+00 -0.18626811040E+03  0.18626811040E+03  0.00000000000E+00 0.  1.
    9900016    2    1    2    0    0  0.82865695856E+02 -0.96705182426E+00  0.60682876877E+03  0.94853462647E+03  0.72429905721E+03 0.  0.
         23    2    3    3    0    0  0.66271320933E+01  0.18183614619E+03  0.96917933156E+02  0.22585382531E+03  0.92241865220E+02 0.  0.
        -15    1    3    3    0    0 -0.11388215566E+03 -0.60295515070E+02  0.40049254909E+03  0.42071246284E+03  0.00000000000E+00 0.  1.
        -15    1    4    4    0    0  0.13734668711E+02  0.57807315458E+02  0.81220843091E+02  0.10063375277E+03  0.00000000000E+00 0. -1.
         15    1    4    4    0    0 -0.71075366180E+01  0.12402883073E+03  0.15697090066E+02  0.12522007254E+03  0.00000000000E+00 0.  1.
         15    1    3    3    0    0  0.11437795923E+02 -0.10128035048E+02  0.36992611789E+02  0.40023163250E+02  0.00000000000E+00 0. -1.
        -16    1    3    3    0    0  0.72295719621E+02 -0.77955544116E+02  0.43022093818E+02  0.11469367241E+03  0.00000000000E+00 0.  1.
         16    1    1    2    0    0 -0.82865695856E+02  0.96705182426E+00  0.95962986747E+02  0.12679334984E+03  0.00000000000E+00 0. -1.
    9900018    1    3    3    0    0  0.10638720388E+03 -0.34424103782E+02  0.29403580910E+02  0.14725150266E+03  0.91187600000E+02 0.  0.
<mgrwt>
<rscale>  0 0.81388820E+03</rscale>
<asrwt>0</asrwt>
<pdfrwt beam="1">  1        2 0.13677844E+00 0.81388820E+03</pdfrwt>
<pdfrwt beam="2">  1       -2 0.28656633E-01 0.81388820E+03</pdfrwt>
<totfact> 0.33434740E+02</totfact>
</mgrwt>
</event>
<event>
11    1  0.1084834E-012  0.2230137E+04  0.7818608E-02  0.8505988E-01
         -2   -1    0    0    0  501 -0.00000000000E+00  0.00000000000E+00  0.57437837479E+03  0.57437837479E+03  0.00000000000E+00 0.  1.
          2   -1    0    0  501    0  0.00000000000E+00 -0.00000000000E+00 -0.21647373063E+04  0.21647373063E+04  0.00000000000E+00 0. -1.
    9900016    2    1    2    0    0  0.69534236590E+02  0.24089438152E+03 -0.20664357756E+04  0.22010503740E+04  0.71526276382E+03 0.  0.
         23    2    3    3    0    0  0.33591421802E+02 -0.28979868221E+02 -0.29018489762E+03  0.30743932076E+03  0.91342458695E+02 0.  0.
        -15    1    4    4    0    0  0.43676035505E+02 -0.54038768107E+02 -0.24624980301E+03  0.25586471039E+03  0.00000000000E+00 0. -1.
        -15    1    3    3    0    0  0.19095674513E+03  0.10061414520E+03 -0.63315789769E+03  0.66893692388E+03  0.00000000000E+00 0. -1.
         15    1    4    4    0    0 -0.10084613703E+02  0.25058899886E+02 -0.43935094606E+02  0.51574610373E+02  0.00000000000E+00 0.  1.
         15    1    3    3    0    0  0.52753014203E+02  0.98378802048E+02 -0.66400414583E+03  0.67332219248E+03  0.00000000000E+00 0.  1.
        -16    1    1    2    0    0 -0.69534236590E+02 -0.24089438152E+03  0.47607684411E+03  0.53806530701E+03  0.00000000000E+00 0.  1.
         16    1    3    3    0    0 -0.85014388901E+02 -0.18253319206E+02 -0.97059508027E+02  0.13031184935E+03  0.00000000000E+00 0. -1.
    9900018    1    3    3    0    0 -0.12275255565E+03  0.89134621704E+02 -0.38202932643E+03  0.42104008758E+03  0.91187600000E+02 0.  0.
<mgrwt>
<rscale>  0 0.22301375E+04</rscale>
<asrwt>0</asrwt>
<pdfrwt beam="1">  1        2 0.33303650E+00 0.22301375E+04</pdfrwt>
<pdfrwt beam="2">  1       -2 0.88365907E-01 0.22301375E+04</pdfrwt>
<totfact> 0.54321596E+00</totfact>
</mgrwt>
</event>
<event>
11    1  0.1084834E-012  0.1053589E+04  0.7818608E-02  0.9251646E-01
          2   -1    0    0  501    0  0.00000000000E+00  0.00000000000E+00  0.73497066758E+03  0.73497066758E+03  0.00000000000E+00 0. -1.
         -2   -1    0    0    0  501 -0.00000000000E+00 -0.00000000000E+00 -0.37758316320E+03  0.37758316320E+03  0.00000000000E+00 0.  1.
    9900016    2    1    2    0    0  0.21592435281E+03  0.18118529445E+03  0.31066496013E+03  0.82683642984E+03  0.71252672034E+03 0.  0.
         23    2    3    3    0    0 -0.59685152344E+02 -0.58588828435E+01  0.14225838060E+03  0.17963659137E+03  0.91843422130E+02 0.  0.
        -15    1    3    3    0    0  0.14981147617E+02 -0.23206957584E+01  0.49020363208E+01  0.15932682537E+02  0.00000000000E+00 0.  1.
        -15    1    4    4    0    0 -0.45646610747E+02 -0.40696830347E+02  0.46653019548E+02  0.76917808770E+02  0.00000000000E+00 0.  1.
         15    1    3    3    0    0  0.31143831533E+02 -0.66528341686E+02 -0.83631175367E+02  0.11131096973E+03  0.00000000000E+00 0. -1.
         15    1    4    4    0    0 -0.14038541597E+02  0.34837947503E+02  0.95605361054E+02  0.10271878260E+03  0.00000000000E+00 0. -1.
        -16    1    1    2    0    0 -0.21592435281E+03 -0.18118529445E+03  0.46722544244E+02  0.28571740094E+03  0.00000000000E+00 0.  1.
         16    1    3    3    0    0  0.23563626795E+03  0.12024435439E+03  0.59715570486E+02  0.27119938218E+03  0.00000000000E+00 0. -1.
    9900018    1    3    3    0    0 -0.61517419478E+01  0.13564886035E+03  0.18742014809E+03  0.24875680402E+03  0.91187600000E+02 0.  0.
<mgrwt>
<rscale>  0 0.10535892E+04</rscale>
<asrwt>0</asrwt>
<pdfrwt beam="1">  1        2 0.11307241E+00 0.10535892E+04</pdfrwt>
<pdfrwt beam="2">  1       -2 0.58089718E-01 0.10535892E+04</pdfrwt>
<totfact> 0.10631011E+02</totfact>
</mgrwt>
</event>
<event>
11    1  0.1084834E-012  0.8311812E+03  0.7818608E-02  0.9515949E-01
         -2   -1    0    0    0  501 -0.00000000000E+00  0.00000000000E+00  0.84740667707E+02  0.84740667707E+02  0.00000000000E+00 0.  1.
          2   -1    0    0  501    0  0.00000000000E+00 -0.00000000000E+00 -0.20381659522E+04  0.20381659522E+04  0.00000000000E+00 0. -1.
    9900016    2    1    2    0    0  0.39137681778E+02 -0.10988198445E+02 -0.19572244751E+04  0.20820785353E+04  0.70899286511E+03 0.  0.
         23    2    3    3    0    0 -0.15303663869E+03 -0.65949797693E+02 -0.39265064193E+03  0.43618553928E+03  0.91179545244E+02 0.  0.
        -15    1    4    4    0    0 -0.12267914636E+02 -0.23768374591E+02 -0.14369241250E+02  0.30363011285E+02  0.00000000000E+00 0.  1.
        -15    1    3    3    0    0  0.18776156906E+02  0.17654044454E+02 -0.47630610027E+02  0.54156111061E+02  0.00000000000E+00 0.  1.
         15    1    3    3    0    0  0.15789324133E+02  0.91364831554E+02 -0.43686341880E+02  0.10249552023E+03  0.00000000000E+00 0. -1.
         15    1    4    4    0    0 -0.14076872405E+03 -0.42181423102E+02 -0.37828140068E+03  0.40582252800E+03  0.00000000000E+00 0. -1.
        -16    1    1    2    0    0 -0.39137681778E+02  0.10988198445E+02  0.37991906033E+01  0.40828084565E+02  0.00000000000E+00 0.  1.
         16    1    3    3    0    0  0.97046481375E+02 -0.67775500147E+01 -0.73659570761E+03  0.74299205326E+03  0.00000000000E+00 0. -1.
    9900018    1    3    3    0    0  0.60562358056E+02 -0.47279726745E+02 -0.73666117364E+03  0.74624931150E+03  0.91187600000E+02 0.  0.
<mgrwt>
<rscale>  0 0.83118119E+03</rscale>
<asrwt>0</asrwt>
<pdfrwt beam="1">  1        2 0.31356397E+00 0.83118119E+03</pdfrwt>
<pdfrwt beam="2">  1       -2 0.13037027E-01 0.83118119E+03</pdfrwt>
<totfact> 0.28725808E+02</totfact>
</mgrwt>
</event>
<event>
11    1  0.1084834E-012  0.8825890E+03  0.7818608E-02  0.9447612E-01
         -4   -1    0    0    0  501 -0.00000000000E+00  0.00000000000E+00  0.28758311942E+03  0.28758311942E+03  0.00000000000E+00 0.  1.
          4   -1    0    0  501    0  0.00000000000E+00 -0.00000000000E+00 -0.67716367811E+03  0.67716367811E+03  0.00000000000E+00 0. -1.
    9900016    2    1    2    0    0 -0.44998709222E+01  0.75278106660E+02 -0.46408030809E+03  0.85874087864E+03  0.71859468556E+03 0.  0.
         23    2    3    3    0    0  0.41686166277E+02  0.10441134476E+03 -0.68083146402E+02  0.15779542858E+03  0.87319053381E+02 0.  0.
        -15    1    3    3    0    0 -0.39610129432E+02 -0.51542593042E+02 -0.38044145967E+03  0.38595505630E+03  0.00000000000E+00 0.  1.
        -15    1    4    4    0    0  0.45660752765E+02  0.56445204203E+02 -0.80182430866E+02  0.10816740563E+03  0.00000000000E+00 0. -1.
         15    1    4    4    0    0 -0.39745864880E+01  0.47966140557E+02  0.12099284464E+02  0.49628022953E+02  0.00000000000E+00 0.  1.
         15    1    3    3    0    0 -0.14287076355E+02  0.97186217906E+01 -0.19005126274E+02  0.25685929708E+02  0.00000000000E+00 0. -1.
        -16    1    1    2    0    0  0.44998709222E+01 -0.75278106660E+02  0.74499749396E+02  0.10600591889E+03  0.00000000000E+00 0.  1.
         16    1    3    3    0    0  0.11886036256E+03  0.39470586972E+02  0.51433272191E+02  0.13539237243E+03  0.00000000000E+00 0. -1.
    9900018    1    3    3    0    0 -0.11114919397E+03 -0.26779853820E+02 -0.47983847934E+02  0.15391209162E+03  0.91187600000E+02 0.  0.
<mgrwt>
<rscale>  0 0.88258902E+03</rscale>
<asrwt>0</asrwt>
<pdfrwt beam="1">  1        4 0.10417903E+00 0.88258902E+03</pdfrwt>
<pdfrwt beam="2">  1       -4 0.44243557E-01 0.88258902E+03</pdfrwt>
<totfact> 0.73952297E+00</totfact>
</mgrwt>
</event>
<event>
11    1  0.1084834E-012  0.2248689E+04  0.7818608E-02  0.8498432E-01
          2   -1    0    0  501    0  0.00000000000E+00  0.00000000000E+00  0.19495593441E+04  0.19495593441E+04  0.00000000000E+00 0. -1.
         -2   -1    0    0    0  501 -0.00000000000E+00 -0.00000000000E+00 -0.64842896558E+03  0.64842896558E+03  0.00000000000E+00 0.  1.
    9900016    2    1    2    0    0 -0.32134172859E+01 -0.27275894627E+03 -0.37826382700E+03  0.89658516334E+03  0.76575039241E+03 0.  0.
         23    2    3    3    0    0  0.14304535271E+03 -0.78620540212E+00 -0.14249040440E+03  0.22054511559E+03  0.88735796685E+02 0.  0.
        -15    1    3    3    0    0 -0.10686311061E+03 -0.45182488473E-01 -0.42695706295E+02  0.11507671262E+03  0.00000000000E+00 0.  1.
        -15    1    4    4    0    0  0.36089000262E+02  0.37343085762E+02 -0.64422981429E+02  0.82748066626E+02  0.00000000000E+00 0. -1.
         15    1    4    4    0    0  0.10695635244E+03 -0.38129291164E+02 -0.78067422968E+02  0.13779704896E+03  0.00000000000E+00 0.  1.
         15    1    3    3    0    0  0.71187119907E+02 -0.14012617799E+03  0.16999198580E+02  0.15808834414E+03  0.00000000000E+00 0. -1.
        -16    1    3    3    0    0 -0.17041957138E+03 -0.12561148689E+03 -0.65388551185E+02  0.22157783864E+03  0.00000000000E+00 0.  1.
         16    1    1    2    0    0  0.32134172859E+01  0.27275894627E+03  0.16793942055E+04  0.17014031463E+04  0.00000000000E+00 0. -1.
    9900018    1    3    3    0    0  0.59836792091E+02 -0.61898935010E+01 -0.14468836371E+03  0.18129715236E+03  0.91187600000E+02 0.  0.
<mgrwt>
<rscale>  0 0.22486892E+04</rscale>
<asrwt>0</asrwt>
<pdfrwt beam="1">  1        2 0.29993220E+00 0.22486892E+04</pdfrwt>
<pdfrwt beam="2">  1       -2 0.99758303E-01 0.22486892E+04</pdfrwt>
<totfact> 0.53901826E+00</totfact>
</mgrwt>
</event>
<event>
11    1  0.1084834E-012  0.1043590E+04  0.7818608E-02  0.9261987E-01
          2   -1    0    0  501    0  0.00000000000E+00  0.00000000000E+00  0.12478932276E+04  0.12478932276E+04  0.00000000000E+00 0. -1.
         -2   -1    0    0    0  501 -0.00000000000E+00 -0.00000000000E+00 -0.21818361533E+03  0.21818361533E+03  0.00000000000E+00 0.  1.
    9900016    2    1    2    0    0 -0.26960409153E+03 -0.79550957671E+00  0.86220459209E+03  0.11486734233E+04  0.70948352748E+03 0.  0.
         23    2    3    3    0    0 -0.89492546908E+02 -0.10020278523E+03  0.24786597544E+03  0.29623563946E+03  0.90931282748E+02 0.  0.
        -15    1    4    4    0    0 -0.77740411102E+02 -0.74563263491E+02  0.24530652369E+03  0.26791517752E+03  0.00000000000E+00 0. -1.
        -15    1    3    3    0    0 -0.86919004677E+02 -0.49787807164E+02  0.32451215585E+03  0.33962019729E+03  0.00000000000E+00 0.  1.
         15    1    4    4    0    0 -0.11752135806E+02 -0.25639521734E+02  0.25594517491E+01  0.28320461932E+02  0.00000000000E+00 0.  1.
         15    1    3    3    0    0 -0.22673536019E+02  0.32273317399E+02  0.53584798392E+02  0.66535606034E+02  0.00000000000E+00 0. -1.
        -16    1    3    3    0    0 -0.33858582260E+02  0.22747998369E+03  0.13030872581E+03  0.26433673712E+03  0.00000000000E+00 0.  1.
         16    1    1    2    0    0  0.26960409153E+03  0.79550957671E+00  0.16750502016E+03  0.31740341962E+03  0.00000000000E+00 0. -1.
    9900018    1    3    3    0    0 -0.36660421666E+02 -0.11055821827E+03  0.10593293660E+03  0.18194524340E+03  0.91187600000E+02 0.  0.
<mgrwt>
<rscale>  0 0.10435897E+04</rscale>
<asrwt>0</asrwt>
<pdfrwt beam="1">  1        2 0.19198357E+00 0.10435897E+04</pdfrwt>
<pdfrwt beam="2">  1       -2 0.33566711E-01 0.10435897E+04</pdfrwt>
<totfact> 0.14642779E+02</totfact>
</mgrwt>
</event>
<event>
11    1  0.1084834E-012  0.1091907E+04  0.7818608E-02  0.9213115E-01
          2   -1    0    0  501    0  0.00000000000E+00  0.00000000000E+00  0.10488779415E+04  0.10488779415E+04  0.00000000000E+00 0. -1.
         -2   -1    0    0    0  501 -0.00000000000E+00 -0.00000000000E+00 -0.28417557941E+03  0.28417557941E+03  0.00000000000E+00 0.  1.
    9900016    2    1    2    0    0  0.14148994005E+03 -0.98815429726E+02  0.87225905480E+03  0.11297007869E+04  0.69685300952E+03 0.  0.
         23    2    3    3    0    0 -0.66081183296E+01 -0.17829066433E+01  0.21226205140E+03  0.23126565484E+03  0.91552054393E+02 0.  0.
        -15    1    3    3    0    0 -0.15367556668E+03 -0.11032003811E+03  0.28305011514E+03  0.34044685089E+03  0.00000000000E+00 0.  1.
        -15    1    4    4    0    0 -0.25383980422E+02 -0.40082432049E+02  0.89387233126E+02  0.10119795090E+03  0.00000000000E+00 0. -1.
         15    1    3    3    0    0  0.13590780665E+02 -0.79562267130E+01 -0.29575902226E+02  0.33507385082E+02  0.00000000000E+00 0. -1.
         15    1    4    4    0    0  0.18775862092E+02  0.38299525405E+02  0.12287481827E+03  0.13006770394E+03  0.00000000000E+00 0.  1.
        -16    1    1    2    0    0 -0.14148994005E+03  0.98815429726E+02 -0.10755669273E+03  0.20335273403E+03  0.00000000000E+00 0.  1.
         16    1    3    3    0    0  0.89670365553E+02  0.62197579159E+02  0.13410036846E+03  0.17289367291E+03  0.00000000000E+00 0. -1.
    9900018    1    3    3    0    0  0.19851247884E+03 -0.40953837422E+02  0.27242242203E+03  0.35158722314E+03  0.91187600000E+02 0.  0.
<mgrwt>
<rscale>  0 0.10919075E+04</rscale>
<asrwt>0</asrwt>
<pdfrwt beam="1">  1        2 0.16136584E+00 0.10919075E+04</pdfrwt>
<pdfrwt beam="2">  1       -2 0.43719320E-01 0.10919075E+04</pdfrwt>
<totfact> 0.11548327E+02</totfact>
</mgrwt>
</event>
<event>
11    1  0.1084834E-012  0.1672020E+04  0.7818608E-02  0.8777485E-01
          1   -1    0    0  501    0  0.00000000000E+00  0.00000000000E+00  0.12687556853E+04  0.12687556853E+04  0.00000000000E+00 0. -1.
         -1   -1    0    0    0  501 -0.00000000000E+00 -0.00000000000E+00 -0.55086483988E+03  0.55086483988E+03  0.00000000000E+00 0.  1.
    9900016    2    1    2    0    0 -0.22039202563E+03 -0.62385262260E+03  0.61752656412E+03  0.11504137346E+04  0.71017460079E+03 0.  0.
         23    2    3    3    0    0 -0.88720841737E+02  0.64697539733E+02  0.58903619050E+02  0.15252417964E+03  0.87959249831E+02 0.  0.
        -15    1    4    4    0    0 -0.19056413400E+02  0.63110142164E+02  0.49002330355E+02  0.82141739182E+02  0.00000000000E+00 0.  1.
        -15    1    3    3    0    0 -0.33637965546E+02 -0.62180772862E+02  0.46185330631E+02  0.84445520931E+02  0.00000000000E+00 0.  1.
         15    1    4    4    0    0 -0.69664428338E+02  0.15873975691E+01  0.99012886955E+01  0.70382440456E+02  0.00000000000E+00 0. -1.
         15    1    3    3    0    0 -0.70626462898E+02 -0.70990731731E+02  0.24507655842E+03  0.26474572847E+03  0.00000000000E+00 0. -1.
        -16    1    3    3    0    0  0.52741239412E+02 -0.32626277066E+03  0.12883812225E+03  0.35472284335E+03  0.00000000000E+00 0.  1.
         16    1    1    2    0    0  0.22039202563E+03  0.62385262260E+03  0.10036428135E+03  0.66920679065E+03  0.00000000000E+00 0. -1.
    9900018    1    3    3    0    0 -0.80147994858E+02 -0.22911588708E+03  0.13852293377E+03  0.29397546219E+03  0.91187600000E+02 0.  0.
<mgrwt>
<rscale>  0 0.16720202E+04</rscale>
<asrwt>0</asrwt>
<pdfrwt beam="1">  1        1 0.19519318E+00 0.16720202E+04</pdfrwt>
<pdfrwt beam="2">  1       -1 0.84748437E-01 0.16720202E+04</pdfrwt>
<totfact> 0.12519910E+01</totfact>
</mgrwt>
</event>
<event>
11    1  0.1084834E-012  0.1305767E+04  0.7818608E-02  0.9025004E-01
          1   -1    0    0  501    0  0.00000000000E+00  0.00000000000E+00  0.59198226858E+03  0.59198226858E+03  0.00000000000E+00 0. -1.
         -1   -1    0    0    0  501 -0.00000000000E+00 -0.00000000000E+00 -0.72005045892E+03  0.72005045892E+03  0.00000000000E+00 0.  1.
    9900016    2    1    2    0    0  0.62222542434E+02 -0.16497192757E+03  0.34319697764E+03  0.80886452479E+03  0.71090806180E+03 0.  0.
         23    2    3    3    0    0  0.80069717896E+02  0.14400164418E+03  0.11236890640E+02  0.18809804564E+03  0.90038735053E+02 0.  0.
        -15    1    3    3    0    0  0.13240288013E+02 -0.34835960752E+02  0.40411108368E+01  0.37485730152E+02  0.00000000000E+00 0.  1.
        -15    1    4    4    0    0  0.81770094518E+02  0.55601793932E+02 -0.65664837036E+00  0.98885484440E+02  0.00000000000E+00 0.  1.
         15    1    3    3    0    0  0.84715140434E+01 -0.10048289581E+03 -0.57170399328E+02  0.11591821884E+03  0.00000000000E+00 0. -1.
         15    1    4    4    0    0 -0.17003766220E+01  0.88399850252E+02  0.11893539010E+02  0.89212561197E+02  0.00000000000E+00 0. -1.
        -16    1    1    2    0    0 -0.62222542434E+02  0.16497192757E+03 -0.47126516798E+03  0.50316820271E+03  0.00000000000E+00 0.  1.
         16    1    3    3    0    0 -0.59128722048E+02 -0.26043287163E+02  0.29105663405E+02  0.70863236022E+02  0.00000000000E+00 0. -1.
    9900018    1    3    3    0    0  0.19569744530E+02 -0.14761142803E+03  0.35598371209E+03  0.39649929414E+03  0.91187600000E+02 0.  0.
<mgrwt>
<rscale>  0 0.13057674E+04</rscale>
<asrwt>0</asrwt>
<pdfrwt beam="1">  1        1 0.91074196E-01 0.13057674E+04</pdfrwt>
<pdfrwt beam="2">  1       -1 0.11077699E+00 0.13057674E+04</pdfrwt>
<totfact> 0.25753025E+01</totfact>
</mgrwt>
</event>
<event>
11    1  0.1084834E-012  0.1105761E+04  0.7818608E-02  0.9199595E-01
          2   -1    0    0  501    0  0.00000000000E+00  0.00000000000E+00  0.17084700232E+04  0.17084700232E+04  0.00000000000E+00 0. -1.
         -2   -1    0    0    0  501 -0.00000000000E+00 -0.00000000000E+00 -0.17891850697E+03  0.17891850697E+03  0.00000000000E+00 0.  1.
    9900016    2    1    2    0    0 -0.12105258401E+03 -0.64745805146E+02  0.15793971469E+04  0.17413394484E+04  0.72036239463E+03 0.  0.
         23    2    3    3    0    0  0.28832301346E+01  0.33874278117E+02  0.21291373481E+03  0.23288650880E+03  0.88023222939E+02 0.  0.
        -15    1    4    4    0    0  0.33356428237E+02  0.48693547479E+02  0.15399292357E+03  0.16491674682E+03  0.00000000000E+00 0. -1.
        -15    1    3    3    0    0 -0.95299979952E+01 -0.14412688188E+02  0.19427986435E+02  0.25999867298E+02  0.00000000000E+00 0.  1.
         15    1    3    3    0    0 -0.21602184156E+03  0.96582047301E+02  0.27116417337E+03  0.35989378546E+03  0.00000000000E+00 0. -1.
         15    1    4    4    0    0 -0.30473198102E+02 -0.14819269362E+02  0.58920811241E+02  0.67969761985E+02  0.00000000000E+00 0.  1.
        -16    1    1    2    0    0  0.12105258401E+03  0.64745805146E+02 -0.49845630675E+02  0.14604908174E+03  0.00000000000E+00 0.  1.
         16    1    3    3    0    0  0.47511647915E+02 -0.20525261424E+03  0.67071060253E+03  0.70302112677E+03  0.00000000000E+00 0. -1.
    9900018    1    3    3    0    0  0.54104377496E+02  0.24463171864E+02  0.40518064975E+03  0.41953816009E+03  0.91187600000E+02 0.  0.
<mgrwt>
<rscale>  0 0.11057611E+04</rscale>
<asrwt>0</asrwt>
<pdfrwt beam="1">  1        2 0.26284153E+00 0.11057611E+04</pdfrwt>
<pdfrwt beam="2">  1       -2 0.27525925E-01 0.11057611E+04</pdfrwt>
<totfact> 0.11583427E+02</totfact>
</mgrwt>
</event>
<event>
11    1  0.1084834E-012  0.1197518E+04  0.7818608E-02  0.9115032E-01
         -1   -1    0    0    0  501 -0.00000000000E+00  0.00000000000E+00  0.37378260980E+03  0.37378260980E+03  0.00000000000E+00 0.  1.
          1   -1    0    0  501    0  0.00000000000E+00 -0.00000000000E+00 -0.95914641225E+03  0.95914641225E+03  0.00000000000E+00 0. -1.
    9900016    2    1    2    0    0  0.19654177386E+02 -0.23508905809E+03 -0.73651702131E+03  0.10527497089E+04  0.71426288933E+03 0.  0.
         23    2    3    3    0    0 -0.19239286655E+03 -0.15653687243E+03 -0.12815252730E+03  0.29355646356E+03  0.90738743171E+02 0.  0.
        -15    1    4    4    0    0 -0.10737487863E+03 -0.34176832767E+02 -0.75011390701E+02  0.13536664727E+03  0.00000000000E+00 0.  1.
        -15    1    3    3    0    0  0.42106657358E+02  0.41930504598E+02 -0.39042691184E+02  0.71101825185E+02  0.00000000000E+00 0.  1.
         15    1    4    4    0    0 -0.85017987917E+02 -0.12236003966E+03 -0.53141136599E+02  0.15818981628E+03  0.00000000000E+00 0. -1.
         15    1    3    3    0    0  0.76162241119E+02  0.18868990797E+01 -0.36887774995E+02  0.84646059001E+02  0.00000000000E+00 0. -1.
        -16    1    1    2    0    0 -0.19654177386E+02  0.23508905809E+03  0.15115321885E+03  0.28017931310E+03  0.00000000000E+00 0.  1.
         16    1    3    3    0    0  0.25664023566E+02  0.57725141850E+02 -0.18919129293E+03  0.19945971881E+03  0.00000000000E+00 0. -1.
    9900018    1    3    3    0    0  0.68114121891E+02 -0.18009473119E+03 -0.34324273490E+03  0.40398564239E+03  0.91187600000E+02 0.  0.
<mgrwt>
<rscale>  0 0.11975178E+04</rscale>
<asrwt>0</asrwt>
<pdfrwt beam="1">  1        1 0.14756099E+00 0.11975178E+04</pdfrwt>
<pdfrwt beam="2">  1       -1 0.57505017E-01 0.11975178E+04</pdfrwt>
<totfact> 0.49410276E+01</totfact>
</mgrwt>
</event>
<event>
11    1  0.1084834E-012  0.9936437E+03  0.7818608E-02  0.9315544E-01
          1   -1    0    0  501    0  0.00000000000E+00  0.00000000000E+00  0.12333402965E+03  0.12333402965E+03  0.00000000000E+00 0. -1.
         -1   -1    0    0    0  501 -0.00000000000E+00 -0.00000000000E+00 -0.20013289565E+04  0.20013289565E+04  0.00000000000E+00 0.  1.
    9900016    2    1    2    0    0  0.14847443705E+03 -0.18124515330E+03 -0.12495345141E+04  0.14539492213E+04  0.70550504746E+03 0.  0.
         23    2    3    3    0    0 -0.10325219202E+03  0.14288694934E+03 -0.34149142428E+03  0.39475432925E+03  0.90204723557E+02 0.  0.
        -15    1    4    4    0    0 -0.32485637253E+02  0.11146347589E+03 -0.24434833493E+03  0.27052824597E+03  0.00000000000E+00 0. -1.
        -15    1    3    3    0    0  0.68343246807E+02 -0.47566524656E+02 -0.29702186555E+03  0.30847262807E+03  0.00000000000E+00 0.  1.
         15    1    3    3    0    0  0.45805529222E+02 -0.79178264143E+02 -0.19202823466E+03  0.21270210842E+03  0.00000000000E+00 0. -1.
         15    1    4    4    0    0 -0.70766554767E+02  0.31423473455E+02 -0.97143089354E+02  0.12422608328E+03  0.00000000000E+00 0.  1.
        -16    1    1    2    0    0 -0.14847443705E+03  0.18124515330E+03 -0.62846041271E+03  0.67071376488E+03  0.00000000000E+00 0.  1.
         16    1    3    3    0    0  0.16674532883E+03 -0.12257935463E+03 -0.32098926147E+03  0.38192120764E+03  0.00000000000E+00 0. -1.
    9900018    1    3    3    0    0 -0.29167475792E+02 -0.74807959217E+02 -0.98003728173E+02  0.15609894790E+03  0.91187600000E+02 0.  0.
<mgrwt>
<rscale>  0 0.99364373E+03</rscale>
<asrwt>0</asrwt>
<pdfrwt beam="1">  1        1 0.18974466E-01 0.99364373E+03</pdfrwt>
<pdfrwt beam="2">  1       -1 0.30789676E+00 0.99364373E+03</pdfrwt>
<totfact> 0.84010504E+00</totfact>
</mgrwt>
</event>
<event>
11    1  0.1084834E-012  0.8712466E+03  0.7818608E-02  0.9462256E-01
         -2   -1    0    0    0  501 -0.00000000000E+00  0.00000000000E+00  0.21707701100E+03  0.21707701100E+03  0.00000000000E+00 0.  1.
          2   -1    0    0  501    0  0.00000000000E+00 -0.00000000000E+00 -0.87419514874E+03  0.87419514874E+03  0.00000000000E+00 0. -1.
    9900016    2    1    2    0    0  0.44663655043E+01 -0.13373735996E+03 -0.62001001298E+03  0.95241020386E+03  0.71046966884E+03 0.  0.
         23    2    3    3    0    0 -0.16150367214E+02 -0.52169723625E+02 -0.33435776981E+02  0.10983881091E+03  0.89241799491E+02 0.  0.
        -15    1    3    3    0    0 -0.74699568851E+02  0.12580531838E+02 -0.18017507798E+02  0.77864792782E+02  0.00000000000E+00 0.  1.
        -15    1    4    4    0    0 -0.39293743588E+02  0.33789794692E-02 -0.35173096507E+02  0.52736562407E+02  0.00000000000E+00 0. -1.
         15    1    3    3    0    0  0.39071803619E+02  0.50233242448E+02  0.32169436611E+02  0.71308184220E+02  0.00000000000E+00 0. -1.
         15    1    4    4    0    0  0.23143376374E+02 -0.52173102605E+02  0.17373195258E+01  0.57102248507E+02  0.00000000000E+00 0.  1.
        -16    1    1    2    0    0 -0.44663655043E+01  0.13373735996E+03 -0.37108124757E+02  0.13886195589E+03  0.00000000000E+00 0.  1.
         16    1    3    3    0    0 -0.82048229380E+02  0.39469526717E+02 -0.10250587015E+03  0.13710291353E+03  0.00000000000E+00 0. -1.
    9900018    1    3    3    0    0  0.13829272733E+03 -0.18385093734E+03 -0.49822029467E+03  0.55629550241E+03  0.91187600000E+02 0.  0.
<mgrwt>
<rscale>  0 0.87124662E+03</rscale>
<asrwt>0</asrwt>
<pdfrwt beam="1">  1        2 0.13449156E+00 0.87124662E+03</pdfrwt>
<pdfrwt beam="2">  1       -2 0.33396463E-01 0.87124662E+03</pdfrwt>
<totfact> 0.25648108E+02</totfact>
</mgrwt>
</event>
<event>
11    1  0.1084834E-012  0.8991648E+03  0.7818608E-02  0.9426626E-01
         -2   -1    0    0    0  501 -0.00000000000E+00  0.00000000000E+00  0.41996640223E+03  0.41996640223E+03  0.00000000000E+00 0.  1.
          2   -1    0    0  501    0  0.00000000000E+00 -0.00000000000E+00 -0.48128686266E+03  0.48128686266E+03  0.00000000000E+00 0. -1.
    9900016    2    1    2    0    0 -0.33214756165E+02  0.32490240960E+02 -0.20967847511E+03  0.74578964758E+03  0.71419766153E+03 0.  0.
         23    2    3    3    0    0  0.76706370001E+02 -0.18371336583E+02  0.10263121598E+03  0.16013645237E+03  0.94282255365E+02 0.  0.
        -15    1    4    4    0    0  0.58189604371E+02 -0.59618151925E+01  0.11892076267E+03  0.13252818980E+03  0.00000000000E+00 0.  1.
        -15    1    3    3    0    0 -0.10145317603E+02  0.32391628010E+02 -0.98328602729E+01  0.35338791371E+02  0.00000000000E+00 0.  1.
         15    1    3    3    0    0 -0.10989141307E+03 -0.10188557199E+03  0.24411338392E+02  0.15183117561E+03  0.00000000000E+00 0. -1.
         15    1    4    4    0    0  0.18516765630E+02 -0.12409521390E+02 -0.16289546692E+02  0.27608262567E+02  0.00000000000E+00 0. -1.
        -16    1    1    2    0    0  0.33214756165E+02 -0.32490240960E+02  0.14835801469E+03  0.15546361731E+03  0.00000000000E+00 0.  1.
         16    1    3    3    0    0  0.51931269798E+02  0.32263474417E+02 -0.21736915624E+03  0.22580331851E+03  0.00000000000E+00 0. -1.
    9900018    1    3    3    0    0 -0.41815665290E+02  0.88092047102E+02 -0.10951901297E+03  0.17267990972E+03  0.91187600000E+02 0.  0.
<mgrwt>
<rscale>  0 0.89916475E+03</rscale>
<asrwt>0</asrwt>
<pdfrwt beam="1">  1        2 0.74044133E-01 0.89916475E+03</pdfrwt>
<pdfrwt beam="2">  1       -2 0.64610216E-01 0.89916475E+03</pdfrwt>
<totfact> 0.14293052E+02</totfact>
</mgrwt>
</event>
<event>
11    1  0.1084834E-012  0.8058506E+03  0.7818608E-02  0.9551587E-01
          1   -1    0    0  501    0  0.00000000000E+00  0.00000000000E+00  0.42162193539E+03  0.42162193539E+03  0.00000000000E+00 0. -1.
         -1   -1    0    0    0  501 -0.00000000000E+00 -0.00000000000E+00 -0.38505776638E+03  0.38505776638E+03  0.00000000000E+00 0.  1.
    9900016    2    1    2    0    0 -0.26960571777E+02 -0.45993890328E+02 -0.35675551551E+02  0.71689725579E+03  0.71402144226E+03 0.  0.
         23    2    3    3    0    0  0.25134467798E+02 -0.11565662300E+03  0.35052854863E+02  0.15807865893E+03  0.98752032184E+02 0.  0.
        -15    1    4    4    0    0  0.38036029362E+02 -0.11658381977E+03  0.54923155894E+02  0.13436919146E+03  0.00000000000E+00 0.  1.
        -15    1    3    3    0    0  0.11414721803E+02  0.56167780234E+01  0.52643312523E+02  0.54158678184E+02  0.00000000000E+00 0. -1.
         15    1    3    3    0    0 -0.10863791012E+03  0.93205125040E+02  0.12793071937E+03  0.19197827952E+03  0.00000000000E+00 0.  1.
         15    1    4    4    0    0 -0.12901561564E+02  0.92719676674E+00 -0.19870301031E+02  0.23709467469E+02  0.00000000000E+00 0. -1.
        -16    1    3    3    0    0  0.73702728459E+02 -0.18191056625E+02 -0.17203820297E+03  0.18804294723E+03  0.00000000000E+00 0.  1.
         16    1    1    2    0    0  0.26960571777E+02  0.45993890328E+02  0.72239720565E+02  0.89782445975E+02  0.00000000000E+00 0. -1.
    9900018    1    3    3    0    0 -0.28574579715E+02 -0.10968113766E+02 -0.79264235342E+02  0.12463869192E+03  0.91187600000E+02 0.  0.
<mgrwt>
<rscale>  0 0.80585061E+03</rscale>
<asrwt>0</asrwt>
<pdfrwt beam="1">  1        1 0.64864913E-01 0.80585061E+03</pdfrwt>
<pdfrwt beam="2">  1       -1 0.59239656E-01 0.80585061E+03</pdfrwt>
<totfact> 0.16342197E+02</totfact>
</mgrwt>
</event>
<event>
11    1  0.1084834E-012  0.1050885E+04  0.7818608E-02  0.9254431E-01
         -1   -1    0    0    0  501 -0.00000000000E+00  0.00000000000E+00  0.13128556887E+04  0.13128556887E+04  0.00000000000E+00 0.  1.
          1   -1    0    0  501    0  0.00000000000E+00 -0.00000000000E+00 -0.21029699384E+03  0.21029699384E+03  0.00000000000E+00 0. -1.
    9900016    2    1    2    0    0 -0.52337661263E+02  0.21830438142E+03  0.56763127677E+03  0.94302909539E+03  0.71882026589E+03 0.  0.
         23    2    3    3    0    0  0.13553030267E+03  0.17486728044E+03  0.26571499729E+03  0.35778067691E+03  0.91953924726E+02 0.  0.
        -15    1    3    3    0    0 -0.15777479920E+03  0.69773774070E+02  0.29614514498E+03  0.34272906749E+03  0.00000000000E+00 0. -1.
        -15    1    4    4    0    0  0.86572740478E+02  0.92423175370E+02  0.21445568498E+03  0.24905445903E+03  0.00000000000E+00 0. -1.
         15    1    4    4    0    0  0.48957562192E+02  0.82444105067E+02  0.51259312308E+02  0.10872621788E+03  0.00000000000E+00 0.  1.
         15    1    3    3    0    0 -0.43876788042E+02 -0.11039808727E+02  0.26053721614E+02  0.52209638148E+02  0.00000000000E+00 0.  1.
        -16    1    1    2    0    0  0.52337661263E+02 -0.21830438142E+03  0.53492741810E+03  0.58012358715E+03  0.00000000000E+00 0.  1.
         16    1    3    3    0    0  0.26858686920E+02  0.10414964549E+01 -0.76552220468E+02  0.81133940102E+02  0.00000000000E+00 0. -1.
    9900018    1    3    3    0    0 -0.13075063613E+02 -0.16338360813E+02  0.56269633350E+02  0.10917577274E+03  0.91187600000E+02 0.  0.
<mgrwt>
<rscale>  0 0.10508846E+04</rscale>
<asrwt>0</asrwt>
<pdfrwt beam="1">  1        1 0.32353385E-01 0.10508846E+04</pdfrwt>
<pdfrwt beam="2">  1       -1 0.20197779E+00 0.10508846E+04</pdfrwt>
<totfact> 0.20342525E+01</totfact>
</mgrwt>
</event>
<event>
11    1  0.1084834E-012  0.1226390E+04  0.7818608E-02  0.9090066E-01
          1   -1    0    0  501    0  0.00000000000E+00  0.00000000000E+00  0.12403250774E+04  0.12403250774E+04  0.00000000000E+00 0. -1.
         -1   -1    0    0    0  501 -0.00000000000E+00 -0.00000000000E+00 -0.30315285790E+03  0.30315285790E+03  0.00000000000E+00 0.  1.
    9900016    2    1    2    0    0  0.27374626082E+02 -0.29756860267E+03  0.97905360209E+03  0.12417321919E+04  0.70289148326E+03 0.  0.
         23    2    3    3    0    0  0.14302781508E+03 -0.57192788919E+02  0.28419410470E+03  0.33539915633E+03  0.89433404973E+02 0.  0.
        -15    1    3    3    0    0  0.98095030272E+02  0.10414852755E+02  0.62188565623E+01  0.98842188861E+02  0.00000000000E+00 0.  1.
        -15    1    4    4    0    0  0.82161204868E+02 -0.67186367011E+02  0.12107872214E+03  0.16101095755E+03  0.00000000000E+00 0. -1.
         15    1    4    4    0    0  0.60866610208E+02  0.99935780922E+01  0.16311538256E+03  0.17438819877E+03  0.00000000000E+00 0.  1.
         15    1    3    3    0    0 -0.95118688952E+02  0.11766058233E+02  0.11250642660E+03  0.14779614725E+03  0.00000000000E+00 0. -1.
        -16    1    1    2    0    0 -0.27374626082E+02  0.29756860267E+03 -0.41881382576E+02  0.30174574339E+03  0.00000000000E+00 0.  1.
         16    1    3    3    0    0 -0.65265037333E+02 -0.44361655497E+02  0.13959601280E+03  0.16035750175E+03  0.00000000000E+00 0. -1.
    9900018    1    3    3    0    0 -0.53364492981E+02 -0.21819506925E+03  0.43653820142E+03  0.49933719774E+03  0.91187600000E+02 0.  0.
<mgrwt>
<rscale>  0 0.12263900E+04</rscale>
<asrwt>0</asrwt>
<pdfrwt beam="1">  1        1 0.19081924E+00 0.12263900E+04</pdfrwt>
<pdfrwt beam="2">  1       -1 0.46638902E-01 0.12263900E+04</pdfrwt>
<totfact> 0.45163143E+01</totfact>
</mgrwt>
</event>
<event>
11    1  0.1084834E-012  0.1045758E+04  0.7818608E-02  0.9259735E-01
          2   -1    0    0  501    0  0.00000000000E+00  0.00000000000E+00  0.19452479989E+04  0.19452479989E+04  0.00000000000E+00 0. -1.
         -2   -1    0    0    0  501 -0.00000000000E+00 -0.00000000000E+00 -0.14054877155E+03  0.14054877155E+03  0.00000000000E+00 0.  1.
    9900016    2    1    2    0    0 -0.19978243287E+03 -0.19599642599E+03  0.12713194971E+04  0.14834500629E+04  0.71136713859E+03 0.  0.
         23    2    3    3    0    0  0.13149305733E+03 -0.12401666531E+02  0.21163471512E+03  0.26513536085E+03  0.89795776436E+02 0.  0.
        -15    1    4    4    0    0  0.62692385774E+02 -0.96228350598E+00  0.17595730985E+03  0.18679463620E+03  0.00000000000E+00 0. -1.
        -15    1    3    3    0    0 -0.24204247168E+02 -0.38465105504E+02  0.18971726302E+03  0.19508472469E+03  0.00000000000E+00 0.  1.
         15    1    4    4    0    0  0.68800671558E+02 -0.11439383025E+02  0.35677405273E+02  0.78340724644E+02  0.00000000000E+00 0.  1.
         15    1    3    3    0    0 -0.19282349248E+03 -0.21861964797E+03  0.34231184564E+03  0.44961411165E+03  0.00000000000E+00 0. -1.
        -16    1    1    2    0    0  0.19978243287E+03  0.19599642599E+03  0.53337973023E+03  0.60234670756E+03  0.00000000000E+00 0.  1.
         16    1    3    3    0    0 -0.88343951709E+02  0.10666106699E+01  0.33967449680E+03  0.35097657363E+03  0.00000000000E+00 0. -1.
    9900018    1    3    3    0    0 -0.25903798848E+02  0.72423383338E+02  0.18798117649E+03  0.22263929204E+03  0.91187600000E+02 0.  0.
<mgrwt>
<rscale>  0 0.10457576E+04</rscale>
<asrwt>0</asrwt>
<pdfrwt beam="1">  1        2 0.29926890E+00 0.10457576E+04</pdfrwt>
<pdfrwt beam="2">  1       -2 0.21622889E-01 0.10457576E+04</pdfrwt>
<totfact> 0.13319927E+02</totfact>
</mgrwt>
</event>
