<event>
12    1  0.1486553E-010  0.9244985E+03  0.7818608E-02  0.9395465E-01
         -1   -1    0    0    0  501 -0.00000000000E+00  0.00000000000E+00  0.32671334669E+03  0.32671334669E+03  0.00000000000E+00 0.  1.
          1   -1    0    0  501    0  0.00000000000E+00 -0.00000000000E+00 -0.65401174914E+03  0.65401174914E+03  0.00000000000E+00 0. -1.
    9900016    2    1    2    0    0  0.44802659090E+01 -0.87852118333E+02 -0.31152511353E+03  0.89135583869E+03  0.83049940838E+03 0.  0.
         25    2    3    3    0    0  0.16487189914E+03 -0.20452453142E+03 -0.15913312065E+03  0.33159714926E+03  0.12498116749E+03 0.  0.
         23    2    4    4    0    0  0.13337359446E+03 -0.17369752621E+03 -0.11791437804E+03  0.26420517204E+03  0.89113557189E+02 0.  0.
        -15    1    4    4    0    0  0.20792870843E+02 -0.35045878614E+02 -0.37279323311E+02  0.55229566649E+02  0.00000000000E+00 0. -1.
        -15    1    5    5    0    0  0.12184195647E+03 -0.91333811918E+02 -0.87678592533E+02  0.17571244448E+03  0.00000000000E+00 0.  1.
         15    1    4    4    0    0  0.10705433835E+02  0.42188733997E+01 -0.39394193088E+01  0.12162410569E+02  0.00000000000E+00 0.  1.
         15    1    5    5    0    0  0.11531637992E+02 -0.82363714289E+02 -0.30235785503E+02  0.88492727561E+02  0.00000000000E+00 0. -1.
        -16    1    3    3    0    0 -0.10166474402E+03  0.19464031823E+03  0.12442860367E+03  0.25239463360E+03  0.00000000000E+00 0.  1.
         16    1    1    2    0    0 -0.44802659090E+01  0.87852118333E+02 -0.15773288914E+02  0.89369257138E+02  0.00000000000E+00 0. -1.
    9900018    1    3    3    0    0 -0.58726889213E+02 -0.77967905140E+02 -0.27682059655E+03  0.30736405583E+03  0.91187600000E+02 0.  0.
<mgrwt>
<rscale>  0 0.92449850E+03</rscale>
<asrwt>0</asrwt>
<pdfrwt beam="1">  1        1 0.10061719E+00 0.92449850E+03</pdfrwt>
<pdfrwt beam="2">  1       -1 0.50263593E-01 0.92449850E+03</pdfrwt>
<totfact> 0.12068942E+02</totfact>
</mgrwt>
</event>
<event>
12    1  0.1486553E-010  0.1012416E+04  0.7818608E-02  0.9295031E-01
          1   -1    0    0  501    0  0.00000000000E+00  0.00000000000E+00  0.12213799149E+04  0.12213799149E+04  0.00000000000E+00 0. -1.
         -1   -1    0    0    0  501 -0.00000000000E+00 -0.00000000000E+00 -0.20980081881E+03  0.20980081881E+03  0.00000000000E+00 0.  1.
    9900016    2    1    2    0    0  0.31698249937E+02  0.35407300105E+03  0.77017989598E+03  0.10014761341E+04  0.53235787391E+03 0.  0.
         25    2    3    3    0    0  0.17216823823E+02  0.32898601169E+03  0.58494605556E+03  0.68287327035E+03  0.12500320211E+03 0.  0.
         23    2    4    4    0    0  0.26435799347E+02  0.26468593788E+03  0.42034784979E+03  0.50515742417E+03  0.87944364083E+02 0.  0.
        -15    1    4    4    0    0 -0.10896154621E+01  0.36204428645E+02  0.10951049310E+03  0.11534511699E+03  0.00000000000E+00 0. -1.
        -15    1    5    5    0    0  0.55640667528E+02  0.20215245025E+03  0.33753105131E+03  0.39735212045E+03  0.00000000000E+00 0.  1.
         15    1    4    4    0    0 -0.81293600614E+01  0.28095645171E+02  0.55087712676E+02  0.62370729197E+02  0.00000000000E+00 0.  1.
         15    1    5    5    0    0 -0.29204868181E+02  0.62533487626E+02  0.82816798472E+02  0.10780530372E+03  0.00000000000E+00 0. -1.
        -16    1    3    3    0    0  0.75567463906E+01  0.12197502943E+03  0.61645899148E+02  0.13687669306E+03  0.00000000000E+00 0.  1.
         16    1    1    2    0    0 -0.31698249937E+02 -0.35407300105E+03  0.24139920016E+03  0.42970459965E+03  0.00000000000E+00 0. -1.
    9900018    1    3    3    0    0  0.69246797237E+01 -0.96888040071E+02  0.12358794127E+03  0.18172617071E+03  0.91187600000E+02 0.  0.
<mgrwt>
<rscale>  0 0.10124159E+04</rscale>
<asrwt>0</asrwt>
<pdfrwt beam="1">  1        1 0.18790460E+00 0.10124159E+04</pdfrwt>
<pdfrwt beam="2">  1       -1 0.32277050E-01 0.10124159E+04</pdfrwt>
<totfact> 0.92514650E+01</totfact>
</mgrwt>
</event>
<event>
12    1  0.1486553E-010  0.1146608E+04  0.7818608E-02  0.9160919E-01
         -1   -1    0    0    0  501 -0.00000000000E+00  0.00000000000E+00  0.13852034958E+03  0.13852034958E+03  0.00000000000E+00 0. -1.
          1   -1    0    0  501    0  0.00000000000E+00 -0.00000000000E+00 -0.23727727736E+04  0.23727727736E+04  0.00000000000E+00 0.  1.
    9900016    2    1    2    0    0  0.26563325222E+03 -0.33875802239E+02 -0.17592256279E+04  0.19659867398E+04  0.83577536264E+03 0.  0.
         25    2    3    3    0    0  0.28013422406E+03  0.12093228402E+03 -0.77571375344E+03  0.84288640585E+03  0.12500346028E+03 0.  0.
         23    2    4    4    0    0  0.21422294693E+03  0.75592703118E+02 -0.54402033541E+03  0.59628924908E+03  0.89426033507E+02 0.  0.
        -15    1    4    4    0    0  0.12808028668E+02  0.28724121301E+01 -0.17536444948E+02  0.21904868208E+02  0.00000000000E+00 0.  1.
        -15    1    5    5    0    0  0.21088691288E+03  0.60940957619E+02 -0.53610301332E+03  0.57930435113E+03  0.00000000000E+00 0.  1.
         15    1    5    5    0    0  0.33360340475E+01  0.14651745499E+02 -0.79173220871E+01  0.16984897950E+02  0.00000000000E+00 0. -1.
         15    1    4    4    0    0  0.53103248460E+02  0.42467168773E+02 -0.21415697309E+03  0.22469228857E+03  0.00000000000E+00 0. -1.
        -16    1    1    2    0    0 -0.26563325222E+03  0.33875802239E+02 -0.47502679614E+03  0.54530638334E+03  0.00000000000E+00 0.  1.
         16    1    3    3    0    0  0.19592830619E+03  0.57104949751E+02 -0.23020756855E+03  0.30764330169E+03  0.00000000000E+00 0. -1.
    9900018    1    3    3    0    0 -0.21042927803E+03 -0.21191303601E+03 -0.75330430588E+03  0.81545703230E+03  0.91187600000E+02 0.  0.
<mgrwt>
<rscale>  0 0.11466077E+04</rscale>
<asrwt>0</asrwt>
<pdfrwt beam="1">  1        1 0.36504191E+00 0.11466077E+04</pdfrwt>
<pdfrwt beam="2">  1       -1 0.21310826E-01 0.11466077E+04</pdfrwt>
<totfact> 0.30475836E+01</totfact>
</mgrwt>
</event>
<event>
12    1  0.1486553E-010  0.1384867E+04  0.7818608E-02  0.8964846E-01
         -2   -1    0    0    0  501 -0.00000000000E+00  0.00000000000E+00  0.36485446121E+03  0.36485446121E+03  0.00000000000E+00 0.  1.
          2   -1    0    0  501    0  0.00000000000E+00 -0.00000000000E+00 -0.13141247595E+04  0.13141247595E+04  0.00000000000E+00 0. -1.
    9900016    2    1    2    0    0  0.42667544126E+03 -0.56798783457E+02 -0.54568401039E+03  0.10889284384E+04  0.83828161778E+03 0.  0.
         25    2    3    3    0    0 -0.53577739066E+02 -0.20774727272E+03  0.14943827599E+02  0.24875265611E+03  0.12500024997E+03 0.  0.
         23    2    4    4    0    0 -0.38238903553E+02 -0.14182671045E+03 -0.61537388690E+01  0.16825344556E+03  0.81818848056E+02 0.  0.
        -15    1    4    4    0    0  0.34821521829E+01 -0.50419494657E+02  0.23992311432E+02  0.55945346840E+02  0.00000000000E+00 0.  1.
        -15    1    5    5    0    0 -0.51981611450E+02 -0.12648662961E+03 -0.26508093502E+02  0.13929692896E+03  0.00000000000E+00 0.  1.
         15    1    4    4    0    0 -0.18820987695E+02 -0.15501067613E+02 -0.28947449635E+01  0.24553863716E+02  0.00000000000E+00 0. -1.
         15    1    5    5    0    0  0.13742707896E+02 -0.15340080848E+02  0.20354354633E+02  0.28956516594E+02  0.00000000000E+00 0. -1.
        -16    1    3    3    0    0  0.11042227119E+02  0.84972803447E+02 -0.25498540402E+03  0.26899788915E+03  0.00000000000E+00 0.  1.
         16    1    1    2    0    0 -0.42667544126E+03  0.56798783457E+02 -0.40358628792E+03  0.59005078237E+03  0.00000000000E+00 0. -1.
    9900018    1    3    3    0    0  0.46921095321E+03  0.65975685819E+02 -0.30564243397E+03  0.57117789310E+03  0.91187600000E+02 0.  0.
<mgrwt>
<rscale>  0 0.13848672E+04</rscale>
<asrwt>0</asrwt>
<pdfrwt beam="1">  1        2 0.20217304E+00 0.13848672E+04</pdfrwt>
<pdfrwt beam="2">  1       -2 0.56131457E-01 0.13848672E+04</pdfrwt>
<totfact> 0.47088088E+01</totfact>
</mgrwt>
</event>
<event>
12    1  0.1486553E-010  0.2300739E+04  0.7818608E-02  0.8477630E-01
         -2   -1    0    0    0  501 -0.00000000000E+00  0.00000000000E+00  0.55815586208E+03  0.55815586208E+03  0.00000000000E+00 0. -1.
          2   -1    0    0  501    0  0.00000000000E+00 -0.00000000000E+00 -0.23709316747E+04  0.23709316747E+04  0.00000000000E+00 0.  1.
    9900016    2    1    2    0    0 -0.23972433666E+03 -0.40949126265E+03 -0.45090330632E+03  0.10896388538E+04  0.87111892892E+03 0.  0.
         25    2    3    3    0    0 -0.28872946307E+03  0.16686050731E+03 -0.35584797531E+03  0.50344913955E+03  0.12500449126E+03 0.  0.
         23    2    4    4    0    0 -0.24742130714E+03  0.15237227238E+03 -0.28190254734E+03  0.41509987260E+03  0.91674671598E+02 0.  0.
        -15    1    4    4    0    0 -0.23116598278E+02  0.16086847980E+02 -0.56320924026E+02  0.62969915650E+02  0.00000000000E+00 0.  1.
        -15    1    5    5    0    0 -0.51368219302E+02  0.49035741003E+02 -0.23781782646E+02  0.74891728754E+02  0.00000000000E+00 0.  1.
         15    1    5    5    0    0 -0.19605308784E+03  0.10333653138E+03 -0.25812076470E+03  0.34020814384E+03  0.00000000000E+00 0. -1.
         15    1    4    4    0    0 -0.18191557650E+02 -0.15986130461E+01 -0.17624503937E+02  0.25379351301E+02  0.00000000000E+00 0. -1.
        -16    1    1    2    0    0  0.45620217983E+03  0.66867752463E+03 -0.12152570770E+04  0.14601711626E+04  0.00000000000E+00 0.  1.
         16    1    3    3    0    0  0.49005126410E+02 -0.57635176996E+03 -0.95055331012E+02  0.58618971426E+03  0.00000000000E+00 0. -1.
    9900018    1    1    2    0    0 -0.21647784316E+03 -0.25918626198E+03 -0.14661542930E+03  0.37927752040E+03  0.91187600000E+02 0.  0.
<mgrwt>
<rscale>  0 0.23007385E+04</rscale>
<asrwt>0</asrwt>
<pdfrwt beam="1">  1        2 0.36475872E+00 0.23007385E+04</pdfrwt>
<pdfrwt beam="2">  1       -2 0.85870132E-01 0.23007385E+04</pdfrwt>
<totfact> 0.44080382E+00</totfact>
</mgrwt>
</event>
<event>
12    1  0.1486553E-010  0.1540235E+04  0.7818608E-02  0.8858129E-01
          2   -1    0    0  501    0  0.00000000000E+00  0.00000000000E+00  0.14696783973E+04  0.14696783973E+04  0.00000000000E+00 0. -1.
         -2   -1    0    0    0  501 -0.00000000000E+00 -0.00000000000E+00 -0.40354498317E+03  0.40354498317E+03  0.00000000000E+00 0.  1.
    9900016    2    1    2    0    0  0.11231394025E+03 -0.11377740273E+02  0.90627500258E+03  0.11123629844E+04  0.63503791589E+03 0.  0.
         25    2    3    3    0    0 -0.19989590095E+03 -0.21652306973E+02  0.69763581613E+03  0.73671572728E+03  0.12500854874E+03 0.  0.
         23    2    4    4    0    0 -0.15781818072E+03 -0.12160455255E+01  0.46658542794E+03  0.50069023685E+03  0.89892684803E+02 0.  0.
        -15    1    4    4    0    0 -0.17780466606E+02 -0.10297176371E+02  0.74717383551E+02  0.77491059089E+02  0.00000000000E+00 0.  1.
        -15    1    5    5    0    0 -0.14212373638E+03  0.22758022913E+02  0.43426530717E+03  0.45749693011E+03  0.00000000000E+00 0.  1.
         15    1    4    4    0    0 -0.24297253625E+02 -0.10139085077E+02  0.15633300464E+03  0.15853443134E+03  0.00000000000E+00 0. -1.
         15    1    5    5    0    0 -0.15694444348E+02 -0.23974068438E+02  0.32320120768E+02  0.43193306742E+02  0.00000000000E+00 0. -1.
        -16    1    1    2    0    0 -0.34663474427E+03  0.11834578942E+03 -0.10426129706E+03  0.38083039515E+03  0.00000000000E+00 0.  1.
         16    1    3    3    0    0  0.31220984120E+03  0.10274566700E+02  0.20863918646E+03  0.37564725713E+03  0.00000000000E+00 0. -1.
    9900018    1    1    2    0    0  0.23432080402E+03 -0.10696804915E+03  0.26411970864E+03  0.38003000095E+03  0.91187600000E+02 0.  0.
<mgrwt>
<rscale>  0 0.15402355E+04</rscale>
<asrwt>0</asrwt>
<pdfrwt beam="1">  1        2 0.22610437E+00 0.15402355E+04</pdfrwt>
<pdfrwt beam="2">  1       -2 0.62083844E-01 0.15402355E+04</pdfrwt>
<totfact> 0.30637725E+01</totfact>
</mgrwt>
</event>
<event>
12    1  0.1668756E-010  0.1610935E+04  0.7818608E-02  0.8813858E-01
          2   -1    0    0  501    0  0.00000000000E+00  0.00000000000E+00  0.84690745553E+03  0.84690745553E+03  0.00000000000E+00 0.  1.
         -2   -1    0    0    0  501 -0.00000000000E+00 -0.00000000000E+00 -0.76605510394E+03  0.76605510394E+03  0.00000000000E+00 0. -1.
    9900016    2    1    2    0    0 -0.26705474491E+03  0.21726812514E+03  0.56438931900E+03  0.10193872283E+04  0.77594545090E+03 0.  0.
         25    2    3    3    0    0 -0.14809427785E+03  0.55341258216E+02 -0.26899817859E+02  0.20333311244E+03  0.12500473760E+03 0.  0.
         23    2    4    4    0    0 -0.10956993896E+03  0.39511231062E+02 -0.43207281188E+02  0.14906175892E+03  0.82376148978E+02 0.  0.
        -15    1    4    4    0    0 -0.16495713362E+02  0.22922931568E+02  0.12215855059E+02  0.30770057943E+02  0.00000000000E+00 0. -1.
        -15    1    5    5    0    0 -0.79992841680E+02  0.40148845902E+02 -0.66421805057E+02  0.11145690079E+03  0.00000000000E+00 0.  1.
         15    1    5    5    0    0 -0.29577097277E+02 -0.63761484022E+00  0.23214523869E+02  0.37604858124E+02  0.00000000000E+00 0. -1.
         15    1    4    4    0    0 -0.22028625532E+02 -0.70929044141E+01  0.40916082708E+01  0.23501295584E+02  0.00000000000E+00 0.  1.
        -16    1    3    3    0    0 -0.15610754314E+03  0.21083843935E+03  0.54268107322E+02  0.26789445684E+03  0.00000000000E+00 0.  1.
         16    1    1    2    0    0  0.26705474491E+03 -0.21726812514E+03 -0.48353696740E+03  0.59357533121E+03  0.00000000000E+00 0. -1.
    9900018    1    3    3    0    0  0.37147076080E+02 -0.48911572433E+02  0.53702102953E+03  0.54815965898E+03  0.91187600000E+02 0.  0.
<mgrwt>
<rscale>  0 0.16109349E+04</rscale>
<asrwt>0</asrwt>
<pdfrwt beam="1">  1        2 0.13029345E+00 0.16109349E+04</pdfrwt>
<pdfrwt beam="2">  1       -2 0.11785463E+00 0.16109349E+04</pdfrwt>
<totfact> 0.16969972E+01</totfact>
</mgrwt>
</event>
<event>
12    1  0.1486553E-010  0.1295238E+04  0.7818608E-02  0.9033350E-01
         -2   -1    0    0    0  501 -0.00000000000E+00  0.00000000000E+00  0.35430793880E+03  0.35430793880E+03  0.00000000000E+00 0.  1.
          2   -1    0    0  501    0  0.00000000000E+00 -0.00000000000E+00 -0.11837459397E+04  0.11837459397E+04  0.00000000000E+00 0. -1.
    9900016    2    1    2    0    0 -0.13473041703E+03  0.11134019500E+03  0.39398882716E+02  0.65181099157E+03  0.62670277842E+03 0.  0.
         25    2    3    3    0    0  0.43139131395E+01 -0.28960043383E+02  0.48551175039E+02  0.13725446599E+03  0.12499711147E+03 0.  0.
         23    2    4    4    0    0  0.10648332313E+02 -0.18666955456E+02  0.30916896805E+02  0.98920267707E+02  0.91474163828E+02 0.  0.
        -15    1    4    4    0    0 -0.11041932108E+02  0.52468920282E+01  0.18386080198E+02  0.22079449397E+02  0.00000000000E+00 0.  1.
        -15    1    5    5    0    0 -0.27953568309E+02 -0.19573303593E+02  0.46162974604E+02  0.57406762834E+02  0.00000000000E+00 0. -1.
         15    1    4    4    0    0  0.47075129347E+01 -0.15539979955E+02 -0.75180196404E+00  0.16254748882E+02  0.00000000000E+00 0. -1.
         15    1    5    5    0    0  0.38601900622E+02  0.90634813688E+00 -0.15246077799E+02  0.41513504873E+02  0.00000000000E+00 0.  1.
        -16    1    3    3    0    0  0.58083384135E+02  0.18372669556E+03  0.14800529415E+03  0.24297066751E+03  0.00000000000E+00 0.  1.
         16    1    1    2    0    0  0.13473041703E+03 -0.11134019500E+03 -0.86883688361E+03  0.88624288692E+03  0.00000000000E+00 0. -1.
    9900018    1    3    3    0    0 -0.19712771430E+03 -0.43426457171E+02 -0.15715758647E+03  0.27158585808E+03  0.91187600000E+02 0.  0.
<mgrwt>
<rscale>  0 0.12952383E+04</rscale>
<asrwt>0</asrwt>
<pdfrwt beam="1">  1        2 0.18211476E+00 0.12952383E+04</pdfrwt>
<pdfrwt beam="2">  1       -2 0.54508914E-01 0.12952383E+04</pdfrwt>
<totfact> 0.60153804E+01</totfact>
</mgrwt>
</event>
<event>
12    1  0.1486553E-010  0.9805263E+03  0.7818608E-02  0.9330165E-01
          1   -1    0    0  501    0  0.00000000000E+00  0.00000000000E+00  0.11940697046E+04  0.11940697046E+04  0.00000000000E+00 0. -1.
         -1   -1    0    0    0  501 -0.00000000000E+00 -0.00000000000E+00 -0.20129307544E+03  0.20129307544E+03  0.00000000000E+00 0.  1.
    9900016    2    1    2    0    0  0.17154552163E+03 -0.76917197838E+02  0.31446771790E+03  0.69148274736E+03  0.58644208835E+03 0.  0.
         25    2    3    3    0    0  0.40997235539E+02  0.45538160224E+02  0.59473605077E+02  0.15138353548E+03  0.12500147101E+03 0.  0.
         23    2    4    4    0    0  0.69220255587E+01  0.48535037911E+02  0.50264160813E+02  0.11040696139E+03  0.85203561650E+02 0.  0.
        -15    1    4    4    0    0  0.10517685704E+02 -0.86614052230E+01  0.97290018467E+01  0.16742016902E+02  0.00000000000E+00 0.  1.
        -15    1    5    5    0    0 -0.19382676388E+02  0.27503012323E+02 -0.15097371290E+02  0.36878644913E+02  0.00000000000E+00 0. -1.
         15    1    5    5    0    0  0.26304701946E+02  0.21032025588E+02  0.65361532103E+02  0.73528316475E+02  0.00000000000E+00 0.  1.
         15    1    4    4    0    0  0.23557524276E+02  0.56645275369E+01 -0.51955758210E+00  0.24234557193E+02  0.00000000000E+00 0. -1.
        -16    1    3    3    0    0  0.10887127071E+03 -0.88296889517E+02  0.36536103588E+03  0.39132848200E+03  0.00000000000E+00 0.  1.
         16    1    1    2    0    0 -0.17154552163E+03  0.76917197838E+02  0.67830891130E+03  0.70388003272E+03  0.00000000000E+00 0. -1.
    9900018    1    3    3    0    0  0.21677015385E+02 -0.34158468546E+02 -0.11036692306E+03  0.14877072988E+03  0.91187600000E+02 0.  0.
<mgrwt>
<rscale>  0 0.98052631E+03</rscale>
<asrwt>0</asrwt>
<pdfrwt beam="1">  1        1 0.18370303E+00 0.98052631E+03</pdfrwt>
<pdfrwt beam="2">  1       -1 0.30968166E-01 0.98052631E+03</pdfrwt>
<totfact> 0.10440709E+02</totfact>
</mgrwt>
</event>
<event>
11    1  0.1486553E-010  0.6464155E+03  0.7818608E-02  0.9813529E-01
         -3   -1    0    0    0  501 -0.00000000000E+00  0.00000000000E+00  0.49818492589E+03  0.49818492589E+03  0.00000000000E+00 0.  1.
          3   -1    0    0  501    0  0.00000000000E+00 -0.00000000000E+00 -0.20968766702E+03  0.20968766702E+03  0.00000000000E+00 0. -1.
         25    2    1    2    0    0  0.10950535399E+03 -0.76178677666E+02  0.43871243592E+02  0.18800221462E+03  0.12500213279E+03 0.  0.
         23    2    3    3    0    0  0.76044496406E+02 -0.66214267015E+02  0.49835479753E+01  0.13501817660E+03  0.89654769377E+02 0.  0.
        -15    1    3    3    0    0  0.14993467219E+02 -0.48633966980E+00  0.19291940166E+02  0.24438075638E+02  0.00000000000E+00 0. -1.
        -15    1    4    4    0    0 -0.67842253815E+01  0.98725179450E+01  0.18183867426E+02  0.21774879085E+02  0.00000000000E+00 0.  1.
         15    1    3    3    0    0  0.18467390368E+02 -0.94780709811E+01  0.19595755451E+02  0.28545962380E+02  0.00000000000E+00 0.  1.
         15    1    4    4    0    0  0.82828721788E+02 -0.76086784960E+02 -0.13200319451E+02  0.11324329752E+03  0.00000000000E+00 0. -1.
        -16    1    1    2    0    0 -0.15873901100E+03  0.15445189622E+03  0.13918019765E+03  0.26158094212E+03  0.00000000000E+00 0.  1.
         16    1    1    2    0    0 -0.39502848272E+02  0.34910314155E+02  0.64201651988E+02  0.83072601825E+02  0.00000000000E+00 0. -1.
    9900018    1    1    2    0    0  0.88736505282E+02 -0.11318353271E+03  0.41244165636E+02  0.17521683435E+03  0.91187600000E+02 0.  0.
<mgrwt>
<rscale>  0 0.64641545E+03</rscale>
<asrwt>0</asrwt>
<pdfrwt beam="1">  1        3 0.32259641E-01 0.64641545E+03</pdfrwt>
<pdfrwt beam="2">  1       -3 0.76643834E-01 0.64641545E+03</pdfrwt>
<totfact> 0.39747806E+01</totfact>
</mgrwt>
</event>
<event>
12    1  0.1486553E-010  0.2067383E+04  0.7818608E-02  0.8575749E-01
         -1   -1    0    0    0  501 -0.00000000000E+00  0.00000000000E+00  0.46284304365E+03  0.46284304365E+03  0.00000000000E+00 0.  1.
          1   -1    0    0  501    0  0.00000000000E+00 -0.00000000000E+00 -0.23085962199E+04  0.23085962199E+04  0.00000000000E+00 0. -1.
    9900016    2    1    2    0    0 -0.45522950705E+03  0.18416172366E+03 -0.68545958335E+02  0.74047319575E+03  0.54995687165E+03 0.  0.
         25    2    3    3    0    0  0.63764257996E+02  0.13700593707E+03  0.57385595292E+02  0.20434172628E+03  0.12500370859E+03 0.  0.
         23    2    4    4    0    0  0.46825202308E+02  0.67015246633E+02  0.32807382758E+02  0.12365634731E+03  0.86780902359E+02 0.  0.
        -15    1    4    4    0    0  0.12790805135E+02  0.48352746888E+02  0.34098683717E+01  0.50132025991E+02  0.00000000000E+00 0.  1.
        -15    1    5    5    0    0  0.63634557020E+02  0.74191056493E+02  0.37658576373E+02  0.10474654212E+03  0.00000000000E+00 0.  1.
         15    1    5    5    0    0 -0.16809354712E+02 -0.71758098607E+01 -0.48511936147E+01  0.18909805194E+02  0.00000000000E+00 0. -1.
         15    1    4    4    0    0  0.41482505539E+01  0.21637943547E+02  0.21168344162E+02  0.30553352977E+02  0.00000000000E+00 0. -1.
        -16    1    3    3    0    0 -0.51899376504E+03  0.47155786588E+02 -0.12593155363E+03  0.53613146947E+03  0.00000000000E+00 0.  1.
         16    1    1    2    0    0  0.36685631211E+03 -0.45370054747E+03 -0.15502682900E+04  0.16564297484E+04  0.00000000000E+00 0. -1.
    9900018    1    1    2    0    0  0.88373194934E+02  0.26953882381E+03 -0.22693892791E+03  0.37453631936E+03  0.91187600000E+02 0.  0.
<mgrwt>
<rscale>  0 0.20673826E+04</rscale>
<asrwt>0</asrwt>
<pdfrwt beam="1">  1        1 0.35516865E+00 0.20673826E+04</pdfrwt>
<pdfrwt beam="2">  1       -1 0.71206622E-01 0.20673826E+04</pdfrwt>
<totfact> 0.33730771E+00</totfact>
</mgrwt>
</event>
<event>
12    1  0.1486553E-010  0.9466106E+03  0.7818608E-02  0.9369121E-01
         -1   -1    0    0    0  501 -0.00000000000E+00  0.00000000000E+00  0.23243237770E+03  0.23243237770E+03  0.00000000000E+00 0. -1.
          1   -1    0    0  501    0  0.00000000000E+00 -0.00000000000E+00 -0.96379817015E+03  0.96379817015E+03  0.00000000000E+00 0.  1.
    9900016    2    1    2    0    0  0.17287158384E+03  0.14751936517E+03 -0.21738726419E+03  0.63425147785E+03  0.55079140056E+03 0.  0.
         25    2    3    3    0    0  0.13680460898E+03  0.88276081603E+02 -0.36671280601E+03  0.42025137511E+03  0.12499907425E+03 0.  0.
         23    2    4    4    0    0  0.91329319863E+02  0.63838940959E+02 -0.28857835675E+03  0.32195088798E+03  0.89210152123E+02 0.  0.
        -15    1    4    4    0    0  0.22190312972E+02  0.28364724278E+02 -0.45892031835E+02  0.58335633700E+02  0.00000000000E+00 0.  1.
        -15    1    5    5    0    0  0.21541324343E+00 -0.15051002473E+02 -0.90903332794E+01  0.17584460112E+02  0.00000000000E+00 0. -1.
         15    1    5    5    0    0  0.91113906619E+02  0.78889943431E+02 -0.27948802347E+03  0.30436642787E+03  0.00000000000E+00 0.  1.
         15    1    4    4    0    0  0.23284976148E+02 -0.39275836332E+01 -0.32242417430E+02  0.39964853423E+02  0.00000000000E+00 0. -1.
        -16    1    1    2    0    0 -0.17287158384E+03 -0.14751936517E+03 -0.51397852826E+03  0.56197907000E+03  0.00000000000E+00 0.  1.
         16    1    3    3    0    0  0.23089295785E+02  0.56478761909E+02  0.63763927589E+02  0.88254204365E+02  0.00000000000E+00 0. -1.
    9900018    1    3    3    0    0  0.12977679072E+02  0.27645216627E+01  0.85561614239E+02  0.12574589838E+03  0.91187600000E+02 0.  0.
<mgrwt>
<rscale>  0 0.94661059E+03</rscale>
<asrwt>0</asrwt>
<pdfrwt beam="1">  1        1 0.14827664E+00 0.94661059E+03</pdfrwt>
<pdfrwt beam="2">  1       -1 0.35758827E-01 0.94661059E+03</pdfrwt>
<totfact> 0.12116517E+02</totfact>
</mgrwt>
</event>
<event>
12    1  0.1486553E-010  0.1307552E+04  0.7818608E-02  0.9023598E-01
         -4   -1    0    0    0  501 -0.00000000000E+00  0.00000000000E+00  0.62242031061E+03  0.62242031061E+03  0.00000000000E+00 0.  1.
          4   -1    0    0  501    0  0.00000000000E+00 -0.00000000000E+00 -0.68671109522E+03  0.68671109522E+03  0.00000000000E+00 0. -1.
    9900016    2    1    2    0    0 -0.20463630355E+03  0.15610280833E+03  0.39944323748E+03  0.77876045381E+03  0.61698366344E+03 0.  0.
         25    2    3    3    0    0  0.64214781300E+02 -0.89459528696E+02  0.18402135698E+03  0.24822128429E+03  0.12499360277E+03 0.  0.
         23    2    4    4    0    0  0.40620779126E+02 -0.47707304830E+02  0.98930061546E+02  0.14816114748E+03  0.90766369955E+02 0.  0.
        -15    1    4    4    0    0  0.88995160093E+01 -0.32230789064E+02  0.42986838233E+02  0.54460016619E+02  0.00000000000E+00 0. -1.
        -15    1    5    5    0    0  0.21408692424E+02 -0.46583328597E+02  0.41366866293E+01  0.51433945899E+02  0.00000000000E+00 0.  1.
         15    1    5    5    0    0  0.19212086702E+02 -0.11239762329E+01  0.94793374917E+02  0.96727201584E+02  0.00000000000E+00 0. -1.
         15    1    4    4    0    0  0.14694486164E+02 -0.95214348024E+01  0.42104457204E+02  0.45600120184E+02  0.00000000000E+00 0.  1.
        -16    1    3    3    0    0 -0.24342155768E+03  0.10321924935E+03  0.24091697767E+03  0.35769995570E+03  0.00000000000E+00 0.  1.
         16    1    1    2    0    0  0.20463630355E+03 -0.15610280833E+03 -0.46373402209E+03  0.53037095202E+03  0.00000000000E+00 0. -1.
    9900018    1    3    3    0    0 -0.25429527170E+02  0.14234308767E+03 -0.25495097173E+02  0.17283921382E+03  0.91187600000E+02 0.  0.
<mgrwt>
<rscale>  0 0.13075518E+04</rscale>
<asrwt>0</asrwt>
<pdfrwt beam="1">  1        4 0.10564786E+00 0.13075518E+04</pdfrwt>
<pdfrwt beam="2">  1       -4 0.95756971E-01 0.13075518E+04</pdfrwt>
<totfact> 0.12949042E+00</totfact>
</mgrwt>
</event>
<event>
12    1  0.1486553E-010  0.1845985E+04  0.7818608E-02  0.8682220E-01
          1   -1    0    0  501    0  0.00000000000E+00  0.00000000000E+00  0.22200063646E+04  0.22200063646E+04  0.00000000000E+00 0. -1.
         -1   -1    0    0    0  501 -0.00000000000E+00 -0.00000000000E+00 -0.38374464063E+03  0.38374464063E+03  0.00000000000E+00 0.  1.
    9900016    2    1    2    0    0 -0.27926134430E+03  0.67625018456E+03  0.49568373985E+03  0.10765147622E+04  0.61471981643E+03 0.  0.
         25    2    3    3    0    0 -0.18369484143E+03  0.13276473892E+03  0.10513987284E+03  0.27937221135E+03  0.12499667573E+03 0.  0.
         23    2    4    4    0    0 -0.15072346923E+03  0.74740348552E+02  0.80587103097E+02  0.20685079746E+03  0.89382813475E+02 0.  0.
        -15    1    4    4    0    0 -0.12777768421E+02  0.11510156092E+02  0.93919431107E+01  0.19594990545E+02  0.00000000000E+00 0.  1.
        -15    1    5    5    0    0 -0.56059797863E+02  0.18692184926E+02  0.76628303508E+02  0.96767740556E+02  0.00000000000E+00 0. -1.
         15    1    4    4    0    0 -0.20193603777E+02  0.46514234274E+02  0.15160826637E+02  0.52926423344E+02  0.00000000000E+00 0. -1.
         15    1    5    5    0    0 -0.94663671371E+02  0.56048163626E+02  0.39587995893E+01  0.11008305691E+03  0.00000000000E+00 0.  1.
        -16    1    3    3    0    0 -0.22791492875E+03  0.32896918300E+03  0.12362938721E+03  0.41886771598E+03  0.00000000000E+00 0.  1.
         16    1    1    2    0    0  0.27926134430E+03 -0.67625018456E+03  0.13405779841E+04  0.15272362430E+04  0.00000000000E+00 0. -1.
    9900018    1    3    3    0    0  0.13234842588E+03  0.21451626264E+03  0.26691447979E+03  0.37827483486E+03  0.91187600000E+02 0.  0.
<mgrwt>
<rscale>  0 0.18459854E+04</rscale>
<asrwt>0</asrwt>
<pdfrwt beam="1">  1        1 0.34153943E+00 0.18459854E+04</pdfrwt>
<pdfrwt beam="2">  1       -1 0.59037638E-01 0.18459854E+04</pdfrwt>
<totfact> 0.57722910E+00</totfact>
</mgrwt>
</event>
<event>
11    1  0.1486553E-010  0.8242396E+03  0.7818608E-02  0.9525579E-01
          1   -1    0    0  501    0  0.00000000000E+00  0.00000000000E+00  0.97385786121E+03  0.97385786121E+03  0.00000000000E+00 0. -1.
         -1   -1    0    0    0  501 -0.00000000000E+00 -0.00000000000E+00 -0.17440195463E+03  0.17440195463E+03  0.00000000000E+00 0.  1.
         25    2    1    2    0    0  0.16307053544E+03 -0.17730773684E+03  0.32981306644E+03  0.42712053656E+03  0.12500104353E+03 0.  0.
         23    2    3    3    0    0  0.10474420212E+03 -0.12537216432E+03  0.20239304904E+03  0.27224012149E+03  0.80387872119E+02 0.  0.
        -15    1    3    3    0    0  0.60219968173E+02 -0.40608212477E+02  0.12244066000E+03  0.14236286984E+03  0.00000000000E+00 0.  1.
        -15    1    4    4    0    0  0.10471688028E+02  0.11667897898E+02  0.19509393407E+02  0.25028234509E+02  0.00000000000E+00 0.  1.
         15    1    3    3    0    0 -0.18936348538E+01 -0.11327360051E+02  0.49793574081E+01  0.12517545242E+02  0.00000000000E+00 0. -1.
         15    1    4    4    0    0  0.94272514095E+02 -0.13704006221E+03  0.18288365563E+03  0.24721188698E+03  0.00000000000E+00 0. -1.
        -16    1    1    2    0    0 -0.12995923402E+03  0.27997003287E+03  0.17652260373E+03  0.35557397464E+03  0.00000000000E+00 0.  1.
         16    1    1    2    0    0  0.50066477217E+02 -0.45642825968E+02  0.16658268020E+03  0.17983244715E+03  0.00000000000E+00 0. -1.
    9900018    1    1    2    0    0 -0.83177778642E+02 -0.57019470059E+02  0.12653755620E+03  0.18573285749E+03  0.91187600000E+02 0.  0.
<mgrwt>
<rscale>  0 0.82423956E+03</rscale>
<asrwt>0</asrwt>
<pdfrwt beam="1">  1        1 0.14982428E+00 0.82423956E+03</pdfrwt>
<pdfrwt beam="2">  1       -1 0.26831071E-01 0.82423956E+03</pdfrwt>
<totfact> 0.19848164E+02</totfact>
</mgrwt>
</event>
<event>
12    1  0.1486553E-010  0.1094931E+04  0.7818608E-02  0.9210147E-01
         -1   -1    0    0    0  501 -0.00000000000E+00  0.00000000000E+00  0.10135297745E+04  0.10135297745E+04  0.00000000000E+00 0.  1.
          1   -1    0    0  501    0  0.00000000000E+00 -0.00000000000E+00 -0.29571725032E+03  0.29571725032E+03  0.00000000000E+00 0. -1.
    9900016    2    1    2    0    0 -0.12677564041E+03 -0.15685219883E+03  0.75946871515E+02  0.63644230475E+03  0.59884572696E+03 0.  0.
         25    2    3    3    0    0 -0.46528422751E+02  0.88037622030E+02 -0.24302132521E+02  0.16164534154E+03  0.12499242290E+03 0.  0.
         23    2    4    4    0    0 -0.31223265861E+02  0.80283746817E+02 -0.17102662051E+02  0.12642920651E+03  0.90947627097E+02 0.  0.
        -15    1    4    4    0    0  0.34147301884E+01  0.10929740542E+02  0.51608949588E+01  0.12560033732E+02  0.00000000000E+00 0.  1.
        -15    1    5    5    0    0 -0.56497258545E+02  0.20894762092E+02 -0.26954681295E+01  0.60297569224E+02  0.00000000000E+00 0.  1.
         15    1    5    5    0    0  0.25273992684E+02  0.59388984726E+02 -0.14407193922E+02  0.66131637282E+02  0.00000000000E+00 0. -1.
         15    1    4    4    0    0 -0.18719887078E+02 -0.31758653290E+01 -0.12360365429E+02  0.22656101305E+02  0.00000000000E+00 0. -1.
        -16    1    1    2    0    0  0.12677564041E+03  0.15685219883E+03  0.64186565262E+03  0.67280472003E+03  0.00000000000E+00 0.  1.
         16    1    3    3    0    0 -0.11155765455E+03 -0.22266519496E+03  0.21090890914E+03  0.32635481809E+03  0.00000000000E+00 0. -1.
    9900018    1    3    3    0    0  0.31310436885E+02 -0.22224625902E+02 -0.11065990510E+03  0.14844214511E+03  0.91187600000E+02 0.  0.
<mgrwt>
<rscale>  0 0.10949306E+04</rscale>
<asrwt>0</asrwt>
<pdfrwt beam="1">  1        1 0.45494962E-01 0.10949306E+04</pdfrwt>
<pdfrwt beam="2">  1       -1 0.15592766E+00 0.10949306E+04</pdfrwt>
<totfact> 0.27958934E+01</totfact>
</mgrwt>
</event>
<event>
12    1  0.1486553E-010  0.1061734E+04  0.7818608E-02  0.9243312E-01
          1   -1    0    0  501    0  0.00000000000E+00  0.00000000000E+00  0.85968171556E+03  0.85968171556E+03  0.00000000000E+00 0. -1.
         -1   -1    0    0    0  501 -0.00000000000E+00 -0.00000000000E+00 -0.32781891465E+03  0.32781891465E+03  0.00000000000E+00 0.  1.
    9900016    2    1    2    0    0 -0.14763481380E+02  0.17240271188E+03  0.54780593296E+03  0.10137340083E+04  0.83523927341E+03 0.  0.
         25    2    3    3    0    0  0.75730476932E+02 -0.24977707291E+02  0.23142262017E+02  0.15006450544E+03  0.12499920201E+03 0.  0.
         23    2    4    4    0    0  0.46376697128E+02  0.32371187137E+01  0.16999369032E+02  0.10399344460E+03  0.91456989886E+02 0.  0.
        -15    1    4    4    0    0  0.17012147241E+02 -0.39321188256E+01  0.70172478180E+01  0.18817982866E+02  0.00000000000E+00 0. -1.
        -15    1    5    5    0    0  0.27993917409E+02  0.15265208996E+02 -0.35118947867E+02  0.47434444414E+02  0.00000000000E+00 0.  1.
         15    1    4    4    0    0  0.12341632564E+02 -0.24282707179E+02 -0.87435483347E+00  0.27253077967E+02  0.00000000000E+00 0.  1.
         15    1    5    5    0    0  0.18382779718E+02 -0.12028090283E+02  0.52118316899E+02  0.56559000189E+02  0.00000000000E+00 0. -1.
        -16    1    1    2    0    0  0.14763481380E+02 -0.17240271188E+03 -0.15943132052E+02  0.17376662195E+03  0.00000000000E+00 0.  1.
         16    1    3    3    0    0  0.22058949936E+03  0.23594132629E+03  0.12194539635E+03  0.34525167106E+03  0.00000000000E+00 0. -1.
    9900018    1    3    3    0    0 -0.31108345767E+03 -0.38560907121E+02  0.40271827460E+03  0.51841783176E+03  0.91187600000E+02 0.  0.
<mgrwt>
<rscale>  0 0.10617343E+04</rscale>
<asrwt>0</asrwt>
<pdfrwt beam="1">  1        1 0.13225872E+00 0.10617343E+04</pdfrwt>
<pdfrwt beam="2">  1       -1 0.50433679E-01 0.10617343E+04</pdfrwt>
<totfact> 0.77493520E+01</totfact>
</mgrwt>
</event>
<event>
12    1  0.1486553E-010  0.1137673E+04  0.7818608E-02  0.9169232E-01
         -1   -1    0    0    0  501 -0.00000000000E+00  0.00000000000E+00  0.65631764661E+03  0.65631764661E+03  0.00000000000E+00 0.  1.
          1   -1    0    0  501    0  0.00000000000E+00 -0.00000000000E+00 -0.49301564317E+03  0.49301564317E+03  0.00000000000E+00 0. -1.
    9900016    2    1    2    0    0  0.36420265345E+03  0.86434857633E+02  0.26477249042E+03  0.72982284710E+03  0.56782247143E+03 0.  0.
         25    2    3    3    0    0  0.47553534609E+03 -0.59709022147E+02  0.17468584719E+03  0.52520465304E+03  0.12500299862E+03 0.  0.
         23    2    4    4    0    0  0.40314518773E+03 -0.31786013625E+02  0.16555636751E+03  0.44532189337E+03  0.85827063554E+02 0.  0.
        -15    1    4    4    0    0  0.98393525261E+01 -0.82209729061E+01  0.61871482831E+01  0.14236504400E+02  0.00000000000E+00 0.  1.
        -15    1    5    5    0    0  0.24047573746E+03  0.16568606131E+02  0.72161105114E+02  0.25161542900E+03  0.00000000000E+00 0.  1.
         15    1    4    4    0    0  0.62550805830E+02 -0.19702035616E+02  0.29423314000E+01  0.65646255274E+02  0.00000000000E+00 0. -1.
         15    1    5    5    0    0  0.16266945027E+03 -0.48354619755E+02  0.93395262395E+02  0.19370646437E+03  0.00000000000E+00 0. -1.
        -16    1    1    2    0    0 -0.12500809767E+03 -0.50845136123E+02 -0.87187648315E+02  0.16066716643E+03  0.00000000000E+00 0.  1.
         16    1    3    3    0    0 -0.11133269264E+03  0.14614387978E+03  0.90086643231E+02  0.20461819405E+03  0.00000000000E+00 0. -1.
    9900018    1    1    2    0    0 -0.23919455577E+03 -0.35589721509E+02 -0.14282838668E+02  0.25884327626E+03  0.91187600000E+02 0.  0.
<mgrwt>
<rscale>  0 0.11376728E+04</rscale>
<asrwt>0</asrwt>
<pdfrwt beam="1">  1        1 0.75848561E-01 0.11376728E+04</pdfrwt>
<pdfrwt beam="2">  1       -1 0.10097195E+00 0.11376728E+04</pdfrwt>
<totfact> 0.41897472E+01</totfact>
</mgrwt>
</event>
<event>
12    1  0.1486553E-010  0.1490733E+04  0.7818608E-02  0.8890639E-01
          1   -1    0    0  501    0  0.00000000000E+00  0.00000000000E+00  0.31832975703E+04  0.31832975703E+04  0.00000000000E+00 0. -1.
         -1   -1    0    0    0  501 -0.00000000000E+00 -0.00000000000E+00 -0.17452691649E+03  0.17452691649E+03  0.00000000000E+00 0.  1.
    9900016    2    1    2    0    0  0.77301554912E+02 -0.59263898919E+03  0.15816150514E+04  0.18105786707E+04  0.64768236822E+03 0.  0.
         25    2    3    3    0    0 -0.10793756622E+03 -0.20913381022E+03  0.35649372560E+03  0.44508935326E+03  0.12501714768E+03 0.  0.
         23    2    4    4    0    0 -0.74658753933E+02 -0.17375718278E+03  0.24898854021E+03  0.32510185790E+03  0.89052999664E+02 0.  0.
        -15    1    4    4    0    0 -0.21687302983E+02 -0.19081538608E+02  0.38430952168E+02  0.48076837572E+02  0.00000000000E+00 0. -1.
        -15    1    5    5    0    0 -0.13523428171E+02 -0.11457168383E+03  0.18738708497E+03  0.22005334230E+03  0.00000000000E+00 0. -1.
         15    1    5    5    0    0 -0.61135325763E+02 -0.59185498947E+02  0.61601455240E+02  0.10504851560E+03  0.00000000000E+00 0.  1.
         15    1    4    4    0    0 -0.11591509303E+02 -0.16295088842E+02  0.69074233229E+02  0.71910657795E+02  0.00000000000E+00 0.  1.
        -16    1    3    3    0    0  0.23709892609E+03 -0.34217137914E+03  0.11661935302E+04  0.12382667335E+04  0.00000000000E+00 0.  1.
         16    1    1    2    0    0 -0.77301554912E+02  0.59263898919E+03  0.14271556024E+04  0.15472458161E+04  0.00000000000E+00 0. -1.
    9900018    1    3    3    0    0 -0.51859804963E+02 -0.41333799830E+02  0.58927795643E+02  0.12722258397E+03  0.91187600000E+02 0.  0.
<mgrwt>
<rscale>  0 0.14907329E+04</rscale>
<asrwt>0</asrwt>
<pdfrwt beam="1">  1        1 0.48973804E+00 0.14907329E+04</pdfrwt>
<pdfrwt beam="2">  1       -1 0.26850297E-01 0.14907329E+04</pdfrwt>
<totfact> 0.52881575E+00</totfact>
</mgrwt>
</event>
<event>
12    1  0.1486553E-010  0.9934327E+03  0.7818608E-02  0.9315777E-01
         -2   -1    0    0    0  501 -0.00000000000E+00  0.00000000000E+00  0.13111278274E+03  0.13111278274E+03  0.00000000000E+00 0.  1.
          2   -1    0    0  501    0  0.00000000000E+00 -0.00000000000E+00 -0.18817931490E+04  0.18817931490E+04  0.00000000000E+00 0. -1.
    9900016    2    1    2    0    0 -0.40237263397E+02  0.86438472753E+02 -0.17449292353E+04  0.19173877531E+04  0.78899119940E+03 0.  0.
         25    2    3    3    0    0 -0.27350771765E+02 -0.72296719047E+02 -0.37972869028E+03  0.40717694308E+03  0.12499721779E+03 0.  0.
         23    2    4    4    0    0 -0.24772688488E+02 -0.44487572427E+02 -0.27349744607E+03  0.29274357892E+03  0.91132429992E+02 0.  0.
        -15    1    4    4    0    0 -0.12135644096E+02  0.34651068857E+00 -0.40697620223E+02  0.42469874253E+02  0.00000000000E+00 0.  1.
        -15    1    5    5    0    0  0.15086402783E+02  0.21181175870E+02 -0.93276294224E+02  0.96833407584E+02  0.00000000000E+00 0.  1.
         15    1    5    5    0    0 -0.39859091271E+02 -0.65668748297E+02 -0.18022115185E+03  0.19591017134E+03  0.00000000000E+00 0. -1.
         15    1    4    4    0    0  0.95575608190E+01 -0.28155657308E+02 -0.65533623986E+02  0.71963489910E+02  0.00000000000E+00 0. -1.
        -16    1    1    2    0    0  0.40237263397E+02 -0.86438472753E+02 -0.57511309600E+01  0.95518178609E+02  0.00000000000E+00 0.  1.
         16    1    3    3    0    0  0.21553726839E+03  0.21498652148E+03 -0.34880861191E+03  0.46297188492E+03  0.00000000000E+00 0. -1.
    9900018    1    3    3    0    0 -0.22842376002E+03 -0.56251329680E+02 -0.10163919331E+04  0.10472389251E+04  0.91187600000E+02 0.  0.
<mgrwt>
<rscale>  0 0.99343271E+03</rscale>
<asrwt>0</asrwt>
<pdfrwt beam="1">  1        2 0.28950663E+00 0.99343271E+03</pdfrwt>
<pdfrwt beam="2">  1       -2 0.20171198E-01 0.99343271E+03</pdfrwt>
<totfact> 0.16383112E+02</totfact>
</mgrwt>
</event>
<event>
12    1  0.1486553E-010  0.9579850E+03  0.7818608E-02  0.9355866E-01
          2   -1    0    0  501    0  0.00000000000E+00  0.00000000000E+00  0.12589484393E+04  0.12589484393E+04  0.00000000000E+00 0.  1.
         -2   -1    0    0    0  501 -0.00000000000E+00 -0.00000000000E+00 -0.18224240761E+03  0.18224240761E+03  0.00000000000E+00 0. -1.
    9900016    2    1    2    0    0 -0.12919417534E+02  0.61262612050E+02  0.11195703521E+04  0.13653135187E+04  0.77892439422E+03 0.  0.
         25    2    3    3    0    0  0.82526379755E+02  0.10463183182E+03  0.31407406128E+03  0.36335369042E+03  0.12499985914E+03 0.  0.
         23    2    4    4    0    0  0.37135710677E+02  0.51056442598E+02  0.17463121399E+03  0.20622383100E+03  0.89701651240E+02 0.  0.
        -15    1    4    4    0    0  0.44940491995E+01  0.16779901002E+02  0.35773091184E+02  0.39767770980E+02  0.00000000000E+00 0. -1.
        -15    1    5    5    0    0 -0.27253873639E+02  0.31925670759E+02  0.57381671301E+02  0.71096260683E+02  0.00000000000E+00 0.  1.
         15    1    5    5    0    0  0.64389584316E+02  0.19130771839E+02  0.11724954269E+03  0.13512757032E+03  0.00000000000E+00 0. -1.
         15    1    4    4    0    0  0.40896619878E+02  0.36795488218E+02  0.10366975611E+03  0.11736208844E+03  0.00000000000E+00 0.  1.
        -16    1    3    3    0    0  0.21322265490E+03  0.10587958325E+03  0.37400537449E+03  0.44334456900E+03  0.00000000000E+00 0.  1.
         16    1    1    2    0    0  0.12919417534E+02 -0.61262612050E+02 -0.42864320396E+02  0.75877328284E+02  0.00000000000E+00 0. -1.
    9900018    1    3    3    0    0 -0.30866845219E+03 -0.14924880301E+03  0.43149091634E+03  0.55861525924E+03  0.91187600000E+02 0.  0.
<mgrwt>
<rscale>  0 0.95798496E+03</rscale>
<asrwt>0</asrwt>
<pdfrwt beam="1">  1        2 0.19368437E+00 0.95798496E+03</pdfrwt>
<pdfrwt beam="2">  1       -2 0.28037294E-01 0.95798496E+03</pdfrwt>
<totfact> 0.20295972E+02</totfact>
</mgrwt>
</event>
<event>
12    1  0.1486553E-010  0.8256605E+03  0.7818608E-02  0.9523600E-01
         -2   -1    0    0    0  501 -0.00000000000E+00  0.00000000000E+00  0.26526534323E+03  0.26526534323E+03  0.00000000000E+00 0.  1.
          2   -1    0    0  501    0  0.00000000000E+00 -0.00000000000E+00 -0.64248428447E+03  0.64248428447E+03  0.00000000000E+00 0. -1.
    9900016    2    1    2    0    0 -0.34490191404E+02 -0.15684420841E+02 -0.38155385942E+03  0.86961347850E+03  0.78051821247E+03 0.  0.
         25    2    3    3    0    0 -0.19709698209E+03 -0.52484310379E+02 -0.12164368496E+03  0.26836761347E+03  0.12498866622E+03 0.  0.
         23    2    4    4    0    0 -0.11374891249E+03 -0.36536660587E+02 -0.66922042062E+02  0.16509806184E+03  0.92222923670E+02 0.  0.
        -15    1    4    4    0    0 -0.47518762852E+02 -0.15513127196E+02 -0.41859727623E+02  0.65199131398E+02  0.00000000000E+00 0. -1.
        -15    1    5    5    0    0 -0.84991529854E+02 -0.33478636987E+02  0.91686436904E+00  0.91352175243E+02  0.00000000000E+00 0.  1.
         15    1    4    4    0    0 -0.35829306746E+02 -0.43452259551E+00 -0.12861915279E+02  0.38070420230E+02  0.00000000000E+00 0.  1.
         15    1    5    5    0    0 -0.28757382638E+02 -0.30580236005E+01 -0.67838906431E+02  0.73745886599E+02  0.00000000000E+00 0. -1.
        -16    1    3    3    0    0  0.22983701938E+03 -0.15976887636E+03 -0.24813372328E+03  0.37406081585E+03  0.00000000000E+00 0.  1.
         16    1    1    2    0    0  0.34490191404E+02  0.15684420841E+02  0.43349181694E+01  0.38136149199E+02  0.00000000000E+00 0. -1.
    9900018    1    3    3    0    0 -0.67230228691E+02  0.19656876590E+03 -0.11776451175E+02  0.22718504918E+03  0.91187600000E+02 0.  0.
<mgrwt>
<rscale>  0 0.82566050E+03</rscale>
<asrwt>0</asrwt>
<pdfrwt beam="1">  1        2 0.98843734E-01 0.82566050E+03</pdfrwt>
<pdfrwt beam="2">  1       -2 0.40810054E-01 0.82566050E+03</pdfrwt>
<totfact> 0.26071460E+02</totfact>
</mgrwt>
</event>
<event>
12    1  0.1486553E-010  0.1312467E+04  0.7818608E-02  0.9019736E-01
          1   -1    0    0  501    0  0.00000000000E+00  0.00000000000E+00  0.92940409094E+03  0.92940409094E+03  0.00000000000E+00 0. -1.
         -1   -1    0    0    0  501 -0.00000000000E+00 -0.00000000000E+00 -0.46335359521E+03  0.46335359521E+03  0.00000000000E+00 0.  1.
    9900016    2    1    2    0    0 -0.18751016915E+03  0.29378498555E+03  0.61644192814E+02  0.85889053123E+03  0.78257476120E+03 0.  0.
         25    2    3    3    0    0 -0.21947918834E+03 -0.59594584154E+02 -0.17471964628E+03  0.31284762948E+03  0.12499622354E+03 0.  0.
         23    2    4    4    0    0 -0.14109318542E+03 -0.18128986292E+02 -0.14492160902E+03  0.21839912732E+03  0.80373869745E+02 0.  0.
        -15    1    4    4    0    0 -0.10015503699E+02 -0.32767091774E+01  0.32249440496E+00  0.10542824101E+02  0.00000000000E+00 0.  1.
        -15    1    5    5    0    0 -0.11195610142E+03 -0.29592366201E+01 -0.59371970905E+02  0.12675944405E+03  0.00000000000E+00 0. -1.
         15    1    4    4    0    0 -0.68370499218E+02 -0.38188888685E+02 -0.30120531663E+02  0.83905678056E+02  0.00000000000E+00 0. -1.
         15    1    5    5    0    0 -0.29137084007E+02 -0.15169749672E+02 -0.85549638115E+02  0.91639683278E+02  0.00000000000E+00 0.  1.
        -16    1    3    3    0    0  0.16664658087E+03  0.22421157363E+03  0.17428632753E+03  0.32926833529E+03  0.00000000000E+00 0.  1.
         16    1    1    2    0    0  0.18751016915E+03 -0.29378498555E+03  0.40440630291E+03  0.53386715492E+03  0.00000000000E+00 0. -1.
    9900018    1    3    3    0    0 -0.13467756168E+03  0.12916799607E+03  0.62077511568E+02  0.21677456646E+03  0.91187600000E+02 0.  0.
<mgrwt>
<rscale>  0 0.13124675E+04</rscale>
<asrwt>0</asrwt>
<pdfrwt beam="1">  1        1 0.14298524E+00 0.13124675E+04</pdfrwt>
<pdfrwt beam="2">  1       -1 0.71285169E-01 0.13124675E+04</pdfrwt>
<totfact> 0.33598287E+01</totfact>
</mgrwt>
</event>
<event>
12    1  0.1486553E-010  0.1182639E+04  0.7818608E-02  0.9128190E-01
          2   -1    0    0  501    0  0.00000000000E+00  0.00000000000E+00  0.43471977381E+03  0.43471977381E+03  0.00000000000E+00 0.  1.
         -2   -1    0    0    0  501 -0.00000000000E+00 -0.00000000000E+00 -0.80433162035E+03  0.80433162035E+03  0.00000000000E+00 0. -1.
    9900016    2    1    2    0    0  0.33367316995E+02  0.22452849915E+03 -0.10796659083E+03  0.60770800068E+03  0.55328636761E+03 0.  0.
         25    2    3    3    0    0  0.57673707702E+02  0.20967157035E+03 -0.31277411390E+03  0.40092876945E+03  0.12501123098E+03 0.  0.
         23    2    4    4    0    0  0.49173782228E+02  0.15093734329E+03 -0.25583943395E+03  0.31514296942E+03  0.93065207000E+02 0.  0.
        -15    1    4    4    0    0  0.94472819264E+01  0.20564559404E+02 -0.86464770424E+01  0.24226303980E+02  0.00000000000E+00 0.  1.
        -15    1    5    5    0    0 -0.15542056154E+02  0.13407843650E+02 -0.38827408461E+01  0.20890223965E+02  0.00000000000E+00 0. -1.
         15    1    4    4    0    0 -0.94735645152E+00  0.38169667658E+02 -0.48288202910E+02  0.61559496048E+02  0.00000000000E+00 0. -1.
         15    1    5    5    0    0  0.64715838382E+02  0.13752949964E+03 -0.25195669310E+03  0.29425274545E+03  0.00000000000E+00 0.  1.
        -16    1    3    3    0    0 -0.24306390708E+02  0.14856928796E+02  0.20480752307E+03  0.20677923123E+03  0.00000000000E+00 0.  1.
         16    1    1    2    0    0  0.17183634941E+03 -0.28489601971E+02 -0.28320169670E+03  0.33247945713E+03  0.00000000000E+00 0. -1.
    9900018    1    1    2    0    0 -0.20520366640E+03 -0.19603889717E+03  0.21556440990E+02  0.29886393635E+03  0.91187600000E+02 0.  0.
<mgrwt>
<rscale>  0 0.11826392E+04</rscale>
<asrwt>0</asrwt>
<pdfrwt beam="1">  1        2 0.66879966E-01 0.11826392E+04</pdfrwt>
<pdfrwt beam="2">  1       -2 0.12374333E+00 0.11826392E+04</pdfrwt>
<totfact> 0.35132298E+01</totfact>
</mgrwt>
</event>
<event>
12    1  0.1486553E-010  0.1108225E+04  0.7818608E-02  0.9197212E-01
          1   -1    0    0  501    0  0.00000000000E+00  0.00000000000E+00  0.70628981886E+03  0.70628981886E+03  0.00000000000E+00 0. -1.
         -1   -1    0    0    0  501 -0.00000000000E+00 -0.00000000000E+00 -0.43472348519E+03  0.43472348519E+03  0.00000000000E+00 0.  1.
    9900016    2    1    2    0    0 -0.14930213042E+03  0.23475896087E+03  0.15627707869E+03  0.83985801492E+03  0.77687583566E+03 0.  0.
         25    2    3    3    0    0  0.28252607744E+02  0.72436276363E+02 -0.12162724477E+03  0.19095301523E+03  0.12499857350E+03 0.  0.
         23    2    4    4    0    0  0.67834630777E+01  0.54336816245E+02 -0.56117424356E+02  0.11939600210E+03  0.90042962133E+02 0.  0.
        -15    1    4    4    0    0  0.14398081703E+02  0.10715139500E+02 -0.34247521984E+02  0.38665381587E+02  0.00000000000E+00 0.  1.
        -15    1    5    5    0    0  0.36935990575E+02  0.62372864920E+02 -0.29070318316E+02  0.78100736777E+02  0.00000000000E+00 0. -1.
         15    1    5    5    0    0 -0.30152527498E+02 -0.80360486747E+01 -0.27047106040E+02  0.41295265321E+02  0.00000000000E+00 0.  1.
         15    1    4    4    0    0  0.70710629636E+01  0.73843206179E+01 -0.31262298431E+02  0.32891631543E+02  0.00000000000E+00 0. -1.
        -16    1    3    3    0    0  0.85337447436E+02  0.85096566132E+02  0.33369412729E+03  0.35478962230E+03  0.00000000000E+00 0.  1.
         16    1    1    2    0    0  0.14930213042E+03 -0.23475896087E+03  0.11528925498E+03  0.30115528913E+03  0.00000000000E+00 0. -1.
    9900018    1    3    3    0    0 -0.26289218560E+03  0.77226118375E+02 -0.55789803829E+02  0.29411537739E+03  0.91187600000E+02 0.  0.
<mgrwt>
<rscale>  0 0.11082252E+04</rscale>
<asrwt>0</asrwt>
<pdfrwt beam="1">  1        1 0.10865997E+00 0.11082252E+04</pdfrwt>
<pdfrwt beam="2">  1       -1 0.66880536E-01 0.11082252E+04</pdfrwt>
<totfact> 0.60640447E+01</totfact>
</mgrwt>
</event>
<event>
12    1  0.1486553E-010  0.1705600E+04  0.7818608E-02  0.8758177E-01
          1   -1    0    0  501    0  0.00000000000E+00  0.00000000000E+00  0.58440097029E+03  0.58440097029E+03  0.00000000000E+00 0. -1.
         -1   -1    0    0    0  501 -0.00000000000E+00 -0.00000000000E+00 -0.12444666985E+04  0.12444666985E+04  0.00000000000E+00 0.  1.
    9900016    2    1    2    0    0  0.20114483164E+03  0.88061113484E+02 -0.11414167257E+04  0.12997998226E+04  0.58175031938E+03 0.  0.
         25    2    3    3    0    0  0.15722683464E+03  0.91369761290E+02 -0.60709114154E+03  0.64595222389E+03  0.12500364234E+03 0.  0.
         23    2    4    4    0    0  0.87790280089E+02  0.45080421258E+02 -0.38230572350E+03  0.40389252082E+03  0.85041898468E+02 0.  0.
        -15    1    4    4    0    0  0.45610071277E+02  0.19244985220E+02 -0.16483958903E+03  0.17211257411E+03  0.00000000000E+00 0. -1.
        -15    1    5    5    0    0  0.71724578010E+02 -0.69160773396E+01 -0.26422188338E+03  0.27387123046E+03  0.00000000000E+00 0.  1.
         15    1    5    5    0    0  0.16065702079E+02  0.51996498598E+02 -0.11808384012E+03  0.13002129036E+03  0.00000000000E+00 0. -1.
         15    1    4    4    0    0  0.23826483275E+02  0.27044354812E+02 -0.59945829013E+02  0.69947128951E+02  0.00000000000E+00 0.  1.
        -16    1    3    3    0    0 -0.15653283779E+03 -0.32036711038E+01 -0.21615969082E+03  0.26690411153E+03  0.00000000000E+00 0.  1.
         16    1    1    2    0    0 -0.20114483164E+03 -0.88061113484E+02  0.48135099754E+03  0.52906784615E+03  0.00000000000E+00 0. -1.
    9900018    1    3    3    0    0  0.20045083479E+03 -0.10497670230E+00 -0.31816589337E+03  0.38694348720E+03  0.91187600000E+02 0.  0.
<mgrwt>
<rscale>  0 0.17055997E+04</rscale>
<asrwt>0</asrwt>
<pdfrwt beam="1">  1        1 0.89907842E-01 0.17055997E+04</pdfrwt>
<pdfrwt beam="2">  1       -1 0.19145642E+00 0.17055997E+04</pdfrwt>
<totfact> 0.58391350E+00</totfact>
</mgrwt>
</event>
<event>
12    1  0.1486553E-010  0.1172824E+04  0.7818608E-02  0.9136982E-01
         -2   -1    0    0    0  501 -0.00000000000E+00  0.00000000000E+00  0.27818753709E+03  0.27818753709E+03  0.00000000000E+00 0.  1.
          2   -1    0    0  501    0  0.00000000000E+00 -0.00000000000E+00 -0.12361410595E+04  0.12361410595E+04  0.00000000000E+00 0. -1.
    9900016    2    1    2    0    0  0.21027218578E+03 -0.27478187558E+03 -0.28845965628E+03  0.76070965571E+03  0.61298510237E+03 0.  0.
         25    2    3    3    0    0 -0.36907586503E+01 -0.19960984019E+03 -0.15591419417E+03  0.28247698756E+03  0.12500521013E+03 0.  0.
         23    2    4    4    0    0  0.99681483106E+01 -0.13642056467E+03 -0.88798205298E+02  0.18605040537E+03  0.89552764503E+02 0.  0.
        -15    1    4    4    0    0 -0.20477947388E+02 -0.51811086735E+02 -0.57346375269E+02  0.79952121888E+02  0.00000000000E+00 0. -1.
        -15    1    5    5    0    0  0.40334796250E+02 -0.25242963362E+02 -0.33694206631E+02  0.58304395617E+02  0.00000000000E+00 0. -1.
         15    1    5    5    0    0 -0.30366647940E+02 -0.11117760131E+03 -0.55103998667E+02  0.12774600976E+03  0.00000000000E+00 0.  1.
         15    1    4    4    0    0  0.68190404267E+01 -0.11378188785E+02 -0.97696136006E+01  0.16474460303E+02  0.00000000000E+00 0.  1.
        -16    1    3    3    0    0  0.11467494233E+03 -0.22829921349E+03 -0.72793535239E+02  0.26564971683E+03  0.00000000000E+00 0.  1.
         16    1    1    2    0    0 -0.21027218578E+03  0.27478187558E+03 -0.66949386610E+03  0.75361894085E+03  0.00000000000E+00 0. -1.
    9900018    1    3    3    0    0  0.99288002101E+02  0.15312717810E+03 -0.59751926873E+02  0.21258295132E+03  0.91187600000E+02 0.  0.
<mgrwt>
<rscale>  0 0.11728240E+04</rscale>
<asrwt>0</asrwt>
<pdfrwt beam="1">  1        2 0.19017554E+00 0.11728240E+04</pdfrwt>
<pdfrwt beam="2">  1       -2 0.42798083E-01 0.11728240E+04</pdfrwt>
<totfact> 0.92163492E+01</totfact>
</mgrwt>
</event>
<event>
12    1  0.1486553E-010  0.7774637E+03  0.7818608E-02  0.9593223E-01
         -2   -1    0    0    0  501 -0.00000000000E+00  0.00000000000E+00  0.11538442540E+03  0.11538442540E+03  0.00000000000E+00 0.  1.
          2   -1    0    0  501    0  0.00000000000E+00 -0.00000000000E+00 -0.13096434214E+04  0.13096434214E+04  0.00000000000E+00 0. -1.
    9900016    2    1    2    0    0  0.59833841113E+02  0.91259605361E+02 -0.83515241481E+03  0.10497067299E+04  0.62649521848E+03 0.  0.
         25    2    3    3    0    0  0.17607005930E+03  0.66749662244E+02 -0.21497213392E+03  0.31192159834E+03  0.12500352778E+03 0.  0.
         23    2    4    4    0    0  0.11480838635E+03  0.61989242552E+02 -0.16331547606E+03  0.22777980830E+03  0.90487925045E+02 0.  0.
        -15    1    4    4    0    0  0.53264071120E+02  0.13045631530E+02 -0.44066405728E+02  0.70349825075E+02  0.00000000000E+00 0.  1.
        -15    1    5    5    0    0  0.46275731765E+02  0.80629549208E+01 -0.52645265431E+01  0.47267005746E+02  0.00000000000E+00 0.  1.
         15    1    4    4    0    0  0.79976018208E+01 -0.82852118383E+01 -0.75902521288E+01  0.13791964960E+02  0.00000000000E+00 0. -1.
         15    1    5    5    0    0  0.68532654589E+02  0.53926287632E+02 -0.15805094952E+03  0.18051280256E+03  0.00000000000E+00 0. -1.
        -16    1    3    3    0    0 -0.22632150200E+03 -0.79486568400E+01 -0.23832349902E+03  0.32875932473E+03  0.00000000000E+00 0.  1.
         16    1    1    2    0    0 -0.59833841113E+02 -0.91259605361E+02 -0.35910658119E+03  0.37532111687E+03  0.00000000000E+00 0. -1.
    9900018    1    3    3    0    0  0.11008528382E+03  0.32458599957E+02 -0.38185678188E+03  0.40902580687E+03  0.91187600000E+02 0.  0.
<mgrwt>
<rscale>  0 0.77746371E+03</rscale>
<asrwt>0</asrwt>
<pdfrwt beam="1">  1        2 0.20148362E+00 0.77746371E+03</pdfrwt>
<pdfrwt beam="2">  1       -2 0.17751449E-01 0.77746371E+03</pdfrwt>
<totfact> 0.43211483E+02</totfact>
</mgrwt>
</event>
<event>
11    1  0.1486553E-010  0.8759215E+03  0.7818608E-02  0.9456192E-01
         -2   -1    0    0    0  501 -0.00000000000E+00  0.00000000000E+00  0.34765713639E+03  0.34765713639E+03  0.00000000000E+00 0.  1.
          2   -1    0    0  501    0  0.00000000000E+00 -0.00000000000E+00 -0.55172061760E+03  0.55172061760E+03  0.00000000000E+00 0. -1.
         25    2    1    2    0    0  0.55020933649E+02  0.51834405660E+00 -0.25946745230E+02  0.13901653667E+03  0.12499916824E+03 0.  0.
         23    2    3    3    0    0  0.54533624987E+02  0.80780849235E+00 -0.29982738058E+02  0.11037627059E+03  0.91155843028E+02 0.  0.
        -15    1    3    3    0    0  0.22815986246E+00 -0.13935563949E+02 -0.12731611024E+01  0.13995461360E+02  0.00000000000E+00 0.  1.
        -15    1    4    4    0    0  0.29227762781E+01 -0.29590667912E+02  0.16999346990E+02  0.34250956874E+02  0.00000000000E+00 0. -1.
         15    1    3    3    0    0  0.25914880040E+00  0.13646099513E+02  0.53091539310E+01  0.14644804727E+02  0.00000000000E+00 0. -1.
         15    1    4    4    0    0  0.51610848708E+02  0.30398476405E+02 -0.46982085049E+02  0.76125313711E+02  0.00000000000E+00 0.  1.
        -16    1    1    2    0    0 -0.13858092476E+03  0.10955469719E+03  0.34588703248E+02  0.18000911859E+03  0.00000000000E+00 0.  1.
         16    1    1    2    0    0  0.21105434202E+03 -0.21093066290E+03 -0.11398188014E+01  0.29839064835E+03  0.00000000000E+00 0. -1.
    9900018    1    1    2    0    0 -0.12749435091E+03  0.10085762165E+03 -0.21156562043E+03  0.28196145038E+03  0.91187600000E+02 0.  0.
<mgrwt>
<rscale>  0 0.87592148E+03</rscale>
<asrwt>0</asrwt>
<pdfrwt beam="1">  1        2 0.84880095E-01 0.87592148E+03</pdfrwt>
<pdfrwt beam="2">  1       -2 0.53485714E-01 0.87592148E+03</pdfrwt>
<totfact> 0.18152618E+02</totfact>
</mgrwt>
</event>
