<event>
11    1  0.7700234E-012  0.1046626E+04  0.7818608E-02  0.9258834E-01
         -1   -1    0    0    0  501 -0.00000000000E+00  0.00000000000E+00  0.78476216094E+03  0.78476216094E+03  0.00000000000E+00 0.  1.
          1   -1    0    0  501    0  0.00000000000E+00 -0.00000000000E+00 -0.34896762139E+03  0.34896762139E+03  0.00000000000E+00 0. -1.
    9900016    2    1    2    0    0  0.10839444241E+03  0.17151862578E+03  0.22171891593E+03  0.83877831723E+03  0.78308479339E+03 0.  0.
         24    2    3    3    0    0 -0.22827029974E+03 -0.31922661215E+02  0.14948051258E+03  0.28607236160E+03  0.79790891626E+02 0.  0.
        -15    1    4    4    0    0 -0.14713694208E+02 -0.21547136659E+01  0.31350383830E+02  0.34698445996E+02  0.00000000000E+00 0.  1.
        -15    1    4    4    0    0 -0.75198103853E+01 -0.98288520796E+01  0.14394370989E+02  0.18982934378E+02  0.00000000000E+00 0. -1.
         15    1    3    3    0    0  0.35927619768E+03  0.17768571292E+03  0.15010015608E+03  0.42799726127E+03  0.00000000000E+00 0. -1.
         15    1    4    4    0    0 -0.19017174591E+02 -0.22903801927E+01  0.16463303190E+02  0.25257456776E+02  0.00000000000E+00 0.  1.
        -16    1    1    2    0    0 -0.10839444241E+03 -0.17151862578E+03  0.21407562362E+03  0.29495146510E+03  0.00000000000E+00 0.  1.
         16    1    4    4    0    0 -0.18701962055E+03 -0.17648715277E+02  0.87272454572E+02  0.20713352445E+03  0.00000000000E+00 0. -1.
    9900018    1    3    3    0    0 -0.22611455535E+02  0.25755574078E+02 -0.77861752732E+02  0.12470869436E+03  0.91187600000E+02 0.  0.
<mgrwt>
<rscale>  0 0.10466262E+04</rscale>
<asrwt>0</asrwt>
<pdfrwt beam="1">  1        1 0.53687326E-01 0.10466262E+04</pdfrwt>
<pdfrwt beam="2">  1       -1 0.12073264E+00 0.10466262E+04</pdfrwt>
<totfact> 0.43859712E+01</totfact>
</mgrwt>
</event>
<event>
11    1  0.7700234E-012  0.9212717E+03  0.7818608E-02  0.9399375E-01
          5   -1    0    0  501    0  0.00000000000E+00  0.00000000000E+00  0.16625894688E+04  0.16625894688E+04  0.00000000000E+00 0. -1.
         -5   -1    0    0    0  501 -0.00000000000E+00 -0.00000000000E+00 -0.12762343993E+03  0.12762343993E+03  0.00000000000E+00 0.  1.
    9900016    2    1    2    0    0 -0.33526555201E+02 -0.18927858333E+02  0.12671764336E+04  0.14239105324E+04  0.64830764034E+03 0.  0.
        -24    2    3    3    0    0 -0.24351578136E+03  0.48008740179E+02  0.18431857720E+03  0.31885075093E+03  0.78023641051E+02 0.  0.
        -15    1    3    3    0    0  0.20998922616E+03 -0.66936598512E+02  0.10828578564E+04  0.11050597814E+04  0.00000000000E+00 0.  1.
        -15    1    4    4    0    0 -0.12216811461E+02 -0.49703529038E+01  0.11004598115E+02  0.17177196219E+02  0.00000000000E+00 0.  1.
         15    1    4    4    0    0 -0.27478492451E+02 -0.59850245213E-01  0.13011218668E+02  0.30403337656E+02  0.00000000000E+00 0. -1.
         15    1    4    4    0    0 -0.12576725465E+03  0.11919861933E+02  0.12014140771E+03  0.17433715410E+03  0.00000000000E+00 0. -1.
        -16    1    4    4    0    0 -0.78053222793E+02  0.41119081395E+02  0.40161352705E+02  0.96933062957E+02  0.00000000000E+00 0.  1.
         16    1    1    2    0    0  0.19514882677E+02  0.66144007219E+02  0.25224834646E+03  0.26150542753E+03  0.00000000000E+00 0. -1.
    9900018    1    1    2    0    0  0.14011672524E+02 -0.47216148886E+02  0.15541248813E+02  0.10479694886E+03  0.91187600000E+02 0.  0.
<mgrwt>
<rscale>  0 0.92127170E+03</rscale>
<asrwt>0</asrwt>
<pdfrwt beam="1">  1        5 0.25578298E+00 0.92127170E+03</pdfrwt>
<pdfrwt beam="2">  1       -5 0.19634377E-01 0.92127170E+03</pdfrwt>
<totfact> 0.11327508E+00</totfact>
</mgrwt>
</event>
<event>
11    1  0.7700234E-012  0.1308622E+04  0.7818608E-02  0.9022756E-01
         -1   -1    0    0    0  501 -0.00000000000E+00  0.00000000000E+00  0.30425827053E+03  0.30425827053E+03  0.00000000000E+00 0.  1.
          1   -1    0    0  501    0  0.00000000000E+00 -0.00000000000E+00 -0.14071035816E+04  0.14071035816E+04  0.00000000000E+00 0. -1.
    9900016    2    1    2    0    0  0.11563162853E+03 -0.37670128929E+02 -0.91411946965E+02  0.61367406056E+03  0.59451660736E+03 0.  0.
         24    2    3    3    0    0  0.21831367687E+03  0.21475054700E+03 -0.12188950760E+03  0.33946851285E+03  0.81259831448E+02 0.  0.
        -15    1    4    4    0    0  0.13533002505E+02  0.23979841656E+02 -0.15244302500E+02  0.31473222291E+02  0.00000000000E+00 0. -1.
        -15    1    4    4    0    0  0.94966678901E+01  0.12675144677E+02  0.32748776717E+01  0.16173151126E+02  0.00000000000E+00 0.  1.
         15    1    4    4    0    0  0.74550601356E+02  0.51237641350E+02 -0.12209232911E+02  0.91280630048E+02  0.00000000000E+00 0.  1.
         15    1    3    3    0    0 -0.10268204834E+03 -0.25242067593E+03  0.30477560636E+02  0.27420554770E+03  0.00000000000E+00 0. -1.
        -16    1    1    2    0    0 -0.14232876076E+03 -0.60821174225E+02 -0.12010045731E+03  0.19591021213E+03  0.00000000000E+00 0.  1.
         16    1    4    4    0    0  0.12073340512E+03  0.12685791932E+03 -0.97710849862E+02  0.20054150939E+03  0.00000000000E+00 0. -1.
    9900018    1    1    2    0    0  0.26697132222E+02  0.98491303154E+02 -0.89133290684E+03  0.90177757949E+03  0.91187600000E+02 0.  0.
<mgrwt>
<rscale>  0 0.13086220E+04</rscale>
<asrwt>0</asrwt>
<pdfrwt beam="1">  1        1 0.21647748E+00 0.13086220E+04</pdfrwt>
<pdfrwt beam="2">  1       -1 0.46808964E-01 0.13086220E+04</pdfrwt>
<totfact> 0.33911821E+01</totfact>
</mgrwt>
</event>
