<event>
12    1  0.3237663E-010  0.1593328E+04  0.7818608E-02  0.9584082E-01
          1   -1    0    0  501    0  0.00000000000E+00  0.00000000000E+00  0.53148791552E+03  0.53148791552E+03  0.00000000000E+00 0. -1.
         -1   -1    0    0    0  501 -0.00000000000E+00 -0.00000000000E+00 -0.13892148566E+04  0.13892148566E+04  0.00000000000E+00 0.  1.
         23    2    1    2    0    0  0.19318488616E+02 -0.42489104000E+01  0.28538344513E+02  0.97475198479E+02  0.91080843040E+02 0.  0.
    9900016    2    1    2    0    0  0.35852520913E+03  0.10841257178E+03 -0.42876323355E+03  0.89663759066E+03  0.69269578261E+03 0.  0.
         23    2    4    4    0    0  0.35737673064E+03 -0.61439876221E+02 -0.56581056971E+03  0.67838740065E+03  0.92600640212E+02 0.  0.
        -15    1    5    5    0    0  0.27805282681E+03 -0.82212650834E+02 -0.47038590249E+03  0.55257143585E+03  0.00000000000E+00 0.  1.
        -15    1    3    3    0    0 -0.19385054207E+02  0.15252879381E+02 -0.20469153884E+02  0.32053344860E+02  0.00000000000E+00 0.  1.
         15    1    3    3    0    0  0.38703542824E+02 -0.19501789781E+02  0.49007498397E+02  0.65421853619E+02  0.00000000000E+00 0. -1.
         15    1    5    5    0    0  0.79323903835E+02  0.20772774613E+02 -0.95424667219E+02  0.12581596480E+03  0.00000000000E+00 0. -1.
        -16    1    1    2    0    0 -0.30954506428E+02  0.24386571075E+03 -0.32876117303E+03  0.41050283219E+03  0.00000000000E+00 0.  1.
         16    1    4    4    0    0  0.11484784873E+01  0.16985244800E+03  0.13704733616E+03  0.21825019002E+03  0.00000000000E+00 0. -1.
    9900018    1    1    2    0    0 -0.34688919132E+03 -0.34802937213E+03 -0.12874087905E+03  0.51608715083E+03  0.91187600000E+02 0.  0.
<mgrwt>
<rscale>  0 0.78358729E+03</rscale>
<asrwt>0</asrwt>
<pdfrwt beam="1">  1        1 0.81767372E-01 0.15933275E+04</pdfrwt>
<pdfrwt beam="2">  1       -1 0.21372536E+00 0.15933275E+04</pdfrwt>
<totfact> 0.47274578E+00</totfact>
</mgrwt>
</event>
<event>
12    1  0.3237663E-010  0.1441310E+04  0.7818608E-02  0.9343346E-01
         -1   -1    0    0    0  501 -0.00000000000E+00  0.00000000000E+00  0.65387362228E+03  0.65387362228E+03  0.00000000000E+00 0.  1.
          1   -1    0    0  501    0  0.00000000000E+00 -0.00000000000E+00 -0.11881405844E+04  0.11881405844E+04  0.00000000000E+00 0. -1.
         23    2    1    2    0    0 -0.27710501182E+03  0.39368461017E+02 -0.21840054440E+03  0.36649845983E+03  0.91023403379E+02 0.  0.
    9900016    2    1    2    0    0 -0.18141291190E+02 -0.20559646695E+03 -0.23202158204E+03  0.76970849326E+03  0.70428555033E+03 0.  0.
         23    2    4    4    0    0 -0.18930273506E+03  0.19400761095E+03 -0.23263815693E+02  0.28746429791E+03  0.92844164295E+02 0.  0.
        -15    1    5    5    0    0 -0.18030579736E+03  0.16938133676E+03 -0.47331839510E+02  0.25187401779E+03  0.00000000000E+00 0.  1.
        -15    1    3    3    0    0 -0.18330623682E+03 -0.15448720196E+02 -0.11786596429E+03  0.21847705818E+03  0.00000000000E+00 0.  1.
         15    1    5    5    0    0 -0.89969376919E+01  0.24626274194E+02  0.24068023818E+02  0.35590280120E+02  0.00000000000E+00 0. -1.
         15    1    3    3    0    0 -0.93798775003E+02  0.54817181213E+02 -0.10053458012E+03  0.14802140165E+03  0.00000000000E+00 0. -1.
        -16    1    4    4    0    0  0.17116144387E+03 -0.39960407790E+03 -0.20875776635E+03  0.48224419535E+03  0.00000000000E+00 0.  1.
         16    1    1    2    0    0  0.23176404714E+03  0.38518538669E+03 -0.97143667865E+02  0.45991221758E+03  0.00000000000E+00 0. -1.
    9900018    1    1    2    0    0  0.63482255872E+02 -0.21895738076E+03  0.13298832202E+02  0.24589503600E+03  0.91187600000E+02 0.  0.
<mgrwt>
<rscale>  0 0.96888409E+03</rscale>
<asrwt>0</asrwt>
<pdfrwt beam="1">  1        1 0.18279086E+00 0.14413102E+04</pdfrwt>
<pdfrwt beam="2">  1       -1 0.10059594E+00 0.14413102E+04</pdfrwt>
<totfact> 0.99044067E+00</totfact>
</mgrwt>
</event>
<event>
12    1  0.3237663E-010  0.1611998E+04  0.7818608E-02  0.9425039E-01
          1   -1    0    0  501    0  0.00000000000E+00  0.00000000000E+00  0.26346304596E+04  0.26346304596E+04  0.00000000000E+00 0. -1.
         -1   -1    0    0    0  501 -0.00000000000E+00 -0.00000000000E+00 -0.31982413491E+03  0.31982413491E+03  0.00000000000E+00 0.  1.
         23    2    1    2    0    0  0.60078897412E+02 -0.11209025590E+03  0.32485753609E+02  0.16025985677E+03  0.91946713494E+02 0.  0.
    9900016    2    1    2    0    0  0.10988844733E+02 -0.36389199590E+03  0.69387168646E+03  0.10600484900E+04  0.71393749333E+03 0.  0.
         23    2    4    4    0    0 -0.81694528372E+02  0.12469090395E+03 -0.35553984437E+02  0.17723182323E+03  0.89023681467E+02 0.  0.
        -15    1    3    3    0    0  0.95865300212E+01 -0.30125794720E+02 -0.31530044706E+02  0.44649846411E+02  0.00000000000E+00 0.  1.
        -15    1    5    5    0    0 -0.17280770023E+02  0.91296902460E+02  0.68909257317E+01  0.93173141349E+02  0.00000000000E+00 0.  1.
         15    1    3    3    0    0  0.50492367391E+02 -0.81964461176E+02  0.64015798315E+02  0.11561001036E+03  0.00000000000E+00 0. -1.
         15    1    5    5    0    0 -0.64413758350E+02  0.33394001491E+02 -0.42444910169E+02  0.84058681881E+02  0.00000000000E+00 0. -1.
        -16    1    4    4    0    0  0.92683373105E+02 -0.48858289985E+03  0.72942567090E+03  0.88281666672E+03  0.00000000000E+00 0.  1.
         16    1    1    2    0    0  0.17805548151E+03  0.35292248713E+03  0.10402129235E+04  0.11127897208E+04  0.00000000000E+00 0. -1.
    9900018    1    1    2    0    0 -0.24912322365E+03  0.12305976466E+03  0.54823596113E+03  0.62135652705E+03  0.91187600000E+02 0.  0.
<mgrwt>
<rscale>  0 0.90043374E+03</rscale>
<asrwt>0</asrwt>
<pdfrwt beam="1">  1        1 0.40532775E+00 0.16119978E+04</pdfrwt>
<pdfrwt beam="2">  1       -1 0.49203715E-01 0.16119978E+04</pdfrwt>
<totfact> 0.43264571E+00</totfact>
</mgrwt>
</event>
<event>
12    1  0.3237663E-010  0.1779442E+04  0.7818608E-02  0.9157725E-01
         -2   -1    0    0    0  501 -0.00000000000E+00  0.00000000000E+00  0.66465531023E+03  0.66465531023E+03  0.00000000000E+00 0.  1.
          2   -1    0    0  501    0  0.00000000000E+00 -0.00000000000E+00 -0.16626480896E+04  0.16626480896E+04  0.00000000000E+00 0. -1.
         23    2    1    2    0    0  0.10344802446E+03  0.27810070962E+03 -0.24322396227E+03  0.39440676507E+03  0.91418280740E+02 0.  0.
    9900016    2    1    2    0    0  0.10534229553E+03 -0.17756845617E+03  0.17687310745E+03  0.75648187929E+03  0.70594134437E+03 0.  0.
         23    2    4    4    0    0  0.33277042672E+03 -0.11304904925E+03  0.31675343636E+03  0.48179512107E+03  0.90981068394E+02 0.  0.
        -15    1    5    5    0    0  0.15605780445E+03 -0.10083183850E+03  0.16784070814E+03  0.25038290935E+03  0.00000000000E+00 0.  1.
        -15    1    3    3    0    0  0.43770873932E+01  0.90481955385E+02 -0.34951174777E+02  0.97096486871E+02  0.00000000000E+00 0.  1.
         15    1    3    3    0    0  0.99070937065E+02  0.18761875424E+03 -0.20827278749E+03  0.29731027820E+03  0.00000000000E+00 0. -1.
         15    1    5    5    0    0  0.17671262227E+03 -0.12217210747E+02  0.14891272822E+03  0.23141221172E+03  0.00000000000E+00 0. -1.
        -16    1    1    2    0    0 -0.71942209579E+02 -0.38371601167E+03 -0.52751499150E+03  0.65626650485E+03  0.00000000000E+00 0.  1.
         16    1    4    4    0    0 -0.22742813119E+03 -0.64519406919E+02 -0.13988032891E+03  0.27468675822E+03  0.00000000000E+00 0. -1.
    9900018    1    1    2    0    0 -0.13684811041E+03  0.28318375821E+03 -0.40412693309E+03  0.52014825068E+03  0.91187600000E+02 0.  0.
<mgrwt>
<rscale>  0 0.11500635E+04</rscale>
<asrwt>0</asrwt>
<pdfrwt beam="1">  1        2 0.25579201E+00 0.17794419E+04</pdfrwt>
<pdfrwt beam="2">  1       -2 0.10225466E+00 0.17794419E+04</pdfrwt>
<totfact> 0.75553124E+00</totfact>
</mgrwt>
</event>
<event>
12    1  0.3237663E-010  0.1832260E+04  0.7818608E-02  0.9303519E-01
          1   -1    0    0  501    0  0.00000000000E+00  0.00000000000E+00  0.76213474879E+03  0.76213474879E+03  0.00000000000E+00 0. -1.
         -1   -1    0    0    0  501 -0.00000000000E+00 -0.00000000000E+00 -0.16575611428E+04  0.16575611428E+04  0.00000000000E+00 0.  1.
         23    2    1    2    0    0 -0.13981124715E+02  0.13802202858E+03 -0.52483383031E+03  0.55033319489E+03  0.90390949413E+02 0.  0.
    9900016    2    1    2    0    0  0.45533464525E+03  0.73299473670E+02 -0.16721942945E+03  0.86036786794E+03  0.70680130065E+03 0.  0.
         23    2    4    4    0    0 -0.11900783064E+03  0.18505837256E+03  0.35072950054E+02  0.24127051057E+03  0.92584461110E+02 0.  0.
        -15    1    3    3    0    0 -0.38972470187E+02  0.13378167374E+03 -0.42148655032E+03  0.44392263038E+03  0.00000000000E+00 0.  1.
        -15    1    5    5    0    0 -0.72824226665E+02  0.85278018600E+02  0.61905238755E+02  0.12809358700E+03  0.00000000000E+00 0. -1.
         15    1    5    5    0    0 -0.46183603977E+02  0.99780353957E+02 -0.26832288701E+02  0.11317692357E+03  0.00000000000E+00 0.  1.
         15    1    3    3    0    0  0.24991345473E+02  0.42403548365E+01 -0.10334727999E+03  0.10641056451E+03  0.00000000000E+00 0. -1.
        -16    1    1    2    0    0 -0.68351829768E+03 -0.24635669859E+03 -0.13402261356E+03  0.73881726235E+03  0.00000000000E+00 0.  1.
         16    1    4    4    0    0  0.57434247589E+03 -0.11175889889E+03 -0.20229237950E+03  0.61909735737E+03  0.00000000000E+00 0. -1.
    9900018    1    1    2    0    0  0.24216477714E+03  0.35035196339E+02 -0.69350520662E+02  0.27017756639E+03  0.91187600000E+02 0.  0.
<mgrwt>
<rscale>  0 0.10045951E+04</rscale>
<asrwt>0</asrwt>
<pdfrwt beam="1">  1        1 0.11725150E+00 0.18322604E+04</pdfrwt>
<pdfrwt beam="2">  1       -1 0.25500940E+00 0.18322604E+04</pdfrwt>
<totfact> 0.14391080E+00</totfact>
</mgrwt>
</event>
<event>
12    1  0.3237663E-010  0.1482198E+04  0.7818608E-02  0.9572881E-01
         -2   -1    0    0    0  501 -0.00000000000E+00  0.00000000000E+00  0.54096031193E+03  0.54096031193E+03  0.00000000000E+00 0.  1.
          2   -1    0    0  501    0  0.00000000000E+00 -0.00000000000E+00 -0.11956921988E+04  0.11956921988E+04  0.00000000000E+00 0. -1.
         23    2    1    2    0    0 -0.45561664873E+02 -0.62680011192E+02 -0.11425249722E+02  0.12087005616E+03  0.92056423114E+02 0.  0.
    9900016    2    1    2    0    0  0.38674443609E+02  0.22790682242E+02 -0.42776298237E+02  0.74499156857E+03  0.74240655827E+03 0.  0.
         23    2    4    4    0    0  0.20061369155E+03  0.11979191765E+03 -0.32170959980E+03  0.40818695694E+03  0.92323173951E+02 0.  0.
        -15    1    3    3    0    0  0.24107741671E+02 -0.21749323365E+02 -0.22227349016E+02  0.39348078982E+02  0.00000000000E+00 0. -1.
        -15    1    5    5    0    0  0.14611913910E+03  0.88756160730E+02 -0.15767176419E+03  0.23257008428E+03  0.00000000000E+00 0. -1.
         15    1    3    3    0    0 -0.69669406544E+02 -0.40930687827E+02  0.10802099294E+02  0.81521977180E+02  0.00000000000E+00 0.  1.
         15    1    5    5    0    0  0.54494552441E+02  0.31035756916E+02 -0.16403783560E+03  0.17561687266E+03  0.00000000000E+00 0.  1.
        -16    1    4    4    0    0 -0.16193924794E+03 -0.97001235403E+02  0.27893330156E+03  0.33680461163E+03  0.00000000000E+00 0.  1.
         16    1    1    2    0    0  0.10013785789E+03 -0.65897286376E+02 -0.67609473250E+03  0.68663973832E+03  0.00000000000E+00 0. -1.
    9900018    1    1    2    0    0 -0.93250636628E+02  0.10578661533E+03  0.75564393599E+02  0.18415114767E+03  0.91187600000E+02 0.  0.
<mgrwt>
<rscale>  0 0.79117401E+03</rscale>
<asrwt>0</asrwt>
<pdfrwt beam="1">  1        2 0.18395265E+00 0.14821975E+04</pdfrwt>
<pdfrwt beam="2">  1       -2 0.83224664E-01 0.14821975E+04</pdfrwt>
<totfact> 0.23236219E+01</totfact>
</mgrwt>
</event>
<event>
12    1  0.3237663E-010  0.1198989E+04  0.7818608E-02  0.9591365E-01
         -1   -1    0    0    0  501 -0.00000000000E+00  0.00000000000E+00  0.16782752645E+04  0.16782752645E+04  0.00000000000E+00 0.  1.
          1   -1    0    0  501    0  0.00000000000E+00 -0.00000000000E+00 -0.55146586273E+03  0.55146586273E+03  0.00000000000E+00 0. -1.
         23    2    1    2    0    0  0.16470961181E+03 -0.10059976705E+03  0.10017902966E+04  0.10242517254E+04  0.90874799438E+02 0.  0.
    9900016    2    1    2    0    0 -0.16949626255E+03 -0.80093956418E+02  0.59448427776E+02  0.73665424362E+03  0.70991642762E+03 0.  0.
         23    2    4    4    0    0 -0.66387943534E+02  0.22037823723E+03 -0.20637684682E+03  0.32243456612E+03  0.91644530842E+02 0.  0.
        -15    1    3    3    0    0  0.47666754017E+02 -0.77463854356E+02  0.52098639408E+03  0.52886632620E+03  0.00000000000E+00 0.  1.
        -15    1    5    5    0    0 -0.36598706268E+02  0.14932465932E+03 -0.18867145360E+03  0.24338084679E+03  0.00000000000E+00 0.  1.
         15    1    3    3    0    0  0.11704285780E+03 -0.23135912696E+02  0.48080390254E+03  0.49538539917E+03  0.00000000000E+00 0. -1.
         15    1    5    5    0    0 -0.29789237266E+02  0.71053577910E+02 -0.17705393226E+02  0.79053719331E+02  0.00000000000E+00 0. -1.
        -16    1    4    4    0    0 -0.10310831901E+03 -0.30047219365E+03  0.26582527460E+03  0.41421967749E+03  0.00000000000E+00 0.  1.
         16    1    1    2    0    0  0.12840021263E+03  0.24990685794E+03  0.97413972497E+02  0.29737103808E+03  0.00000000000E+00 0. -1.
    9900018    1    1    2    0    0 -0.12361356190E+03 -0.69213134472E+02 -0.31843295111E+02  0.17146412017E+03  0.91187600000E+02 0.  0.
<mgrwt>
<rscale>  0 0.77870356E+03</rscale>
<asrwt>0</asrwt>
<pdfrwt beam="1">  1        1 0.84840903E-01 0.11989891E+04</pdfrwt>
<pdfrwt beam="2">  1       -1 0.25819619E+00 0.11989891E+04</pdfrwt>
<totfact> 0.23523520E+00</totfact>
</mgrwt>
</event>
<event>
12    1  0.3237663E-010  0.1425169E+04  0.7818608E-02  0.9600282E-01
         -2   -1    0    0    0  501 -0.00000000000E+00  0.00000000000E+00  0.68242159599E+03  0.68242159599E+03  0.00000000000E+00 0. -1.
          2   -1    0    0  501    0  0.00000000000E+00 -0.00000000000E+00 -0.88991615658E+03  0.88991615658E+03  0.00000000000E+00 0.  1.
         23    2    1    2    0    0 -0.41299408392E+02 -0.78553347704E+02  0.31752801760E+02  0.12722691287E+03  0.85452778596E+02 0.  0.
    9900016    2    1    2    0    0  0.14683600265E+02 -0.14453541021E+02 -0.50939628478E+03  0.86791677576E+03  0.70240333265E+03 0.  0.
         23    2    4    4    0    0  0.17846329229E+03 -0.91015512228E+02  0.93049214061E+02  0.23892861845E+03  0.91081053561E+02 0.  0.
        -15    1    5    5    0    0  0.23779036171E+02 -0.56750844161E+02  0.22812307974E+02  0.65623945853E+02  0.00000000000E+00 0.  1.
        -15    1    3    3    0    0  0.14207140369E+02 -0.81682641964E+01  0.33802000834E+02  0.37565125287E+02  0.00000000000E+00 0. -1.
         15    1    3    3    0    0 -0.55506548761E+02 -0.70385083508E+02 -0.20491990737E+01  0.89661787583E+02  0.00000000000E+00 0.  1.
         15    1    5    5    0    0  0.15468425612E+03 -0.34264668066E+02  0.70236906087E+02  0.17330467260E+03  0.00000000000E+00 0. -1.
        -16    1    1    2    0    0 -0.12197859572E+00  0.14389199293E+03  0.39017923344E+03  0.41586627023E+03  0.00000000000E+00 0.  1.
         16    1    4    4    0    0 -0.16377969202E+03  0.76561971207E+02 -0.60244549884E+03  0.62898815730E+03  0.00000000000E+00 0. -1.
    9900018    1    1    2    0    0  0.26737786722E+02 -0.50885104204E+02 -0.12003031101E+03  0.16132779371E+03  0.91187600000E+02 0.  0.
<mgrwt>
<rscale>  0 0.77277514E+03</rscale>
<asrwt>0</asrwt>
<pdfrwt beam="1">  1        2 0.13691018E+00 0.14251688E+04</pdfrwt>
<pdfrwt beam="2">  1       -2 0.10498794E+00 0.14251688E+04</pdfrwt>
<totfact> 0.21211366E+01</totfact>
</mgrwt>
</event>
<event>
12    1  0.3237664E-010  0.1505949E+04  0.7818608E-02  0.9611721E-01
         -2   -1    0    0    0  501 -0.00000000000E+00  0.00000000000E+00  0.84045436864E+03  0.84045436864E+03  0.00000000000E+00 0. -1.
          2   -1    0    0  501    0  0.00000000000E+00 -0.00000000000E+00 -0.78380800778E+03  0.78380800778E+03  0.00000000000E+00 0.  1.
         23    2    1    2    0    0  0.27527755605E+02  0.34991772321E+02 -0.54441799496E+02  0.11422183983E+03  0.90002876084E+02 0.  0.
    9900016    2    1    2    0    0  0.22261714535E+03 -0.96789723013E+01  0.13725696920E+03  0.75773611666E+03  0.71110651170E+03 0.  0.
         23    2    4    4    0    0 -0.23986799684E+03 -0.93327504183E+02  0.20590094019E+02  0.27348334857E+03  0.90124974489E+02 0.  0.
        -15    1    3    3    0    0  0.27745027742E+02  0.13457624586E+02 -0.77054203150E+02  0.82995448351E+02  0.00000000000E+00 0.  1.
        -15    1    5    5    0    0 -0.13864212365E+03 -0.84951679658E+02 -0.20557561934E+02  0.16389337900E+03  0.00000000000E+00 0.  1.
         15    1    5    5    0    0 -0.10122587320E+03 -0.83758245249E+01  0.41147655953E+02  0.10958996957E+03  0.00000000000E+00 0. -1.
         15    1    3    3    0    0 -0.21727213770E+00  0.21534147736E+02  0.22612403654E+02  0.31226391481E+02  0.00000000000E+00 0. -1.
        -16    1    1    2    0    0 -0.44809634763E+03  0.13329589054E+03 -0.88103778918E+02  0.47573144425E+03  0.00000000000E+00 0.  1.
         16    1    4    4    0    0  0.46248514219E+03  0.83648531882E+02  0.11666687518E+03  0.48425276809E+03  0.00000000000E+00 0. -1.
    9900018    1    1    2    0    0  0.19795144668E+03 -0.15860869056E+03  0.61934970082E+02  0.27657297568E+03  0.91187600000E+02 0.  0.
<mgrwt>
<rscale>  0 0.76525270E+03</rscale>
<asrwt>0</asrwt>
<pdfrwt beam="1">  1        2 0.12058585E+00 0.15059488E+04</pdfrwt>
<pdfrwt beam="2">  1       -2 0.12930067E+00 0.15059488E+04</pdfrwt>
<totfact> 0.14998261E+01</totfact>
</mgrwt>
</event>
<event>
12    1  0.3237663E-010  0.1093546E+04  0.7818608E-02  0.9923815E-01
         -1   -1    0    0    0  501 -0.00000000000E+00  0.00000000000E+00  0.21919367268E+03  0.21919367268E+03  0.00000000000E+00 0.  1.
          1   -1    0    0  501    0  0.00000000000E+00 -0.00000000000E+00 -0.16564565162E+04  0.16564565162E+04  0.00000000000E+00 0. -1.
         23    2    1    2    0    0  0.24058540863E+02 -0.13414092418E+02 -0.40738034828E+02  0.10191839650E+03  0.89269372125E+02 0.  0.
    9900016    2    1    2    0    0 -0.25030921439E+03 -0.75378566870E+02 -0.11255757413E+04  0.13459581473E+04  0.69017820447E+03 0.  0.
         23    2    4    4    0    0  0.14784659990E+03 -0.14402214512E+03 -0.10668303370E+03  0.24988226365E+03  0.91972173077E+02 0.  0.
        -15    1    3    3    0    0  0.52596678986E+02  0.13377466732E+02 -0.24317523453E+02  0.59470237963E+02  0.00000000000E+00 0. -1.
        -15    1    5    5    0    0  0.12610340477E+03 -0.87178715569E+02 -0.37664549268E+02  0.15786328077E+03  0.00000000000E+00 0.  1.
         15    1    5    5    0    0  0.21743195127E+02 -0.56843429549E+02 -0.69018484429E+02  0.92018982879E+02  0.00000000000E+00 0. -1.
         15    1    3    3    0    0 -0.28538138123E+02 -0.26791559151E+02 -0.16420511375E+02  0.42448158536E+02  0.00000000000E+00 0.  1.
        -16    1    1    2    0    0  0.22702273865E+03  0.72020938166E+02 -0.18957957227E+03  0.30441214434E+03  0.00000000000E+00 0.  1.
         16    1    4    4    0    0 -0.39815581429E+03  0.68643578247E+02 -0.10188927076E+04  0.10960758837E+04  0.00000000000E+00 0. -1.
    9900018    1    1    2    0    0 -0.77206512072E+00  0.16771721122E+02 -0.81369495114E+02  0.12336150065E+03  0.91187600000E+02 0.  0.
<mgrwt>
<rscale>  0 0.59120858E+03</rscale>
<asrwt>0</asrwt>
<pdfrwt beam="1">  1        1 0.25483946E+00 0.10935460E+04</pdfrwt>
<pdfrwt beam="2">  1       -1 0.33722104E-01 0.10935460E+04</pdfrwt>
<totfact> 0.42239249E+01</totfact>
</mgrwt>
</event>
<event>
12    1  0.3237663E-010  0.1695587E+04  0.7818608E-02  0.9406439E-01
          1   -1    0    0  501    0  0.00000000000E+00  0.00000000000E+00  0.11631277063E+04  0.11631277063E+04  0.00000000000E+00 0. -1.
         -1   -1    0    0    0  501 -0.00000000000E+00 -0.00000000000E+00 -0.74754089074E+03  0.74754089074E+03  0.00000000000E+00 0.  1.
         23    2    1    2    0    0 -0.96843787645E+02 -0.57309841332E+02 -0.49669067460E+02  0.15240870131E+03  0.89990326449E+02 0.  0.
    9900016    2    1    2    0    0 -0.17280203209E+03  0.10587067298E+03  0.49310274948E+03  0.87515923448E+03  0.69403474154E+03 0.  0.
         23    2    4    4    0    0 -0.35404106450E+03  0.19319056369E+03  0.88176668883E+02  0.42301160270E+03  0.92173867401E+02 0.  0.
        -15    1    5    5    0    0 -0.23318258348E+03  0.16188514798E+03  0.91107795169E+02  0.29813008690E+03  0.00000000000E+00 0. -1.
        -15    1    3    3    0    0  0.13081761175E+01 -0.37973532259E+02 -0.34316795608E+02  0.51199052118E+02  0.00000000000E+00 0.  1.
         15    1    5    5    0    0 -0.12085848101E+03  0.31305415713E+02 -0.29311262863E+01  0.12488151579E+03  0.00000000000E+00 0.  1.
         15    1    3    3    0    0 -0.98151963763E+02 -0.19336309074E+02 -0.15352271851E+02  0.10120964919E+03  0.00000000000E+00 0. -1.
        -16    1    1    2    0    0  0.16617998978E+03  0.10322320823E+03 -0.40725952629E+03  0.45180874436E+03  0.00000000000E+00 0.  1.
         16    1    4    4    0    0  0.18123903241E+03 -0.87319890706E+02  0.40492608060E+03  0.45214763179E+03  0.00000000000E+00 0. -1.
    9900018    1    1    2    0    0  0.10346582995E+03 -0.15178403988E+03  0.37941265982E+03  0.43129191686E+03  0.91187600000E+02 0.  0.
<mgrwt>
<rscale>  0 0.91547629E+03</rscale>
<asrwt>0</asrwt>
<pdfrwt beam="1">  1        1 0.17894273E+00 0.16955869E+04</pdfrwt>
<pdfrwt beam="2">  1       -1 0.11500629E+00 0.16955869E+04</pdfrwt>
<totfact> 0.74006929E+00</totfact>
</mgrwt>
</event>
<event>
12    1  0.3237663E-010  0.1671948E+04  0.7818608E-02  0.9497580E-01
          2   -1    0    0  501    0  0.00000000000E+00  0.00000000000E+00  0.23309105418E+04  0.23309105418E+04  0.00000000000E+00 0. -1.
         -2   -1    0    0    0  501 -0.00000000000E+00 -0.00000000000E+00 -0.40564636565E+03  0.40564636565E+03  0.00000000000E+00 0.  1.
         23    2    1    2    0    0  0.14785112043E+02 -0.53217640244E+02 -0.72994184493E+02  0.13109199971E+03  0.93841593367E+02 0.  0.
    9900016    2    1    2    0    0  0.27456167440E+03  0.22596394159E+03  0.10453738290E+04  0.13142997729E+04  0.71283492811E+03 0.  0.
         23    2    4    4    0    0 -0.14234499772E+03  0.15644872080E+03  0.78395838104E+03  0.81732736358E+03  0.93246852182E+02 0.  0.
        -15    1    3    3    0    0  0.14666076106E+02  0.25871662697E+02 -0.18013199154E+02  0.34769412748E+02  0.00000000000E+00 0. -1.
        -15    1    5    5    0    0 -0.61906485484E+02  0.18397925549E+02  0.32495244955E+03  0.33130800032E+03  0.00000000000E+00 0.  1.
         15    1    5    5    0    0 -0.80438512233E+02  0.13805079525E+03  0.45900593150E+03  0.48601936326E+03  0.00000000000E+00 0. -1.
         15    1    3    3    0    0  0.11903593660E+00 -0.79089302941E+02 -0.54980985339E+02  0.96322586957E+02  0.00000000000E+00 0.  1.
        -16    1    1    2    0    0 -0.11857249900E+03  0.26043995019E+03  0.69393931658E+03  0.75062652516E+03  0.00000000000E+00 0.  1.
         16    1    4    4    0    0  0.41690667212E+03  0.69515220792E+02  0.26141544791E+03  0.49697240928E+03  0.00000000000E+00 0. -1.
    9900018    1    1    2    0    0 -0.17077428744E+03 -0.43318625154E+03  0.25894521508E+03  0.54053860970E+03  0.91187600000E+02 0.  0.
<mgrwt>
<rscale>  0 0.84462474E+03</rscale>
<asrwt>0</asrwt>
<pdfrwt beam="1">  1        2 0.35860161E+00 0.16719482E+04</pdfrwt>
<pdfrwt beam="2">  1       -2 0.62407135E-01 0.16719482E+04</pdfrwt>
<totfact> 0.98512141E+00</totfact>
</mgrwt>
</event>
<event>
12    1  0.3237663E-010  0.1047140E+04  0.7818608E-02  0.9755799E-01
          1   -1    0    0  501    0  0.00000000000E+00  0.00000000000E+00  0.34945000204E+04  0.34945000204E+04  0.00000000000E+00 0. -1.
         -1   -1    0    0    0  501 -0.00000000000E+00 -0.00000000000E+00 -0.14435601112E+03  0.14435601112E+03  0.00000000000E+00 0.  1.
         23    2    1    2    0    0  0.13021124614E+03 -0.95044017370E+02  0.71973672927E+02  0.19750415945E+03  0.88540101357E+02 0.  0.
    9900016    2    1    2    0    0 -0.13610858951E+02 -0.11649288534E+03  0.20867239399E+04  0.22061679491E+04  0.70640241395E+03 0.  0.
         23    2    4    4    0    0 -0.29692604505E+03 -0.24490769841E+03  0.13394920080E+04  0.13967771788E+04  0.92751231256E+02 0.  0.
        -15    1    5    5    0    0 -0.26710670843E+03 -0.24199302370E+03  0.12850115674E+04  0.13346015680E+04  0.00000000000E+00 0.  1.
        -15    1    3    3    0    0  0.20546785660E+02 -0.67773987288E+02  0.30886914694E+02  0.77262444003E+02  0.00000000000E+00 0.  1.
         15    1    5    5    0    0 -0.29819336629E+02 -0.29146747124E+01  0.54480440611E+02  0.62175610772E+02  0.00000000000E+00 0. -1.
         15    1    3    3    0    0  0.10966446048E+03 -0.27270030081E+02  0.41086758233E+02  0.12024171545E+03  0.00000000000E+00 0. -1.
        -16    1    1    2    0    0 -0.10678614294E+03  0.17314372329E+03  0.55680973236E+03  0.59280612960E+03  0.00000000000E+00 0.  1.
         16    1    4    4    0    0  0.28331518610E+03  0.12841481308E+03  0.74723193192E+03  0.80939077025E+03  0.00000000000E+00 0. -1.
    9900018    1    1    2    0    0 -0.98142442428E+01  0.38393179417E+02  0.63463666411E+03  0.64237779339E+03  0.91187600000E+02 0.  0.
<mgrwt>
<rscale>  0 0.67789520E+03</rscale>
<asrwt>0</asrwt>
<pdfrwt beam="1">  1        1 0.53761532E+00 0.10471399E+04</pdfrwt>
<pdfrwt beam="2">  1       -1 0.22208620E-01 0.10471399E+04</pdfrwt>
<totfact> 0.44533431E+00</totfact>
</mgrwt>
</event>
