<event>
11    1  0.1031795E-012  0.1565093E+04  0.7818608E-02  0.8842285E-01
          1   -1    0    0  501    0  0.00000000000E+00  0.00000000000E+00  0.38518183044E+03  0.38518183044E+03  0.00000000000E+00 0. -1.
         -1   -1    0    0    0  501 -0.00000000000E+00 -0.00000000000E+00 -0.15898432548E+04  0.15898432548E+04  0.00000000000E+00 0.  1.
    9900016    2    1    2    0    0  0.21934208635E+03  0.12556002035E+03 -0.10042867499E+04  0.12580274080E+04  0.71425822610E+03 0.  0.
         23    2    3    3    0    0  0.12042452013E+03  0.35541258005E+02 -0.60298538568E+03  0.61972135118E+03  0.68541459705E+02 0.  0.
        -15    1    3    3    0    0 -0.31896822636E+02  0.13292457061E+03 -0.31191121894E+03  0.34055096134E+03  0.00000000000E+00 0.  1.
        -15    1    4    4    0    0  0.97378585486E+02 -0.35563240663E+01 -0.39497932038E+03  0.40682170527E+03  0.00000000000E+00 0.  1.
         15    1    4    4    0    0  0.23045934645E+02  0.39097582071E+02 -0.20800606530E+03  0.21289964591E+03  0.00000000000E+00 0. -1.
         15    1    3    3    0    0 -0.28557468890E+02 -0.47363969324E+02 -0.12295919782E+03  0.13482521629E+03  0.00000000000E+00 0. -1.
        -16    1    3    3    0    0  0.15937185774E+03  0.44581610596E+01  0.33569052495E+02  0.16292987917E+03  0.00000000000E+00 0.  1.
         16    1    1    2    0    0 -0.31298862379E+03 -0.22555448063E+03  0.78014695265E+02  0.39360258514E+03  0.00000000000E+00 0. -1.
    9900018    1    1    2    0    0  0.93646537442E+02  0.99994460273E+02 -0.27838936972E+03  0.32339509215E+03  0.91187600000E+02 0.  0.
<mgrwt>
<rscale>  0 0.15650926E+04</rscale>
<asrwt>0</asrwt>
<pdfrwt beam="1">  1        1 0.59258743E-01 0.15650926E+04</pdfrwt>
<pdfrwt beam="2">  1       -1 0.24459127E+00 0.15650926E+04</pdfrwt>
<totfact> 0.45936680E+00</totfact>
</mgrwt>
</event>
<event>
11    1  0.1031795E-012  0.1626381E+04  0.7818608E-02  0.8804503E-01
          2   -1    0    0  501    0  0.00000000000E+00  0.00000000000E+00  0.30007884052E+04  0.30007884052E+04  0.00000000000E+00 0. -1.
         -2   -1    0    0    0  501 -0.00000000000E+00 -0.00000000000E+00 -0.22036839678E+03  0.22036839678E+03  0.00000000000E+00 0.  1.
    9900016    2    1    2    0    0 -0.97476139927E+02 -0.52959935590E+02  0.68416665904E+03  0.99363915637E+03  0.71198904704E+03 0.  0.
         23    2    3    3    0    0 -0.81877826473E+01 -0.25567578672E+03  0.50028101129E+03  0.57225907632E+03  0.10845373427E+03 0.  0.
        -15    1    3    3    0    0  0.31299042180E+02  0.79869422321E+02  0.48186903126E+02  0.98390712448E+02  0.00000000000E+00 0.  1.
        -15    1    4    4    0    0  0.17763080043E+02 -0.22493862176E+02  0.13075228982E+02  0.31503372218E+02  0.00000000000E+00 0. -1.
         15    1    3    3    0    0  0.26595450162E+02  0.54810505882E+02  0.14832737712E+03  0.16035124049E+03  0.00000000000E+00 0. -1.
         15    1    4    4    0    0 -0.25950862690E+02 -0.23318192455E+03  0.48720578230E+03  0.54075570410E+03  0.00000000000E+00 0.  1.
        -16    1    3    3    0    0 -0.14718284962E+03  0.68035922932E+02 -0.12628632487E+02  0.16263812711E+03  0.00000000000E+00 0.  1.
         16    1    1    2    0    0  0.15012218884E+03 -0.26930566475E+03  0.15806291368E+04  0.16104194114E+04  0.00000000000E+00 0. -1.
    9900018    1    1    2    0    0 -0.52646048912E+02  0.32226560034E+03  0.51562421263E+03  0.61709823422E+03  0.91187600000E+02 0.  0.
<mgrwt>
<rscale>  0 0.16263812E+04</rscale>
<asrwt>0</asrwt>
<pdfrwt beam="1">  1        2 0.46165973E+00 0.16263812E+04</pdfrwt>
<pdfrwt beam="2">  1       -2 0.33902832E-01 0.16263812E+04</pdfrwt>
<totfact> 0.13627510E+01</totfact>
</mgrwt>
</event>
<event>
10    1  0.1031795E-012  0.3251027E+04  0.7818608E-02  0.8175470E-01
         -2   -1    0    0    0  501 -0.00000000000E+00  0.00000000000E+00  0.84486133920E+03  0.84486133920E+03  0.00000000000E+00 0.  1.
          2   -1    0    0  501    0  0.00000000000E+00 -0.00000000000E+00 -0.31274889383E+04  0.31274889383E+04  0.00000000000E+00 0. -1.
    9900016    2    1    2    0    0  0.13031604429E+04  0.45138100210E+03 -0.99111062941E+03  0.18449029036E+04  0.72069029074E+03 0.  0.
        -15    1    3    3    0    0  0.20516869229E+03  0.10586355797E+03  0.35919469475E+02  0.23364822594E+03  0.00000000000E+00 0.  1.
        -15    1    3    3    0    0  0.63935161652E+03  0.35327980488E+02 -0.43898505442E+03  0.77635457991E+03  0.00000000000E+00 0.  1.
         15    1    3    3    0    0  0.40823212356E+03  0.27260651602E+03 -0.56892478980E+03  0.75142743876E+03  0.00000000000E+00 0. -1.
         15    1    3    3    0    0  0.28234855126E+02  0.23214547539E+01  0.12708916749E+02  0.31050165235E+02  0.00000000000E+00 0. -1.
        -16    1    3    3    0    0  0.22173155360E+02  0.35261492876E+02 -0.31829171416E+02  0.52422493755E+02  0.00000000000E+00 0.  1.
         16    1    1    2    0    0 -0.10856437765E+04 -0.43949244809E+03 -0.14340893220E+04  0.18515907228E+04  0.00000000000E+00 0. -1.
    9900018    1    1    2    0    0 -0.21751666637E+03 -0.11888554009E+02  0.14257235236E+03  0.27585665103E+03  0.91187600000E+02 0.  0.
<mgrwt>
<rscale>  0 0.32510272E+04</rscale>
<asrwt>0</asrwt>
<pdfrwt beam="1">  1        2 0.48115213E+00 0.32510272E+04</pdfrwt>
<pdfrwt beam="2">  1       -2 0.12997867E+00 0.32510272E+04</pdfrwt>
<totfact> 0.52597942E-01</totfact>
</mgrwt>
</event>
<event>
11    1  0.1031795E-012  0.1809335E+04  0.7818608E-02  0.8701351E-01
         -2   -1    0    0    0  501 -0.00000000000E+00  0.00000000000E+00  0.70176932762E+03  0.70176932762E+03  0.00000000000E+00 0.  1.
          2   -1    0    0  501    0  0.00000000000E+00 -0.00000000000E+00 -0.11662284868E+04  0.11662284868E+04  0.00000000000E+00 0. -1.
    9900016    2    1    2    0    0 -0.63707398816E+02  0.20564865612E+03 -0.10976008431E+03  0.74889749771E+03  0.70883720524E+03 0.  0.
         23    2    3    3    0    0  0.89978396842E+02 -0.82056276250E+02  0.19669312924E+02  0.14582307922E+03  0.77769815434E+02 0.  0.
        -15    1    3    3    0    0 -0.16007132601E+02 -0.66452142942E+02 -0.66389310433E+02  0.95287229656E+02  0.00000000000E+00 0.  1.
        -15    1    4    4    0    0  0.79804478271E+02 -0.54232366035E+02 -0.17738584286E+02  0.98104850290E+02  0.00000000000E+00 0. -1.
         15    1    3    3    0    0 -0.17976249791E+03  0.45745559051E+02 -0.64883268230E+02  0.19651221419E+03  0.00000000000E+00 0. -1.
         15    1    4    4    0    0  0.10173918571E+02 -0.27823910215E+02  0.37407897210E+02  0.47718228932E+02  0.00000000000E+00 0.  1.
        -16    1    3    3    0    0  0.42083834854E+02  0.30841151627E+03  0.18431814303E+01  0.31127497464E+03  0.00000000000E+00 0.  1.
         16    1    1    2    0    0  0.42682202607E+02  0.29495169316E+03 -0.50651037256E+03  0.58768276241E+03  0.00000000000E+00 0. -1.
    9900018    1    1    2    0    0  0.21025196209E+02 -0.50060034928E+03  0.15181129766E+03  0.53141755435E+03  0.91187600000E+02 0.  0.
<mgrwt>
<rscale>  0 0.18093351E+04</rscale>
<asrwt>0</asrwt>
<pdfrwt beam="1">  1        2 0.17941976E+00 0.18093351E+04</pdfrwt>
<pdfrwt beam="2">  1       -2 0.10796451E+00 0.18093351E+04</pdfrwt>
<totfact> 0.12872835E+01</totfact>
</mgrwt>
</event>
<event>
10    1  0.1031795E-012  0.1841628E+04  0.7818608E-02  0.8684470E-01
          2   -1    0    0  501    0  0.00000000000E+00  0.00000000000E+00  0.61232862804E+03  0.61232862804E+03  0.00000000000E+00 0. -1.
         -2   -1    0    0    0  501 -0.00000000000E+00 -0.00000000000E+00 -0.13847116986E+04  0.13847116986E+04  0.00000000000E+00 0.  1.
    9900016    2    1    2    0    0  0.44364972018E+02  0.22661622071E+03 -0.23189561686E+03  0.78787970119E+03  0.71669776350E+03 0.  0.
        -15    1    3    3    0    0 -0.52691894038E+01 -0.35659914848E+02 -0.18467544488E+02  0.40502396020E+02  0.00000000000E+00 0.  1.
        -15    1    3    3    0    0  0.19831352796E+02  0.95272103559E+01 -0.10014177017E+03  0.10253011471E+03  0.00000000000E+00 0. -1.
         15    1    3    3    0    0 -0.11258167686E+02 -0.59222280837E+02 -0.11378356117E+03  0.12876615891E+03  0.00000000000E+00 0.  1.
         15    1    3    3    0    0 -0.14297678310E+03 -0.85614668244E+01 -0.25797429770E+02  0.14553750926E+03  0.00000000000E+00 0. -1.
        -16    1    1    2    0    0  0.41157736162E+03  0.15675434501E+03 -0.38938743237E+03  0.58786939175E+03  0.00000000000E+00 0.  1.
         16    1    3    3    0    0  0.18403775941E+03  0.32053267286E+03  0.26294688730E+02  0.37054352229E+03  0.00000000000E+00 0. -1.
    9900018    1    1    2    0    0 -0.45594233363E+03 -0.38337056571E+03 -0.15110002136E+03  0.62129123372E+03  0.91187600000E+02 0.  0.
<mgrwt>
<rscale>  0 0.18416282E+04</rscale>
<asrwt>0</asrwt>
<pdfrwt beam="1">  1        2 0.94204406E-01 0.18416282E+04</pdfrwt>
<pdfrwt beam="2">  1       -2 0.21303257E+00 0.18416282E+04</pdfrwt>
<totfact> 0.49807836E+00</totfact>
</mgrwt>
</event>
<event>
11    1  0.1031795E-012  0.1591484E+04  0.7818608E-02  0.8825797E-01
         -1   -1    0    0    0  501 -0.00000000000E+00  0.00000000000E+00  0.24047608565E+04  0.24047608565E+04  0.00000000000E+00 0.  1.
          1   -1    0    0  501    0  0.00000000000E+00 -0.00000000000E+00 -0.26331317909E+03  0.26331317909E+03  0.00000000000E+00 0. -1.
    9900016    2    1    2    0    0  0.17230689968E+03  0.13232323700E+03  0.10126752198E+04  0.12476595974E+04  0.69566102621E+03 0.  0.
         23    2    3    3    0    0  0.13156708341E+03 -0.12928534947E+03  0.25165075884E+03  0.33156904680E+03  0.11218435430E+03 0.  0.
        -15    1    3    3    0    0  0.90865576295E+02  0.22617515949E+02  0.38823464313E+03  0.39936730350E+03  0.00000000000E+00 0.  1.
        -15    1    4    4    0    0  0.51665140909E+02 -0.23121524116E+02  0.16115556036E+03  0.17080692696E+03  0.00000000000E+00 0.  1.
         15    1    3    3    0    0  0.69145537509E+02 -0.19066919805E+02  0.55404258065E+02  0.90632690571E+02  0.00000000000E+00 0. -1.
         15    1    4    4    0    0  0.79901942504E+02 -0.10616382535E+03  0.90495198480E+02  0.16076211984E+03  0.00000000000E+00 0. -1.
        -16    1    3    3    0    0 -0.11927129754E+03  0.25805799032E+03  0.31738555977E+03  0.42609055649E+03  0.00000000000E+00 0.  1.
         16    1    1    2    0    0 -0.27329240608E+03 -0.19733122818E+02 -0.39247228033E+01  0.27403200325E+03  0.00000000000E+00 0. -1.
    9900018    1    1    2    0    0  0.10098550640E+03 -0.11259011418E+03  0.11326971804E+04  0.11463824350E+04  0.91187600000E+02 0.  0.
<mgrwt>
<rscale>  0 0.15914839E+04</rscale>
<asrwt>0</asrwt>
<pdfrwt beam="1">  1        1 0.40509722E-01 0.15914839E+04</pdfrwt>
<pdfrwt beam="2">  1       -1 0.36996319E+00 0.15914839E+04</pdfrwt>
<totfact> 0.11464719E+00</totfact>
</mgrwt>
</event>
<event>
11    1  0.1031795E-012  0.1280040E+04  0.7818608E-02  0.9045545E-01
         -1   -1    0    0    0  501 -0.00000000000E+00  0.00000000000E+00  0.15932838920E+03  0.15932838920E+03  0.00000000000E+00 0.  1.
          1   -1    0    0  501    0  0.00000000000E+00 -0.00000000000E+00 -0.25709506989E+04  0.25709506989E+04  0.00000000000E+00 0. -1.
    9900016    2    1    2    0    0  0.81506835099E+02  0.65520759526E+02 -0.14709753423E+04  0.16355345500E+04  0.70729659450E+03 0.  0.
         23    2    3    3    0    0  0.15271780278E+03 -0.63317161979E+02 -0.91312306008E+02  0.20298759168E+03  0.74392438185E+02 0.  0.
        -15    1    4    4    0    0  0.60263000541E+02 -0.12322113464E+02  0.27622605403E+01  0.61571858813E+02  0.00000000000E+00 0.  1.
        -15    1    3    3    0    0  0.79980822486E+02 -0.20801820816E+02 -0.37069872372E+03  0.37979888294E+03  0.00000000000E+00 0.  1.
         15    1    3    3    0    0 -0.18254909557E+02  0.14841948829E+03 -0.35165169739E+03  0.38212629131E+03  0.00000000000E+00 0. -1.
         15    1    4    4    0    0  0.92454802242E+02 -0.50995048515E+02 -0.94074566548E+02  0.14141573287E+03  0.00000000000E+00 0. -1.
        -16    1    3    3    0    0 -0.13293688061E+03  0.12202540276E+01 -0.65731261516E+03  0.67062178409E+03  0.00000000000E+00 0.  1.
         16    1    1    2    0    0 -0.20996900070E+03  0.11244292293E+03 -0.75931871941E+03  0.79579853595E+03  0.00000000000E+00 0. -1.
    9900018    1    1    2    0    0  0.12846216560E+03 -0.17796368246E+03 -0.18132824798E+03  0.29894600211E+03  0.91187600000E+02 0.  0.
<mgrwt>
<rscale>  0 0.12800397E+04</rscale>
<asrwt>0</asrwt>
<pdfrwt beam="1">  1        1 0.39553085E+00 0.12800397E+04</pdfrwt>
<pdfrwt beam="2">  1       -1 0.24512061E-01 0.12800397E+04</pdfrwt>
<totfact> 0.17334695E+01</totfact>
</mgrwt>
</event>
<event>
11    1  0.1031795E-012  0.4334792E+04  0.7818608E-02  0.7940216E-01
         -2   -1    0    0    0  501 -0.00000000000E+00  0.00000000000E+00  0.16761615512E+04  0.16761615512E+04  0.00000000000E+00 0.  1.
          2   -1    0    0  501    0  0.00000000000E+00 -0.00000000000E+00 -0.28025972867E+04  0.28025972867E+04  0.00000000000E+00 0. -1.
    9900016    2    1    2    0    0 -0.50852409391E+03  0.11192913630E+04 -0.63835865224E+03  0.15569612437E+04  0.71078592850E+03 0.  0.
         23    2    3    3    0    0  0.90259514049E+02  0.12412422629E+03 -0.21892731308E+03  0.27854032723E+03  0.78114928504E+02 0.  0.
        -15    1    4    4    0    0  0.45195815871E+02  0.10868787717E+03 -0.11667446386E+03  0.16573667950E+03  0.00000000000E+00 0.  1.
        -15    1    3    3    0    0 -0.20075884859E+02 -0.23699825249E+02 -0.16482649166E+02  0.35162488439E+02  0.00000000000E+00 0.  1.
         15    1    3    3    0    0 -0.17309800627E+03  0.32626756899E+03 -0.17617830018E+03  0.40920928606E+03  0.00000000000E+00 0. -1.
         15    1    4    4    0    0  0.45063698177E+02  0.15436349118E+02 -0.10225284922E+03  0.11280364773E+03  0.00000000000E+00 0. -1.
        -16    1    3    3    0    0 -0.40560971683E+03  0.69259939295E+03 -0.22677038982E+03  0.83404914196E+03  0.00000000000E+00 0.  1.
         16    1    1    2    0    0  0.10286632823E+04 -0.29574798804E+03 -0.12761291996E+04  0.16655691985E+04  0.00000000000E+00 0. -1.
    9900018    1    1    2    0    0 -0.52013918843E+03 -0.82354337494E+03  0.78805211631E+03  0.12562283957E+04  0.91187600000E+02 0.  0.
<mgrwt>
<rscale>  0 0.43347922E+04</rscale>
<asrwt>0</asrwt>
<pdfrwt beam="1">  1        2 0.43116881E+00 0.43347922E+04</pdfrwt>
<pdfrwt beam="2">  1       -2 0.25787101E+00 0.43347922E+04</pdfrwt>
<totfact> 0.10169391E-01</totfact>
</mgrwt>
</event>
<event>
10    1  0.1031795E-012  0.1643803E+04  0.7818608E-02  0.8794081E-01
         -1   -1    0    0    0  501 -0.00000000000E+00  0.00000000000E+00  0.10208095900E+04  0.10208095900E+04  0.00000000000E+00 0.  1.
          1   -1    0    0  501    0  0.00000000000E+00 -0.00000000000E+00 -0.66175116850E+03  0.66175116850E+03  0.00000000000E+00 0. -1.
    9900016    2    1    2    0    0  0.48687318603E+03  0.17273233605E+03  0.24278531000E+03  0.91163106270E+03  0.71080554903E+03 0.  0.
        -15    1    3    3    0    0  0.49588175261E+01 -0.48950172002E+02 -0.62094262579E+02  0.79223775822E+02  0.00000000000E+00 0.  1.
        -15    1    3    3    0    0  0.20815701672E+03 -0.69002323674E+02  0.51996257992E+02  0.22537585302E+03  0.00000000000E+00 0. -1.
         15    1    3    3    0    0  0.16123861527E+03 -0.17479346664E+02  0.11333632544E+03  0.19785990316E+03  0.00000000000E+00 0.  1.
         15    1    3    3    0    0  0.39472589628E+02  0.99922386198E+02 -0.49776692882E+02  0.11840729602E+03  0.00000000000E+00 0. -1.
        -16    1    3    3    0    0  0.73046146896E+02  0.20824179220E+03  0.18932368202E+03  0.29076423468E+03  0.00000000000E+00 0.  1.
         16    1    1    2    0    0 -0.42639573759E+03 -0.10246913235E+03 -0.15901426001E+03  0.46647484713E+03  0.00000000000E+00 0. -1.
    9900018    1    1    2    0    0 -0.60477448439E+02 -0.70263203706E+02  0.27528737149E+03  0.30445484864E+03  0.91187600000E+02 0.  0.
<mgrwt>
<rscale>  0 0.16438028E+04</rscale>
<asrwt>0</asrwt>
<pdfrwt beam="1">  1        1 0.10180787E+00 0.16438028E+04</pdfrwt>
<pdfrwt beam="2">  1       -1 0.15704763E+00 0.16438028E+04</pdfrwt>
<totfact> 0.87262050E+00</totfact>
</mgrwt>
</event>
<event>
11    1  0.1031795E-012  0.2564936E+04  0.7818608E-02  0.8380210E-01
         -2   -1    0    0    0  501 -0.00000000000E+00  0.00000000000E+00  0.81589557668E+03  0.81589557668E+03  0.00000000000E+00 0.  1.
          2   -1    0    0  501    0  0.00000000000E+00 -0.00000000000E+00 -0.20158505807E+04  0.20158505807E+04  0.00000000000E+00 0. -1.
    9900016    2    1    2    0    0 -0.67828990501E+03  0.23913810039E+02 -0.22286690866E+03  0.10135241372E+04  0.71896623858E+03 0.  0.
         23    2    3    3    0    0 -0.13918747075E+02 -0.17421251509E+03 -0.71845383046E+02  0.21669048408E+03  0.10606259892E+03 0.  0.
        -15    1    3    3    0    0 -0.14951520350E+03  0.85000973846E+02 -0.14213103345E+02  0.17257454604E+03  0.00000000000E+00 0.  1.
        -15    1    4    4    0    0  0.11680518136E+02 -0.17454874875E+03 -0.47293953609E+02  0.18121925461E+03  0.00000000000E+00 0.  1.
         15    1    4    4    0    0 -0.25599265211E+02  0.33623365925E+00 -0.24551429437E+02  0.35471229466E+02  0.00000000000E+00 0. -1.
         15    1    3    3    0    0 -0.11991931182E+03 -0.10183187779E+03 -0.12887631859E+02  0.15784949711E+03  0.00000000000E+00 0. -1.
        -16    1    3    3    0    0 -0.39493664261E+03  0.21495722908E+03 -0.12392079041E+03  0.46640961001E+03  0.00000000000E+00 0.  1.
         16    1    1    2    0    0  0.61970185542E+03 -0.55221755030E+02 -0.13188968699E+04  0.14582759634E+04  0.00000000000E+00 0. -1.
    9900018    1    1    2    0    0  0.58588049596E+02  0.31307944991E+02  0.34180877461E+03  0.35994605675E+03  0.91187600000E+02 0.  0.
<mgrwt>
<rscale>  0 0.25649355E+04</rscale>
<asrwt>0</asrwt>
<pdfrwt beam="1">  1        2 0.31013086E+00 0.25649355E+04</pdfrwt>
<pdfrwt beam="2">  1       -2 0.12552240E+00 0.25649355E+04</pdfrwt>
<totfact> 0.27557392E+00</totfact>
</mgrwt>
</event>
<event>
11    1  0.1031795E-012  0.1003906E+04  0.7818608E-02  0.9304271E-01
         -1   -1    0    0    0  501 -0.00000000000E+00  0.00000000000E+00  0.44428163100E+03  0.44428163100E+03  0.00000000000E+00 0.  1.
          1   -1    0    0  501    0  0.00000000000E+00 -0.00000000000E+00 -0.56711034041E+03  0.56711034041E+03  0.00000000000E+00 0. -1.
    9900016    2    1    2    0    0 -0.49488233795E+02  0.46278917668E+02 -0.16834577274E+03  0.73946513735E+03  0.71685254178E+03 0.  0.
         23    2    3    3    0    0 -0.21238975693E+02  0.11027995844E+03 -0.12789497275E+02  0.13027576437E+03  0.64772217950E+02 0.  0.
        -15    1    4    4    0    0 -0.11437538153E+02  0.46208159493E+02 -0.37815662294E+02  0.60795029382E+02  0.00000000000E+00 0.  1.
        -15    1    3    3    0    0  0.45747917474E+02  0.52183940322E+02 -0.13324536081E+03  0.15023435612E+03  0.00000000000E+00 0.  1.
         15    1    3    3    0    0  0.74663863473E+02  0.10438790021E+03 -0.11989018993E+03  0.17562797004E+03  0.00000000000E+00 0. -1.
         15    1    4    4    0    0 -0.98014375396E+01  0.64071798948E+02  0.25026165019E+02  0.69480734983E+02  0.00000000000E+00 0. -1.
        -16    1    3    3    0    0 -0.14866103905E+03 -0.22057288131E+03  0.97579275276E+02  0.28332704683E+03  0.00000000000E+00 0.  1.
         16    1    1    2    0    0  0.12734638871E+03 -0.70750442706E+02  0.22582903909E+02  0.14742020014E+03  0.00000000000E+00 0. -1.
    9900018    1    1    2    0    0 -0.77858154916E+02  0.24471525038E+02  0.22934159428E+02  0.12450663391E+03  0.91187600000E+02 0.  0.
<mgrwt>
<rscale>  0 0.10039058E+04</rscale>
<asrwt>0</asrwt>
<pdfrwt beam="1">  1        1 0.87247744E-01 0.10039058E+04</pdfrwt>
<pdfrwt beam="2">  1       -1 0.68351021E-01 0.10039058E+04</pdfrwt>
<totfact> 0.80691898E+01</totfact>
</mgrwt>
</event>
<event>
10    1  0.1031795E-012  0.2207774E+04  0.7818608E-02  0.8515199E-01
         -2   -1    0    0    0  501 -0.00000000000E+00  0.00000000000E+00  0.52039803090E+03  0.52039803090E+03  0.00000000000E+00 0.  1.
          2   -1    0    0  501    0  0.00000000000E+00 -0.00000000000E+00 -0.23416056975E+04  0.23416056975E+04  0.00000000000E+00 0. -1.
    9900016    2    1    2    0    0  0.44951290878E+03 -0.52135557340E+02 -0.70670567876E+03  0.10954977262E+04  0.70420336563E+03 0.  0.
        -15    1    3    3    0    0  0.62625832911E+02 -0.43931567675E+02  0.92369830369E+01  0.77053873633E+02  0.00000000000E+00 0.  1.
        -15    1    3    3    0    0  0.34554611979E+02  0.13986536830E+01 -0.32972283353E+01  0.34739734539E+02  0.00000000000E+00 0. -1.
         15    1    3    3    0    0  0.23446219491E+03  0.81278103365E+02 -0.31796975053E+03  0.40334031931E+03  0.00000000000E+00 0.  1.
         15    1    3    3    0    0  0.17116651648E+03 -0.11158534135E+03 -0.45406769342E+03  0.49792241863E+03  0.00000000000E+00 0. -1.
        -16    1    1    2    0    0 -0.84479080358E+03 -0.14470032311E+03 -0.46288994515E+03  0.97410306778E+03  0.00000000000E+00 0.  1.
         16    1    3    3    0    0 -0.53296247498E+02  0.20704594637E+02  0.59392010491E+02  0.82441380063E+02  0.00000000000E+00 0. -1.
    9900018    1    1    2    0    0  0.39527789480E+03  0.19683588045E+03 -0.65161204270E+03  0.79240293446E+03  0.91187600000E+02 0.  0.
<mgrwt>
<rscale>  0 0.22077744E+04</rscale>
<asrwt>0</asrwt>
<pdfrwt beam="1">  1        2 0.36024703E+00 0.22077744E+04</pdfrwt>
<pdfrwt beam="2">  1       -2 0.80061237E-01 0.22077744E+04</pdfrwt>
<totfact> 0.54111580E+00</totfact>
</mgrwt>
</event>
<event>
11    1  0.1031795E-012  0.1820231E+04  0.7818608E-02  0.8695614E-01
         -1   -1    0    0    0  501 -0.00000000000E+00  0.00000000000E+00  0.19204930576E+04  0.19204930576E+04  0.00000000000E+00 0.  1.
          1   -1    0    0  501    0  0.00000000000E+00 -0.00000000000E+00 -0.43130061534E+03  0.43130061534E+03  0.00000000000E+00 0. -1.
    9900016    2    1    2    0    0  0.14443606086E+03 -0.15101239402E+03  0.71220142272E+03  0.10305209709E+04  0.71489585684E+03 0.  0.
         23    2    3    3    0    0  0.62921044646E+02 -0.22806303401E+03  0.61040789215E+03  0.65916495540E+03  0.76998949874E+02 0.  0.
        -15    1    3    3    0    0  0.22218542066E+00  0.42904219346E+02  0.13094636477E+03  0.13779612422E+03  0.00000000000E+00 0.  1.
        -15    1    4    4    0    0 -0.16690269502E+02 -0.66887701562E+02  0.17744968538E+03  0.19037048237E+03  0.00000000000E+00 0.  1.
         15    1    4    4    0    0  0.79611314148E+02 -0.16117533245E+03  0.43295820678E+03  0.46879447303E+03  0.00000000000E+00 0. -1.
         15    1    3    3    0    0 -0.73234678431E+02  0.81026305348E+01  0.23451749504E+01  0.73718861847E+02  0.00000000000E+00 0. -1.
        -16    1    3    3    0    0  0.15452750923E+03  0.26043790115E+02 -0.31498009154E+02  0.15984102944E+03  0.00000000000E+00 0.  1.
         16    1    1    2    0    0 -0.41381193828E+03 -0.76302781200E+02 -0.44092632770E+02  0.42309170985E+03  0.00000000000E+00 0. -1.
    9900018    1    1    2    0    0  0.26937587741E+03  0.22731517522E+03  0.82108365228E+03  0.89818099214E+03  0.91187600000E+02 0.  0.
<mgrwt>
<rscale>  0 0.18202306E+04</rscale>
<asrwt>0</asrwt>
<pdfrwt beam="1">  1        1 0.66353942E-01 0.18202306E+04</pdfrwt>
<pdfrwt beam="2">  1       -1 0.29546047E+00 0.18202306E+04</pdfrwt>
<totfact> 0.18070712E+00</totfact>
</mgrwt>
</event>
