<event>
11    1  0.1282362E-013  0.1731098E+04  0.7818608E-02  0.8973189E-01
          2   -1    0    0  501    0  0.00000000000E+00  0.00000000000E+00  0.32406344323E+04  0.32406344323E+04  0.00000000000E+00 0.  1.
         -2   -1    0    0    0  501 -0.00000000000E+00 -0.00000000000E+00 -0.46986795916E+03  0.46986795916E+03  0.00000000000E+00 0. -1.
    9900016    2    1    2    0    0  0.82243637074E+03 -0.13013423039E+03  0.20512579412E+04  0.23262911199E+04  0.71458710529E+03 0.  0.
         23    2    3    3    0    0  0.11067169353E+03  0.24233932241E+03  0.44586597422E+03  0.53112291855E+03  0.11098881342E+03 0.  0.
        -15    1    1    2    0    0 -0.32464018177E+03 -0.11316540764E+03  0.57825430345E+03  0.67273746481E+03  0.00000000000E+00 0.  1.
        -15    1    4    4    0    0  0.21935117709E+02  0.12059081739E+03  0.28753542155E+03  0.31256985343E+03  0.00000000000E+00 0.  1.
         15    1    1    2    0    0 -0.23521388773E+03  0.17337588352E+03  0.23023573516E+03  0.37201245102E+03  0.00000000000E+00 0. -1.
         15    1    4    4    0    0  0.88736575817E+02  0.12174850502E+03  0.15833055267E+03  0.21855306512E+03  0.00000000000E+00 0. -1.
        -16    1    3    3    0    0  0.71176467722E+03 -0.37247355280E+03  0.16053919670E+04  0.17951682013E+04  0.00000000000E+00 0.  1.
         16    1    1    2    0    0 -0.11124085987E+03  0.44005150505E+02 -0.10631207174E+03  0.16004136582E+03  0.00000000000E+00 0. -1.
    9900018    1    1    2    0    0 -0.15134144136E+03  0.25918604005E+02  0.17330565015E+02  0.17941998993E+03  0.91187600000E+02 0.  0.
<mgrwt>
<rscale>  0 0.13735511E+04</rscale>
<asrwt>0</asrwt>
<pdfrwt beam="1">  1        2 0.49855913E+00 0.17310979E+04</pdfrwt>
<pdfrwt beam="2">  1       -2 0.72287380E-01 0.17310979E+04</pdfrwt>
<totfact> 0.19945967E+00</totfact>
</mgrwt>
</event>
<event>
11    1  0.1282362E-013  0.2063821E+04  0.7818608E-02  0.8935309E-01
         -2   -1    0    0    0  501 -0.00000000000E+00  0.00000000000E+00  0.13059070955E+04  0.13059070955E+04  0.00000000000E+00 0.  1.
          2   -1    0    0  501    0  0.00000000000E+00 -0.00000000000E+00 -0.12324701973E+04  0.12324701973E+04  0.00000000000E+00 0. -1.
    9900016    2    1    2    0    0 -0.38205972329E+03 -0.28939019043E+03 -0.52278211529E+03  0.99918870665E+03  0.70381859662E+03 0.  0.
         23    2    3    3    0    0 -0.29720745035E+03  0.16417719366E+03 -0.38316023765E+03  0.51709167404E+03  0.72702215857E+02 0.  0.
        -15    1    4    4    0    0 -0.17866500835E+03  0.61546457072E+02 -0.23290925764E+03  0.29992644745E+03  0.00000000000E+00 0.  1.
        -15    1    1    2    0    0 -0.37630615871E+03  0.13989619809E+03  0.11841845244E+03  0.41856923107E+03  0.00000000000E+00 0.  1.
         15    1    4    4    0    0 -0.11854244200E+03  0.10263073658E+03 -0.15025098000E+03  0.21716522659E+03  0.00000000000E+00 0. -1.
         15    1    1    2    0    0  0.10286678308E+03  0.19143101371E+03  0.43195624245E+02  0.22157001156E+03  0.00000000000E+00 0. -1.
        -16    1    1    2    0    0  0.20552013066E+03  0.14602382018E+03  0.20720044308E+02  0.25296402986E+03  0.00000000000E+00 0.  1.
         16    1    3    3    0    0 -0.84852272943E+02 -0.45356738409E+03 -0.13962187765E+03  0.48209703261E+03  0.00000000000E+00 0. -1.
    9900018    1    1    2    0    0  0.44997896825E+03 -0.18796084155E+03  0.41388489249E+03  0.64608531360E+03  0.91187600000E+02 0.  0.
<mgrwt>
<rscale>  0 0.14258604E+04</rscale>
<asrwt>0</asrwt>
<pdfrwt beam="1">  1        2 0.18961080E+00 0.20638213E+04</pdfrwt>
<pdfrwt beam="2">  1       -2 0.20090878E+00 0.20638213E+04</pdfrwt>
<totfact> 0.21642335E+00</totfact>
</mgrwt>
</event>
<event>
10    1  0.1282362E-013  0.4436662E+04  0.7818608E-02  0.7921820E-01
          1   -1    0    0  501    0  0.00000000000E+00  0.00000000000E+00  0.38641343835E+04  0.38641343835E+04  0.00000000000E+00 0.  1.
         -1   -1    0    0    0  501 -0.00000000000E+00 -0.00000000000E+00 -0.12735046662E+04  0.12735046662E+04  0.00000000000E+00 0. -1.
    9900016    2    1    2    0    0  0.21382795298E+03  0.49595030968E+03  0.50601300719E+03  0.10243195618E+04  0.70816120908E+03 0.  0.
        -15    1    3    3    0    0  0.50569942495E+02  0.43170089286E+02 -0.27730120671E+02  0.72041205468E+02  0.00000000000E+00 0.  1.
        -15    1    1    2    0    0  0.70270356467E+03  0.67807022444E+03  0.19541017206E+04  0.21845102571E+04  0.00000000000E+00 0.  1.
         15    1    3    3    0    0  0.11574238539E+03  0.43644296768E+03  0.37046300139E+02  0.45304656733E+03  0.00000000000E+00 0. -1.
         15    1    1    2    0    0 -0.67892658346E+03 -0.26467659651E+03  0.23757395920E+02  0.72908121655E+03  0.00000000000E+00 0. -1.
        -16    1    3    3    0    0  0.47515625087E+02  0.16337252708E+02  0.49669682773E+03  0.49923178898E+03  0.00000000000E+00 0.  1.
         16    1    1    2    0    0 -0.15032831973E+03 -0.66060224353E+03 -0.27139649483E+03  0.72982873694E+03  0.00000000000E+00 0. -1.
    9900018    1    1    2    0    0 -0.87276614455E+02 -0.24874169408E+03  0.37815408837E+03  0.46989927724E+03  0.91187600000E+02 0.  0.
<mgrwt>
<rscale>  0 0.44366623E+04</rscale>
<asrwt>0</asrwt>
<pdfrwt beam="1">  1        1 0.59448221E+00 0.44366623E+04</pdfrwt>
<pdfrwt beam="2">  1       -1 0.19592380E+00 0.44366623E+04</pdfrwt>
<totfact> 0.15219654E-02</totfact>
</mgrwt>
</event>
<event>
11    1  0.1282362E-013  0.3761236E+04  0.7818608E-02  0.8054525E-01
         -1   -1    0    0    0  501 -0.00000000000E+00  0.00000000000E+00  0.23849555442E+04  0.23849555442E+04  0.00000000000E+00 0.  1.
          1   -1    0    0  501    0  0.00000000000E+00 -0.00000000000E+00 -0.14829309991E+04  0.14829309991E+04  0.00000000000E+00 0. -1.
    9900016    2    1    2    0    0  0.44450378806E+03  0.24303502075E+02 -0.15538565620E+03  0.81039428147E+03  0.65910538723E+03 0.  0.
         23    2    3    3    0    0  0.26576105499E+03 -0.53288496937E+02 -0.40555128984E+03  0.49329441205E+03  0.73477384376E+02 0.  0.
        -15    1    4    4    0    0  0.18648714681E+03 -0.54081976859E+02 -0.23227932794E+03  0.30274742333E+03  0.00000000000E+00 0.  1.
        -15    1    1    2    0    0  0.10285025351E+04 -0.15029122363E+02  0.98172615887E+03  0.14219105423E+04  0.00000000000E+00 0.  1.
         15    1    4    4    0    0  0.79273908177E+02  0.79347992260E+00 -0.17327196190E+03  0.19054698872E+03  0.00000000000E+00 0. -1.
         15    1    1    2    0    0 -0.87938366588E+03  0.10947992396E+03 -0.15034550643E+03  0.89883550045E+03  0.00000000000E+00 0. -1.
        -16    1    3    3    0    0  0.17874273307E+03  0.77591999012E+02  0.25016563364E+03  0.31709986942E+03  0.00000000000E+00 0.  1.
         16    1    1    2    0    0 -0.47273883792E+03 -0.20287724897E+03  0.22993967719E+03  0.56348331135E+03  0.00000000000E+00 0. -1.
    9900018    1    1    2    0    0 -0.12088381938E+03  0.84122945294E+02 -0.39101283469E+01  0.17326290778E+03  0.91187600000E+02 0.  0.
<mgrwt>
<rscale>  0 0.37612362E+04</rscale>
<asrwt>0</asrwt>
<pdfrwt beam="1">  1        1 0.22814323E+00 0.37612362E+04</pdfrwt>
<pdfrwt beam="2">  1       -1 0.36691624E+00 0.37612362E+04</pdfrwt>
<totfact> 0.64271448E-02</totfact>
</mgrwt>
</event>
