<event>
12    1  0.1988021E-010  0.9617343E+03  0.7818608E-02  0.9949719E-01
          2   -1    0    0  501    0  0.00000000000E+00  0.00000000000E+00  0.72270930053E+03  0.72270930053E+03  0.00000000000E+00 0. -1.
         -2   -1    0    0    0  501 -0.00000000000E+00 -0.00000000000E+00 -0.41014729257E+03  0.41014729257E+03  0.00000000000E+00 0.  1.
         23    2    1    2    0    0 -0.47403370087E+02  0.45615132719E+02  0.23343135645E+02  0.12857558545E+03  0.10797666120E+03 0.  0.
    9900016    2    1    2    0    0  0.10993603769E+03 -0.18077454163E+03  0.38216278840E+03  0.82873337344E+03  0.70426219559E+03 0.  0.
         23    2    4    4    0    0 -0.23209692356E+03 -0.17036865214E+03  0.25294789868E+03  0.39351720395E+03  0.89323517635E+02 0.  0.
        -15    1    5    5    0    0 -0.33964198988E+02 -0.72984345380E+02  0.61648199736E+02  0.10139419122E+03  0.00000000000E+00 0.  1.
        -15    1    3    3    0    0  0.21756362955E+02  0.20821562069E+02  0.43023501339E+02  0.52515697115E+02  0.00000000000E+00 0.  1.
         15    1    5    5    0    0 -0.19813272458E+03 -0.97384306759E+02  0.19129969894E+03  0.29212301273E+03  0.00000000000E+00 0. -1.
         15    1    3    3    0    0 -0.69159733043E+02  0.24793570650E+02 -0.19680365694E+02  0.76059888338E+02  0.00000000000E+00 0. -1.
        -16    1    1    2    0    0 -0.62532667606E+02  0.13515940892E+03 -0.92943916089E+02  0.17554763420E+03  0.00000000000E+00 0.  1.
         16    1    4    4    0    0  0.22222571518E+03  0.75279767558E+02  0.11527754700E+03  0.26141963341E+03  0.00000000000E+00 0. -1.
    9900018    1    4    4    0    0  0.11980724608E+03 -0.85685657053E+02  0.13937342728E+02  0.17379653608E+03  0.91187600000E+02 0.  0.
<mgrwt>
<rscale>  0 0.57911050E+03</rscale>
<asrwt>0</asrwt>
<pdfrwt beam="1">  1        2 0.11118605E+00 0.96173426E+03</pdfrwt>
<pdfrwt beam="2">  1       -2 0.63099583E-01 0.96173426E+03</pdfrwt>
<totfact> 0.91530045E+01</totfact>
</mgrwt>
</event>
<event>
12    1  0.1988021E-010  0.1847622E+04  0.7818608E-02  0.9341618E-01
         -2   -1    0    0    0  501 -0.00000000000E+00  0.00000000000E+00  0.87871911756E+03  0.87871911756E+03  0.00000000000E+00 0.  1.
          2   -1    0    0  501    0  0.00000000000E+00 -0.00000000000E+00 -0.11419871167E+04  0.11419871167E+04  0.00000000000E+00 0. -1.
         23    2    1    2    0    0  0.48946717826E+02  0.74579472343E+02 -0.85504134420E+02  0.16455233789E+03  0.10866754816E+03 0.  0.
    9900016    2    1    2    0    0 -0.11908325473E+03  0.31533410824E+03 -0.79906876588E+03  0.11192878880E+04  0.70758608117E+03 0.  0.
         23    2    4    4    0    0  0.10668255184E+03  0.84205965622E+02 -0.31174800930E+02  0.16652609686E+03  0.91034395759E+02 0.  0.
        -15    1    5    5    0    0  0.49535040334E+02 -0.12241241857E+02 -0.15509558919E+02  0.53330241336E+02  0.00000000000E+00 0.  1.
        -15    1    3    3    0    0  0.49838603421E+02  0.25493741585E+02  0.10282838905E+02  0.56917080274E+02  0.00000000000E+00 0. -1.
         15    1    3    3    0    0 -0.89188559562E+00  0.49085730758E+02 -0.95786973325E+02  0.10763525762E+03  0.00000000000E+00 0.  1.
         15    1    5    5    0    0  0.57147511503E+02  0.96447207480E+02 -0.15665242010E+02  0.11319585553E+03  0.00000000000E+00 0. -1.
        -16    1    1    2    0    0  0.70136536904E+02 -0.38991358059E+03  0.62130490114E+03  0.73686600838E+03  0.00000000000E+00 0.  1.
         16    1    4    4    0    0  0.47537220041E+02 -0.74323020472E+02 -0.34774589807E+03  0.35876302525E+03  0.00000000000E+00 0. -1.
    9900018    1    4    4    0    0 -0.27330302661E+03  0.30545116309E+03 -0.42014806688E+03  0.59399876589E+03  0.91187600000E+02 0.  0.
<mgrwt>
<rscale>  0 0.97040074E+03</rscale>
<asrwt>0</asrwt>
<pdfrwt beam="1">  1        2 0.17569032E+00 0.18476221E+04</pdfrwt>
<pdfrwt beam="2">  1       -2 0.13518756E+00 0.18476221E+04</pdfrwt>
<totfact> 0.75538457E+00</totfact>
</mgrwt>
</event>
<event>
12    1  0.1988021E-010  0.1377555E+04  0.7818608E-02  0.9531231E-01
          1   -1    0    0  501    0  0.00000000000E+00  0.00000000000E+00  0.96589586986E+03  0.96589586986E+03  0.00000000000E+00 0. -1.
         -1   -1    0    0    0  501 -0.00000000000E+00 -0.00000000000E+00 -0.68596751494E+03  0.68596751494E+03  0.00000000000E+00 0.  1.
         23    2    1    2    0    0  0.13697481248E+03 -0.18686951412E+02 -0.12785915497E+03  0.21521870066E+03  0.10421048027E+03 0.  0.
    9900016    2    1    2    0    0  0.32436964649E+02  0.23597225485E+03 -0.19548038721E+03  0.77343626366E+03  0.70940539216E+03 0.  0.
         23    2    4    4    0    0  0.35469690558E+02 -0.20244925788E+03 -0.19872678813E+03  0.30028962908E+03  0.91857084926E+02 0.  0.
        -15    1    5    5    0    0  0.18846651857E+02 -0.15929750602E+03 -0.94279058519E+02  0.18606298016E+03  0.00000000000E+00 0.  1.
        -15    1    3    3    0    0  0.56803376214E+01  0.26972827445E+02 -0.46770431052E+02  0.54288791446E+02  0.00000000000E+00 0.  1.
         15    1    5    5    0    0  0.16623038701E+02 -0.43151751861E+02 -0.10444772961E+03  0.11422664892E+03  0.00000000000E+00 0. -1.
         15    1    3    3    0    0  0.13129447486E+03 -0.45659778857E+02 -0.81088723923E+02  0.16092990922E+03  0.00000000000E+00 0. -1.
        -16    1    4    4    0    0  0.54962945383E+02  0.23296320903E+03 -0.17972252291E+02  0.24003288104E+03  0.00000000000E+00 0.  1.
         16    1    1    2    0    0 -0.16941177713E+03 -0.21728530344E+03  0.60326789710E+03  0.66320842048E+03  0.00000000000E+00 0. -1.
    9900018    1    4    4    0    0 -0.57995671292E+02  0.20545830370E+03  0.21218653208E+02  0.23311375353E+03  0.91187600000E+02 0.  0.
<mgrwt>
<rscale>  0 0.82019960E+03</rscale>
<asrwt>0</asrwt>
<pdfrwt beam="1">  1        1 0.14859936E+00 0.13775548E+04</pdfrwt>
<pdfrwt beam="2">  1       -1 0.10553346E+00 0.13775548E+04</pdfrwt>
<totfact> 0.13173273E+01</totfact>
</mgrwt>
</event>
<event>
11    1  0.1988021E-010  0.1731440E+04  0.7818608E-02  0.9547635E-01
         -2   -1    0    0    0  501 -0.00000000000E+00  0.00000000000E+00  0.14120544182E+04  0.14120544182E+04  0.00000000000E+00 0.  1.
          2   -1    0    0  501    0  0.00000000000E+00 -0.00000000000E+00 -0.58304795412E+03  0.58304795412E+03  0.00000000000E+00 0. -1.
    9900016    2    1    2    0    0  0.53425173802E+02 -0.79435209980E+01 -0.31511888070E+03  0.78311443880E+03  0.71487828794E+03 0.  0.
         23    2    3    3    0    0  0.15053460546E+03 -0.26531137937E+03 -0.21121886462E+03  0.38233313466E+03  0.92273623664E+02 0.  0.
        -15    1    4    4    0    0  0.15523208006E+03 -0.21783424639E+03 -0.19809538118E+03  0.33285212577E+03  0.00000000000E+00 0.  1.
        -15    1    1    2    0    0  0.41004172066E+02  0.15271751740E+02  0.17612143888E+02  0.47167320682E+02  0.00000000000E+00 0.  1.
         15    1    1    2    0    0  0.26335228976E+02 -0.27648569350E+02  0.72350810695E+01  0.38863016744E+02  0.00000000000E+00 0. -1.
         15    1    4    4    0    0 -0.46974746031E+01 -0.47477132982E+02 -0.13123483437E+02  0.49481008896E+02  0.00000000000E+00 0. -1.
        -16    1    1    2    0    0 -0.12076457484E+03  0.20320338608E+02  0.11192781199E+04  0.11259575961E+04  0.00000000000E+00 0.  1.
         16    1    3    3    0    0  0.47174235783E+02  0.79370574410E+02  0.54944179353E+02  0.10744281944E+03  0.00000000000E+00 0. -1.
    9900018    1    3    3    0    0 -0.14428366744E+03  0.17799728397E+03 -0.15884419543E+03  0.29333848470E+03  0.91187600000E+02 0.  0.
<mgrwt>
<rscale>  0 0.80861159E+03</rscale>
<asrwt>0</asrwt>
<pdfrwt beam="1">  1        2 0.89699686E-01 0.17314398E+04</pdfrwt>
<pdfrwt beam="2">  1       -2 0.21723914E+00 0.17314398E+04</pdfrwt>
<totfact> 0.50004095E+00</totfact>
</mgrwt>
</event>
