<event>
12    1  0.5485733E-013  0.1409269E+04  0.7818608E-02  0.8947136E-01
         -1   -1    0    0    0  501 -0.00000000000E+00  0.00000000000E+00  0.48625297336E+03  0.48625297336E+03  0.00000000000E+00 0.  1.
          1   -1    0    0  501    0  0.00000000000E+00 -0.00000000000E+00 -0.10210933841E+04  0.10210933841E+04  0.00000000000E+00 0. -1.
    9900016    2    1    2    0    0  0.28601902359E+03 -0.22497279062E+03 -0.71494094842E+03  0.11013219222E+04  0.75455270076E+03 0.  0.
         25    2    3    3    0    0  0.97745738770E+02  0.68437032753E+02 -0.62617333119E+03  0.64958117079E+03  0.12499919937E+03 0.  0.
         23    2    4    4    0    0  0.86586075334E+02  0.68392002654E+02 -0.51010938266E+03  0.52969856116E+03  0.90522753756E+02 0.  0.
        -15    1    5    5    0    0  0.71155162291E+02  0.90533335739E+02 -0.39316212569E+03  0.40967767706E+03  0.00000000000E+00 0. -1.
        -15    1    4    4    0    0 -0.59096953364E+01  0.85701526266E+01 -0.30862365550E+02  0.32570809360E+02  0.00000000000E+00 0. -1.
         15    1    5    5    0    0  0.15430913043E+02 -0.22141333086E+02 -0.11694725697E+03  0.12002088410E+03  0.00000000000E+00 0.  1.
         15    1    4    4    0    0  0.17069358772E+02 -0.85251225271E+01 -0.85201582983E+02  0.87311800266E+02  0.00000000000E+00 0.  1.
        -16    1    1    2    0    0 -0.28601902359E+03  0.22497279062E+03  0.18010053766E+03  0.40602443528E+03  0.00000000000E+00 0.  1.
         16    1    3    3    0    0  0.14144156051E+03 -0.29320607451E+03 -0.15817560113E+02  0.32592286262E+03  0.00000000000E+00 0. -1.
    9900018    1    3    3    0    0  0.46831724310E+02 -0.20374886972E+00 -0.72950057109E+02  0.12581788880E+03  0.91187600000E+02 0.  0.
<mgrwt>
<rscale>  0 0.14092689E+04</rscale>
<asrwt>0</asrwt>
<pdfrwt beam="1">  1        1 0.15709129E+00 0.14092689E+04</pdfrwt>
<pdfrwt beam="2">  1       -1 0.74808150E-01 0.14092689E+04</pdfrwt>
<totfact> 0.25521077E+01</totfact>
</mgrwt>
</event>
<event>
12    1  0.5485733E-013  0.1258870E+04  0.7818608E-02  0.9062833E-01
         -2   -1    0    0    0  501 -0.00000000000E+00  0.00000000000E+00  0.28096535428E+03  0.28096535428E+03  0.00000000000E+00 0. -1.
          2   -1    0    0  501    0  0.00000000000E+00 -0.00000000000E+00 -0.14100979644E+04  0.14100979644E+04  0.00000000000E+00 0.  1.
    9900016    2    1    2    0    0  0.25884411009E+03 -0.47031341752E+02 -0.36266951290E+03  0.88070666890E+03  0.75822347670E+03 0.  0.
         25    2    3    3    0    0 -0.10794320678E+03  0.85617832083E+02 -0.31933962164E+03  0.36957385628E+03  0.12499956896E+03 0.  0.
         23    2    4    4    0    0 -0.90489359382E+02  0.56262221833E+02 -0.23739261774E+03  0.27563692697E+03  0.90921387958E+02 0.  0.
        -15    1    5    5    0    0  0.43636515862E+01  0.44139693764E+02 -0.70590483985E+02  0.83368881784E+02  0.00000000000E+00 0. -1.
        -15    1    4    4    0    0 -0.24836541064E+02  0.16366676175E+02 -0.64077607343E+02  0.70644614967E+02  0.00000000000E+00 0.  1.
         15    1    5    5    0    0 -0.94853010968E+02  0.12122528069E+02 -0.16680213375E+03  0.19226804519E+03  0.00000000000E+00 0.  1.
         15    1    4    4    0    0  0.73826936632E+01  0.12988934075E+02 -0.17869396554E+02  0.23292314341E+02  0.00000000000E+00 0. -1.
        -16    1    1    2    0    0 -0.25884411009E+03  0.47031341752E+02 -0.76646309725E+03  0.81035664980E+03  0.00000000000E+00 0.  1.
         16    1    3    3    0    0  0.38739264833E+03 -0.11905049375E+03  0.43841459347E+01  0.40529656399E+03  0.00000000000E+00 0. -1.
    9900018    1    3    3    0    0 -0.20605331453E+02 -0.13598680081E+02 -0.47714037201E+02  0.10583624863E+03  0.91187600000E+02 0.  0.
<mgrwt>
<rscale>  0 0.12588704E+04</rscale>
<asrwt>0</asrwt>
<pdfrwt beam="1">  1        2 0.21693815E+00 0.12588704E+04</pdfrwt>
<pdfrwt beam="2">  1       -2 0.43225439E-01 0.12588704E+04</pdfrwt>
<totfact> 0.71191835E+01</totfact>
</mgrwt>
</event>
<event>
12    1  0.5485733E-013  0.1037403E+04  0.7818608E-02  0.9268448E-01
          2   -1    0    0  501    0  0.00000000000E+00  0.00000000000E+00  0.32258344526E+04  0.32258344526E+04  0.00000000000E+00 0. -1.
         -2   -1    0    0    0  501 -0.00000000000E+00 -0.00000000000E+00 -0.83405096299E+02  0.83405096299E+02  0.00000000000E+00 0.  1.
    9900016    2    1    2    0    0 -0.39638295785E+02 -0.10827579863E+03  0.14243855196E+04  0.15722035151E+04  0.65548069502E+03 0.  0.
         25    2    3    3    0    0  0.10458805467E+03 -0.72458710088E+02  0.43827006501E+02  0.18366978776E+03  0.12499943437E+03 0.  0.
         23    2    4    4    0    0  0.66324614573E+02 -0.55565889411E+02  0.35157476184E+02  0.13018768979E+03  0.90698753454E+02 0.  0.
        -15    1    5    5    0    0  0.88302285776E+02 -0.44521424785E+02  0.18837632898E+02  0.10066929696E+03  0.00000000000E+00 0.  1.
        -15    1    4    4    0    0  0.25355492367E+02  0.43793186376E+01  0.11975753631E+02  0.28381298419E+02  0.00000000000E+00 0. -1.
         15    1    5    5    0    0 -0.21977671203E+02 -0.11044464627E+02  0.16319843286E+02  0.29518392830E+02  0.00000000000E+00 0. -1.
         15    1    4    4    0    0  0.12907947726E+02 -0.21272139315E+02 -0.33062233136E+01  0.25100799552E+02  0.00000000000E+00 0.  1.
        -16    1    1    2    0    0 -0.52371182326E+01  0.10409256135E+03  0.13822620410E+04  0.13861857879E+04  0.00000000000E+00 0.  1.
         16    1    3    3    0    0 -0.14422635045E+03 -0.35817088538E+02  0.13805585131E+04  0.13885337274E+04  0.00000000000E+00 0. -1.
    9900018    1    1    2    0    0  0.44875414018E+02  0.41832372749E+01  0.33578179572E+03  0.35085024581E+03  0.91187600000E+02 0.  0.
<mgrwt>
<rscale>  0 0.10374026E+04</rscale>
<asrwt>0</asrwt>
<pdfrwt beam="1">  1        2 0.49628213E+00 0.10374026E+04</pdfrwt>
<pdfrwt beam="2">  1       -2 0.12831556E-01 0.10374026E+04</pdfrwt>
<totfact> 0.58342588E+01</totfact>
</mgrwt>
</event>
<event>
12    1  0.5485733E-013  0.1178533E+04  0.7818608E-02  0.9131857E-01
          2   -1    0    0  501    0  0.00000000000E+00  0.00000000000E+00  0.20914132278E+04  0.20914132278E+04  0.00000000000E+00 0.  1.
         -2   -1    0    0    0  501 -0.00000000000E+00 -0.00000000000E+00 -0.16602896217E+03  0.16602896217E+03  0.00000000000E+00 0. -1.
    9900016    2    1    2    0    0 -0.27293605785E+03  0.19182147057E+03  0.12218218676E+04  0.14787961753E+04  0.76334781306E+03 0.  0.
         25    2    3    3    0    0  0.17578285810E+03 -0.58737483678E+02  0.44582881560E+03  0.49873623026E+03  0.12499915745E+03 0.  0.
         23    2    4    4    0    0  0.14312457655E+03 -0.50558526711E+02  0.34290295162E+03  0.38600642270E+03  0.91529859071E+02 0.  0.
        -15    1    5    5    0    0  0.56024895504E+02 -0.58469138829E+02  0.10542284875E+03  0.13293384125E+03  0.00000000000E+00 0.  1.
        -15    1    4    4    0    0  0.22158782435E+02 -0.55066567125E+01  0.98355577839E+02  0.10097105823E+03  0.00000000000E+00 0.  1.
         15    1    5    5    0    0  0.87099681043E+02  0.79106121174E+01  0.23748010287E+03  0.25307258145E+03  0.00000000000E+00 0. -1.
         15    1    4    4    0    0  0.10499499119E+02 -0.26723002542E+01  0.45702861377E+01  0.11758749329E+02  0.00000000000E+00 0. -1.
        -16    1    3    3    0    0 -0.44363506861E+03  0.21533712606E+03  0.69939723704E+03  0.85576786989E+03  0.00000000000E+00 0.  1.
         16    1    1    2    0    0  0.27293605785E+03 -0.19182147057E+03  0.70356239803E+03  0.77864601468E+03  0.00000000000E+00 0. -1.
    9900018    1    3    3    0    0 -0.50838473381E+01  0.35221828192E+02  0.76595815003E+02  0.12429207519E+03  0.91187600000E+02 0.  0.
<mgrwt>
<rscale>  0 0.11785333E+04</rscale>
<asrwt>0</asrwt>
<pdfrwt beam="1">  1        2 0.32175586E+00 0.11785333E+04</pdfrwt>
<pdfrwt beam="2">  1       -2 0.25542919E-01 0.11785333E+04</pdfrwt>
<totfact> 0.81172358E+01</totfact>
</mgrwt>
</event>
<event>
12    1  0.5485733E-013  0.8424631E+03  0.7818608E-02  0.9500509E-01
         -2   -1    0    0    0  501 -0.00000000000E+00  0.00000000000E+00  0.22271509613E+04  0.22271509613E+04  0.00000000000E+00 0.  1.
          2   -1    0    0  501    0  0.00000000000E+00 -0.00000000000E+00 -0.79669504420E+02  0.79669504420E+02  0.00000000000E+00 0. -1.
    9900016    2    1    2    0    0 -0.44343804813E+02  0.25581254867E+02  0.18292693372E+04  0.19476136450E+04  0.66659720128E+03 0.  0.
         25    2    3    3    0    0  0.25662376256E+03  0.15688065603E+03  0.11126798300E+04  0.11593741312E+04  0.12499870510E+03 0.  0.
         23    2    4    4    0    0  0.20269585347E+03  0.99651031996E+02  0.87600663162E+03  0.90921127010E+03  0.90893222135E+02 0.  0.
        -15    1    5    5    0    0  0.16408341861E+03  0.88109667668E+02  0.81560665833E+03  0.83660080260E+03  0.00000000000E+00 0. -1.
        -15    1    4    4    0    0  0.38177102949E+02  0.29045420647E+02  0.12401316568E+03  0.13296763859E+03  0.00000000000E+00 0. -1.
         15    1    4    4    0    0  0.15750806144E+02  0.28184203386E+02  0.11266003272E+03  0.11719522254E+03  0.00000000000E+00 0.  1.
         15    1    5    5    0    0  0.38612434857E+02  0.11541364327E+02  0.60399973297E+02  0.72610467499E+02  0.00000000000E+00 0.  1.
        -16    1    3    3    0    0 -0.30096756738E+03 -0.13129940116E+03  0.71658950715E+03  0.78823951380E+03  0.00000000000E+00 0.  1.
         16    1    1    2    0    0  0.30186450453E+02 -0.60401754089E+02  0.11598259042E+03  0.13420713457E+03  0.00000000000E+00 0. -1.
    9900018    1    1    2    0    0  0.14157354360E+02  0.34820499222E+02  0.20222952932E+03  0.22499968616E+03  0.91187600000E+02 0.  0.
<mgrwt>
<rscale>  0 0.84246309E+03</rscale>
<asrwt>0</asrwt>
<pdfrwt beam="1">  1        2 0.12256849E-01 0.84246309E+03</pdfrwt>
<pdfrwt beam="2">  1       -2 0.34263856E+00 0.84246309E+03</pdfrwt>
<totfact> 0.92672117E+00</totfact>
</mgrwt>
</event>
<event>
12    1  0.5485733E-013  0.1311648E+04  0.7818608E-02  0.9020379E-01
          2   -1    0    0  501    0  0.00000000000E+00  0.00000000000E+00  0.11572415036E+04  0.11572415036E+04  0.00000000000E+00 0. -1.
         -2   -1    0    0    0  501 -0.00000000000E+00 -0.00000000000E+00 -0.37166406812E+03  0.37166406812E+03  0.00000000000E+00 0.  1.
    9900016    2    1    2    0    0 -0.85824668420E+02 -0.24684735042E+03  0.65078393530E+03  0.96382429356E+03  0.66116416290E+03 0.  0.
         25    2    3    3    0    0  0.25256588155E+03  0.14616872616E+02  0.23242199194E+03  0.36557817374E+03  0.12499696510E+03 0.  0.
         23    2    4    4    0    0  0.14569993010E+03  0.55359634339E+01  0.14870294594E+03  0.22645267304E+03  0.88933292273E+02 0.  0.
        -15    1    5    5    0    0  0.66232008755E+02 -0.51506255416E+01  0.12709380261E+03  0.14340865591E+03  0.00000000000E+00 0.  1.
        -15    1    4    4    0    0  0.91807104666E+02 -0.25764485309E+01  0.65846190510E+02  0.11300842163E+03  0.00000000000E+00 0.  1.
         15    1    5    5    0    0  0.79467921343E+02  0.10686588976E+02  0.21609143333E+02  0.83044017136E+02  0.00000000000E+00 0. -1.
         15    1    4    4    0    0  0.15058846789E+02  0.11657357713E+02  0.17872855491E+02  0.26117079065E+02  0.00000000000E+00 0. -1.
        -16    1    3    3    0    0 -0.33839054997E+03 -0.26146422303E+03  0.41836194335E+03  0.59824611982E+03  0.00000000000E+00 0.  1.
         16    1    1    2    0    0  0.11363494197E+03  0.33127275691E+03 -0.35970935135E+02  0.35206313025E+03  0.00000000000E+00 0. -1.
    9900018    1    1    2    0    0 -0.27810273548E+02 -0.84425406495E+02  0.17076443531E+03  0.21301814791E+03  0.91187600000E+02 0.  0.
<mgrwt>
<rscale>  0 0.13116479E+04</rscale>
<asrwt>0</asrwt>
<pdfrwt beam="1">  1        2 0.17803715E+00 0.13116479E+04</pdfrwt>
<pdfrwt beam="2">  1       -2 0.57179088E-01 0.13116479E+04</pdfrwt>
<totfact> 0.56421357E+01</totfact>
</mgrwt>
</event>
<event>
12    1  0.5485733E-013  0.9425490E+03  0.7818608E-02  0.9373902E-01
         -1   -1    0    0    0  501 -0.00000000000E+00  0.00000000000E+00  0.13279828312E+04  0.13279828312E+04  0.00000000000E+00 0.  1.
          1   -1    0    0  501    0  0.00000000000E+00 -0.00000000000E+00 -0.16724586638E+03  0.16724586638E+03  0.00000000000E+00 0. -1.
    9900016    2    1    2    0    0 -0.23658680829E+02 -0.79527793540E+02  0.73541142706E+03  0.10618856277E+04  0.76150293250E+03 0.  0.
         25    2    3    3    0    0 -0.15538035141E+03 -0.23182488487E+03  0.11059731727E+03  0.32518272919E+03  0.12500483961E+03 0.  0.
         23    2    4    4    0    0 -0.86581269345E+02 -0.11815501949E+03  0.54671085654E+02  0.17813956710E+03  0.85368922479E+02 0.  0.
        -15    1    5    5    0    0 -0.94869699700E+02 -0.63418936999E+02  0.39168099872E+02  0.12064974736E+03  0.00000000000E+00 0. -1.
        -15    1    4    4    0    0 -0.39860787841E+02 -0.76705225721E+02  0.22229036855E+02  0.89256395511E+02  0.00000000000E+00 0. -1.
         15    1    5    5    0    0  0.82884303547E+01 -0.54736082496E+02  0.15502985781E+02  0.57489819732E+02  0.00000000000E+00 0.  1.
         15    1    4    4    0    0 -0.28938294220E+02 -0.36964639657E+02  0.33697194761E+02  0.57786766582E+02  0.00000000000E+00 0.  1.
        -16    1    1    2    0    0  0.23658680829E+02  0.79527793540E+02  0.42532553779E+03  0.43334306989E+03  0.00000000000E+00 0.  1.
         16    1    3    3    0    0  0.15863573388E+03  0.20662122175E+03  0.53511661371E+03  0.59515327068E+03  0.00000000000E+00 0. -1.
    9900018    1    3    3    0    0 -0.26914063308E+02 -0.54324130416E+02  0.89697496089E+02  0.14154962786E+03  0.91187600000E+02 0.  0.
<mgrwt>
<rscale>  0 0.94254897E+03</rscale>
<asrwt>0</asrwt>
<pdfrwt beam="1">  1        1 0.25730134E-01 0.94254897E+03</pdfrwt>
<pdfrwt beam="2">  1       -1 0.20430504E+00 0.94254897E+03</pdfrwt>
<totfact> 0.26678007E+01</totfact>
</mgrwt>
</event>
<event>
12    1  0.5485733E-013  0.1214487E+04  0.7818608E-02  0.9100270E-01
          2   -1    0    0  501    0  0.00000000000E+00  0.00000000000E+00  0.52823692722E+03  0.52823692722E+03  0.00000000000E+00 0. -1.
         -2   -1    0    0    0  501 -0.00000000000E+00 -0.00000000000E+00 -0.69806662902E+03  0.69806662902E+03  0.00000000000E+00 0.  1.
    9900016    2    1    2    0    0  0.70036390726E+02 -0.77686157455E+02  0.24670581826E+03  0.70857758173E+03  0.65595593867E+03 0.  0.
         25    2    3    3    0    0  0.19622466933E+03  0.57341402442E+02 -0.14174568206E+03  0.27840262698E+03  0.12499610809E+03 0.  0.
         23    2    4    4    0    0  0.11186980346E+03  0.22725023608E+02 -0.69196643688E+02  0.16046381678E+03  0.89045950913E+02 0.  0.
        -15    1    5    5    0    0  0.11184021484E+03 -0.97671833377E+01 -0.54749145971E+02  0.12490436546E+03  0.00000000000E+00 0.  1.
        -15    1    4    4    0    0  0.11069700729E+02  0.63706370215E+01 -0.18951143311E+02  0.22853208158E+02  0.00000000000E+00 0.  1.
         15    1    5    5    0    0  0.29588612012E-01  0.32492206945E+02 -0.14447497718E+02  0.35559451317E+02  0.00000000000E+00 0. -1.
         15    1    4    4    0    0  0.73285165147E+02  0.28245741813E+02 -0.53597895062E+02  0.95085602045E+02  0.00000000000E+00 0. -1.
        -16    1    1    2    0    0 -0.58353860530E+02  0.11347350705E+03 -0.39720525603E+03  0.41719710600E+03  0.00000000000E+00 0.  1.
         16    1    3    3    0    0 -0.12618827861E+03 -0.13502755990E+03  0.38845150032E+03  0.43017495475E+03  0.00000000000E+00 0. -1.
    9900018    1    1    2    0    0 -0.11682530195E+02 -0.35787349598E+02 -0.19330264039E+02  0.10052886851E+03  0.91187600000E+02 0.  0.
<mgrwt>
<rscale>  0 0.12144868E+04</rscale>
<asrwt>0</asrwt>
<pdfrwt beam="1">  1        2 0.81267219E-01 0.12144868E+04</pdfrwt>
<pdfrwt beam="2">  1       -2 0.10739487E+00 0.12144868E+04</pdfrwt>
<totfact> 0.39634466E+01</totfact>
</mgrwt>
</event>
<event>
12    1  0.5485733E-013  0.9786432E+03  0.7818608E-02  0.9332284E-01
         -2   -1    0    0    0  501 -0.00000000000E+00  0.00000000000E+00  0.12278797582E+03  0.12278797582E+03  0.00000000000E+00 0.  1.
          2   -1    0    0  501    0  0.00000000000E+00 -0.00000000000E+00 -0.19499923071E+04  0.19499923071E+04  0.00000000000E+00 0. -1.
    9900016    2    1    2    0    0 -0.90571269812E+02  0.16868932390E+03 -0.15948129441E+04  0.17716739898E+04  0.74748990399E+03 0.  0.
         25    2    3    3    0    0  0.38405717291E+02  0.37809627451E+03 -0.89802769889E+03  0.98311220920E+03  0.12499630382E+03 0.  0.
         23    2    4    4    0    0  0.12284082818E+02  0.26626884925E+03 -0.67352243387E+03  0.72949273365E+03  0.86470692989E+02 0.  0.
        -15    1    5    5    0    0 -0.19496440456E+02  0.58142710323E+02 -0.87928837207E+02  0.10720152222E+03  0.00000000000E+00 0. -1.
        -15    1    4    4    0    0  0.19836007582E+02  0.10172513826E+03 -0.18158248887E+03  0.20907814619E+03  0.00000000000E+00 0.  1.
         15    1    5    5    0    0  0.31780523274E+02  0.20812613893E+03 -0.58559359666E+03  0.62229121143E+03  0.00000000000E+00 0. -1.
         15    1    4    4    0    0  0.62856268904E+01  0.10102286998E+02 -0.42922776155E+02  0.44541329356E+02  0.00000000000E+00 0.  1.
        -16    1    1    2    0    0  0.90571269812E+02 -0.16868932390E+03 -0.23239138714E+03  0.30110629308E+03  0.00000000000E+00 0.  1.
         16    1    3    3    0    0 -0.12816164027E+03 -0.24014537158E+03 -0.53658776055E+03  0.60168233338E+03  0.00000000000E+00 0. -1.
    9900018    1    3    3    0    0 -0.81534682794E+00  0.30738420964E+02 -0.16019748469E+03  0.18687944726E+03  0.91187600000E+02 0.  0.
<mgrwt>
<rscale>  0 0.97864316E+03</rscale>
<asrwt>0</asrwt>
<pdfrwt beam="1">  1        2 0.29999881E+00 0.97864316E+03</pdfrwt>
<pdfrwt beam="2">  1       -2 0.18890458E-01 0.97864316E+03</pdfrwt>
<totfact> 0.16876503E+02</totfact>
</mgrwt>
</event>
<event>
12    1  0.5485733E-013  0.9671422E+03  0.7818608E-02  0.9345335E-01
         -1   -1    0    0    0  501 -0.00000000000E+00  0.00000000000E+00  0.33431377488E+03  0.33431377488E+03  0.00000000000E+00 0.  1.
          1   -1    0    0  501    0  0.00000000000E+00 -0.00000000000E+00 -0.69946567107E+03  0.69946567107E+03  0.00000000000E+00 0. -1.
    9900016    2    1    2    0    0  0.62524824494E+02  0.96936493871E+02 -0.15408559854E+03  0.68881939561E+03  0.66138018611E+03 0.  0.
         25    2    3    3    0    0  0.99572697925E+02  0.13833979791E+03 -0.39154081794E+03  0.44495107103E+03  0.12499848655E+03 0.  0.
         23    2    4    4    0    0  0.48123778737E+02  0.87673250942E+02 -0.23520930163E+03  0.27201737760E+03  0.93099630166E+02 0.  0.
        -15    1    5    5    0    0  0.70849760074E+02  0.41933975127E+02 -0.11522976471E+03  0.14161936820E+03  0.00000000000E+00 0.  1.
        -15    1    4    4    0    0  0.34357017764E+02  0.42369786315E+02 -0.10779914317E+03  0.12081497726E+03  0.00000000000E+00 0.  1.
         15    1    4    4    0    0  0.17091901424E+02  0.82967606518E+01 -0.48532373147E+02  0.52118716167E+02  0.00000000000E+00 0. -1.
         15    1    5    5    0    0 -0.22725981338E+02  0.45739275815E+02 -0.11997953691E+03  0.13039800941E+03  0.00000000000E+00 0. -1.
        -16    1    3    3    0    0 -0.37047873431E+02 -0.41403304038E+02  0.23745521941E+03  0.24386832458E+03  0.00000000000E+00 0.  1.
         16    1    1    2    0    0 -0.56293217901E+02 -0.15467722391E+03 -0.13275542705E+03  0.21146624646E+03  0.00000000000E+00 0. -1.
    9900018    1    1    2    0    0 -0.62316065923E+01  0.57740730039E+02 -0.78310870597E+02  0.13349380388E+03  0.91187600000E+02 0.  0.
<mgrwt>
<rscale>  0 0.96714220E+03</rscale>
<asrwt>0</asrwt>
<pdfrwt beam="1">  1        1 0.10761010E+00 0.96714220E+03</pdfrwt>
<pdfrwt beam="2">  1       -1 0.51432889E-01 0.96714220E+03</pdfrwt>
<totfact> 0.10415980E+02</totfact>
</mgrwt>
</event>
<event>
12    1  0.5485733E-013  0.1064386E+04  0.7818608E-02  0.9240617E-01
          2   -1    0    0  501    0  0.00000000000E+00  0.00000000000E+00  0.12027613590E+04  0.12027613590E+04  0.00000000000E+00 0. -1.
         -2   -1    0    0    0  501 -0.00000000000E+00 -0.00000000000E+00 -0.23548242509E+03  0.23548242509E+03  0.00000000000E+00 0.  1.
    9900016    2    1    2    0    0  0.66772152890E+02 -0.15565951597E+03  0.48521487089E+03  0.84217186145E+03  0.66718181028E+03 0.  0.
         25    2    3    3    0    0 -0.47731407777E+02 -0.39732173542E+03  0.32467274478E+03  0.53026567689E+03  0.12500579252E+03 0.  0.
         23    2    4    4    0    0 -0.26179149905E+02 -0.34715547922E+03  0.25604918815E+03  0.44167062834E+03  0.91156363165E+02 0.  0.
        -15    1    5    5    0    0  0.12455844948E+02 -0.10607345249E+03  0.12552811469E+03  0.16481514789E+03  0.00000000000E+00 0. -1.
        -15    1    4    4    0    0 -0.89281947537E+01 -0.79191883244E+01  0.15220230843E+02  0.19341190040E+02  0.00000000000E+00 0.  1.
         15    1    4    4    0    0 -0.12624063119E+02 -0.42247067873E+02  0.53403325779E+02  0.69253858504E+02  0.00000000000E+00 0. -1.
         15    1    5    5    0    0 -0.38634994853E+02 -0.24108202672E+03  0.13052107346E+03  0.27685548045E+03  0.00000000000E+00 0.  1.
        -16    1    3    3    0    0  0.11450356067E+03  0.24166221944E+03  0.16054212611E+03  0.31190618456E+03  0.00000000000E+00 0.  1.
         16    1    1    2    0    0 -0.98197359816E+02  0.16587437926E+03  0.45685945601E+03  0.49586045791E+03  0.00000000000E+00 0. -1.
    9900018    1    1    2    0    0  0.31425206926E+02 -0.10214863289E+02  0.25204607057E+02  0.10021146478E+03  0.91187600000E+02 0.  0.
<mgrwt>
<rscale>  0 0.10643856E+04</rscale>
<asrwt>0</asrwt>
<pdfrwt beam="1">  1        2 0.18504020E+00 0.10643856E+04</pdfrwt>
<pdfrwt beam="2">  1       -2 0.36228066E-01 0.10643856E+04</pdfrwt>
<totfact> 0.13445430E+02</totfact>
</mgrwt>
</event>
<event>
12    1  0.5485733E-013  0.1092063E+04  0.7818608E-02  0.9212962E-01
          2   -1    0    0  501    0  0.00000000000E+00  0.00000000000E+00  0.15141867206E+04  0.15141867206E+04  0.00000000000E+00 0. -1.
         -2   -1    0    0    0  501 -0.00000000000E+00 -0.00000000000E+00 -0.19690480655E+03  0.19690480655E+03  0.00000000000E+00 0.  1.
    9900016    2    1    2    0    0 -0.41646860933E+02  0.27885465253E+03  0.10635414633E+04  0.13317782073E+04  0.75034550111E+03 0.  0.
         25    2    3    3    0    0  0.10792061050E+03  0.20946600055E+03  0.52833738653E+02  0.27191756297E+03  0.12499957422E+03 0.  0.
         23    2    4    4    0    0  0.55539588783E+02  0.13548432237E+03  0.26326087131E+02  0.17449451700E+03  0.91184571445E+02 0.  0.
        -15    1    5    5    0    0  0.42415018051E+02  0.51436503556E+02  0.53189801956E+02  0.85287177737E+02  0.00000000000E+00 0.  1.
        -15    1    4    4    0    0 -0.26208738638E+00  0.13709543158E+02  0.33695316929E+01  0.14119986092E+02  0.00000000000E+00 0. -1.
         15    1    5    5    0    0  0.13124570733E+02  0.84047818815E+02 -0.26863714825E+02  0.89207339265E+02  0.00000000000E+00 0. -1.
         15    1    4    4    0    0  0.52643109099E+02  0.60272135017E+02  0.23138119828E+02  0.83303059873E+02  0.00000000000E+00 0.  1.
        -16    1    1    2    0    0  0.41646860933E+02 -0.27885465253E+03  0.25374045072E+03  0.37931331982E+03  0.00000000000E+00 0.  1.
         16    1    3    3    0    0 -0.15526334117E+03  0.50197693253E+02  0.90166813397E+03  0.91631432234E+03  0.00000000000E+00 0. -1.
    9900018    1    3    3    0    0  0.56958697418E+01  0.19190958732E+02  0.10903959070E+03  0.14354632201E+03  0.91187600000E+02 0.  0.
<mgrwt>
<rscale>  0 0.10920634E+04</rscale>
<asrwt>0</asrwt>
<pdfrwt beam="1">  1        2 0.23295180E+00 0.10920634E+04</pdfrwt>
<pdfrwt beam="2">  1       -2 0.30293048E-01 0.10920634E+04</pdfrwt>
<totfact> 0.12455704E+02</totfact>
</mgrwt>
</event>
