<event>
13    1  0.7570732E-010  0.7073156E+04  0.7818608E-02  0.7569938E-01
          2   -1    0    0  501    0  0.00000000000E+00  0.00000000000E+00  0.28771674010E+04  0.28771674010E+04  0.00000000000E+00 0. -1.
         -2   -1    0    0    0  501 -0.00000000000E+00 -0.00000000000E+00 -0.43471166473E+04  0.43471166473E+04  0.00000000000E+00 0.  1.
    9900016    2    1    2    0    0 -0.14769761103E+04 -0.78736475242E+03 -0.18389234548E+04  0.33221507126E+04  0.22030987724E+04 0.  0.
        -24    2    3    3    0    0 -0.28447028361E+03  0.61578840399E+03  0.46985453519E+02  0.68632800662E+03  0.93379864438E+02 0.  0.
    9900016    2    1    2    0    0  0.16562016488E+04  0.12914353346E+04  0.87772047212E+03  0.31582604401E+04  0.21893849947E+04 0.  0.
         23    2    5    5    0    0 -0.10647100981E+02  0.14743574768E+03 -0.62056451597E+03  0.64191831008E+03  0.71471238111E+02 0.  0.
        -15    1    6    6    0    0  0.26939248209E+02  0.76499689161E+02 -0.37092344872E+03  0.37968688461E+03  0.00000000000E+00 0. -1.
        -15    1    3    3    0    0 -0.11925058267E+04 -0.14031531564E+04 -0.18859089083E+04  0.26358227060E+04  0.00000000000E+00 0.  1.
         15    1    6    6    0    0 -0.37586349190E+02  0.70936058519E+02 -0.24964106725E+03  0.26223142547E+03  0.00000000000E+00 0.  1.
         15    1    4    4    0    0 -0.20204537295E+03  0.48556647121E+03  0.25384745716E+01  0.52593115000E+03  0.00000000000E+00 0. -1.
        -16    1    4    4    0    0 -0.82424910654E+02  0.13022193278E+03  0.44446978948E+02  0.16039685662E+03  0.00000000000E+00 0.  1.
         16    1    5    5    0    0  0.16668487498E+04  0.11439995870E+04  0.14982849881E+04  0.25163421300E+04  0.00000000000E+00 0. -1.
    9900018    1    1    2    0    0 -0.17922553857E+03 -0.50407058222E+03 -0.50874626368E+03  0.74387289555E+03  0.91187600000E+02 0.  0.
<mgrwt>
<rscale>  0 0.70731555E+04</rscale>
<asrwt>0</asrwt>
<pdfrwt beam="1">  1        2 0.44264114E+00 0.70731555E+04</pdfrwt>
<pdfrwt beam="2">  1       -2 0.66878718E+00 0.70731555E+04</pdfrwt>
<totfact> 0.38543027E-04</totfact>
</mgrwt>
</event>
<event>
13    1  0.7570732E-010  0.6440379E+04  0.7818608E-02  0.7638075E-01
          2   -1    0    0  501    0  0.00000000000E+00  0.00000000000E+00  0.33374889475E+04  0.33374889475E+04  0.00000000000E+00 0.  1.
         -2   -1    0    0    0  501 -0.00000000000E+00 -0.00000000000E+00 -0.31070126979E+04  0.31070126979E+04  0.00000000000E+00 0. -1.
    9900016    2    1    2    0    0  0.43477148736E+03 -0.54390964236E+03 -0.15518287445E+04  0.27794003273E+04  0.21981878404E+04 0.  0.
        -24    2    3    3    0    0 -0.52031227748E+03 -0.77393552398E+03 -0.15329138034E+04  0.17968247938E+04  0.95150141112E+02 0.  0.
    9900016    2    1    2    0    0  0.21068832656E+03 -0.14695891177E+03  0.15014923804E+04  0.26746021344E+04  0.21984155013E+04 0.  0.
         23    2    5    5    0    0  0.21236845614E+03  0.15125145710E+03 -0.54123262821E+03  0.61022384841E+03  0.10706550745E+03 0.  0.
        -15    1    3    3    0    0  0.95508376485E+03  0.23002588162E+03 -0.18914941045E+02  0.98257553353E+03  0.00000000000E+00 0.  1.
        -15    1    6    6    0    0  0.12883158074E+03  0.14766537315E+03 -0.34216220829E+03  0.39430649932E+03  0.00000000000E+00 0. -1.
         15    1    4    4    0    0 -0.15970478575E+03 -0.17364783262E+03 -0.34742512563E+03  0.41995643379E+03  0.00000000000E+00 0. -1.
         15    1    6    6    0    0  0.83536875399E+02  0.35860839555E+01 -0.19907041992E+03  0.21591734909E+03  0.00000000000E+00 0.  1.
        -16    1    4    4    0    0 -0.36060749174E+03 -0.60028769136E+03 -0.11854886778E+04  0.13768683600E+04  0.00000000000E+00 0.  1.
         16    1    5    5    0    0 -0.16801295834E+01 -0.29821036887E+03  0.20427250086E+04  0.20643782860E+04  0.00000000000E+00 0. -1.
    9900018    1    1    2    0    0 -0.64545981392E+03  0.69086855413E+03  0.28081261363E+03  0.99049918366E+03  0.91187600000E+02 0.  0.
<mgrwt>
<rscale>  0 0.64403790E+04</rscale>
<asrwt>0</asrwt>
<pdfrwt beam="1">  1        2 0.51345984E+00 0.64403790E+04</pdfrwt>
<pdfrwt beam="2">  1       -2 0.47800196E+00 0.64403790E+04</pdfrwt>
<totfact> 0.15683972E-03</totfact>
</mgrwt>
</event>
<event>
13    1  0.7570732E-010  0.5211351E+04  0.7818608E-02  0.7796706E-01
         -2   -1    0    0    0  501 -0.00000000000E+00  0.00000000000E+00  0.22097268170E+04  0.22097268170E+04  0.00000000000E+00 0.  1.
          2   -1    0    0  501    0  0.00000000000E+00 -0.00000000000E+00 -0.30725722144E+04  0.30725722144E+04  0.00000000000E+00 0. -1.
    9900016    2    1    2    0    0 -0.10455347523E+04 -0.22860981364E+03 -0.45106485284E+03  0.24827937997E+04  0.21944020109E+04 0.  0.
         24    2    3    3    0    0  0.35138912756E+03 -0.75257481465E+03 -0.53214093041E+03  0.98863551536E+03  0.66204545050E+02 0.  0.
    9900016    2    1    2    0    0  0.58537156678E+03  0.23811707170E+03 -0.24276561405E+03  0.23007850993E+04  0.21989354967E+04 0.  0.
         23    2    5    5    0    0 -0.30397543602E+03 -0.94974876841E+02  0.81341239267E+03  0.88043291781E+03  0.11000504214E+03 0.  0.
        -15    1    6    6    0    0 -0.22724946216E+03 -0.86616087821E+02  0.47866090644E+03  0.53689936494E+03  0.00000000000E+00 0. -1.
        -15    1    4    4    0    0  0.23649770237E+03 -0.44788066312E+03 -0.34831443607E+03  0.61469602081E+03  0.00000000000E+00 0.  1.
         15    1    6    6    0    0 -0.76725973856E+02 -0.83587890202E+01  0.33475148623E+03  0.34353355287E+03  0.00000000000E+00 0.  1.
         15    1    3    3    0    0 -0.13969238799E+04  0.52396500102E+03  0.81076077571E+02  0.14941582844E+04  0.00000000000E+00 0. -1.
        -16    1    5    5    0    0  0.88934700280E+03  0.33309194854E+03 -0.10561780067E+04  0.14203521815E+04  0.00000000000E+00 0.  1.
         16    1    4    4    0    0  0.11489142519E+03 -0.30469415153E+03 -0.18382649435E+03  0.37393949455E+03  0.00000000000E+00 0. -1.
    9900018    1    1    2    0    0  0.46016318551E+03 -0.95072580639E+01 -0.16901493053E+03  0.49872013233E+03  0.91187600000E+02 0.  0.
<mgrwt>
<rscale>  0 0.52113512E+04</rscale>
<asrwt>0</asrwt>
<pdfrwt beam="1">  1        2 0.47270341E+00 0.52113512E+04</pdfrwt>
<pdfrwt beam="2">  1       -2 0.33995797E+00 0.52113512E+04</pdfrwt>
<totfact> 0.20169500E-02</totfact>
</mgrwt>
</event>
<event>
12    1  0.7570732E-010  0.7202669E+04  0.7818608E-02  0.7556888E-01
          2   -1    0    0  501    0  0.00000000000E+00  0.00000000000E+00  0.36392370206E+04  0.36392370206E+04  0.00000000000E+00 0. -1.
         -2   -1    0    0    0  501 -0.00000000000E+00 -0.00000000000E+00 -0.35638263754E+04  0.35638263754E+04  0.00000000000E+00 0.  1.
    9900016    2    1    2    0    0 -0.77920743990E+03  0.25697648903E+03 -0.91595183480E+03  0.25261304622E+04  0.22066187252E+04 0.  0.
        -24    2    3    3    0    0 -0.13481526392E+04  0.62302756013E+03 -0.10709087023E+04  0.18320817196E+04  0.63238431761E+02 0.  0.
    9900016    2    1    2    0    0 -0.10699223310E+04  0.15876336942E+03  0.12521498367E+04  0.27616142231E+04  0.22110391905E+04 0.  0.
        -15    1    3    3    0    0  0.56894519928E+03 -0.36605107111E+03  0.15495686749E+03  0.69404874269E+03  0.00000000000E+00 0.  1.
        -15    1    5    5    0    0  0.30477004975E+03  0.11202629865E+02  0.18087065152E+02  0.30551174129E+03  0.00000000000E+00 0.  1.
         15    1    4    4    0    0 -0.12708009731E+04  0.59901890189E+03 -0.10239983339E+04  0.17384853597E+04  0.00000000000E+00 0. -1.
         15    1    5    5    0    0  0.26231337489E+03 -0.53188722327E+02 -0.14663964436E+03  0.30518933816E+03  0.00000000000E+00 0. -1.
        -16    1    4    4    0    0 -0.77351666037E+02  0.24008658247E+02 -0.46910368405E+02  0.93596359830E+02  0.00000000000E+00 0.  1.
         16    1    5    5    0    0 -0.16370057557E+04  0.20074946188E+03  0.13807024159E+04  0.21509131437E+04  0.00000000000E+00 0. -1.
    9900018    1    1    2    0    0  0.18491297709E+04 -0.41573985844E+03 -0.26078735668E+03  0.19153187107E+04  0.91187600000E+02 0.  0.
<mgrwt>
<rscale>  0 0.72026686E+04</rscale>
<asrwt>0</asrwt>
<pdfrwt beam="1">  1        2 0.55988262E+00 0.72026686E+04</pdfrwt>
<pdfrwt beam="2">  1       -2 0.54828098E+00 0.72026686E+04</pdfrwt>
<totfact> 0.35389464E-04</totfact>
</mgrwt>
</event>
<event>
12    1  0.7570732E-010  0.5295041E+04  0.7818608E-02  0.7784539E-01
          2   -1    0    0  501    0  0.00000000000E+00  0.00000000000E+00  0.43832336277E+04  0.43832336277E+04  0.00000000000E+00 0. -1.
         -2   -1    0    0    0  501 -0.00000000000E+00 -0.00000000000E+00 -0.15991308229E+04  0.15991308229E+04  0.00000000000E+00 0.  1.
    9900016    2    1    2    0    0  0.71555439125E+03  0.66775028457E+02  0.22924264070E+04  0.32627310827E+04  0.22076499486E+04 0.  0.
        -24    2    3    3    0    0  0.93277015295E+03 -0.22336716140E+03  0.26096977149E+04  0.27810400403E+04  0.60897418870E+02 0.  0.
    9900016    2    1    2    0    0 -0.35809822993E+03  0.34644001354E+02  0.62176367562E+03  0.23155311467E+04  0.22012859592E+04 0.  0.
        -15    1    5    5    0    0  0.27729732501E+03 -0.11573411529E+03 -0.26924181863E+03  0.40345922817E+03  0.00000000000E+00 0.  1.
        -15    1    3    3    0    0 -0.21721576170E+03  0.29014218986E+03 -0.31727130796E+03  0.48169104239E+03  0.00000000000E+00 0.  1.
         15    1    4    4    0    0  0.41702590920E+03 -0.12533982366E+03  0.12339391638E+04  0.13085207451E+04  0.00000000000E+00 0. -1.
         15    1    5    5    0    0  0.21788360425E+03  0.57740956971E+02 -0.34209156830E+03  0.40967538883E+03  0.00000000000E+00 0. -1.
        -16    1    4    4    0    0  0.51574424375E+03 -0.98027337746E+02  0.13757585511E+04  0.14725192952E+04  0.00000000000E+00 0.  1.
         16    1    5    5    0    0 -0.85327915918E+03  0.92637159672E+02  0.12330970625E+04  0.15023965297E+04  0.00000000000E+00 0. -1.
    9900018    1    1    2    0    0 -0.35745616133E+03 -0.10141902981E+03 -0.13008727780E+03  0.40410222113E+03  0.91187600000E+02 0.  0.
<mgrwt>
<rscale>  0 0.52950407E+04</rscale>
<asrwt>0</asrwt>
<pdfrwt beam="1">  1        2 0.67434363E+00 0.52950407E+04</pdfrwt>
<pdfrwt beam="2">  1       -2 0.24602013E+00 0.52950407E+04</pdfrwt>
<totfact> 0.76273229E-03</totfact>
</mgrwt>
</event>
<event>
12    1  0.7570732E-010  0.6838414E+04  0.7818608E-02  0.7594333E-01
          1   -1    0    0  501    0  0.00000000000E+00  0.00000000000E+00  0.52107281689E+04  0.52107281689E+04  0.00000000000E+00 0. -1.
         -1   -1    0    0    0  501 -0.00000000000E+00 -0.00000000000E+00 -0.22436357193E+04  0.22436357193E+04  0.00000000000E+00 0.  1.
    9900016    2    1    2    0    0  0.12045008349E+04  0.13037486992E+04  0.25862799607E+04  0.38331969785E+04  0.22031731910E+04 0.  0.
    9900016    2    1    2    0    0 -0.51625065936E+03 -0.12537173187E+04  0.93441436363E+03  0.27317954140E+04  0.21797371682E+04 0.  0.
         23    2    4    4    0    0  0.20386550661E+03  0.43643334528E+03  0.73318068684E+03  0.88364186187E+03  0.10598967323E+03 0.  0.
        -15    1    5    5    0    0  0.65601482270E+02  0.10893465470E+03  0.28117234805E+03  0.30859067189E+03  0.00000000000E+00 0.  1.
        -15    1    3    3    0    0  0.14559529571E+04  0.14159568278E+03  0.74685331665E+03  0.16424488507E+04  0.00000000000E+00 0.  1.
         15    1    5    5    0    0  0.13826402434E+03  0.32749869058E+03  0.45200833879E+03  0.57505118998E+03  0.00000000000E+00 0. -1.
         15    1    3    3    0    0 -0.13656631021E+03  0.56072930943E+03  0.92401647571E+03  0.10894375443E+04  0.00000000000E+00 0. -1.
        -16    1    3    3    0    0 -0.11488581198E+03  0.60142370698E+03  0.91541016832E+03  0.11013105835E+04  0.00000000000E+00 0.  1.
         16    1    4    4    0    0 -0.72011616598E+03 -0.16901506640E+04  0.20123367679E+03  0.18481535521E+04  0.00000000000E+00 0. -1.
    9900018    1    1    2    0    0 -0.68825017552E+03 -0.50031380482E+02 -0.55360187472E+03  0.88937149562E+03  0.91187600000E+02 0.  0.
<mgrwt>
<rscale>  0 0.68384138E+04</rscale>
<asrwt>0</asrwt>
<pdfrwt beam="1">  1        1 0.80165049E+00 0.68384138E+04</pdfrwt>
<pdfrwt beam="2">  1       -1 0.34517473E+00 0.68384138E+04</pdfrwt>
<totfact> 0.45627429E-05</totfact>
</mgrwt>
</event>
<event>
11    1  0.7570732E-010  0.6448046E+04  0.7818608E-02  0.7637203E-01
          1   -1    0    0  501    0  0.00000000000E+00  0.00000000000E+00  0.19095637749E+04  0.19095637749E+04  0.00000000000E+00 0. -1.
         -1   -1    0    0    0  501 -0.00000000000E+00 -0.00000000000E+00 -0.54432977908E+04  0.54432977908E+04  0.00000000000E+00 0.  1.
    9900016    2    1    2    0    0 -0.34883121112E+03  0.11253674879E+04 -0.88621711099E+02  0.25024464717E+04  0.22059576920E+04 0.  0.
    9900016    2    1    2    0    0  0.38394100112E+03 -0.74277652725E+02 -0.16771386924E+04  0.27912724541E+04  0.21966974889E+04 0.  0.
        -15    1    4    4    0    0  0.68277286107E+03  0.62033658667E+03 -0.70333853688E+03  0.11600350676E+04  0.00000000000E+00 0. -1.
        -15    1    3    3    0    0 -0.11483216792E+04  0.11958379396E+04  0.55256320344E+02  0.16588322151E+04  0.00000000000E+00 0.  1.
         15    1    4    4    0    0  0.19742671410E+03  0.17439748321E+03 -0.39620884832E+03  0.47578697027E+03  0.00000000000E+00 0.  1.
         15    1    3    3    0    0  0.18306921703E+03 -0.28570379123E+02 -0.12867538523E+03  0.22558359769E+03  0.00000000000E+00 0. -1.
        -16    1    3    3    0    0  0.61642125109E+03 -0.41900072570E+02 -0.15202646217E+02  0.61803065889E+03  0.00000000000E+00 0.  1.
         16    1    4    4    0    0 -0.49625857405E+03 -0.86901172261E+03 -0.57759130719E+03  0.11554504163E+04  0.00000000000E+00 0. -1.
    9900018    1    1    2    0    0 -0.35109790003E+02 -0.10510898352E+04 -0.17679736123E+04  0.20591426399E+04  0.91187600000E+02 0.  0.
<mgrwt>
<rscale>  0 0.64480460E+04</rscale>
<asrwt>0</asrwt>
<pdfrwt beam="1">  1        1 0.29377905E+00 0.64480460E+04</pdfrwt>
<pdfrwt beam="2">  1       -1 0.83743042E+00 0.64480460E+04</pdfrwt>
<totfact> 0.83804430E-05</totfact>
</mgrwt>
</event>
