<event>
12    1  0.4225164E-014  0.1775564E+04  0.7818608E-02  0.8719403E-01
          2   -1    0    0  501    0  0.00000000000E+00  0.00000000000E+00  0.22626813195E+04  0.22626813195E+04  0.00000000000E+00 0.  1.
         -2   -1    0    0    0  501 -0.00000000000E+00 -0.00000000000E+00 -0.34832889891E+03  0.34832889891E+03  0.00000000000E+00 0. -1.
         23    2    1    2    0    0 -0.35192537372E+03  0.43641841810E+03  0.34794619863E+03  0.66436753684E+03  0.77492983776E+02 0.  0.
    9900016    2    1    2    0    0  0.53933169681E+02 -0.18791022789E+03  0.12279518873E+04  0.14317572469E+04  0.70981965019E+03 0.  0.
         23    2    4    4    0    0 -0.26693751668E+02 -0.84885124926E+02 -0.53728775591E+02  0.12778742611E+03  0.74329026189E+02 0.  0.
        -15    1    5    5    0    0  0.14152371242E+02 -0.71337349476E+02 -0.37187188839E+02  0.81683499287E+02  0.00000000000E+00 0. -1.
        -15    1    3    3    0    0 -0.39659614116E+02  0.26570815539E+02  0.50193108673E+02  0.69269339455E+02  0.00000000000E+00 0.  1.
         15    1    5    5    0    0 -0.40846122910E+02 -0.13547775450E+02 -0.16541586752E+02  0.46103926825E+02  0.00000000000E+00 0.  1.
         15    1    3    3    0    0 -0.31226575960E+03  0.40984760257E+03  0.29775308995E+03  0.59509819738E+03  0.00000000000E+00 0. -1.
        -16    1    4    4    0    0  0.38069543717E+02 -0.60312111128E+02  0.98852365986E+03  0.99109326858E+03  0.00000000000E+00 0.  1.
         16    1    1    2    0    0  0.29799220404E+03 -0.24850819021E+03  0.33845433467E+03  0.51488543475E+03  0.00000000000E+00 0. -1.
    9900018    1    4    4    0    0  0.42557377632E+02 -0.42712991841E+02  0.29315700305E+03  0.31287655216E+03  0.91187600000E+02 0.  0.
<mgrwt>
<rscale>  0 0.17755645E+04</rscale>
<asrwt>0</asrwt>
<pdfrwt beam="1">  1        2 0.34810481E+00 0.17755645E+04</pdfrwt>
<pdfrwt beam="2">  1       -2 0.53589063E-01 0.17755645E+04</pdfrwt>
<totfact> 0.14781206E+01</totfact>
</mgrwt>
</event>
<event>
12    1  0.4225164E-014  0.1159427E+04  0.7818608E-02  0.9504092E-01
          2   -1    0    0  501    0  0.00000000000E+00  0.00000000000E+00  0.59863475371E+03  0.59863475371E+03  0.00000000000E+00 0.  1.
         -2   -1    0    0    0  501 -0.00000000000E+00 -0.00000000000E+00 -0.98910141218E+03  0.98910141218E+03  0.00000000000E+00 0. -1.
         23    2    1    2    0    0 -0.82277565785E+02  0.29994349531E+03 -0.27727890738E+03  0.42279749062E+03  0.71682824935E+02 0.  0.
    9900016    2    1    2    0    0  0.22367242063E+03  0.78213094515E+02  0.72706684549E+00  0.74544910787E+03  0.70678653347E+03 0.  0.
         23    2    4    4    0    0 -0.18456230807E+03  0.70178233574E+02 -0.20172018126E+02  0.20768246050E+03  0.61129894963E+02 0.  0.
        -15    1    3    3    0    0 -0.42250708487E+02  0.12408023573E+03 -0.72033613826E+02  0.14956560028E+03  0.00000000000E+00 0.  1.
        -15    1    5    5    0    0 -0.11972474734E+03  0.38116855722E+02  0.16260466887E+02  0.12669377490E+03  0.00000000000E+00 0.  1.
         15    1    5    5    0    0 -0.64837560729E+02  0.32061377852E+02 -0.36432485013E+02  0.80988685601E+02  0.00000000000E+00 0. -1.
         15    1    3    3    0    0 -0.40026857298E+02  0.17586325958E+03 -0.20524529355E+03  0.27323189034E+03  0.00000000000E+00 0. -1.
        -16    1    1    2    0    0 -0.14139485484E+03 -0.37815658983E+03 -0.11391481794E+03  0.41948956739E+03  0.00000000000E+00 0.  1.
         16    1    4    4    0    0  0.39584684854E+03  0.90886473104E+02 -0.21940851417E+02  0.40673883446E+03  0.00000000000E+00 0. -1.
    9900018    1    4    4    0    0  0.12387880152E+02 -0.82851612163E+02  0.42839936389E+02  0.13102781291E+03  0.91187600000E+02 0.  0.
<mgrwt>
<rscale>  0 0.83982830E+03</rscale>
<asrwt>0</asrwt>
<pdfrwt beam="1">  1        2 0.92097655E-01 0.11594269E+04</pdfrwt>
<pdfrwt beam="2">  1       -2 0.15216945E+00 0.11594269E+04</pdfrwt>
<totfact> 0.14095122E+01</totfact>
</mgrwt>
</event>
<event>
11    1  0.4225164E-014  0.1461060E+04  0.7818608E-02  0.9282478E-01
          2   -1    0    0  501    0  0.00000000000E+00  0.00000000000E+00  0.11535356978E+04  0.11535356978E+04  0.00000000000E+00 0. -1.
         -2   -1    0    0    0  501 -0.00000000000E+00 -0.00000000000E+00 -0.72584317803E+03  0.72584317803E+03  0.00000000000E+00 0.  1.
         23    2    1    2    0    0 -0.12312615804E+03 -0.31106460037E+03  0.18509439920E+03  0.39831480019E+03  0.11168485591E+03 0.  0.
    9900016    2    1    2    0    0 -0.43064709611E+03  0.15210107325E+03 -0.15144412510E+02  0.84990210492E+03  0.71659791854E+03 0.  0.
        -15    1    3    3    0    0 -0.64399440487E+02 -0.18023668533E+03  0.16655229231E+03  0.25371680423E+03  0.00000000000E+00 0. -1.
        -15    1    4    4    0    0 -0.38828341747E+03  0.29937086475E+03  0.12657641275E+03  0.50636796424E+03  0.00000000000E+00 0.  1.
         15    1    3    3    0    0 -0.58726717548E+02 -0.13082791505E+03  0.18542106884E+02  0.14459799596E+03  0.00000000000E+00 0.  1.
         15    1    4    4    0    0 -0.23922027217E+02 -0.93557029963E+01 -0.21672242212E+02  0.33607717078E+02  0.00000000000E+00 0. -1.
        -16    1    4    4    0    0  0.22174433115E+02 -0.30979380411E+02 -0.15492409833E+03  0.15953966196E+03  0.00000000000E+00 0.  1.
         16    1    1    2    0    0  0.55377325414E+03  0.15896352712E+03  0.25774253312E+03  0.63116197076E+03  0.00000000000E+00 0. -1.
    9900018    1    4    4    0    0 -0.40616084534E+02 -0.10693470810E+03  0.34875515283E+02  0.15038676165E+03  0.91187600000E+02 0.  0.
<mgrwt>
<rscale>  0 0.10241212E+04</rscale>
<asrwt>0</asrwt>
<pdfrwt beam="1">  1        2 0.17746703E+00 0.14610602E+04</pdfrwt>
<pdfrwt beam="2">  1       -2 0.11166818E+00 0.14610602E+04</pdfrwt>
<totfact> 0.12293295E+01</totfact>
</mgrwt>
</event>
<event>
12    1  0.4225164E-014  0.1491236E+04  0.7818608E-02  0.8890302E-01
          2   -1    0    0  501    0  0.00000000000E+00  0.00000000000E+00  0.21349150082E+04  0.21349150082E+04  0.00000000000E+00 0. -1.
         -2   -1    0    0    0  501 -0.00000000000E+00 -0.00000000000E+00 -0.26040658863E+03  0.26040658863E+03  0.00000000000E+00 0.  1.
         23    2    1    2    0    0  0.26814453560E+03  0.35435355376E+03  0.72334852702E+03  0.85635992272E+03  0.11247796528E+03 0.  0.
    9900016    2    1    2    0    0 -0.20250842620E+03 -0.88784176240E+02  0.85843578656E+03  0.11383089624E+04  0.71410293492E+03 0.  0.
         23    2    4    4    0    0 -0.12548380920E+03 -0.19880365610E+03  0.45606821886E+02  0.26850671672E+03  0.12143638116E+03 0.  0.
        -15    1    3    3    0    0  0.19017742559E+03  0.29856752239E+03  0.49361715303E+03  0.60742728980E+03  0.00000000000E+00 0.  1.
        -15    1    5    5    0    0 -0.35193029624E+02 -0.12246865955E+02 -0.30051732794E+02  0.47871094658E+02  0.00000000000E+00 0.  1.
         15    1    5    5    0    0 -0.90290779571E+02 -0.18655679014E+03  0.75658554680E+02  0.22063562206E+03  0.00000000000E+00 0. -1.
         15    1    3    3    0    0  0.77967110009E+02  0.55786031371E+02  0.22973137398E+03  0.24893263292E+03  0.00000000000E+00 0. -1.
        -16    1    4    4    0    0 -0.34990918716E+02  0.18246548866E+03  0.49186622561E+03  0.52578551030E+03  0.00000000000E+00 0.  1.
         16    1    1    2    0    0 -0.65636109402E+02 -0.26556937752E+03  0.29272410596E+03  0.40065271164E+03  0.00000000000E+00 0. -1.
    9900018    1    4    4    0    0 -0.42033698287E+02 -0.72446008803E+02  0.32096273906E+03  0.34401673541E+03  0.91187600000E+02 0.  0.
<mgrwt>
<rscale>  0 0.14912356E+04</rscale>
<asrwt>0</asrwt>
<pdfrwt beam="1">  1        2 0.32844845E+00 0.14912356E+04</pdfrwt>
<pdfrwt beam="2">  1       -2 0.40062554E-01 0.14912356E+04</pdfrwt>
<totfact> 0.32048976E+01</totfact>
</mgrwt>
</event>
<event>
10    1  0.4225164E-014  0.1464670E+04  0.7818608E-02  0.9404364E-01
          2   -1    0    0  501    0  0.00000000000E+00  0.00000000000E+00  0.21053084321E+04  0.21053084321E+04  0.00000000000E+00 0.  1.
         -2   -1    0    0    0  501 -0.00000000000E+00 -0.00000000000E+00 -0.34614898970E+03  0.34614898970E+03  0.00000000000E+00 0. -1.
    9900016    2    1    2    0    0 -0.24627281385E+03 -0.28768215527E+03  0.35520227901E+03  0.87340085431E+03  0.70231693130E+03 0.  0.
        -15    1    1    2    0    0 -0.73801014032E+01  0.61217800673E+02 -0.29731938150E+02  0.68454898744E+02  0.00000000000E+00 0.  1.
        -15    1    3    3    0    0 -0.48893681088E+02  0.14533684714E+02  0.19812914317E+03  0.20458977837E+03  0.00000000000E+00 0.  1.
         15    1    1    2    0    0 -0.51872776309E+02  0.94016974214E+02  0.15706110935E+03  0.19025816259E+03  0.00000000000E+00 0. -1.
         15    1    3    3    0    0 -0.11306933574E+03  0.27301081161E+02  0.55975311963E+02  0.12908624739E+03  0.00000000000E+00 0. -1.
        -16    1    1    2    0    0  0.30552569157E+03  0.13244738038E+03  0.12766279922E+04  0.13193435062E+04  0.00000000000E+00 0.  1.
         16    1    3    3    0    0 -0.18193385316E+03 -0.21515073524E+03  0.19278465257E+03  0.34140253084E+03  0.00000000000E+00 0. -1.
    9900018    1    3    3    0    0  0.97624056126E+02 -0.11436618591E+03 -0.91686828697E+02  0.19832229770E+03  0.91187600000E+02 0.  0.
<mgrwt>
<rscale>  0 0.91717440E+03</rscale>
<asrwt>0</asrwt>
<pdfrwt beam="1">  1        2 0.32389360E+00 0.14646699E+04</pdfrwt>
<pdfrwt beam="2">  1       -2 0.53253692E-01 0.14646699E+04</pdfrwt>
<totfact> 0.18746755E+01</totfact>
</mgrwt>
</event>
<event>
12    1  0.4225164E-014  0.1074876E+04  0.7818608E-02  0.9791423E-01
          3   -1    0    0  501    0  0.00000000000E+00  0.00000000000E+00  0.95040981889E+03  0.95040981889E+03  0.00000000000E+00 0. -1.
         -3   -1    0    0    0  501 -0.00000000000E+00 -0.00000000000E+00 -0.41898574776E+03  0.41898574776E+03  0.00000000000E+00 0.  1.
         23    2    1    2    0    0  0.52005923013E+02  0.85131513058E+02  0.18746553581E+03  0.24082721125E+03  0.11358885516E+03 0.  0.
    9900016    2    1    2    0    0  0.14947793092E+03  0.57337368786E+02  0.46521564465E+03  0.85362033804E+03  0.69757498507E+03 0.  0.
         23    2    4    4    0    0  0.35635538574E+03  0.88326703076E+02  0.34663234149E+03  0.51630343733E+03  0.10781693658E+03 0.  0.
        -15    1    3    3    0    0  0.64674141172E+02  0.28517087112E+02  0.16337562501E+03  0.17801000995E+03  0.00000000000E+00 0.  1.
        -15    1    5    5    0    0  0.18833611175E+03  0.89830421888E+02  0.23654256856E+03  0.31542413102E+03  0.00000000000E+00 0.  1.
         15    1    3    3    0    0 -0.12668218159E+02  0.56614425945E+02  0.24089910796E+02  0.62817201296E+02  0.00000000000E+00 0. -1.
         15    1    5    5    0    0  0.16801927399E+03 -0.15037188124E+01  0.11008977292E+03  0.20087930631E+03  0.00000000000E+00 0. -1.
        -16    1    1    2    0    0 -0.20148385394E+03 -0.14246888184E+03 -0.12125710933E+03  0.27494801737E+03  0.00000000000E+00 0.  1.
         16    1    4    4    0    0 -0.15084253784E+03  0.71928070711E+02  0.56961390734E+02  0.17655514326E+03  0.00000000000E+00 0. -1.
    9900018    1    4    4    0    0 -0.56034916981E+02 -0.10291740500E+03  0.61621912428E+02  0.16076175745E+03  0.91187600000E+02 0.  0.
<mgrwt>
<rscale>  0 0.65824889E+03</rscale>
<asrwt>0</asrwt>
<pdfrwt beam="1">  1        3 0.14621689E+00 0.10748763E+04</pdfrwt>
<pdfrwt beam="2">  1       -3 0.64459346E-01 0.10748763E+04</pdfrwt>
<totfact> 0.20837854E+00</totfact>
</mgrwt>
</event>
