<event>
13    1  0.6484581E-011  0.5069413E+04  0.7818608E-02  0.7817888E-01
         -2   -1    0    0    0  501 -0.00000000000E+00  0.00000000000E+00  0.20966074532E+04  0.20966074532E+04  0.00000000000E+00 0.  1.
          2   -1    0    0  501    0  0.00000000000E+00 -0.00000000000E+00 -0.30643492598E+04  0.30643492598E+04  0.00000000000E+00 0. -1.
    9900016    2    1    2    0    0  0.81805111308E+03 -0.97372419094E+03 -0.17301246082E+04  0.28480530846E+04  0.18710234603E+04 0.  0.
        -24    2    3    3    0    0  0.47908000024E+03 -0.10468023282E+04 -0.20655126442E+04  0.23656352530E+04  0.67638049891E+02 0.  0.
    9900016    2    1    2    0    0 -0.81805111308E+03  0.97372419094E+03  0.76238280165E+03  0.23129036284E+04  0.17750913313E+04 0.  0.
         23    2    5    5    0    0 -0.71629989750E+02 -0.23039082154E+03  0.69410051014E+03  0.73818678556E+03  0.70238352198E+02 0.  0.
        -15    1    6    6    0    0  0.95252796752E+01 -0.52081710096E+02  0.19362908758E+03  0.20073728861E+03  0.00000000000E+00 0. -1.
        -15    1    3    3    0    0  0.33897111284E+03  0.73078137275E+02  0.33538803602E+03  0.48241783155E+03  0.00000000000E+00 0.  1.
         15    1    6    6    0    0 -0.81155269425E+02 -0.17830911144E+03  0.50047142255E+03  0.53744949695E+03  0.00000000000E+00 0.  1.
         15    1    4    4    0    0  0.13365591751E+03 -0.22654183071E+03 -0.48742118816E+03  0.55386326833E+03  0.00000000000E+00 0. -1.
        -16    1    4    4    0    0  0.34542408273E+03 -0.82026049751E+03 -0.15780914561E+04  0.18117719847E+04  0.00000000000E+00 0.  1.
         16    1    5    5    0    0 -0.76384944675E+03  0.99646173544E+03  0.25410158025E+03  0.12810033492E+04  0.00000000000E+00 0. -1.
    9900018    1    5    5    0    0  0.17428323413E+02  0.20765327704E+03 -0.18581928873E+03  0.29371349370E+03  0.91187600000E+02 0.  0.
<mgrwt>
<rscale>  0 0.50694132E+04</rscale>
<asrwt>0</asrwt>
<pdfrwt beam="1">  1        2 0.47143835E+00 0.50694132E+04</pdfrwt>
<pdfrwt beam="2">  1       -2 0.32255499E+00 0.50694132E+04</pdfrwt>
<totfact> 0.26491445E-02</totfact>
</mgrwt>
</event>
<event>
12    1  0.6484581E-011  0.4650941E+04  0.7818608E-02  0.7884731E-01
          1   -1    0    0  501    0  0.00000000000E+00  0.00000000000E+00  0.31895783316E+04  0.31895783316E+04  0.00000000000E+00 0. -1.
         -1   -1    0    0    0  501 -0.00000000000E+00 -0.00000000000E+00 -0.16954634389E+04  0.16954634389E+04  0.00000000000E+00 0.  1.
    9900016    2    1    2    0    0 -0.12589100434E+04  0.11404680120E+03  0.15521648559E+04  0.27186134166E+04  0.18395059116E+04 0.  0.
         24    2    3    3    0    0 -0.26184106417E+02 -0.40057904753E+03 -0.24848841459E+03  0.47655962592E+03  0.64910739644E+02 0.  0.
    9900016    2    1    2    0    0  0.12589100434E+04 -0.11404680120E+03 -0.58049963123E+02  0.21664283539E+04  0.17584597931E+04 0.  0.
        -15    1    4    4    0    0  0.21504991816E+02 -0.99472692911E+02 -0.60265033500E+02  0.11827576071E+03  0.00000000000E+00 0.  1.
        -15    1    5    5    0    0  0.51119582813E+03  0.20648099585E+03  0.10954229394E+03  0.56209882628E+03  0.00000000000E+00 0.  1.
         15    1    3    3    0    0 -0.12327259370E+04  0.51462584873E+03  0.18006532705E+04  0.22420537907E+04  0.00000000000E+00 0. -1.
         15    1    5    5    0    0  0.53740090149E+03  0.53906071916E+02  0.30825435026E+03  0.62187324911E+03  0.00000000000E+00 0. -1.
        -16    1    5    5    0    0 -0.16539618537E+03  0.44101389240E+02 -0.36339111302E+03  0.40168884935E+03  0.00000000000E+00 0.  1.
         16    1    4    4    0    0 -0.47689098233E+02 -0.30110635462E+03 -0.18822338109E+03  0.35828386521E+03  0.00000000000E+00 0. -1.
    9900018    1    5    5    0    0  0.37570949918E+03 -0.41853525821E+03 -0.11245549429E+03  0.58076742912E+03  0.91187600000E+02 0.  0.
<mgrwt>
<rscale>  0 0.46509412E+04</rscale>
<asrwt>0</asrwt>
<pdfrwt beam="1">  1        1 0.49070436E+00 0.46509412E+04</pdfrwt>
<pdfrwt beam="2">  1       -1 0.26084053E+00 0.46509412E+04</pdfrwt>
<totfact> 0.19025547E-02</totfact>
</mgrwt>
</event>
<event>
11    1  0.6484581E-011  0.3262530E+04  0.7818608E-02  0.8733304E-01
          2   -1    0    0  501    0  0.00000000000E+00  0.00000000000E+00  0.16784096179E+04  0.16784096179E+04  0.00000000000E+00 0. -1.
         -2   -1    0    0    0  501 -0.00000000000E+00 -0.00000000000E+00 -0.23421254252E+04  0.23421254252E+04  0.00000000000E+00 0.  1.
    9900016    2    1    2    0    0  0.25346432757E+02 -0.30565796876E+03 -0.56862480792E+03  0.19553111885E+04  0.18454913807E+04 0.  0.
         23    2    1    2    0    0 -0.19717207735E+02  0.24760291642E+03 -0.70791801759E+03  0.75770577589E+03  0.10617980357E+03 0.  0.
        -15    1    4    4    0    0  0.37835209030E+02  0.10656025294E+03 -0.37317782017E+03  0.38993368156E+03  0.00000000000E+00 0.  1.
        -15    1    3    3    0    0  0.51670355555E+03  0.19833327441E+03 -0.98368130944E+03  0.11286928593E+04  0.00000000000E+00 0.  1.
         15    1    3    3    0    0 -0.27089052642E+03 -0.20456796354E+03  0.23940331811E+03  0.41538377163E+03  0.00000000000E+00 0. -1.
         15    1    4    4    0    0 -0.57552416765E+02  0.14104266348E+03 -0.33474019741E+03  0.36777209432E+03  0.00000000000E+00 0. -1.
        -16    1    3    3    0    0 -0.22046659637E+03 -0.29942327964E+03  0.17565318341E+03  0.41123455758E+03  0.00000000000E+00 0.  1.
         16    1    1    2    0    0  0.41708983952E+03 -0.35244050161E+03  0.38984650665E+03  0.67093855170E+03  0.00000000000E+00 0. -1.
    9900018    1    1    2    0    0 -0.42271906455E+03  0.41049555396E+03  0.22298051149E+03  0.63657952704E+03  0.91187600000E+02 0.  0.
<mgrwt>
<rscale>  0 0.17500844E+04</rscale>
<asrwt>0</asrwt>
<pdfrwt beam="1">  1        2 0.25821687E+00 0.32625298E+04</pdfrwt>
<pdfrwt beam="2">  1       -2 0.36032699E+00 0.32625298E+04</pdfrwt>
<totfact> 0.11038609E-01</totfact>
</mgrwt>
</event>
<event>
12    1  0.6484581E-011  0.4476047E+04  0.7818608E-02  0.7914844E-01
         -2   -1    0    0    0  501 -0.00000000000E+00  0.00000000000E+00  0.25020206672E+04  0.25020206672E+04  0.00000000000E+00 0.  1.
          2   -1    0    0  501    0  0.00000000000E+00 -0.00000000000E+00 -0.20018815056E+04  0.20018815056E+04  0.00000000000E+00 0. -1.
    9900016    2    1    2    0    0 -0.34616805314E+03 -0.72612576029E+03  0.12985892562E+04  0.23954930094E+04  0.18452538472E+04 0.  0.
    9900016    2    1    2    0    0  0.34616805314E+03  0.72612576029E+03 -0.79845009466E+03  0.21084091633E+04  0.17778570543E+04 0.  0.
         23    2    4    4    0    0  0.15101907574E+03 -0.96480005799E+02  0.45689371144E+03  0.49666083119E+03  0.76190320482E+02 0.  0.
        -15    1    3    3    0    0  0.27203972355E+03 -0.10375948970E+04  0.12734434329E+04  0.16650126000E+04  0.00000000000E+00 0.  1.
        -15    1    5    5    0    0  0.76357894010E+02 -0.18275777095E+02  0.26519057039E+03  0.27656928721E+03  0.00000000000E+00 0.  1.
         15    1    3    3    0    0 -0.10383368103E+03 -0.21998775433E+02 -0.41276520638E+02  0.11388209074E+03  0.00000000000E+00 0. -1.
         15    1    5    5    0    0  0.74661181726E+02 -0.78204228704E+02  0.19170314105E+03  0.22009154398E+03  0.00000000000E+00 0. -1.
        -16    1    3    3    0    0 -0.51437409566E+03  0.33346791214E+03  0.66422343980E+02  0.61659831859E+03  0.00000000000E+00 0.  1.
         16    1    4    4    0    0 -0.18611435329E+03  0.27154928070E+03 -0.33528776107E+03  0.46988876031E+03  0.00000000000E+00 0. -1.
    9900018    1    4    4    0    0  0.38126333069E+03  0.55105648540E+03 -0.92005604502E+03  0.11418595718E+04  0.91187600000E+02 0.  0.
<mgrwt>
<rscale>  0 0.44760469E+04</rscale>
<asrwt>0</asrwt>
<pdfrwt beam="1">  1        2 0.30798177E+00 0.44760469E+04</pdfrwt>
<pdfrwt beam="2">  1       -2 0.38492626E+00 0.44760469E+04</pdfrwt>
<totfact> 0.47078699E-02</totfact>
</mgrwt>
</event>
<event>
13    1  0.6484581E-011  0.4522534E+04  0.7818608E-02  0.7906704E-01
          2   -1    0    0  501    0  0.00000000000E+00  0.00000000000E+00  0.31961104602E+04  0.31961104602E+04  0.00000000000E+00 0. -1.
         -2   -1    0    0    0  501 -0.00000000000E+00 -0.00000000000E+00 -0.15998597097E+04  0.15998597097E+04  0.00000000000E+00 0.  1.
    9900016    2    1    2    0    0 -0.38287356414E+03  0.11243082749E+04  0.50472833175E+03  0.22511301035E+04  0.18444985202E+04 0.  0.
         24    2    3    3    0    0 -0.58681410970E+03  0.10988006973E+04 -0.40835002889E+03  0.13152057074E+04  0.10631338068E+03 0.  0.
    9900016    2    1    2    0    0  0.38287356414E+03 -0.11243082749E+04  0.10915224188E+04  0.25448400663E+04  0.19682805972E+04 0.  0.
         23    2    5    5    0    0 -0.46451930814E+03 -0.10070032765E+03 -0.27184164034E+02  0.48775117835E+03  0.10603532234E+03 0.  0.
        -15    1    6    6    0    0 -0.14382083289E+03  0.51808045164E+01 -0.41325596666E+02  0.14973001586E+03  0.00000000000E+00 0.  1.
        -15    1    4    4    0    0 -0.37387460675E+03  0.58840961617E+03 -0.22292089601E+03  0.73191654159E+03  0.00000000000E+00 0.  1.
         15    1    6    6    0    0 -0.32069847525E+03 -0.10588113217E+03  0.14141432632E+02  0.33802116249E+03  0.00000000000E+00 0. -1.
         15    1    3    3    0    0  0.20394054555E+03  0.25507577653E+02  0.91307836064E+03  0.93592439615E+03  0.00000000000E+00 0. -1.
        -16    1    5    5    0    0  0.10011868176E+04 -0.42300772974E+03  0.82772793190E+03  0.13661786532E+04  0.00000000000E+00 0.  1.
         16    1    4    4    0    0 -0.21293950294E+03  0.51039108111E+03 -0.18542913288E+03  0.58328916578E+03  0.00000000000E+00 0. -1.
    9900018    1    5    5    0    0 -0.15379394530E+03 -0.60060021755E+03  0.29097865090E+03  0.69091023483E+03  0.91187600000E+02 0.  0.
<mgrwt>
<rscale>  0 0.45225340E+04</rscale>
<asrwt>0</asrwt>
<pdfrwt beam="1">  1        2 0.49170930E+00 0.45225340E+04</pdfrwt>
<pdfrwt beam="2">  1       -2 0.24613226E+00 0.45225340E+04</pdfrwt>
<totfact> 0.66907781E-02</totfact>
</mgrwt>
</event>
