<event>
12    1  0.2755855E-012  0.2577510E+04  0.7818608E-02  0.8858201E-01
          2   -1    0    0  501    0  0.00000000000E+00  0.00000000000E+00  0.26722066328E+04  0.26722066328E+04  0.00000000000E+00 0. -1.
         -2   -1    0    0    0  501 -0.00000000000E+00 -0.00000000000E+00 -0.10477791055E+04  0.10477791055E+04  0.00000000000E+00 0.  1.
         23    2    1    2    0    0  0.31550411077E+03  0.17337655971E+02  0.10213012403E+04  0.10728519109E+04  0.90064205642E+02 0.  0.
    9900016    2    1    2    0    0  0.22964198314E+03 -0.52845927490E+03 -0.61822785801E+03  0.11035240909E+04  0.70961615624E+03 0.  0.
         23    2    4    4    0    0  0.39167557137E+03 -0.23054479071E+03 -0.60262677114E+03  0.76403724653E+03  0.11846195618E+03 0.  0.
        -15    1    3    3    0    0  0.22901596027E+03  0.45766255790E+02  0.80445190027E+03  0.83766683119E+03  0.00000000000E+00 0.  1.
        -15    1    5    5    0    0  0.52841804713E+02 -0.82595915756E+02 -0.15569835954E+03  0.18400087171E+03  0.00000000000E+00 0.  1.
         15    1    3    3    0    0  0.86488150503E+02 -0.28428599819E+02  0.21684934002E+03  0.23518507974E+03  0.00000000000E+00 0. -1.
         15    1    5    5    0    0  0.33883376665E+03 -0.14794887495E+03 -0.44692841160E+03  0.58003637482E+03  0.00000000000E+00 0. -1.
        -16    1    4    4    0    0 -0.16203358823E+03 -0.29791448420E+03 -0.15601086868E+02  0.33948684440E+03  0.00000000000E+00 0.  1.
         16    1    1    2    0    0 -0.51364538866E+03  0.38410573262E+03  0.12264436419E+04  0.13840277475E+04  0.00000000000E+00 0. -1.
    9900018    1    1    2    0    0 -0.31500705253E+02  0.12701588632E+03 -0.50894969301E+01  0.15958198890E+03  0.91187600000E+02 0.  0.
<mgrwt>
<rscale>  0 0.15401236E+04</rscale>
<asrwt>0</asrwt>
<pdfrwt beam="1">  1        2 0.41110871E+00 0.25775097E+04</pdfrwt>
<pdfrwt beam="2">  1       -2 0.16119679E+00 0.25775097E+04</pdfrwt>
<totfact> 0.58976359E-01</totfact>
</mgrwt>
</event>
<event>
12    1  0.2920248E-012  0.1720856E+04  0.7818608E-02  0.9274877E-01
          2   -1    0    0  501    0  0.00000000000E+00  0.00000000000E+00  0.19851102709E+04  0.19851102709E+04  0.00000000000E+00 0.  1.
         -2   -1    0    0    0  501 -0.00000000000E+00 -0.00000000000E+00 -0.56453840973E+03  0.56453840973E+03  0.00000000000E+00 0. -1.
         23    2    1    2    0    0 -0.20201363792E+03 -0.16336864488E+02  0.60671595991E+03  0.64604462589E+03  0.90515189796E+02 0.  0.
    9900016    2    1    2    0    0  0.47027586066E+03  0.48867756237E+02  0.34693822135E+03  0.91982986192E+03  0.70864194254E+03 0.  0.
         23    2    4    4    0    0 -0.68711430310E+02 -0.21674916452E+03  0.12247195637E+03  0.27839026809E+03  0.10392449324E+03 0.  0.
        -15    1    5    5    0    0 -0.77882180852E+02 -0.80626139276E+02  0.40295773667E+02  0.11912160931E+03  0.00000000000E+00 0. -1.
        -15    1    3    3    0    0 -0.92815628118E+02  0.86780030754E+01  0.40214458938E+03  0.41280784794E+03  0.00000000000E+00 0.  1.
         15    1    5    5    0    0  0.91707505413E+01 -0.13612302524E+03  0.82176182701E+02  0.15926865878E+03  0.00000000000E+00 0.  1.
         15    1    3    3    0    0 -0.10919800980E+03 -0.25014867563E+02  0.20457137053E+03  0.23323677794E+03  0.00000000000E+00 0. -1.
        -16    1    1    2    0    0 -0.50793973119E+03 -0.21447746144E+03  0.28956864063E+03  0.62277873247E+03  0.00000000000E+00 0.  1.
         16    1    4    4    0    0  0.53898729097E+03  0.26561692076E+03  0.22446626498E+03  0.64143959383E+03  0.00000000000E+00 0. -1.
    9900018    1    1    2    0    0  0.23967750844E+03  0.18194656969E+03  0.17734903932E+03  0.36099546038E+03  0.91187600000E+02 0.  0.
<mgrwt>
<rscale>  0 0.10312896E+04</rscale>
<asrwt>0</asrwt>
<pdfrwt beam="1">  1        2 0.30540158E+00 0.17208565E+04</pdfrwt>
<pdfrwt beam="2">  1       -2 0.86852064E-01 0.17208565E+04</pdfrwt>
<totfact> 0.73551748E+00</totfact>
</mgrwt>
</event>
<event>
12    1  0.2755855E-012  0.1097622E+04  0.7818608E-02  0.9463360E-01
         -5   -1    0    0    0  501 -0.00000000000E+00  0.00000000000E+00  0.66673270097E+03  0.66673270097E+03  0.00000000000E+00 0.  1.
          5   -1    0    0  501    0  0.00000000000E+00 -0.00000000000E+00 -0.10808717145E+04  0.10808717145E+04  0.00000000000E+00 0. -1.
         23    2    1    2    0    0 -0.32520254372E+03  0.27251714483E+03  0.21297797374E+03  0.48346464115E+03  0.91411997421E+02 0.  0.
    9900016    2    1    2    0    0  0.39637238700E+03 -0.64967712755E+02 -0.46354307238E+03  0.93398050577E+03  0.70435469214E+03 0.  0.
         23    2    4    4    0    0  0.41252200413E+03  0.16097641006E+03 -0.52821283934E+03  0.69840942196E+03  0.11260154775E+03 0.  0.
        -15    1    5    5    0    0  0.17818848007E+02  0.20171586587E+01 -0.73498116223E+02  0.75654169493E+02  0.00000000000E+00 0. -1.
        -15    1    3    3    0    0 -0.16384467408E+03  0.18766887158E+03  0.14884894917E+03  0.29020801549E+03  0.00000000000E+00 0. -1.
         15    1    3    3    0    0 -0.16135786964E+03  0.84848273243E+02  0.64129024569E+02  0.19325662565E+03  0.00000000000E+00 0.  1.
         15    1    5    5    0    0  0.39470315613E+03  0.15895925141E+03 -0.45471472311E+03  0.62275525247E+03  0.00000000000E+00 0.  1.
        -16    1    4    4    0    0 -0.16149617138E+02 -0.22594412282E+03  0.64669766953E+02  0.23557108381E+03  0.00000000000E+00 0.  1.
         16    1    1    2    0    0  0.27548342557E+02 -0.12114484342E+03 -0.48985290871E+02  0.13354603321E+03  0.00000000000E+00 0. -1.
    9900018    1    1    2    0    0 -0.98718185833E+02 -0.86404588653E+02 -0.11458862398E+03  0.19661323530E+03  0.91187600000E+02 0.  0.
<mgrwt>
<rscale>  0 0.87039913E+03</rscale>
<asrwt>0</asrwt>
<pdfrwt beam="1">  1        5 0.16628796E+00 0.10976218E+04</pdfrwt>
<pdfrwt beam="2">  1       -5 0.10257426E+00 0.10976218E+04</pdfrwt>
<totfact> 0.13510822E-01</totfact>
</mgrwt>
</event>
<event>
12    1  0.2755855E-012  0.1726047E+04  0.7818608E-02  0.9146071E-01
         -1   -1    0    0    0  501 -0.00000000000E+00  0.00000000000E+00  0.71125762018E+03  0.71125762018E+03  0.00000000000E+00 0.  1.
          1   -1    0    0  501    0  0.00000000000E+00 -0.00000000000E+00 -0.16469708519E+04  0.16469708519E+04  0.00000000000E+00 0. -1.
         23    2    1    2    0    0 -0.75691793727E+02  0.33545066120E+03 -0.43345475042E+03  0.56059068218E+03  0.90124905264E+02 0.  0.
    9900016    2    1    2    0    0  0.56025507930E+02 -0.21250696067E+03 -0.19726233680E+03  0.75943138246E+03  0.69966101026E+03 0.  0.
         23    2    4    4    0    0  0.71461564667E+02  0.16635682377E+02 -0.42038027280E+03  0.43923419934E+03  0.10403656551E+03 0.  0.
        -15    1    5    5    0    0  0.42374276254E+02 -0.42129889496E+02 -0.23930891127E+03  0.24665616127E+03  0.00000000000E+00 0. -1.
        -15    1    3    3    0    0 -0.40866919277E+02  0.21947330254E+03 -0.21030965812E+03  0.30670635454E+03  0.00000000000E+00 0. -1.
         15    1    3    3    0    0 -0.34824874450E+02  0.11597735866E+03 -0.22314509230E+03  0.25388432764E+03  0.00000000000E+00 0.  1.
         15    1    5    5    0    0  0.29087288413E+02  0.58765571873E+02 -0.18107136152E+03  0.19257803807E+03  0.00000000000E+00 0.  1.
        -16    1    4    4    0    0 -0.15436056737E+02 -0.22914264304E+03  0.22311793600E+03  0.32019718311E+03  0.00000000000E+00 0.  1.
         16    1    1    2    0    0  0.46928724249E+03  0.52465694979E+02 -0.27426587131E+03  0.54608143466E+03  0.00000000000E+00 0. -1.
    9900018    1    1    2    0    0 -0.44962095669E+03 -0.17540939551E+03 -0.30730273169E+02  0.49212497276E+03  0.91187600000E+02 0.  0.
<mgrwt>
<rscale>  0 0.11627833E+04</rscale>
<asrwt>0</asrwt>
<pdfrwt beam="1">  1        1 0.25338013E+00 0.17260469E+04</pdfrwt>
<pdfrwt beam="2">  1       -1 0.10942425E+00 0.17260469E+04</pdfrwt>
<totfact> 0.37641520E+00</totfact>
</mgrwt>
</event>
<event>
12    1  0.2755855E-012  0.1248427E+04  0.7818608E-02  0.9488938E-01
          1   -1    0    0  501    0  0.00000000000E+00  0.00000000000E+00  0.12728816619E+04  0.12728816619E+04  0.00000000000E+00 0. -1.
         -1   -1    0    0    0  501 -0.00000000000E+00 -0.00000000000E+00 -0.97932620965E+03  0.97932620965E+03  0.00000000000E+00 0.  1.
         23    2    1    2    0    0 -0.13077799671E+03  0.21780053042E+03 -0.63925370086E+03  0.69377850416E+03  0.90240585600E+02 0.  0.
    9900016    2    1    2    0    0  0.10015085762E+03  0.77470681465E+02  0.75995746290E+03  0.10569811180E+04  0.72363100925E+03 0.  0.
         23    2    4    4    0    0 -0.15789207336E+03 -0.16494878320E+03  0.63106880119E+03  0.68019784047E+03  0.11082988062E+03 0.  0.
        -15    1    5    5    0    0 -0.10938510250E+03 -0.11105793876E+03  0.26866513504E+03  0.31061217168E+03  0.00000000000E+00 0. -1.
        -15    1    3    3    0    0 -0.11541914059E+03  0.16661730946E+03 -0.39755714718E+03  0.44624499000E+03  0.00000000000E+00 0. -1.
         15    1    3    3    0    0 -0.15358856121E+02  0.51183220964E+02 -0.24169655368E+03  0.24753351416E+03  0.00000000000E+00 0.  1.
         15    1    5    5    0    0 -0.48506970864E+02 -0.53890844441E+02  0.36240366615E+03  0.36958566879E+03  0.00000000000E+00 0.  1.
        -16    1    1    2    0    0 -0.15345988171E+03 -0.91909316224E+02  0.92724272051E+02  0.20148212906E+03  0.00000000000E+00 0.  1.
         16    1    4    4    0    0  0.25804293098E+03  0.24241946467E+03  0.12888866171E+03  0.37678327749E+03  0.00000000000E+00 0. -1.
    9900018    1    1    2    0    0  0.18408702080E+03 -0.20336189567E+03  0.80127418155E+02  0.29996612037E+03  0.91187600000E+02 0.  0.
<mgrwt>
<rscale>  0 0.85104324E+03</rscale>
<asrwt>0</asrwt>
<pdfrwt beam="1">  1        1 0.19582795E+00 0.12484267E+04</pdfrwt>
<pdfrwt beam="2">  1       -1 0.15066557E+00 0.12484267E+04</pdfrwt>
<totfact> 0.31839772E+00</totfact>
</mgrwt>
</event>
<event>
12    1  0.2755855E-012  0.1738398E+04  0.7818608E-02  0.9095403E-01
         -2   -1    0    0    0  501 -0.00000000000E+00  0.00000000000E+00  0.29218980766E+03  0.29218980766E+03  0.00000000000E+00 0.  1.
          2   -1    0    0  501    0  0.00000000000E+00 -0.00000000000E+00 -0.41635203687E+04  0.41635203687E+04  0.00000000000E+00 0. -1.
         23    2    1    2    0    0 -0.21496656816E+03  0.35114311896E+03 -0.11661326644E+04  0.12401039711E+04  0.92088830393E+02 0.  0.
    9900016    2    1    2    0    0 -0.18692966607E+03 -0.33932855157E+03 -0.11767020105E+04  0.14233696010E+04  0.70090429696E+03 0.  0.
         23    2    4    4    0    0  0.43554850369E+02 -0.47990952474E+03 -0.55289722920E+03  0.74365015333E+03  0.12292285205E+03 0.  0.
        -15    1    5    5    0    0 -0.75419377248E+00 -0.10128031735E+03 -0.51016798063E+02  0.11340628367E+03  0.00000000000E+00 0.  1.
        -15    1    3    3    0    0 -0.81654267922E+02  0.21901692305E+03 -0.61807638922E+03  0.66079819533E+03  0.00000000000E+00 0.  1.
         15    1    3    3    0    0 -0.13331230023E+03  0.13212619591E+03 -0.54805627523E+03  0.57930577579E+03  0.00000000000E+00 0. -1.
         15    1    5    5    0    0  0.44309044141E+02 -0.37862920739E+03 -0.50188043114E+03  0.63024386966E+03  0.00000000000E+00 0. -1.
        -16    1    1    2    0    0  0.55574433344E+03  0.23562164081E+03 -0.12031095908E+04  0.13460468080E+04  0.00000000000E+00 0.  1.
         16    1    4    4    0    0 -0.23048451644E+03  0.14058097317E+03 -0.62380478133E+03  0.67971944767E+03  0.00000000000E+00 0. -1.
    9900018    1    1    2    0    0 -0.15384809921E+03 -0.24743620820E+03 -0.32538629528E+03  0.44618979629E+03  0.91187600000E+02 0.  0.
<mgrwt>
<rscale>  0 0.12201469E+04</rscale>
<asrwt>0</asrwt>
<pdfrwt beam="1">  1        2 0.64054155E+00 0.17383980E+04</pdfrwt>
<pdfrwt beam="2">  1       -2 0.44952281E-01 0.17383980E+04</pdfrwt>
<totfact> 0.11272825E+00</totfact>
</mgrwt>
</event>
<event>
12    1  0.2755855E-012  0.1369775E+04  0.7818608E-02  0.9406674E-01
          1   -1    0    0  501    0  0.00000000000E+00  0.00000000000E+00  0.12485446970E+04  0.12485446970E+04  0.00000000000E+00 0. -1.
         -1   -1    0    0    0  501 -0.00000000000E+00 -0.00000000000E+00 -0.54162752756E+03  0.54162752756E+03  0.00000000000E+00 0.  1.
         23    2    1    2    0    0 -0.75829010877E+02  0.24672925340E+03  0.86515064621E+02  0.28644946854E+03  0.89123948777E+02 0.  0.
    9900016    2    1    2    0    0 -0.97650476470E+02 -0.36273935434E+03  0.56660240019E+03  0.97878225084E+03  0.70417395572E+03 0.  0.
         23    2    4    4    0    0 -0.22898522407E+03 -0.41895914338E+03  0.11157294980E+03  0.50185324005E+03  0.10699137701E+03 0.  0.
        -15    1    3    3    0    0 -0.35987965287E+02  0.21420191594E+03  0.48660991899E+02  0.22258815460E+03  0.00000000000E+00 0.  1.
        -15    1    5    5    0    0 -0.83141377535E+02 -0.62072609128E+02  0.23554129043E+02  0.10639687240E+03  0.00000000000E+00 0.  1.
         15    1    3    3    0    0 -0.39841045590E+02  0.32527337465E+02  0.37854072722E+02  0.63861313938E+02  0.00000000000E+00 0. -1.
         15    1    5    5    0    0 -0.14584384654E+03 -0.35688653425E+03  0.88018820756E+02  0.39545636765E+03  0.00000000000E+00 0. -1.
        -16    1    4    4    0    0  0.13133474760E+03  0.56219789037E+02  0.45502945039E+03  0.47692901079E+03  0.00000000000E+00 0.  1.
         16    1    1    2    0    0  0.22303900331E+03  0.95170082126E+02  0.22031139839E+03  0.32762914063E+03  0.00000000000E+00 0. -1.
    9900018    1    1    2    0    0 -0.49559515968E+02  0.20840018818E+02 -0.16651169379E+03  0.19731136452E+03  0.91187600000E+02 0.  0.
<mgrwt>
<rscale>  0 0.91528489E+03</rscale>
<asrwt>0</asrwt>
<pdfrwt beam="1">  1        1 0.19208380E+00 0.13697749E+04</pdfrwt>
<pdfrwt beam="2">  1       -1 0.83327312E-01 0.13697749E+04</pdfrwt>
<totfact> 0.13703232E+01</totfact>
</mgrwt>
</event>
<event>
12    1  0.2755855E-012  0.1361818E+04  0.7818608E-02  0.9629838E-01
          2   -1    0    0  501    0  0.00000000000E+00  0.00000000000E+00  0.12228319389E+04  0.12228319389E+04  0.00000000000E+00 0. -1.
         -2   -1    0    0    0  501 -0.00000000000E+00 -0.00000000000E+00 -0.48289949153E+03  0.48289949153E+03  0.00000000000E+00 0.  1.
         23    2    1    2    0    0  0.81905937245E+02 -0.28048180976E+02  0.20731163410E+03  0.24346131202E+03  0.93808388773E+02 0.  0.
    9900016    2    1    2    0    0 -0.26695125910E+03  0.14430593410E+03  0.27020665721E+03  0.81333136998E+03  0.70456305782E+03 0.  0.
         23    2    4    4    0    0 -0.29972599114E+03  0.38934405948E+03  0.97239211118E+02  0.51161030118E+03  0.10423612464E+03 0.  0.
        -15    1    3    3    0    0  0.53158496620E+02 -0.62916748014E+02  0.12933250017E+03  0.15333374887E+03  0.00000000000E+00 0. -1.
        -15    1    5    5    0    0 -0.12164297015E+03  0.22956069665E+03  0.79527215366E+02  0.27169781673E+03  0.00000000000E+00 0. -1.
         15    1    3    3    0    0  0.28747440625E+02  0.34868567038E+02  0.77979133929E+02  0.90127563143E+02  0.00000000000E+00 0.  1.
         15    1    5    5    0    0 -0.17808302099E+03  0.15978336283E+03  0.17711995753E+02  0.23991248445E+03  0.00000000000E+00 0.  1.
        -16    1    4    4    0    0  0.32774732039E+02 -0.24503812538E+03  0.17296744609E+03  0.30172106880E+03  0.00000000000E+00 0.  1.
         16    1    1    2    0    0 -0.45440171178E+02  0.11922423828E+03  0.27884747090E+03  0.30665149630E+03  0.00000000000E+00 0. -1.
    9900018    1    1    2    0    0  0.23048549303E+03 -0.23548199141E+03 -0.16433314792E+02  0.34228725218E+03  0.91187600000E+02 0.  0.
<mgrwt>
<rscale>  0 0.75352410E+03</rscale>
<asrwt>0</asrwt>
<pdfrwt beam="1">  1        2 0.18812799E+00 0.13618183E+04</pdfrwt>
<pdfrwt beam="2">  1       -2 0.74292230E-01 0.13618183E+04</pdfrwt>
<totfact> 0.29115939E+01</totfact>
</mgrwt>
</event>
<event>
12    1  0.2755855E-012  0.1728022E+04  0.7818608E-02  0.9052978E-01
         -1   -1    0    0    0  501 -0.00000000000E+00  0.00000000000E+00  0.10696159257E+04  0.10696159257E+04  0.00000000000E+00 0.  1.
          1   -1    0    0  501    0  0.00000000000E+00 -0.00000000000E+00 -0.13717804161E+04  0.13717804161E+04  0.00000000000E+00 0. -1.
         23    2    1    2    0    0  0.38595962624E+03 -0.31355578232E+03  0.32733855531E+03  0.60228393727E+03  0.91177571721E+02 0.  0.
    9900016    2    1    2    0    0 -0.32311075473E+03 -0.33118441426E+02 -0.35351832900E+03  0.86802699065E+03  0.72318618390E+03 0.  0.
         23    2    4    4    0    0 -0.37569117813E+03 -0.82867753478E+02  0.97681658859E+02  0.41105749056E+03  0.10684394308E+03 0.  0.
        -15    1    5    5    0    0 -0.16867103580E+03  0.10826957545E+02  0.66770537966E+02  0.18172904575E+03  0.00000000000E+00 0.  1.
        -15    1    3    3    0    0  0.17455806720E+02 -0.45908360594E+02  0.43676159441E+02  0.65725867542E+02  0.00000000000E+00 0.  1.
         15    1    5    5    0    0 -0.20702014233E+03 -0.93694711023E+02  0.30911120893E+02  0.22932844481E+03  0.00000000000E+00 0. -1.
         15    1    3    3    0    0  0.36850381952E+03 -0.26764742172E+03  0.28366239587E+03  0.53655806972E+03  0.00000000000E+00 0. -1.
        -16    1    1    2    0    0  0.41606536984E+02  0.33124458300E+03  0.25625954955E+03  0.42085987504E+03  0.00000000000E+00 0.  1.
         16    1    4    4    0    0  0.52580423400E+02  0.49749312052E+02 -0.45119998785E+03  0.45696950009E+03  0.00000000000E+00 0. -1.
    9900018    1    1    2    0    0 -0.10445540849E+03  0.15429640741E+02 -0.53224426627E+03  0.55022553880E+03  0.91187600000E+02 0.  0.
<mgrwt>
<rscale>  0 0.12708845E+04</rscale>
<asrwt>0</asrwt>
<pdfrwt beam="1">  1        1 0.21104314E+00 0.17280221E+04</pdfrwt>
<pdfrwt beam="2">  1       -1 0.16455630E+00 0.17280221E+04</pdfrwt>
<totfact> 0.20292625E+00</totfact>
</mgrwt>
</event>
<event>
11    1  0.2755855E-012  0.2664325E+04  0.7818608E-02  0.8886767E-01
          1   -1    0    0  501    0  0.00000000000E+00  0.00000000000E+00  0.23052033959E+04  0.23052033959E+04  0.00000000000E+00 0. -1.
         -1   -1    0    0    0  501 -0.00000000000E+00 -0.00000000000E+00 -0.10551222754E+04  0.10551222754E+04  0.00000000000E+00 0.  1.
         23    2    1    2    0    0  0.20725409899E+03 -0.13752916792E+03  0.54217330601E+03  0.60355880263E+03  0.91993482982E+02 0.  0.
    9900016    2    1    2    0    0 -0.38372330691E+03 -0.26737988851E+03  0.79918127700E+02  0.85147817713E+03  0.70703083239E+03 0.  0.
        -15    1    4    4    0    0 -0.24961597512E+03  0.61608578628E+02  0.92230315571E+02  0.27314864654E+03  0.00000000000E+00 0. -1.
        -15    1    3    3    0    0  0.92806915987E+02 -0.10300864924E+03  0.35885316626E+03  0.38470703192E+03  0.00000000000E+00 0. -1.
         15    1    4    4    0    0 -0.95242736054E+02 -0.10611911843E+03  0.21476437676E+03  0.25779096879E+03  0.00000000000E+00 0.  1.
         15    1    3    3    0    0  0.11444718300E+03 -0.34520518679E+02  0.18332013974E+03  0.21885177071E+03  0.00000000000E+00 0.  1.
        -16    1    4    4    0    0 -0.38864595738E+02 -0.22286934871E+03 -0.22707656463E+03  0.32053856180E+03  0.00000000000E+00 0.  1.
         16    1    1    2    0    0  0.52106493931E+03  0.81244654307E+03  0.88177682245E+03  0.13073287348E+04  0.00000000000E+00 0. -1.
    9900018    1    1    2    0    0 -0.34459573138E+03 -0.40753748664E+03 -0.25378713568E+03  0.59795995663E+03  0.91187600000E+02 0.  0.
<mgrwt>
<rscale>  0 0.14965253E+04</rscale>
<asrwt>0</asrwt>
<pdfrwt beam="1">  1        1 0.35464667E+00 0.26643254E+04</pdfrwt>
<pdfrwt beam="2">  1       -1 0.16232650E+00 0.26643254E+04</pdfrwt>
<totfact> 0.44737786E-01</totfact>
</mgrwt>
</event>
