<event>
13    1  0.8290465E-009  0.9474517E+04  0.7818608E-02  0.7365128E-01
          2   -1    0    0  501    0  0.00000000000E+00  0.00000000000E+00  0.43916882164E+04  0.43916882164E+04  0.00000000000E+00 0. -1.
         -2   -1    0    0    0  501 -0.00000000000E+00 -0.00000000000E+00 -0.51100211598E+04  0.51100211598E+04  0.00000000000E+00 0.  1.
    9900016    2    1    2    0    0 -0.22241324975E+04 -0.18962034477E+04 -0.33431728305E+04  0.49550915732E+04  0.21985847818E+04 0.  0.
        -24    2    3    3    0    0 -0.12500336096E+04  0.24704793092E+03 -0.89880887203E+03  0.15613752803E+04  0.80116615635E+02 0.  0.
    9900016    2    1    2    0    0  0.19975713905E+04  0.16231718264E+04  0.22558799408E+04  0.40266920182E+04  0.21213854115E+04 0.  0.
         23    2    5    5    0    0  0.13132970319E+03  0.18015520235E+03 -0.40405893957E+03  0.47135379799E+03  0.95955137239E+02 0.  0.
        -15    1    3    3    0    0 -0.97409888787E+03 -0.21432513786E+04 -0.24443639585E+04  0.33937162929E+04  0.00000000000E+00 0.  1.
        -15    1    6    6    0    0  0.88137581919E+02  0.17888822613E+03 -0.33671342599E+03  0.39133765732E+03  0.00000000000E+00 0.  1.
         15    1    4    4    0    0 -0.97921410516E+03  0.21518254949E+03 -0.73667497800E+03  0.12441277332E+04  0.00000000000E+00 0. -1.
         15    1    6    6    0    0  0.43192121270E+02  0.12669762140E+01 -0.67345513585E+02  0.80016140675E+02  0.00000000000E+00 0. -1.
        -16    1    4    4    0    0 -0.27081950444E+03  0.31865381434E+02 -0.16213389403E+03  0.31724754706E+03  0.00000000000E+00 0.  1.
         16    1    5    5    0    0  0.18662416873E+04  0.14430166241E+04  0.26599388804E+04  0.35553382202E+04  0.00000000000E+00 0. -1.
    9900018    1    1    2    0    0  0.22656110702E+03  0.27303162122E+03  0.36895994633E+03  0.51992578488E+03  0.91187600000E+02 0.  0.
<mgrwt>
<rscale>  0 0.94745173E+04</rscale>
<asrwt>0</asrwt>
<pdfrwt beam="1">  1        2 0.67564434E+00 0.94745173E+04</pdfrwt>
<pdfrwt beam="2">  1       -2 0.78615710E+00 0.94745173E+04</pdfrwt>
<totfact> 0.77245473E-06</totfact>
</mgrwt>
</event>
<event>
13    1  0.8290467E-009  0.5075852E+04  0.7818608E-02  0.7816912E-01
          1   -1    0    0  501    0  0.00000000000E+00  0.00000000000E+00  0.27739344528E+04  0.27739344528E+04  0.00000000000E+00 0. -1.
         -1   -1    0    0    0  501 -0.00000000000E+00 -0.00000000000E+00 -0.23219969823E+04  0.23219969823E+04  0.00000000000E+00 0.  1.
    9900016    2    1    2    0    0  0.27984465280E+02  0.99010047344E+03  0.17386050109E+03  0.24179816803E+04  0.21989374376E+04 0.  0.
        -24    2    3    3    0    0  0.27345327472E+03 -0.43884797941E+03 -0.58232656820E+03  0.78275463148E+03  0.78970491812E+02 0.  0.
    9900016    2    1    2    0    0 -0.34125833615E+03 -0.80472112081E+03  0.31665728935E+03  0.23007102526E+04  0.21045100364E+04 0.  0.
         23    2    5    5    0    0 -0.31428801228E+03  0.42963757343E+03 -0.56652666055E+03  0.78269092671E+03  0.91034226989E+02 0.  0.
        -15    1    6    6    0    0 -0.22457134932E+03  0.36323695132E+03 -0.42559033761E+03  0.60291003409E+03  0.00000000000E+00 0.  1.
        -15    1    3    3    0    0 -0.24546880944E+03  0.14289484529E+04  0.75618706929E+03  0.16352270488E+04  0.00000000000E+00 0.  1.
         15    1    6    6    0    0 -0.89716662961E+02  0.66400622110E+02 -0.14093632294E+03  0.17978089263E+03  0.00000000000E+00 0. -1.
         15    1    4    4    0    0  0.25629809852E+03 -0.42545284836E+03 -0.53145420585E+03  0.72742175826E+03  0.00000000000E+00 0. -1.
        -16    1    4    4    0    0  0.17155176198E+02 -0.13395131048E+02 -0.50872362359E+02  0.55332873215E+02  0.00000000000E+00 0.  1.
         16    1    5    5    0    0 -0.26970323873E+02 -0.12343586942E+04  0.88318394990E+03  0.15180193259E+04  0.00000000000E+00 0. -1.
    9900018    1    1    2    0    0  0.31327387087E+03 -0.18537935263E+03 -0.38580319951E+02  0.37723950222E+03  0.91187600000E+02 0.  0.
<mgrwt>
<rscale>  0 0.50758516E+04</rscale>
<asrwt>0</asrwt>
<pdfrwt beam="1">  1        1 0.42675915E+00 0.50758516E+04</pdfrwt>
<pdfrwt beam="2">  1       -1 0.35723031E+00 0.50758516E+04</pdfrwt>
<totfact> 0.86842256E-03</totfact>
</mgrwt>
</event>
<event>
13    1  0.8290465E-009  0.5256506E+04  0.7818608E-02  0.7790112E-01
         -1   -1    0    0    0  501 -0.00000000000E+00  0.00000000000E+00  0.23617352405E+04  0.23617352405E+04  0.00000000000E+00 0.  1.
          1   -1    0    0  501    0  0.00000000000E+00 -0.00000000000E+00 -0.29248471947E+04  0.29248471947E+04  0.00000000000E+00 0. -1.
    9900016    2    1    2    0    0 -0.10480298971E+04  0.19944911351E+03 -0.11354093410E+04  0.26945722045E+04  0.21985036682E+04 0.  0.
         24    2    3    3    0    0  0.14370192009E+03 -0.69142241334E+03  0.15225830453E+03  0.72684133699E+03  0.80003389593E+02 0.  0.
    9900016    2    1    2    0    0  0.10480298971E+04 -0.19944911351E+03  0.57229738675E+03  0.25920102308E+04  0.22919088384E+04 0.  0.
         23    2    5    5    0    0 -0.34638733605E+03 -0.12674626334E+03 -0.32774927188E+03  0.50183551559E+03  0.91490423801E+02 0.  0.
        -15    1    4    4    0    0  0.45997009781E+02 -0.27799477986E+03  0.99191903897E+02  0.29872371238E+03  0.00000000000E+00 0.  1.
        -15    1    6    6    0    0 -0.81862164032E+02 -0.70070044338E+02 -0.72324528797E+02  0.12977697207E+03  0.00000000000E+00 0.  1.
         15    1    6    6    0    0 -0.26452517201E+03 -0.56676218999E+02 -0.25542474308E+03  0.37205854352E+03  0.00000000000E+00 0. -1.
         15    1    3    3    0    0 -0.11917318172E+04  0.89087152685E+03 -0.12876676455E+04  0.19677308675E+04  0.00000000000E+00 0. -1.
        -16    1    5    5    0    0  0.12860336044E+04 -0.11175785574E+03  0.12003892938E+03  0.12964496113E+04  0.00000000000E+00 0.  1.
         16    1    4    4    0    0  0.97704910308E+02 -0.41342763348E+03  0.53066400630E+02  0.42811762461E+03  0.00000000000E+00 0. -1.
    9900018    1    5    5    0    0  0.10838362874E+03  0.39055005574E+02  0.78000772925E+03  0.79372510388E+03  0.91187600000E+02 0.  0.
<mgrwt>
<rscale>  0 0.52565063E+04</rscale>
<asrwt>0</asrwt>
<pdfrwt beam="1">  1        1 0.44997649E+00 0.52565063E+04</pdfrwt>
<pdfrwt beam="2">  1       -1 0.36334388E+00 0.52565063E+04</pdfrwt>
<totfact> 0.60736659E-03</totfact>
</mgrwt>
</event>
<event>
13    1  0.8290465E-009  0.5339587E+04  0.7818608E-02  0.7778156E-01
         -2   -1    0    0    0  501 -0.00000000000E+00  0.00000000000E+00  0.21122218956E+04  0.21122218956E+04  0.00000000000E+00 0. -1.
          2   -1    0    0  501    0  0.00000000000E+00 -0.00000000000E+00 -0.33745496808E+04  0.33745496808E+04  0.00000000000E+00 0.  1.
    9900016    2    1    2    0    0  0.13490647189E+04  0.39393621748E+03  0.13024371281E+03  0.26181086864E+04  0.22050778467E+04 0.  0.
         24    2    3    3    0    0 -0.10174225118E+03 -0.41483619197E+03 -0.65072859572E+03  0.78266012502E+03  0.81661583115E+02 0.  0.
    9900016    2    1    2    0    0 -0.13490647189E+04 -0.39393621748E+03 -0.13925714980E+04  0.28686628899E+04  0.20772120835E+04 0.  0.
         23    2    5    5    0    0 -0.25326643616E+03  0.19446508450E+03 -0.11540756813E+04  0.12008701229E+04  0.90762420826E+02 0.  0.
        -15    1    6    6    0    0 -0.16162220798E+03  0.10236681810E+03 -0.53153687462E+03  0.56491782822E+03  0.00000000000E+00 0. -1.
        -15    1    4    4    0    0 -0.28002370120E+02 -0.13251234783E+03 -0.14231594160E+03  0.19646241954E+03  0.00000000000E+00 0.  1.
         15    1    6    6    0    0 -0.91644228173E+02  0.92098266396E+02 -0.62253880673E+03  0.63595229468E+03  0.00000000000E+00 0.  1.
         15    1    3    3    0    0  0.14508069701E+04  0.80877240945E+03  0.78097230853E+03  0.18354485614E+04  0.00000000000E+00 0. -1.
        -16    1    5    5    0    0  0.13452138474E+03  0.15568623012E+03 -0.69614859940E+02  0.21721057508E+03  0.00000000000E+00 0.  1.
         16    1    4    4    0    0 -0.73739881058E+02 -0.28232384414E+03 -0.50841265413E+03  0.58619770548E+03  0.00000000000E+00 0. -1.
    9900018    1    5    5    0    0 -0.12303196675E+04 -0.74408753209E+03 -0.16888095672E+03  0.14505821920E+04  0.91187600000E+02 0.  0.
<mgrwt>
<rscale>  0 0.53395871E+04</rscale>
<asrwt>0</asrwt>
<pdfrwt beam="1">  1        2 0.51916149E+00 0.53395871E+04</pdfrwt>
<pdfrwt beam="2">  1       -2 0.32495722E+00 0.53395871E+04</pdfrwt>
<totfact> 0.15665619E-02</totfact>
</mgrwt>
</event>
<event>
13    1  0.8290465E-009  0.6232391E+04  0.7818608E-02  0.7662237E-01
         -2   -1    0    0    0  501 -0.00000000000E+00  0.00000000000E+00  0.19234713824E+04  0.19234713824E+04  0.00000000000E+00 0. -1.
          2   -1    0    0  501    0  0.00000000000E+00 -0.00000000000E+00 -0.50485146143E+04  0.50485146143E+04  0.00000000000E+00 0.  1.
    9900016    2    1    2    0    0  0.22598038620E+03  0.83497889196E+03  0.66694961996E+03  0.24547369137E+04  0.21983299649E+04 0.  0.
         24    2    3    3    0    0  0.18089824875E+03 -0.41694948881E+02 -0.75615058107E+03  0.78267124374E+03  0.79673893819E+02 0.  0.
    9900016    2    1    2    0    0 -0.22598038620E+03 -0.83497889196E+03 -0.37919928519E+04  0.45172490830E+04  0.22974056247E+04 0.  0.
         23    2    5    5    0    0  0.11230054920E+03  0.18370986691E+03  0.22035970235E+03  0.32168305862E+03  0.92524933038E+02 0.  0.
        -15    1    4    4    0    0  0.41677207568E+02 -0.40651172887E+02 -0.30574075340E+03  0.31123450287E+03  0.00000000000E+00 0.  1.
        -15    1    6    6    0    0  0.46495780760E+02  0.78964119064E+02  0.33457970816E+02  0.97553193383E+02  0.00000000000E+00 0. -1.
         15    1    3    3    0    0  0.45082137451E+02  0.87667384084E+03  0.14231002010E+04  0.16720656699E+04  0.00000000000E+00 0. -1.
         15    1    6    6    0    0  0.65804768436E+02  0.10474574784E+03  0.18690173154E+03  0.22412986524E+03  0.00000000000E+00 0.  1.
        -16    1    5    5    0    0 -0.46588255836E+03 -0.54914830596E+03 -0.26480402188E+04  0.27442170870E+04  0.00000000000E+00 0.  1.
         16    1    4    4    0    0  0.13922104118E+03 -0.10437759948E+01 -0.45040982767E+03  0.47143674087E+03  0.00000000000E+00 0. -1.
    9900018    1    5    5    0    0  0.12760162296E+03 -0.46954045290E+03 -0.13643123355E+04  0.14513489375E+04  0.91187600000E+02 0.  0.
<mgrwt>
<rscale>  0 0.62323907E+04</rscale>
<asrwt>0</asrwt>
<pdfrwt beam="1">  1        2 0.77669455E+00 0.62323907E+04</pdfrwt>
<pdfrwt beam="2">  1       -2 0.29591868E+00 0.62323907E+04</pdfrwt>
<totfact> 0.64665706E-04</totfact>
</mgrwt>
</event>
<event>
13    1  0.8290465E-009  0.5301426E+04  0.7818608E-02  0.7783620E-01
         -2   -1    0    0    0  501 -0.00000000000E+00  0.00000000000E+00  0.19985942735E+04  0.19985942735E+04  0.00000000000E+00 0.  1.
          2   -1    0    0  501    0  0.00000000000E+00 -0.00000000000E+00 -0.35156100718E+04  0.35156100718E+04  0.00000000000E+00 0. -1.
    9900016    2    1    2    0    0  0.68555706916E+03 -0.75367229253E+03 -0.19514207326E+04  0.31115557285E+04  0.21990283664E+04 0.  0.
         24    2    3    3    0    0 -0.59416085066E+03 -0.18050853593E+03  0.92765030049E+02  0.63266684871E+03  0.77791661849E+02 0.  0.
    9900016    2    1    2    0    0 -0.68555706916E+03  0.75367229253E+03  0.43440493435E+03  0.24026486168E+04  0.21321356217E+04 0.  0.
         23    2    5    5    0    0 -0.39597559331E+03 -0.19832094572E+03 -0.23397995855E+03  0.50882981511E+03  0.89628632304E+02 0.  0.
        -15    1    6    6    0    0 -0.14402457469E+03 -0.12150152327E+03 -0.99292900739E+02  0.21299008993E+03  0.00000000000E+00 0.  1.
        -15    1    4    4    0    0 -0.31164897127E+03 -0.99851123092E+02  0.87787705966E+02  0.33882445218E+03  0.00000000000E+00 0.  1.
         15    1    6    6    0    0 -0.25195101862E+03 -0.76819422447E+02 -0.13468705781E+03  0.29583972517E+03  0.00000000000E+00 0. -1.
         15    1    3    3    0    0  0.12797179198E+04 -0.57316375660E+03 -0.20441857626E+04  0.24788888798E+04  0.00000000000E+00 0. -1.
        -16    1    5    5    0    0  0.51974808844E+03  0.20075197248E+03  0.54424655835E+03  0.77887338263E+03  0.00000000000E+00 0.  1.
         16    1    4    4    0    0 -0.28251187939E+03 -0.80657412837E+02  0.49773240831E+01  0.29384239653E+03  0.00000000000E+00 0. -1.
    9900018    1    5    5    0    0 -0.80932956429E+03  0.75124126577E+03  0.12413833454E+03  0.11149454191E+04  0.91187600000E+02 0.  0.
<mgrwt>
<rscale>  0 0.53014255E+04</rscale>
<asrwt>0</asrwt>
<pdfrwt beam="1">  1        2 0.54086308E+00 0.53014255E+04</pdfrwt>
<pdfrwt beam="2">  1       -2 0.30747604E+00 0.53014255E+04</pdfrwt>
<totfact> 0.16081927E-02</totfact>
</mgrwt>
</event>
<event>
13    1  0.8290465E-009  0.5458020E+04  0.7818608E-02  0.7761492E-01
          2   -1    0    0  501    0  0.00000000000E+00  0.00000000000E+00  0.23796411969E+04  0.23796411969E+04  0.00000000000E+00 0.  1.
         -2   -1    0    0    0  501 -0.00000000000E+00 -0.00000000000E+00 -0.31296715297E+04  0.31296715297E+04  0.00000000000E+00 0. -1.
    9900016    2    1    2    0    0 -0.10268582559E+04  0.94978872460E+03 -0.40477113311E+03  0.26452245309E+04  0.22083560966E+04 0.  0.
        -24    2    3    3    0    0 -0.87614856478E+03  0.45469697765E+03  0.83908065985E+03  0.12980064595E+04  0.79867178439E+02 0.  0.
    9900016    2    1    2    0    0  0.10800360176E+04 -0.57844449418E+03 -0.97056409987E+02  0.24051282682E+04  0.20674008338E+04 0.  0.
         23    2    5    5    0    0  0.11911756525E+03  0.33389688807E+03 -0.81810105799E+03  0.89660698754E+03  0.94544290233E+02 0.  0.
        -15    1    6    6    0    0  0.11341476414E+03  0.19836947573E+03 -0.56479060531E+03  0.60926331375E+03  0.00000000000E+00 0. -1.
        -15    1    3    3    0    0 -0.15070969113E+03  0.49509174696E+03 -0.12438517930E+04  0.13472180713E+04  0.00000000000E+00 0.  1.
         15    1    6    6    0    0  0.57028011037E+01  0.13552741234E+03 -0.25331045267E+03  0.28734367379E+03  0.00000000000E+00 0.  1.
         15    1    4    4    0    0 -0.76618086438E+03  0.39140902176E+03  0.69489419836E+03  0.11059439797E+04  0.00000000000E+00 0. -1.
        -16    1    4    4    0    0 -0.10996770041E+03  0.63287955886E+02  0.14418646149E+03  0.19206247986E+03  0.00000000000E+00 0.  1.
         16    1    5    5    0    0  0.96091845232E+03 -0.91234138225E+03  0.72104464800E+03  0.15085212807E+04  0.00000000000E+00 0. -1.
    9900018    1    1    2    0    0 -0.53177761661E+02 -0.37134423042E+03 -0.24820278970E+03  0.45895992746E+03  0.91187600000E+02 0.  0.
<mgrwt>
<rscale>  0 0.54580199E+04</rscale>
<asrwt>0</asrwt>
<pdfrwt beam="1">  1        2 0.36609865E+00 0.54580199E+04</pdfrwt>
<pdfrwt beam="2">  1       -2 0.48148793E+00 0.54580199E+04</pdfrwt>
<totfact> 0.62368280E-03</totfact>
</mgrwt>
</event>
<event>
13    1  0.8290465E-009  0.4829019E+04  0.7818608E-02  0.7855438E-01
          2   -1    0    0  501    0  0.00000000000E+00  0.00000000000E+00  0.35904279004E+04  0.35904279004E+04  0.00000000000E+00 0. -1.
         -2   -1    0    0    0  501 -0.00000000000E+00 -0.00000000000E+00 -0.16237218005E+04  0.16237218005E+04  0.00000000000E+00 0.  1.
    9900016    2    1    2    0    0 -0.40091037859E+03 -0.94644156321E+03  0.14111731481E+04  0.28074641996E+04  0.21986279390E+04 0.  0.
         24    2    3    3    0    0 -0.39919833051E+03  0.67019740189E+03  0.65931411617E+03  0.10245406234E+04  0.80402243106E+02 0.  0.
    9900016    2    1    2    0    0  0.40091037859E+03  0.94644156321E+03  0.55553295186E+03  0.24066855013E+04  0.21040526318E+04 0.  0.
         23    2    5    5    0    0  0.32231037776E+03 -0.14829731054E+03  0.75879270772E+02  0.37412864587E+03  0.91315431351E+02 0.  0.
        -15    1    6    6    0    0  0.25727348202E+03 -0.10569138919E+03  0.95262832406E+02  0.29399884615E+03  0.00000000000E+00 0.  1.
        -15    1    4    4    0    0 -0.18803664284E+03  0.35404437124E+03  0.29250743898E+03  0.49625174833E+03  0.00000000000E+00 0.  1.
         15    1    6    6    0    0  0.65036895744E+02 -0.42605921354E+02 -0.19383561634E+02  0.80129799725E+02  0.00000000000E+00 0. -1.
         15    1    3    3    0    0 -0.17120480819E+01 -0.16166389651E+04  0.75185903189E+03  0.17829235762E+04  0.00000000000E+00 0. -1.
        -16    1    5    5    0    0 -0.28060849302E+03  0.43383064138E+02  0.81937538245E+03  0.86717889387E+03  0.00000000000E+00 0.  1.
         16    1    4    4    0    0 -0.21116168767E+03  0.31615303065E+03  0.36680667719E+03  0.52828887510E+03  0.00000000000E+00 0. -1.
    9900018    1    5    5    0    0  0.35920849385E+03  0.10513558096E+04 -0.33972170137E+03  0.11653779615E+04  0.91187600000E+02 0.  0.
<mgrwt>
<rscale>  0 0.48290190E+04</rscale>
<asrwt>0</asrwt>
<pdfrwt beam="1">  1        2 0.55237352E+00 0.48290190E+04</pdfrwt>
<pdfrwt beam="2">  1       -2 0.24980335E+00 0.48290190E+04</pdfrwt>
<totfact> 0.33278060E-02</totfact>
</mgrwt>
</event>
<event>
13    1  0.8290465E-009  0.4988958E+04  0.7818608E-02  0.7830213E-01
         -2   -1    0    0    0  501 -0.00000000000E+00  0.00000000000E+00  0.16155305357E+04  0.16155305357E+04  0.00000000000E+00 0.  1.
          2   -1    0    0  501    0  0.00000000000E+00 -0.00000000000E+00 -0.38516296199E+04  0.38516296199E+04  0.00000000000E+00 0. -1.
    9900016    2    1    2    0    0  0.12274867931E+03 -0.11801951107E+04 -0.15017687228E+04  0.29164471124E+04  0.22005514593E+04 0.  0.
         24    2    3    3    0    0  0.36188546101E+03 -0.58937819382E+03  0.47278610992E+03  0.84156932876E+03  0.79902985739E+02 0.  0.
    9900016    2    1    2    0    0 -0.12274867931E+03  0.11801951107E+04 -0.73433036137E+03  0.25507130431E+04  0.21351740470E+04 0.  0.
         23    2    5    5    0    0  0.18711231897E+03 -0.17814079521E+03 -0.96297659929E+03  0.10012672900E+04  0.92016805374E+02 0.  0.
        -15    1    4    4    0    0  0.12278861912E+03 -0.23061825101E+03  0.22166437778E+03  0.34263233803E+03  0.00000000000E+00 0.  1.
        -15    1    6    6    0    0  0.54732403673E+02 -0.12821419999E+02 -0.30204811905E+03  0.30723458634E+03  0.00000000000E+00 0.  1.
         15    1    6    6    0    0  0.13237991529E+03 -0.16531937521E+03 -0.66092848024E+03  0.69403270369E+03  0.00000000000E+00 0. -1.
         15    1    3    3    0    0 -0.23913678170E+03 -0.59081691691E+03 -0.19745548328E+04  0.20748777837E+04  0.00000000000E+00 0. -1.
        -16    1    5    5    0    0 -0.25399444841E+03  0.41963480848E+03  0.34189136954E+03  0.59790991033E+03  0.00000000000E+00 0.  1.
         16    1    4    4    0    0  0.23909684189E+03 -0.35875994281E+03  0.25112173214E+03  0.49893699073E+03  0.00000000000E+00 0. -1.
    9900018    1    5    5    0    0 -0.55866549865E+02  0.93870109746E+03 -0.11324513161E+03  0.95153584273E+03  0.91187600000E+02 0.  0.
<mgrwt>
<rscale>  0 0.49889579E+04</rscale>
<asrwt>0</asrwt>
<pdfrwt beam="1">  1        2 0.59255840E+00 0.49889579E+04</pdfrwt>
<pdfrwt beam="2">  1       -2 0.24854316E+00 0.49889579E+04</pdfrwt>
<totfact> 0.21351723E-02</totfact>
</mgrwt>
</event>
<event>
13    1  0.8290465E-009  0.4725333E+04  0.7818608E-02  0.7872333E-01
         -2   -1    0    0    0  501 -0.00000000000E+00  0.00000000000E+00  0.15982534141E+04  0.15982534141E+04  0.00000000000E+00 0.  1.
          2   -1    0    0  501    0  0.00000000000E+00 -0.00000000000E+00 -0.34926829308E+04  0.34926829308E+04  0.00000000000E+00 0. -1.
    9900016    2    1    2    0    0 -0.23312473321E+03 -0.78933072304E+03 -0.14759232294E+04  0.27741832818E+04  0.22000803100E+04 0.  0.
         24    2    3    3    0    0  0.37378344817E+03  0.46774579882E+03  0.15886641137E+03  0.62450514499E+03  0.79170329188E+02 0.  0.
    9900016    2    1    2    0    0  0.23312473321E+03  0.78933072304E+03 -0.41850628734E+03  0.23167530631E+04  0.21248075468E+04 0.  0.
         23    2    5    5    0    0  0.35213793228E+03  0.48791325703E+02 -0.30299227356E+03  0.47672795427E+03  0.95307437941E+02 0.  0.
        -15    1    6    6    0    0  0.26862165157E+03  0.77326401382E+02 -0.22237623709E+03  0.35719484160E+03  0.00000000000E+00 0.  1.
        -15    1    4    4    0    0  0.16929168152E+03  0.23636615106E+03  0.11480434085E+03  0.31258385671E+03  0.00000000000E+00 0.  1.
         15    1    3    3    0    0 -0.60690818138E+03 -0.12570765219E+04 -0.16347896408E+04  0.21496781368E+04  0.00000000000E+00 0. -1.
         15    1    6    6    0    0  0.83516280710E+02 -0.28535075679E+02 -0.80616036463E+02  0.11953311266E+03  0.00000000000E+00 0. -1.
        -16    1    5    5    0    0 -0.88826979202E+03  0.34044479043E+03  0.50003086167E+02  0.95258920179E+03  0.00000000000E+00 0.  1.
         16    1    4    4    0    0  0.20449176665E+03  0.23137964776E+03  0.44062070514E+02  0.31192128828E+03  0.00000000000E+00 0. -1.
    9900018    1    5    5    0    0  0.76925659295E+03  0.40009460691E+03 -0.16551709995E+03  0.88743590700E+03  0.91187600000E+02 0.  0.
<mgrwt>
<rscale>  0 0.47253328E+04</rscale>
<asrwt>0</asrwt>
<pdfrwt beam="1">  1        2 0.53733583E+00 0.47253328E+04</pdfrwt>
<pdfrwt beam="2">  1       -2 0.24588514E+00 0.47253328E+04</pdfrwt>
<totfact> 0.41618150E-02</totfact>
</mgrwt>
</event>
<event>
12    1  0.8290465E-009  0.6989949E+04  0.7818608E-02  0.8122340E-01
         -2   -1    0    0    0  501 -0.00000000000E+00  0.00000000000E+00  0.54381796684E+04  0.54381796684E+04  0.00000000000E+00 0. -1.
          2   -1    0    0  501    0  0.00000000000E+00 -0.00000000000E+00 -0.25843106643E+04  0.25843106643E+04  0.00000000000E+00 0.  1.
    9900016    2    1    2    0    0  0.18467683227E+04 -0.11639350943E+04 -0.71111128105E+03  0.31852432418E+04  0.22078942714E+04 0.  0.
        -24    2    3    3    0    0 -0.17964043194E+03  0.18835943737E+02  0.50517277744E+03  0.54239881190E+03  0.79821416414E+02 0.  0.
         23    2    1    2    0    0 -0.25406456255E+03  0.32365851632E+03 -0.10108487167E+03  0.43360742806E+03  0.92160801095E+02 0.  0.
        -15    1    5    5    0    0 -0.19217736877E+03  0.28812991665E+03 -0.60719809705E+02  0.35162179288E+03  0.00000000000E+00 0. -1.
        -15    1    3    3    0    0  0.20264087547E+04 -0.11827710380E+04 -0.12162840585E+04  0.26428444299E+04  0.00000000000E+00 0.  1.
         15    1    4    4    0    0 -0.16353783328E+03 -0.10642588527E+02  0.41815133703E+03  0.44911961465E+03  0.00000000000E+00 0. -1.
         15    1    5    5    0    0 -0.61887193784E+02  0.35528599664E+02 -0.40365061963E+02  0.81985635180E+02  0.00000000000E+00 0.  1.
        -16    1    4    4    0    0 -0.16102598660E+02  0.29478532264E+02  0.87021440415E+02  0.93279197252E+02  0.00000000000E+00 0.  1.
         16    1    1    2    0    0  0.16548312653E+03  0.55026299209E+03  0.14422430877E+04  0.15524944926E+04  0.00000000000E+00 0. -1.
    9900018    1    1    2    0    0 -0.17581868867E+04  0.29001358590E+03  0.22238220692E+04  0.28511451704E+04  0.91187600000E+02 0.  0.
<mgrwt>
<rscale>  0 0.34641457E+04</rscale>
<asrwt>0</asrwt>
<pdfrwt beam="1">  1        2 0.39758626E+00 0.69899493E+04</pdfrwt>
<pdfrwt beam="2">  1       -2 0.83664302E+00 0.69899493E+04</pdfrwt>
<totfact> 0.81365626E-05</totfact>
</mgrwt>
</event>
