<event>
11    1  0.9575756E-012  0.3400047E+04  0.7818608E-02  0.8334465E-01
         -2   -1    0    0    0  501 -0.00000000000E+00  0.00000000000E+00  0.20668513490E+04  0.20668513490E+04  0.00000000000E+00 0. -1.
          2   -1    0    0  501    0  0.00000000000E+00 -0.00000000000E+00 -0.28082871289E+04  0.28082871289E+04  0.00000000000E+00 0.  1.
    9900016    2    1    2    0    0 -0.85429969410E+03  0.42335565384E+03 -0.65385562977E+03  0.21703940747E+04  0.18368520022E+04 0.  0.
        -24    2    3    3    0    0 -0.72300890975E+03 -0.63235814932E+03 -0.52805669497E+03  0.10991358070E+04  0.81467395373E+02 0.  0.
        -15    1    1    2    0    0 -0.33369184655E+03 -0.40110875017E+02 -0.66590741532E+03  0.74591676246E+03  0.00000000000E+00 0.  1.
        -15    1    3    3    0    0 -0.13129078436E+03  0.10557138032E+04 -0.12579893479E+03  0.10712582678E+04  0.00000000000E+00 0.  1.
         15    1    4    4    0    0 -0.35330274180E+03 -0.25588710059E+03 -0.23129854509E+03  0.49376112906E+03  0.00000000000E+00 0. -1.
         15    1    1    2    0    0  0.70770326772E+03 -0.12518309505E+03  0.94775505771E+02  0.72491180078E+03  0.00000000000E+00 0. -1.
        -16    1    4    4    0    0 -0.36970616795E+03 -0.37647104874E+03 -0.29675814988E+03  0.60537467793E+03  0.00000000000E+00 0.  1.
         16    1    1    2    0    0  0.86720749461E+02  0.11613359093E+03  0.64419320436E+03  0.66029719359E+03  0.00000000000E+00 0. -1.
    9900018    1    1    2    0    0  0.39356752347E+03 -0.37419527470E+03 -0.16064144494E+03  0.57361864629E+03  0.91187600000E+02 0.  0.
<mgrwt>
<rscale>  0 0.27016660E+04</rscale>
<asrwt>0</asrwt>
<pdfrwt beam="1">  1        2 0.43204417E+00 0.34000474E+04</pdfrwt>
<pdfrwt beam="2">  1       -2 0.31797713E+00 0.34000474E+04</pdfrwt>
<totfact> 0.44613937E-02</totfact>
</mgrwt>
</event>
<event>
11    1  0.9575756E-012  0.6111960E+04  0.7818608E-02  0.7676673E-01
          2   -1    0    0  501    0  0.00000000000E+00  0.00000000000E+00  0.34423318726E+04  0.34423318726E+04  0.00000000000E+00 0. -1.
         -2   -1    0    0    0  501 -0.00000000000E+00 -0.00000000000E+00 -0.27129903544E+04  0.27129903544E+04  0.00000000000E+00 0.  1.
    9900016    2    1    2    0    0  0.23702938858E+03  0.18767371256E+03  0.28533555414E+03  0.18918734528E+04  0.18456338828E+04 0.  0.
         24    2    3    3    0    0  0.14920853373E+03 -0.52688405561E+03  0.82403585767E+03  0.99270532413E+03  0.80986241073E+02 0.  0.
        -15    1    1    2    0    0 -0.45020623216E+03 -0.88265935983E+03  0.47304755995E+03  0.10979741304E+04  0.00000000000E+00 0.  1.
        -15    1    4    4    0    0  0.79514022698E+02 -0.33060893625E+03  0.44296716244E+03  0.55843052884E+03  0.00000000000E+00 0.  1.
         15    1    3    3    0    0  0.87820854847E+02  0.71455776817E+03 -0.53870030353E+03  0.89916812867E+03  0.00000000000E+00 0. -1.
         15    1    1    2    0    0  0.72847920877E+03  0.16159753695E+04  0.19524516497E+03  0.17833056460E+04  0.00000000000E+00 0. -1.
        -16    1    1    2    0    0 -0.34751107855E+03 -0.10480627657E+04 -0.71349904018E+02  0.11064765336E+04  0.00000000000E+00 0.  1.
         16    1    4    4    0    0  0.69694511035E+02 -0.19627511935E+03  0.38106869522E+03  0.43427479529E+03  0.00000000000E+00 0. -1.
    9900018    1    1    2    0    0 -0.16779128664E+03  0.12707304348E+03 -0.15293685687E+03  0.27569246423E+03  0.91187600000E+02 0.  0.
<mgrwt>
<rscale>  0 0.61119598E+04</rscale>
<asrwt>0</asrwt>
<pdfrwt beam="1">  1        2 0.52958952E+00 0.61119598E+04</pdfrwt>
<pdfrwt beam="2">  1       -2 0.41738313E+00 0.61119598E+04</pdfrwt>
<totfact> 0.33961998E-03</totfact>
</mgrwt>
</event>
<event>
11    1  0.9575756E-012  0.2764736E+04  0.7818608E-02  0.8546361E-01
          2   -1    0    0  501    0  0.00000000000E+00  0.00000000000E+00  0.16861486258E+04  0.16861486258E+04  0.00000000000E+00 0. -1.
         -2   -1    0    0    0  501 -0.00000000000E+00 -0.00000000000E+00 -0.22088482769E+04  0.22088482769E+04  0.00000000000E+00 0.  1.
    9900016    2    1    2    0    0  0.26938450230E+03  0.47293725481E+03  0.18324898590E+03  0.19296601007E+04  0.18422188405E+04 0.  0.
        -24    2    3    3    0    0 -0.64182623706E+03  0.45160435027E+03  0.53420682449E+03  0.95296592702E+03  0.82944071326E+02 0.  0.
        -15    1    1    2    0    0  0.53829403302E+03 -0.15719011139E+03 -0.47449421852E+03  0.73458420927E+03  0.00000000000E+00 0.  1.
        -15    1    3    3    0    0  0.91121073936E+03  0.21332904540E+02 -0.35095783859E+03  0.97669417363E+03  0.00000000000E+00 0.  1.
         15    1    1    2    0    0 -0.37327339989E+03 -0.98673487831E+02 -0.85396209190E+02  0.39542635321E+03  0.00000000000E+00 0. -1.
         15    1    4    4    0    0 -0.19494868299E+03  0.95145226523E+02  0.16368809444E+03  0.27175613221E+03  0.00000000000E+00 0. -1.
        -16    1    4    4    0    0 -0.44687755407E+03  0.35645912374E+03  0.37051873005E+03  0.68120979481E+03  0.00000000000E+00 0.  1.
         16    1    1    2    0    0 -0.17502091621E+03 -0.37312474395E+03  0.11216787085E+03  0.42712530586E+03  0.00000000000E+00 0. -1.
    9900018    1    1    2    0    0 -0.25938421923E+03  0.15605108836E+03 -0.25822608015E+03  0.40820093364E+03  0.91187600000E+02 0.  0.
<mgrwt>
<rscale>  0 0.21341195E+04</rscale>
<asrwt>0</asrwt>
<pdfrwt beam="1">  1        2 0.25940748E+00 0.27647362E+04</pdfrwt>
<pdfrwt beam="2">  1       -2 0.33982281E+00 0.27647362E+04</pdfrwt>
<totfact> 0.15195319E-01</totfact>
</mgrwt>
</event>
<event>
11    1  0.9744304E-012  0.2963569E+04  0.7818608E-02  0.8406406E-01
         -2   -1    0    0    0  501 -0.00000000000E+00  0.00000000000E+00  0.14813081245E+04  0.14813081245E+04  0.00000000000E+00 0.  1.
          2   -1    0    0  501    0  0.00000000000E+00 -0.00000000000E+00 -0.33404268331E+04  0.33404268331E+04  0.00000000000E+00 0. -1.
    9900016    2    1    2    0    0  0.14962881396E+03 -0.32601189797E+03 -0.92781715302E+02  0.18759945665E+04  0.18390417688E+04 0.  0.
         24    2    3    3    0    0 -0.27848052720E+03  0.62164001516E+03  0.32049463229E+03  0.75701329054E+03  0.79778444780E+02 0.  0.
        -15    1    1    2    0    0  0.30957658349E+03 -0.16279278706E+03 -0.93179709903E+03  0.99528136038E+03  0.00000000000E+00 0.  1.
        -15    1    4    4    0    0 -0.19081247205E+03  0.34498937292E+03  0.20815100309E+03  0.44581824437E+03  0.00000000000E+00 0.  1.
         15    1    1    2    0    0 -0.63501078627E+03 -0.54400518331E+02  0.18080576350E+03  0.66248685963E+03  0.00000000000E+00 0. -1.
         15    1    3    3    0    0  0.42810934116E+03 -0.94765191313E+03 -0.41327634759E+03  0.11189812759E+04  0.00000000000E+00 0. -1.
        -16    1    1    2    0    0  0.16379020795E+01  0.58481466384E+03 -0.67862363779E+03  0.89584647989E+03  0.00000000000E+00 0.  1.
         16    1    4    4    0    0 -0.87668055152E+02  0.27665064224E+03  0.11234362920E+03  0.31119504618E+03  0.00000000000E+00 0. -1.
    9900018    1    1    2    0    0  0.17416748674E+03 -0.41609460478E+02 -0.33672201995E+03  0.39212569127E+03  0.91187600000E+02 0.  0.
<mgrwt>
<rscale>  0 0.24904222E+04</rscale>
<asrwt>0</asrwt>
<pdfrwt beam="1">  1        2 0.51391182E+00 0.29635687E+04</pdfrwt>
<pdfrwt beam="2">  1       -2 0.22789356E+00 0.29635687E+04</pdfrwt>
<totfact> 0.75868410E-02</totfact>
</mgrwt>
</event>
<event>
11    1  0.9575756E-012  0.3711018E+04  0.7818608E-02  0.8203420E-01
         -2   -1    0    0    0  501 -0.00000000000E+00  0.00000000000E+00  0.21473382651E+04  0.21473382651E+04  0.00000000000E+00 0.  1.
          2   -1    0    0  501    0  0.00000000000E+00 -0.00000000000E+00 -0.36857629849E+04  0.36857629849E+04  0.00000000000E+00 0. -1.
    9900016    2    1    2    0    0  0.56042258476E+02  0.10990784212E+04 -0.48761675441E+03  0.21691707411E+04  0.18045546526E+04 0.  0.
         24    2    3    3    0    0  0.28896794446E+03  0.15644766776E+04 -0.38247948180E+03  0.16382246437E+04  0.79998011194E+02 0.  0.
        -15    1    1    2    0    0 -0.21405153161E+03  0.87961018032E+03 -0.41193458292E+03  0.99459651523E+03  0.00000000000E+00 0.  1.
        -15    1    4    4    0    0  0.18834345818E+03  0.11823345235E+04 -0.30592141825E+03  0.12357087431E+04  0.00000000000E+00 0.  1.
         15    1    3    3    0    0 -0.23292568599E+03 -0.46539825637E+03 -0.10513727260E+03  0.53094609738E+03  0.00000000000E+00 0. -1.
         15    1    1    2    0    0  0.77835071327E+01 -0.56923168558E+03  0.17530382978E+03  0.59566494575E+03  0.00000000000E+00 0. -1.
        -16    1    1    2    0    0 -0.43865521448E+03 -0.11057170989E+04 -0.73948425311E+03  0.14006661489E+04  0.00000000000E+00 0.  1.
         16    1    4    4    0    0  0.10062448628E+03  0.38214215407E+03 -0.76558063550E+02  0.40251590062E+03  0.00000000000E+00 0. -1.
    9900018    1    1    2    0    0  0.58888098048E+03 -0.30373981703E+03 -0.74692959173E+02  0.67300289908E+03  0.91187600000E+02 0.  0.
<mgrwt>
<rscale>  0 0.31452796E+04</rscale>
<asrwt>0</asrwt>
<pdfrwt beam="1">  1        2 0.56704046E+00 0.37110178E+04</pdfrwt>
<pdfrwt beam="2">  1       -2 0.33035973E+00 0.37110178E+04</pdfrwt>
<totfact> 0.93986994E-03</totfact>
</mgrwt>
</event>
<event>
11    1  0.9575756E-012  0.3032307E+04  0.7818608E-02  0.8332008E-01
         -2   -1    0    0    0  501 -0.00000000000E+00  0.00000000000E+00  0.25890637509E+04  0.25890637509E+04  0.00000000000E+00 0.  1.
          2   -1    0    0  501    0  0.00000000000E+00 -0.00000000000E+00 -0.31776209767E+04  0.31776209767E+04  0.00000000000E+00 0. -1.
    9900016    2    1    2    0    0 -0.12458929235E+03 -0.10810934404E+03  0.77196984254E+03  0.20050349170E+04  0.18430999589E+04 0.  0.
         24    2    3    3    0    0 -0.15587450218E+03 -0.32051859543E+03  0.13446741524E+04  0.13934086577E+04  0.80062979444E+02 0.  0.
        -15    1    4    4    0    0 -0.12181166765E+03 -0.26238967266E+03  0.95151839539E+03  0.99452183458E+03  0.00000000000E+00 0.  1.
        -15    1    1    2    0    0 -0.93593507730E+03  0.39334723530E+03  0.30943671110E+03  0.10613423550E+04  0.00000000000E+00 0.  1.
         15    1    1    2    0    0  0.11516976437E+04  0.30566804692E+03 -0.72173786310E+03  0.13931065861E+04  0.00000000000E+00 0. -1.
         15    1    3    3    0    0  0.31285209833E+02  0.21240925139E+03 -0.57270430990E+03  0.61162625926E+03  0.00000000000E+00 0. -1.
        -16    1    1    2    0    0 -0.20002663390E+03 -0.64104346680E+03 -0.94151504773E+03  0.11564592365E+04  0.00000000000E+00 0.  1.
         16    1    4    4    0    0 -0.34062834533E+02 -0.58128922768E+02  0.39315575705E+03  0.39888682312E+03  0.00000000000E+00 0. -1.
    9900018    1    1    2    0    0  0.10885335990E+03  0.50137528623E+02 -0.67108686096E+01  0.15074163290E+03  0.91187600000E+02 0.  0.
<mgrwt>
<rscale>  0 0.27092549E+04</rscale>
<asrwt>0</asrwt>
<pdfrwt beam="1">  1        2 0.48886477E+00 0.30323066E+04</pdfrwt>
<pdfrwt beam="2">  1       -2 0.39831750E+00 0.30323066E+04</pdfrwt>
<totfact> 0.81259902E-03</totfact>
</mgrwt>
</event>
<event>
11    1  0.9575756E-012  0.3793047E+04  0.7818608E-02  0.8225017E-01
         -2   -1    0    0    0  501 -0.00000000000E+00  0.00000000000E+00  0.37134525848E+04  0.37134525848E+04  0.00000000000E+00 0. -1.
          2   -1    0    0  501    0  0.00000000000E+00 -0.00000000000E+00 -0.19834590773E+04  0.19834590773E+04  0.00000000000E+00 0.  1.
    9900016    2    1    2    0    0  0.74551673492E+03  0.69784893030E+03  0.17654189405E+04  0.27505563769E+04  0.18455535797E+04 0.  0.
         24    2    3    3    0    0 -0.28976169412E+03  0.98908168545E+03  0.84866201987E+03  0.13373822210E+04  0.78227624768E+02 0.  0.
        -15    1    4    4    0    0 -0.33753449661E+02  0.10470954015E+03  0.61307161819E+02  0.12594423866E+03  0.00000000000E+00 0.  1.
        -15    1    1    2    0    0 -0.10799905156E+04 -0.62209203855E+01 -0.17892905505E+03  0.10947300217E+04  0.00000000000E+00 0.  1.
         15    1    1    2    0    0 -0.63592979186E+02 -0.22544006167E+03  0.50673792723E+03  0.55825676467E+03  0.00000000000E+00 0. -1.
         15    1    3    3    0    0  0.10352784290E+04 -0.29123275515E+03  0.91675692065E+03  0.14131741559E+04  0.00000000000E+00 0. -1.
        -16    1    1    2    0    0  0.54881924093E+03  0.61663490706E+02 -0.47184451245E+03  0.72638983283E+03  0.00000000000E+00 0.  1.
         16    1    4    4    0    0 -0.25600824446E+03  0.88437214530E+03  0.78735485805E+03  0.12114379824E+04  0.00000000000E+00 0. -1.
    9900018    1    1    2    0    0 -0.15075248107E+03 -0.52785143894E+03  0.10861020725E+03  0.56697866596E+03  0.91187600000E+02 0.  0.
<mgrwt>
<rscale>  0 0.30664113E+04</rscale>
<asrwt>0</asrwt>
<pdfrwt beam="1">  1        2 0.30514755E+00 0.37930471E+04</pdfrwt>
<pdfrwt beam="2">  1       -2 0.57130040E+00 0.37930471E+04</pdfrwt>
<totfact> 0.34997308E-03</totfact>
</mgrwt>
</event>
