<event>
11    1  0.4769779E-013  0.3697154E+04  0.7818608E-02  0.8068593E-01
         -2   -1    0    0    0  501 -0.00000000000E+00  0.00000000000E+00  0.18075496811E+04  0.18075496811E+04  0.00000000000E+00 0.  1.
          2   -1    0    0  501    0  0.00000000000E+00 -0.00000000000E+00 -0.18905356574E+04  0.18905356574E+04  0.00000000000E+00 0. -1.
    9900016    2    1    2    0    0  0.13999756436E+03  0.13893024825E+03 -0.42389502783E+03  0.94886022125E+03  0.82568020016E+03 0.  0.
         23    2    3    3    0    0  0.40907223761E+03  0.27254735724E+03 -0.26273366687E+03  0.56552092338E+03  0.95722398403E+02 0.  0.
        -15    1    4    4    0    0  0.25173855739E+03  0.21564911515E+03 -0.15040037578E+03  0.36400153183E+03  0.00000000000E+00 0.  1.
        -15    1    1    2    0    0 -0.22357209609E+03  0.14157812352E+03 -0.29377897135E+03  0.39539212336E+03  0.00000000000E+00 0.  1.
         15    1    4    4    0    0  0.15733368022E+03  0.56898242092E+02 -0.11233329109E+03  0.20151939155E+03  0.00000000000E+00 0. -1.
         15    1    1    2    0    0  0.78421296653E+03 -0.99209004973E+03  0.41872357553E+03  0.13321268995E+04  0.00000000000E+00 0. -1.
        -16    1    1    2    0    0 -0.70063843481E+03  0.71158167796E+03  0.21596444732E+03  0.10217060944E+04  0.00000000000E+00 0.  1.
         16    1    3    3    0    0 -0.11441717906E+03 -0.10598634509E+03 -0.28850170699E+02  0.15860872788E+03  0.00000000000E+00 0. -1.
    9900018    1    3    3    0    0 -0.15465749420E+03 -0.27630763897E+02 -0.13231119027E+03  0.22473056999E+03  0.91187600000E+02 0.  0.
<mgrwt>
<rscale>  0 0.36971541E+04</rscale>
<asrwt>0</asrwt>
<pdfrwt beam="1">  1        2 0.29085164E+00 0.36971541E+04</pdfrwt>
<pdfrwt beam="2">  1       -2 0.27808457E+00 0.36971541E+04</pdfrwt>
<totfact> 0.26886308E-01</totfact>
</mgrwt>
</event>
<event>
10    1  0.4769779E-013  0.3371577E+04  0.7818608E-02  0.8144918E-01
         -2   -1    0    0    0  501 -0.00000000000E+00  0.00000000000E+00  0.13049464308E+04  0.13049464308E+04  0.00000000000E+00 0.  1.
          2   -1    0    0  501    0  0.00000000000E+00 -0.00000000000E+00 -0.21777769846E+04  0.21777769846E+04  0.00000000000E+00 0. -1.
         23    2    1    2    0    0  0.37726159055E+03  0.18979081957E+03 -0.36329634444E+03  0.56431548048E+03  0.90115840577E+02 0.  0.
        -15    1    1    2    0    0 -0.14293146901E+03 -0.22938511180E+03  0.53298435783E+03  0.59759456159E+03  0.00000000000E+00 0.  1.
        -15    1    3    3    0    0  0.17420828952E+03  0.61419993431E+02 -0.10894726558E+03  0.21445384214E+03  0.00000000000E+00 0. -1.
         15    1    3    3    0    0  0.20305330103E+03  0.12837082614E+03 -0.25434907886E+03  0.34986163833E+03  0.00000000000E+00 0.  1.
         15    1    1    2    0    0  0.46021165369E+03 -0.11722368112E+03 -0.24396375778E+03  0.53390492854E+03  0.00000000000E+00 0. -1.
        -16    1    1    2    0    0 -0.28666246537E+02  0.23042985342E+03  0.34021688988E+02  0.23468520694E+03  0.00000000000E+00 0.  1.
         16    1    1    2    0    0 -0.54272045071E+03  0.14801674846E+03 -0.10597420381E+04  0.11997948295E+04  0.00000000000E+00 0. -1.
    9900018    1    1    2    0    0 -0.12315507798E+03 -0.22162862853E+03  0.22716553970E+03  0.35242840838E+03  0.91187600000E+02 0.  0.
<mgrwt>
<rscale>  0 0.33715767E+04</rscale>
<asrwt>0</asrwt>
<pdfrwt beam="1">  1        2 0.33504261E+00 0.33715767E+04</pdfrwt>
<pdfrwt beam="2">  1       -2 0.20076099E+00 0.33715767E+04</pdfrwt>
<totfact> 0.58023247E-01</totfact>
</mgrwt>
</event>
<event>
11    1  0.4769779E-013  0.1801648E+04  0.7818608E-02  0.8757312E-01
          2   -1    0    0  501    0  0.00000000000E+00  0.00000000000E+00  0.10783801628E+04  0.10783801628E+04  0.00000000000E+00 0.  1.
         -2   -1    0    0    0  501 -0.00000000000E+00 -0.00000000000E+00 -0.24592096639E+04  0.24592096639E+04  0.00000000000E+00 0. -1.
    9900016    2    1    2    0    0  0.31465354073E+03  0.58494418497E+02 -0.34586612385E+03  0.92649841977E+03  0.79771392022E+03 0.  0.
         23    2    3    3    0    0 -0.28362245040E+02  0.14046365690E+03  0.20892084832E+03  0.26910404055E+03  0.90744740462E+02 0.  0.
        -15    1    1    2    0    0  0.20290615881E+03  0.62155617770E+03 -0.13192213232E+03  0.66701307358E+03  0.00000000000E+00 0.  1.
        -15    1    4    4    0    0 -0.25643961684E+02  0.34437294814E+02  0.10633971425E+02  0.44233713311E+02  0.00000000000E+00 0.  1.
         15    1    1    2    0    0 -0.73600877549E+03 -0.82911883905E+03 -0.83495345841E+03  0.13879100275E+04  0.00000000000E+00 0. -1.
         15    1    4    4    0    0 -0.27182833553E+01  0.10602636209E+03  0.19828687690E+03  0.22487032724E+03  0.00000000000E+00 0. -1.
        -16    1    1    2    0    0 -0.25168001336E+02  0.16702696038E+03  0.14251011503E+03  0.22099901962E+03  0.00000000000E+00 0.  1.
         16    1    3    3    0    0  0.34301578577E+03 -0.81969238408E+02 -0.55478697218E+03  0.65739437922E+03  0.00000000000E+00 0. -1.
    9900018    1    1    2    0    0  0.24361707728E+03 -0.17958717537E+02 -0.21059790156E+03  0.33516928620E+03  0.91187600000E+02 0.  0.
<mgrwt>
<rscale>  0 0.17071230E+04</rscale>
<asrwt>0</asrwt>
<pdfrwt beam="1">  1        2 0.16590464E+00 0.18016476E+04</pdfrwt>
<pdfrwt beam="2">  1       -2 0.37833995E+00 0.18016476E+04</pdfrwt>
<totfact> 0.21221373E-01</totfact>
</mgrwt>
</event>
<event>
11    1  0.4769779E-013  0.2081312E+04  0.7818608E-02  0.8590524E-01
          2   -1    0    0  501    0  0.00000000000E+00  0.00000000000E+00  0.33948192784E+04  0.33948192784E+04  0.00000000000E+00 0.  1.
         -2   -1    0    0    0  501 -0.00000000000E+00 -0.00000000000E+00 -0.14021913861E+04  0.14021913861E+04  0.00000000000E+00 0. -1.
    9900016    2    1    2    0    0 -0.40928098457E+03  0.42314832651E+03  0.16282937754E+04  0.19044738685E+04  0.79316748938E+03 0.  0.
         23    2    3    3    0    0 -0.19995985855E+03 -0.18336850162E+03  0.30035906044E+03  0.41469167646E+03  0.90253359598E+02 0.  0.
        -15    1    4    4    0    0 -0.12462672448E+03 -0.53250831809E+02  0.14616317718E+03  0.19932673154E+03  0.00000000000E+00 0. -1.
        -15    1    1    2    0    0 -0.12944132941E+03 -0.49173347724E+02  0.73608185610E+03  0.74899237297E+03  0.00000000000E+00 0.  1.
         15    1    1    2    0    0  0.20223043506E+03  0.72118255591E+03  0.30971299023E+03  0.81050821348E+03  0.00000000000E+00 0. -1.
         15    1    4    4    0    0 -0.75333134070E+02 -0.13011766981E+03  0.15419588326E+03  0.21536494492E+03  0.00000000000E+00 0.  1.
        -16    1    3    3    0    0 -0.13259334470E+03  0.23342908663E+03  0.70002430083E+03  0.74973605709E+03  0.00000000000E+00 0.  1.
         16    1    1    2    0    0  0.33649187892E+03 -0.10951575347E+04 -0.68146072937E+03  0.13330362096E+04  0.00000000000E+00 0. -1.
    9900018    1    3    3    0    0 -0.76727781317E+02  0.37308774150E+03  0.62791041413E+03  0.74004613494E+03  0.91187600000E+02 0.  0.
<mgrwt>
<rscale>  0 0.20347935E+04</rscale>
<asrwt>0</asrwt>
<pdfrwt beam="1">  1        2 0.52227989E+00 0.20813120E+04</pdfrwt>
<pdfrwt beam="2">  1       -2 0.21572175E+00 0.20813120E+04</pdfrwt>
<totfact> 0.89474307E-02</totfact>
</mgrwt>
</event>
<event>
11    1  0.4769779E-013  0.2321179E+04  0.7818608E-02  0.8661911E-01
          1   -1    0    0  501    0  0.00000000000E+00  0.00000000000E+00  0.15443164876E+04  0.15443164876E+04  0.00000000000E+00 0. -1.
         -1   -1    0    0    0  501 -0.00000000000E+00 -0.00000000000E+00 -0.24673463170E+04  0.24673463170E+04  0.00000000000E+00 0.  1.
    9900016    2    1    2    0    0 -0.10916171782E+04  0.10773524728E+03 -0.41622620496E+03  0.14560140230E+04  0.86226308868E+03 0.  0.
         23    2    3    3    0    0 -0.16308988086E+03 -0.16818047259E+03 -0.24530028102E+03  0.35160127036E+03  0.92564814339E+02 0.  0.
        -15    1    1    2    0    0  0.82553362441E+03 -0.69255100390E+02 -0.12796630859E+04  0.15244145261E+04  0.00000000000E+00 0.  1.
        -15    1    4    4    0    0 -0.12155575333E+03 -0.59118691316E+02 -0.12928133289E+03  0.18704139612E+03  0.00000000000E+00 0.  1.
         15    1    1    2    0    0 -0.11633796205E+03  0.55882487877E+02 -0.33910057931E+02  0.13344386795E+03  0.00000000000E+00 0. -1.
         15    1    4    4    0    0 -0.41534127531E+02 -0.10906178128E+03 -0.11601894813E+03  0.16455987424E+03  0.00000000000E+00 0. -1.
        -16    1    3    3    0    0 -0.59324232741E+03 -0.30545577276E+02 -0.23073307200E+03  0.63726544064E+03  0.00000000000E+00 0.  1.
         16    1    1    2    0    0  0.38242151583E+03 -0.94362634770E+02  0.80676951941E+03  0.89779038759E+03  0.00000000000E+00 0. -1.
    9900018    1    3    3    0    0 -0.33528496992E+03  0.30646129715E+03  0.59807148050E+02  0.46714731195E+03  0.91187600000E+02 0.  0.
<mgrwt>
<rscale>  0 0.18858926E+04</rscale>
<asrwt>0</asrwt>
<pdfrwt beam="1">  1        1 0.23758715E+00 0.23211788E+04</pdfrwt>
<pdfrwt beam="2">  1       -1 0.37959174E+00 0.23211788E+04</pdfrwt>
<totfact> 0.52172890E-02</totfact>
</mgrwt>
</event>
