<event>
11    1  0.4861580E-011  0.3711182E+04  0.7818608E-02  0.8757166E-01
         -2   -1    0    0    0  501 -0.00000000000E+00  0.00000000000E+00  0.11399877701E+04  0.11399877701E+04  0.00000000000E+00 0.  1.
          2   -1    0    0  501    0  0.00000000000E+00 -0.00000000000E+00 -0.38060963188E+04  0.38060963188E+04  0.00000000000E+00 0. -1.
         23    2    1    2    0    0  0.12150627802E+03 -0.68540336580E+02 -0.75238327363E+03  0.77053399879E+03  0.90446113857E+02 0.  0.
         24    2    1    2    0    0  0.70355496106E+03  0.14257629844E+04 -0.63573967147E+03  0.17141525235E+04  0.79776393322E+02 0.  0.
        -15    1    3    3    0    0  0.75547234275E+02  0.84014699172E+01 -0.31230045808E+03  0.32141802286E+03  0.00000000000E+00 0. -1.
        -15    1    4    4    0    0  0.58869363010E+03  0.12523075675E+04 -0.55873538378E+03  0.14923202280E+04  0.00000000000E+00 0.  1.
         15    1    1    2    0    0 -0.46739516541E+03 -0.11067307664E+03 -0.50259385190E+03  0.69520310019E+03  0.00000000000E+00 0. -1.
         15    1    3    3    0    0  0.45959043746E+02 -0.76941806497E+02 -0.44008281555E+03  0.44911597593E+03  0.00000000000E+00 0.  1.
        -16    1    1    2    0    0 -0.35388706885E+03 -0.12964618864E+04 -0.43852317856E+03  0.14136308070E+04  0.00000000000E+00 0.  1.
         16    1    4    4    0    0  0.11486133096E+03  0.17345541686E+03 -0.77004287688E+02  0.22183229546E+03  0.00000000000E+00 0. -1.
    9900018    1    1    2    0    0 -0.37790048227E+01  0.49912315174E+02 -0.33686857312E+03  0.35256365954E+03  0.91187600000E+02 0.  0.
<mgrwt>
<rscale>  0 0.17073812E+04</rscale>
<asrwt>0</asrwt>
<pdfrwt beam="1">  1        2 0.58555328E+00 0.37111823E+04</pdfrwt>
<pdfrwt beam="2">  1       -2 0.17538273E+00 0.37111823E+04</pdfrwt>
<totfact> 0.75324016E-02</totfact>
</mgrwt>
</event>
<event>
11    1  0.4861578E-011  0.3364523E+04  0.7818608E-02  0.8766097E-01
         -2   -1    0    0    0  501 -0.00000000000E+00  0.00000000000E+00  0.24315205518E+04  0.24315205518E+04  0.00000000000E+00 0.  1.
          2   -1    0    0  501    0  0.00000000000E+00 -0.00000000000E+00 -0.13269467534E+04  0.13269467534E+04  0.00000000000E+00 0. -1.
         23    2    1    2    0    0 -0.17407605412E+03  0.86033484774E+02 -0.67330503265E+01  0.21516083893E+03  0.92437111170E+02 0.  0.
        -24    2    1    2    0    0  0.30020568755E+03 -0.73921550064E+03  0.56375814456E+01  0.80155319055E+03  0.76764078399E+02 0.  0.
        -15    1    3    3    0    0 -0.99666802442E+02 -0.18641117382E+01 -0.78349732145E+01  0.99991665787E+02  0.00000000000E+00 0. -1.
        -15    1    1    2    0    0  0.28795939089E+03  0.32163770318E+03  0.13452977780E+04  0.14128685482E+04  0.00000000000E+00 0.  1.
         15    1    4    4    0    0  0.25641030749E+03 -0.60199558643E+03  0.32049649210E+02  0.65511228952E+03  0.00000000000E+00 0. -1.
         15    1    3    3    0    0 -0.74409251675E+02  0.87897596513E+02  0.11019228880E+01  0.11516917314E+03  0.00000000000E+00 0.  1.
        -16    1    4    4    0    0  0.43795380063E+02 -0.13721991421E+03 -0.26412067764E+02  0.14644090103E+03  0.00000000000E+00 0.  1.
         16    1    1    2    0    0 -0.58129135455E+03  0.65769930311E+03 -0.33470578238E+03  0.93941256802E+03  0.00000000000E+00 0. -1.
    9900018    1    1    2    0    0  0.16720233023E+03 -0.32615499043E+03  0.95077271669E+02  0.38947215947E+03  0.91187600000E+02 0.  0.
<mgrwt>
<rscale>  0 0.16917270E+04</rscale>
<asrwt>0</asrwt>
<pdfrwt beam="1">  1        2 0.20414565E+00 0.33645234E+04</pdfrwt>
<pdfrwt beam="2">  1       -2 0.37408008E+00 0.33645234E+04</pdfrwt>
<totfact> 0.14358326E-01</totfact>
</mgrwt>
</event>
<event>
12    1  0.4861578E-011  0.2904367E+04  0.7818608E-02  0.8747741E-01
          2   -1    0    0  501    0  0.00000000000E+00  0.00000000000E+00  0.35342553323E+04  0.35342553323E+04  0.00000000000E+00 0. -1.
         -2   -1    0    0    0  501 -0.00000000000E+00 -0.00000000000E+00 -0.78135009423E+03  0.78135009423E+03  0.00000000000E+00 0.  1.
         23    2    1    2    0    0  0.66819829668E+02 -0.34284273562E+03  0.60099821994E+03  0.70090593116E+03  0.89801074367E+02 0.  0.
    9900016    2    1    2    0    0  0.46931411965E+03  0.64964484587E+03  0.16068959827E+04  0.27909251481E+04  0.21365519686E+04 0.  0.
         24    2    4    4    0    0  0.38878264059E+03 -0.40507733957E+03  0.91784423551E+03  0.10790334641E+04  0.81459090265E+02 0.  0.
        -15    1    5    5    0    0  0.25647226535E+03 -0.31855405676E+03  0.64647404642E+03  0.76497281171E+03  0.00000000000E+00 0.  1.
        -15    1    3    3    0    0  0.53925434837E+02 -0.19465330149E+03  0.42436470096E+03  0.46998219086E+03  0.00000000000E+00 0. -1.
         15    1    3    3    0    0  0.12894394831E+02 -0.14818943414E+03  0.17663351897E+03  0.23092374030E+03  0.00000000000E+00 0.  1.
         15    1    4    4    0    0 -0.38689527798E+03  0.84200347213E+03  0.11093052944E+03  0.93325419129E+03  0.00000000000E+00 0. -1.
        -16    1    1    2    0    0 -0.53613394932E+03 -0.30680211025E+03  0.54501103542E+03  0.82377434725E+03  0.00000000000E+00 0.  1.
         16    1    5    5    0    0  0.13231037525E+03 -0.86523282812E+02  0.27137018909E+03  0.31406065241E+03  0.00000000000E+00 0. -1.
    9900018    1    4    4    0    0  0.46742675704E+03  0.21271871331E+03  0.57812121773E+03  0.77863749266E+03  0.91187600000E+02 0.  0.
<mgrwt>
<rscale>  0 0.17240938E+04</rscale>
<asrwt>0</asrwt>
<pdfrwt beam="1">  1        2 0.54373158E+00 0.29043672E+04</pdfrwt>
<pdfrwt beam="2">  1       -2 0.12020771E+00 0.29043672E+04</pdfrwt>
<totfact> 0.34649381E-01</totfact>
</mgrwt>
</event>
<event>
12    1  0.4861578E-011  0.3141179E+04  0.7818608E-02  0.8204527E-01
          1   -1    0    0  501    0  0.00000000000E+00  0.00000000000E+00  0.18773389042E+04  0.18773389042E+04  0.00000000000E+00 0. -1.
         -1   -1    0    0    0  501 -0.00000000000E+00 -0.00000000000E+00 -0.13139613450E+04  0.13139613450E+04  0.00000000000E+00 0.  1.
         23    2    1    2    0    0 -0.14374407700E+03 -0.11129898583E+03 -0.34538376434E+03  0.40080296900E+03  0.91122178250E+02 0.  0.
    9900016    2    1    2    0    0  0.23748086146E+03  0.98875911662E+02  0.47050703694E+03  0.23421584158E+04  0.22799463957E+04 0.  0.
        -24    2    4    4    0    0 -0.13621136486E+03 -0.87885005122E+03  0.92295994157E+02  0.89774609983E+03  0.80613651321E+02 0.  0.
        -15    1    4    4    0    0  0.68619222609E+02  0.17916527138E+03  0.53693537225E+03  0.57018276557E+03  0.00000000000E+00 0.  1.
        -15    1    3    3    0    0 -0.22979817552E+01 -0.45907343749E+02 -0.10095272147E+03  0.11092437470E+03  0.00000000000E+00 0. -1.
         15    1    5    5    0    0 -0.12127844756E+03 -0.61253104067E+03  0.90910842417E+02  0.63100516551E+03  0.00000000000E+00 0. -1.
         15    1    3    3    0    0 -0.14144609525E+03 -0.65391642076E+02 -0.24443104286E+03  0.28987859429E+03  0.00000000000E+00 0.  1.
        -16    1    5    5    0    0 -0.14932917301E+02 -0.26631901055E+03  0.13851517408E+01  0.26674093432E+03  0.00000000000E+00 0.  1.
         16    1    1    2    0    0 -0.93736784463E+02  0.12423074163E+02  0.43825428665E+03  0.44833886437E+03  0.00000000000E+00 0. -1.
    9900018    1    4    4    0    0  0.30507300372E+03  0.79856069150E+03 -0.15872432947E+03  0.87422955039E+03  0.91187600000E+02 0.  0.
<mgrwt>
<rscale>  0 0.31411786E+04</rscale>
<asrwt>0</asrwt>
<pdfrwt beam="1">  1        1 0.28882137E+00 0.31411786E+04</pdfrwt>
<pdfrwt beam="2">  1       -1 0.20214790E+00 0.31411786E+04</pdfrwt>
<totfact> 0.44154158E-01</totfact>
</mgrwt>
</event>
