<event>
10    1  0.1374694E-013  0.2655021E+04  0.7818608E-02  0.8349749E-01
         -2   -1    0    0    0  501 -0.00000000000E+00  0.00000000000E+00  0.44308099109E+03  0.44308099109E+03  0.00000000000E+00 0.  1.
          2   -1    0    0  501    0  0.00000000000E+00 -0.00000000000E+00 -0.39773395266E+04  0.39773395266E+04  0.00000000000E+00 0. -1.
    9900016    2    1    2    0    0  0.17244679726E+03  0.32490224192E+03 -0.31281390775E+04  0.38724858694E+04  0.22529077556E+04 0.  0.
        -15    1    3    3    0    0  0.42796076154E+03  0.57907191025E+02 -0.17476405589E+04  0.18002086488E+04  0.00000000000E+00 0.  1.
        -15    1    3    3    0    0  0.49280253335E+01 -0.18930703166E+03  0.21146245832E+03  0.28386230632E+03  0.00000000000E+00 0.  1.
         15    1    3    3    0    0 -0.16632920446E+03  0.12162448826E+03 -0.17190190097E+03  0.26834340677E+03  0.00000000000E+00 0. -1.
         15    1    3    3    0    0 -0.16799227330E+03  0.30806856189E+03 -0.81059622675E+03  0.88328584588E+03  0.00000000000E+00 0. -1.
        -16    1    1    2    0    0 -0.17244679726E+03 -0.32490224192E+03 -0.40611945802E+03  0.54793464836E+03  0.00000000000E+00 0.  1.
         16    1    3    3    0    0  0.36932767070E+02 -0.26172001080E+02 -0.36782435665E+03  0.37059919087E+03  0.00000000000E+00 0. -1.
    9900018    1    3    3    0    0  0.36946721075E+02  0.52781033491E+02 -0.24163849261E+03  0.26618647073E+03  0.91187600000E+02 0.  0.
<mgrwt>
<rscale>  0 0.26550206E+04</rscale>
<asrwt>0</asrwt>
<pdfrwt beam="1">  1        2 0.61189838E+00 0.26550206E+04</pdfrwt>
<pdfrwt beam="2">  1       -2 0.68166308E-01 0.26550206E+04</pdfrwt>
<totfact> 0.62001195E-01</totfact>
</mgrwt>
</event>
<event>
11    1  0.1374694E-013  0.3389129E+04  0.7818608E-02  0.8140580E-01
          2   -1    0    0  501    0  0.00000000000E+00  0.00000000000E+00  0.29503763495E+04  0.29503763495E+04  0.00000000000E+00 0. -1.
         -2   -1    0    0    0  501 -0.00000000000E+00 -0.00000000000E+00 -0.97328204076E+03  0.97328204076E+03  0.00000000000E+00 0.  1.
    9900016    2    1    2    0    0  0.80626817035E+03 -0.25923201831E+03  0.19207647896E+04  0.30748694786E+04  0.22468233868E+04 0.  0.
         24    2    3    3    0    0  0.38020508149E+03 -0.11534563565E+03  0.87523948262E+03  0.96366453791E+03  0.68881565248E+02 0.  0.
        -15    1    3    3    0    0 -0.24116124543E+03  0.10455471148E+03 -0.41476959935E+02  0.26610293534E+03  0.00000000000E+00 0.  1.
        -15    1    4    4    0    0  0.18875051772E+03 -0.63469146042E+02  0.35737870165E+03  0.40911444222E+03  0.00000000000E+00 0.  1.
         15    1    3    3    0    0 -0.29980782730E+03 -0.25790439598E+03  0.76438803099E+02  0.40279312481E+03  0.00000000000E+00 0. -1.
         15    1    3    3    0    0  0.89884293140E+03  0.67320765249E+02  0.88656049861E+03  0.12642943559E+04  0.00000000000E+00 0. -1.
        -16    1    1    2    0    0 -0.80626817035E+03  0.25923201831E+03  0.56329519106E+02  0.84878891166E+03  0.00000000000E+00 0.  1.
         16    1    4    4    0    0  0.19145456377E+03 -0.51876489609E+02  0.51786078097E+03  0.55455009568E+03  0.00000000000E+00 0. -1.
    9900018    1    3    3    0    0  0.68189230188E+02 -0.57857463404E+02  0.12400296523E+03  0.17801452459E+03  0.91187600000E+02 0.  0.
<mgrwt>
<rscale>  0 0.33891287E+04</rscale>
<asrwt>0</asrwt>
<pdfrwt beam="1">  1        2 0.45390405E+00 0.33891287E+04</pdfrwt>
<pdfrwt beam="2">  1       -2 0.14973570E+00 0.33891287E+04</pdfrwt>
<totfact> 0.46642581E-01</totfact>
</mgrwt>
</event>
<event>
11    1  0.1374694E-013  0.2630555E+04  0.7818608E-02  0.8357896E-01
          2   -1    0    0  501    0  0.00000000000E+00  0.00000000000E+00  0.23228274485E+04  0.23228274485E+04  0.00000000000E+00 0. -1.
         -2   -1    0    0    0  501 -0.00000000000E+00 -0.00000000000E+00 -0.74476249906E+03  0.74476249906E+03  0.00000000000E+00 0.  1.
    9900016    2    1    2    0    0  0.27531948068E+03  0.20821125653E+03  0.12996766220E+04  0.26241344203E+04  0.22533906431E+04 0.  0.
        -24    2    3    3    0    0  0.43611606698E+03 -0.11522395096E+03 -0.37589717007E+03  0.59458893719E+03  0.93613775743E+02 0.  0.
        -15    1    3    3    0    0  0.22757272170E+03 -0.32665123635E+02  0.53458510229E+03  0.58192575605E+03  0.00000000000E+00 0.  1.
        -15    1    3    3    0    0 -0.16092213418E+03  0.33910543020E+03  0.25438574932E+03  0.45343195246E+03  0.00000000000E+00 0.  1.
         15    1    3    3    0    0 -0.20261149040E+03  0.10354994604E+02  0.87561510071E+03  0.89881057323E+03  0.00000000000E+00 0. -1.
         15    1    4    4    0    0  0.27549097230E+03 -0.10882312007E+03 -0.27886679946E+03  0.40682236802E+03  0.00000000000E+00 0. -1.
        -16    1    4    4    0    0  0.16062509468E+03 -0.64008308922E+01 -0.97030370610E+02  0.18776656917E+03  0.00000000000E+00 0.  1.
         16    1    1    2    0    0 -0.27531948068E+03 -0.20821125653E+03  0.27838832750E+03  0.44345552728E+03  0.00000000000E+00 0. -1.
    9900018    1    3    3    0    0 -0.24835683427E+02  0.66399063214E+01  0.10987839736E+02  0.95377201380E+02  0.91187600000E+02 0.  0.
<mgrwt>
<rscale>  0 0.26305549E+04</rscale>
<asrwt>0</asrwt>
<pdfrwt beam="1">  1        2 0.35735806E+00 0.26305549E+04</pdfrwt>
<pdfrwt beam="2">  1       -2 0.11457885E+00 0.26305549E+04</pdfrwt>
<totfact> 0.23095030E+00</totfact>
</mgrwt>
</event>
<event>
10    1  0.1374694E-013  0.4972235E+04  0.7818608E-02  0.7832805E-01
          2   -1    0    0  501    0  0.00000000000E+00  0.00000000000E+00  0.22359001042E+04  0.22359001042E+04  0.00000000000E+00 0. -1.
         -2   -1    0    0    0  501 -0.00000000000E+00 -0.00000000000E+00 -0.27643363573E+04  0.27643363573E+04  0.00000000000E+00 0.  1.
    9900016    2    1    2    0    0  0.16325341372E+04 -0.63966134677E+03  0.25992752039E+03  0.27799675280E+04  0.21415701700E+04 0.  0.
        -15    1    3    3    0    0  0.83365921487E+02 -0.11383594555E+03 -0.41434448315E+02  0.14705547549E+03  0.00000000000E+00 0.  1.
        -15    1    3    3    0    0  0.26991520014E+02  0.14971762805E+03 -0.99109764541E+02  0.18156722096E+03  0.00000000000E+00 0.  1.
         15    1    3    3    0    0  0.55343362659E+02  0.80383224332E+02  0.53202575063E+03  0.54090271757E+03  0.00000000000E+00 0. -1.
         15    1    3    3    0    0  0.14196553400E+04 -0.30740231423E+03 -0.14067523525E+03  0.14593515645E+04  0.00000000000E+00 0. -1.
        -16    1    1    2    0    0 -0.17289430533E+04  0.67358791867E+03 -0.88187041729E+03  0.20544245420E+04  0.00000000000E+00 0.  1.
         16    1    3    3    0    0  0.47177993138E+02 -0.44852393937E+03  0.91212178649E+01  0.45109054949E+03  0.00000000000E+00 0. -1.
    9900018    1    1    2    0    0  0.96408916061E+02 -0.33926571903E+02  0.93506643721E+02  0.16584439150E+03  0.91187600000E+02 0.  0.
<mgrwt>
<rscale>  0 0.49722349E+04</rscale>
<asrwt>0</asrwt>
<pdfrwt beam="1">  1        2 0.34398463E+00 0.49722349E+04</pdfrwt>
<pdfrwt beam="2">  1       -2 0.42528252E+00 0.49722349E+04</pdfrwt>
<totfact> 0.18220537E-02</totfact>
</mgrwt>
</event>
<event>
11    1  0.1374694E-013  0.3313745E+04  0.7818608E-02  0.8159407E-01
         -2   -1    0    0    0  501 -0.00000000000E+00  0.00000000000E+00  0.24155211829E+04  0.24155211829E+04  0.00000000000E+00 0.  1.
          2   -1    0    0  501    0  0.00000000000E+00 -0.00000000000E+00 -0.11364945112E+04  0.11364945112E+04  0.00000000000E+00 0. -1.
    9900016    2    1    2    0    0  0.66945237095E+03 -0.53685101669E+03  0.68197472226E+03  0.25066226955E+04  0.22542609265E+04 0.  0.
        -24    2    3    3    0    0  0.99714486076E+03 -0.40921052518E+03  0.78039947158E+03  0.13321221526E+04  0.61440760588E+02 0.  0.
        -15    1    3    3    0    0 -0.16126729756E+02 -0.97009336387E+01 -0.62988343739E+01  0.19845776391E+02  0.00000000000E+00 0.  1.
        -15    1    3    3    0    0 -0.60622436538E+03  0.64008610144E+02  0.11736925961E+03  0.62079032406E+03  0.00000000000E+00 0.  1.
         15    1    3    3    0    0  0.30154736628E+03 -0.10630441721E+03 -0.25272729050E+03  0.40755677714E+03  0.00000000000E+00 0. -1.
         15    1    4    4    0    0  0.48143051084E+03 -0.22696181662E+03  0.40251413378E+03  0.66731149463E+03  0.00000000000E+00 0. -1.
        -16    1    4    4    0    0  0.51571434992E+03 -0.18224870856E+03  0.37788533780E+03  0.66481065801E+03  0.00000000000E+00 0.  1.
         16    1    1    2    0    0 -0.66945237095E+03  0.53685101669E+03  0.59705194944E+03  0.10453929986E+04  0.00000000000E+00 0. -1.
    9900018    1    3    3    0    0 -0.68887609526E+01 -0.75643750803E+02  0.43232115934E+02  0.12630766527E+03  0.91187600000E+02 0.  0.
<mgrwt>
<rscale>  0 0.33137451E+04</rscale>
<asrwt>0</asrwt>
<pdfrwt beam="1">  1        2 0.17484531E+00 0.33137451E+04</pdfrwt>
<pdfrwt beam="2">  1       -2 0.37161864E+00 0.33137451E+04</pdfrwt>
<totfact> 0.19555334E-01</totfact>
</mgrwt>
</event>
<event>
11    1  0.1374694E-013  0.3026276E+04  0.7818608E-02  0.8236267E-01
         -2   -1    0    0    0  501 -0.00000000000E+00  0.00000000000E+00  0.99801900693E+03  0.99801900693E+03  0.00000000000E+00 0.  1.
          2   -1    0    0  501    0  0.00000000000E+00 -0.00000000000E+00 -0.22941311027E+04  0.22941311027E+04  0.00000000000E+00 0. -1.
    9900016    2    1    2    0    0 -0.44850599911E+03  0.13173067326E+03 -0.51696983671E+03  0.22553289869E+04  0.21449336647E+04 0.  0.
        -24    2    3    3    0    0 -0.36129503369E+03  0.27977142369E+03  0.76669003902E+02  0.47216019193E+03  0.90834793964E+02 0.  0.
        -15    1    3    3    0    0  0.54481654418E+03 -0.79925875898E+02 -0.41243394571E+03  0.68797890377E+03  0.00000000000E+00 0.  1.
        -15    1    3    3    0    0 -0.12955109275E+03  0.36523412996E+03  0.53852669582E+02  0.39125383748E+03  0.00000000000E+00 0.  1.
         15    1    3    3    0    0 -0.50247641685E+03 -0.43334900449E+03 -0.23505756448E+03  0.70393605378E+03  0.00000000000E+00 0. -1.
         15    1    4    4    0    0 -0.31052933206E+03  0.22352595363E+03  0.94951123688E+02  0.39421825669E+03  0.00000000000E+00 0. -1.
        -16    1    4    4    0    0 -0.50765701629E+02  0.56245470063E+02 -0.18282119787E+02  0.77941935236E+02  0.00000000000E+00 0.  1.
         16    1    1    2    0    0  0.48689283466E+03 -0.20935850029E+03 -0.72931648116E+03  0.90155318411E+03  0.00000000000E+00 0. -1.
    9900018    1    1    2    0    0 -0.38386835548E+02  0.77627827032E+02 -0.49825777923E+02  0.13526793860E+03  0.91187600000E+02 0.  0.
<mgrwt>
<rscale>  0 0.30262759E+04</rscale>
<asrwt>0</asrwt>
<pdfrwt beam="1">  1        2 0.35294324E+00 0.30262759E+04</pdfrwt>
<pdfrwt beam="2">  1       -2 0.15354139E+00 0.30262759E+04</pdfrwt>
<totfact> 0.10986668E+00</totfact>
</mgrwt>
</event>
<event>
11    1  0.1374694E-013  0.3738415E+04  0.7818608E-02  0.8059502E-01
          2   -1    0    0  501    0  0.00000000000E+00  0.00000000000E+00  0.22202809145E+04  0.22202809145E+04  0.00000000000E+00 0. -1.
         -2   -1    0    0    0  501 -0.00000000000E+00 -0.00000000000E+00 -0.15736459904E+04  0.15736459904E+04  0.00000000000E+00 0.  1.
    9900016    2    1    2    0    0 -0.11927560383E+04  0.22386992670E+02  0.42403429403E+03  0.25803704847E+04  0.22484080171E+04 0.  0.
         24    2    3    3    0    0 -0.26987295290E+03 -0.17912499540E+03 -0.28676923594E+03  0.44605675652E+03  0.10868698483E+03 0.  0.
        -15    1    4    4    0    0 -0.17430372787E+03 -0.82927722375E+02 -0.10642214967E+03  0.22041885271E+03  0.00000000000E+00 0.  1.
        -15    1    3    3    0    0 -0.86857562221E+03  0.20811740495E+03 -0.29705685814E+03  0.94126470385E+03  0.00000000000E+00 0.  1.
         15    1    3    3    0    0  0.14315778805E+03 -0.15819126818E+03  0.49583798622E+03  0.53979064293E+03  0.00000000000E+00 0. -1.
         15    1    3    3    0    0 -0.77957153895E+02  0.14094034140E+03  0.46996606789E+03  0.49679935854E+03  0.00000000000E+00 0. -1.
        -16    1    1    2    0    0  0.11927560383E+04 -0.22386992670E+02  0.22260063000E+03  0.12135564202E+04  0.00000000000E+00 0.  1.
         16    1    4    4    0    0 -0.95569225031E+02 -0.96197273024E+02 -0.18034708628E+03  0.22563790382E+03  0.00000000000E+00 0. -1.
    9900018    1    3    3    0    0 -0.11950809738E+03  0.10645509903E+02  0.42056334005E+02  0.15645902289E+03  0.91187600000E+02 0.  0.
<mgrwt>
<rscale>  0 0.37384147E+04</rscale>
<asrwt>0</asrwt>
<pdfrwt beam="1">  1        2 0.34158168E+00 0.37384147E+04</pdfrwt>
<pdfrwt beam="2">  1       -2 0.24209938E+00 0.37384147E+04</pdfrwt>
<totfact> 0.29141458E-01</totfact>
</mgrwt>
</event>
<event>
11    1  0.1374694E-013  0.3035711E+04  0.7818608E-02  0.8233606E-01
          2   -1    0    0  501    0  0.00000000000E+00  0.00000000000E+00  0.23795678656E+04  0.23795678656E+04  0.00000000000E+00 0. -1.
         -2   -1    0    0    0  501 -0.00000000000E+00 -0.00000000000E+00 -0.96819488671E+03  0.96819488671E+03  0.00000000000E+00 0.  1.
    9900016    2    1    2    0    0  0.37325877917E+03 -0.38952919305E+03  0.75018989263E+03  0.23344782664E+04  0.21438164084E+04 0.  0.
        -24    2    3    3    0    0  0.27917791619E+02  0.37663228277E+02  0.31671355223E+03  0.32613946440E+03  0.62141405017E+02 0.  0.
        -15    1    3    3    0    0  0.26087443480E+03 -0.12506828825E+03 -0.34067751646E+03  0.44694375225E+03  0.00000000000E+00 0.  1.
        -15    1    3    3    0    0 -0.20573722326E+03  0.34528503675E+03 -0.12046653079E+03  0.41959712425E+03  0.00000000000E+00 0.  1.
         15    1    4    4    0    0 -0.16376853798E+02  0.25729408227E+02  0.15858246413E+03  0.16148870461E+03  0.00000000000E+00 0. -1.
         15    1    3    3    0    0  0.29020377601E+03 -0.64740916983E+03  0.89462038764E+03  0.11417979255E+04  0.00000000000E+00 0. -1.
        -16    1    4    4    0    0  0.44294645417E+02  0.11933820050E+02  0.15813108810E+03  0.16465075978E+03  0.00000000000E+00 0.  1.
         16    1    1    2    0    0 -0.40980613788E+03  0.42125183793E+03  0.68974826872E+03  0.90617153774E+03  0.00000000000E+00 0. -1.
    9900018    1    1    2    0    0  0.36547358714E+02 -0.31722644878E+02 -0.28565182420E+02  0.10711294818E+03  0.91187600000E+02 0.  0.
<mgrwt>
<rscale>  0 0.30357111E+04</rscale>
<asrwt>0</asrwt>
<pdfrwt beam="1">  1        2 0.36608736E+00 0.30357111E+04</pdfrwt>
<pdfrwt beam="2">  1       -2 0.14895306E+00 0.30357111E+04</pdfrwt>
<totfact> 0.10638558E+00</totfact>
</mgrwt>
</event>
<event>
11    1  0.1374694E-013  0.2328787E+04  0.7818608E-02  0.8466657E-01
          2   -1    0    0  501    0  0.00000000000E+00  0.00000000000E+00  0.20283464974E+04  0.20283464974E+04  0.00000000000E+00 0. -1.
         -2   -1    0    0    0  501 -0.00000000000E+00 -0.00000000000E+00 -0.66843215949E+03  0.66843215949E+03  0.00000000000E+00 0.  1.
    9900016    2    1    2    0    0 -0.11571141232E+02 -0.80517279520E+02  0.12990234354E+04  0.25951684919E+04  0.22451772073E+04 0.  0.
        -24    2    3    3    0    0  0.13580298450E+03  0.26105800889E+03  0.10170671521E+03  0.31686447712E+03  0.58865153870E+02 0.  0.
        -15    1    3    3    0    0  0.40043201113E+03 -0.24581849935E+03 -0.24429110549E+03  0.52957593826E+03  0.00000000000E+00 0.  1.
        -15    1    3    3    0    0 -0.65587545858E+03 -0.22150587985E+03  0.10637493019E+04  0.12691729785E+04  0.00000000000E+00 0.  1.
         15    1    4    4    0    0  0.81912599963E+02  0.20396629267E+03  0.59411753894E+02  0.22768767880E+03  0.00000000000E+00 0. -1.
         15    1    3    3    0    0  0.74658753832E+02  0.10821845775E+03  0.35456878825E+03  0.37815894770E+03  0.00000000000E+00 0. -1.
        -16    1    4    4    0    0  0.53890384533E+02  0.57091716225E+02  0.42294961314E+02  0.89176798323E+02  0.00000000000E+00 0.  1.
         16    1    1    2    0    0  0.11571141232E+02  0.80517279520E+02  0.60890902488E+02  0.10161016493E+03  0.00000000000E+00 0. -1.
    9900018    1    3    3    0    0  0.33410567888E+02  0.17530633035E+02  0.23289735542E+02  0.10139615040E+03  0.91187600000E+02 0.  0.
<mgrwt>
<rscale>  0 0.23287868E+04</rscale>
<asrwt>0</asrwt>
<pdfrwt beam="1">  1        2 0.31205330E+00 0.23287868E+04</pdfrwt>
<pdfrwt beam="2">  1       -2 0.10283572E+00 0.23287868E+04</pdfrwt>
<totfact> 0.45026169E+00</totfact>
</mgrwt>
</event>
<event>
11    1  0.1374694E-013  0.2697733E+04  0.7818608E-02  0.8335741E-01
          2   -1    0    0  501    0  0.00000000000E+00  0.00000000000E+00  0.20464622602E+04  0.20464622602E+04  0.00000000000E+00 0.  1.
         -2   -1    0    0    0  501 -0.00000000000E+00 -0.00000000000E+00 -0.88906637438E+03  0.88906637438E+03  0.00000000000E+00 0. -1.
    9900016    2    1    2    0    0  0.26027873163E+02 -0.17966872222E+03  0.58631429874E+03  0.23362853793E+04  0.22542197356E+04 0.  0.
         24    2    3    3    0    0 -0.28178367041E+03 -0.63282565023E+03 -0.27636142302E+03  0.75315070457E+03  0.10483323503E+03 0.  0.
        -15    1    4    4    0    0 -0.20261250799E+03 -0.54172075628E+03 -0.20932633670E+03  0.61508594637E+03  0.00000000000E+00 0.  1.
        -15    1    3    3    0    0 -0.16902202013E+03  0.26194184952E+03  0.53334244475E+03  0.61776705901E+03  0.00000000000E+00 0.  1.
         15    1    3    3    0    0 -0.12852170869E+03  0.12685902436E+03  0.57585678710E+02  0.18954459121E+03  0.00000000000E+00 0. -1.
         15    1    3    3    0    0  0.59563782383E+03  0.79114309910E+02  0.30909796810E+03  0.67571077029E+03  0.00000000000E+00 0. -1.
        -16    1    1    2    0    0 -0.26027873163E+02  0.17966872222E+03  0.57108158703E+03  0.59924325526E+03  0.00000000000E+00 0.  1.
         16    1    4    4    0    0 -0.79171162426E+02 -0.91104893943E+02 -0.67035086320E+02  0.13806475820E+03  0.00000000000E+00 0. -1.
    9900018    1    3    3    0    0  0.97174485706E+01 -0.14758255783E+02 -0.37350369801E+02  0.10011225419E+03  0.91187600000E+02 0.  0.
<mgrwt>
<rscale>  0 0.26977330E+04</rscale>
<asrwt>0</asrwt>
<pdfrwt beam="1">  1        2 0.31484035E+00 0.26977330E+04</pdfrwt>
<pdfrwt beam="2">  1       -2 0.13677944E+00 0.26977330E+04</pdfrwt>
<totfact> 0.21071639E+00</totfact>
</mgrwt>
</event>
<event>
11    1  0.1374694E-013  0.2708115E+04  0.7818608E-02  0.8332377E-01
         -2   -1    0    0    0  501 -0.00000000000E+00  0.00000000000E+00  0.94035929442E+03  0.94035929442E+03  0.00000000000E+00 0.  1.
          2   -1    0    0  501    0  0.00000000000E+00 -0.00000000000E+00 -0.19497558935E+04  0.19497558935E+04  0.00000000000E+00 0. -1.
    9900016    2    1    2    0    0  0.17251708936E+03 -0.31544228434E+03 -0.59960686644E+03  0.23449605256E+04  0.22383130906E+04 0.  0.
        -24    2    3    3    0    0  0.62466963753E+03  0.19195710933E+03 -0.23832488945E+03  0.70274883890E+03  0.99987448074E+02 0.  0.
        -15    1    3    3    0    0 -0.16912601906E+03  0.42484934224E+03  0.20629197195E+00  0.45727520869E+03  0.00000000000E+00 0.  1.
        -15    1    3    3    0    0  0.89903343633E+02 -0.29127156555E+03 -0.88872185353E+02  0.31752165504E+03  0.00000000000E+00 0.  1.
         15    1    4    4    0    0  0.18780416172E+03  0.10122675340E+03 -0.54659660299E+02  0.22023836457E+03  0.00000000000E+00 0. -1.
         15    1    3    3    0    0 -0.39279819719E+03 -0.60916623507E+03 -0.24256824336E+03  0.76433845799E+03  0.00000000000E+00 0. -1.
        -16    1    4    4    0    0  0.43686547581E+03  0.90730355922E+02 -0.18366522915E+03  0.48251047433E+03  0.00000000000E+00 0.  1.
         16    1    1    2    0    0 -0.17251708936E+03  0.31544228434E+03 -0.40978973265E+03  0.54515466233E+03  0.00000000000E+00 0. -1.
    9900018    1    3    3    0    0  0.19868324452E+02 -0.31810935287E+02 -0.30047840244E+02  0.10307636498E+03  0.91187600000E+02 0.  0.
<mgrwt>
<rscale>  0 0.27081145E+04</rscale>
<asrwt>0</asrwt>
<pdfrwt beam="1">  1        2 0.29996244E+00 0.27081145E+04</pdfrwt>
<pdfrwt beam="2">  1       -2 0.14467066E+00 0.27081145E+04</pdfrwt>
<totfact> 0.20593755E+00</totfact>
</mgrwt>
</event>
<event>
11    1  0.1374694E-013  0.3297992E+04  0.7818608E-02  0.8163407E-01
          2   -1    0    0  501    0  0.00000000000E+00  0.00000000000E+00  0.33843878306E+04  0.33843878306E+04  0.00000000000E+00 0. -1.
         -2   -1    0    0    0  501 -0.00000000000E+00 -0.00000000000E+00 -0.80345017530E+03  0.80345017530E+03  0.00000000000E+00 0.  1.
    9900016    2    1    2    0    0 -0.53244660439E+03 -0.31645984447E+03  0.10892793381E+04  0.25726938157E+04  0.22469040419E+04 0.  0.
        -24    2    3    3    0    0 -0.14656023238E+03  0.41764720908E+03 -0.48624898443E+01  0.45513713823E+03  0.10591070684E+03 0.  0.
        -15    1    3    3    0    0  0.18975674432E+03 -0.56272116991E+03  0.15796692271E+03  0.61450491109E+03  0.00000000000E+00 0.  1.
        -15    1    3    3    0    0 -0.45133570859E+03  0.31870987007E+03  0.40368135201E+03  0.68427957524E+03  0.00000000000E+00 0.  1.
         15    1    4    4    0    0 -0.12141985846E+03  0.23929951492E+03 -0.40946104759E+02  0.27144727548E+03  0.00000000000E+00 0. -1.
         15    1    3    3    0    0 -0.11120242240E+03 -0.48100655904E+03  0.53257273192E+03  0.72620038789E+03  0.00000000000E+00 0. -1.
        -16    1    4    4    0    0 -0.25140373916E+02  0.17834769415E+03  0.36083614914E+02  0.18368986275E+03  0.00000000000E+00 0.  1.
         16    1    1    2    0    0  0.53244660439E+03  0.31645984447E+03  0.14916583172E+04  0.16151441902E+04  0.00000000000E+00 0. -1.
    9900018    1    3    3    0    0 -0.13104985330E+02 -0.90891946703E+01 -0.79178737214E-01  0.92571803284E+02  0.91187600000E+02 0.  0.
<mgrwt>
<rscale>  0 0.32979915E+04</rscale>
<asrwt>0</asrwt>
<pdfrwt beam="1">  1        2 0.52067504E+00 0.32979915E+04</pdfrwt>
<pdfrwt beam="2">  1       -2 0.12360772E+00 0.32979915E+04</pdfrwt>
<totfact> 0.40199661E-01</totfact>
</mgrwt>
</event>
<event>
10    1  0.1374694E-013  0.2914078E+04  0.7818608E-02  0.8268701E-01
          1   -1    0    0  501    0  0.00000000000E+00  0.00000000000E+00  0.38972144552E+04  0.38972144552E+04  0.00000000000E+00 0. -1.
         -1   -1    0    0    0  501 -0.00000000000E+00 -0.00000000000E+00 -0.54473861246E+03  0.54473861246E+03  0.00000000000E+00 0.  1.
    9900016    2    1    2    0    0 -0.20156035083E+03 -0.39425201962E+03  0.20993714448E+04  0.31129188837E+04  0.22554029093E+04 0.  0.
        -15    1    3    3    0    0  0.11221436803E+03  0.17621896224E+03  0.11250986473E+04  0.11443304389E+04  0.00000000000E+00 0.  1.
        -15    1    3    3    0    0  0.24480416479E+03 -0.67452294127E+03  0.23225882967E+03  0.75422439722E+03  0.00000000000E+00 0.  1.
         15    1    3    3    0    0 -0.92417797603E+02 -0.26248271177E+03  0.34935490461E+03  0.44663975715E+03  0.00000000000E+00 0. -1.
         15    1    3    3    0    0 -0.26238024365E+03  0.22159052302E+03  0.20158062205E+03  0.39822167110E+03  0.00000000000E+00 0. -1.
        -16    1    3    3    0    0 -0.15677784298E+03  0.13877052763E+03  0.15529053263E+03  0.26067547049E+03  0.00000000000E+00 0.  1.
         16    1    1    2    0    0  0.20156035083E+03  0.39425201962E+03  0.12531043979E+04  0.13290341840E+04  0.00000000000E+00 0. -1.
    9900018    1    3    3    0    0 -0.47002999420E+02  0.61736205301E+01  0.35787908509E+02  0.10882714888E+03  0.91187600000E+02 0.  0.
<mgrwt>
<rscale>  0 0.29140784E+04</rscale>
<asrwt>0</asrwt>
<pdfrwt beam="1">  1        1 0.59957144E+00 0.29140784E+04</pdfrwt>
<pdfrwt beam="2">  1       -1 0.83805943E-01 0.29140784E+04</pdfrwt>
<totfact> 0.14260544E-01</totfact>
</mgrwt>
</event>
<event>
11    1  0.1374694E-013  0.2863460E+04  0.7818608E-02  0.8283833E-01
         -2   -1    0    0    0  501 -0.00000000000E+00  0.00000000000E+00  0.74207135369E+03  0.74207135369E+03  0.00000000000E+00 0.  1.
          2   -1    0    0  501    0  0.00000000000E+00 -0.00000000000E+00 -0.27623369789E+04  0.27623369789E+04  0.00000000000E+00 0. -1.
    9900016    2    1    2    0    0  0.32878488417E+03 -0.15573159907E+03 -0.20566949796E+04  0.29997767365E+04  0.21532102542E+04 0.  0.
         24    2    3    3    0    0  0.49797149983E+03 -0.27388018845E+03 -0.16446369629E+04  0.17408277613E+04  0.51619594767E+02 0.  0.
        -15    1    4    4    0    0  0.23486010283E+03 -0.10042966825E+03 -0.72117158723E+03  0.76507113682E+03  0.00000000000E+00 0.  1.
        -15    1    3    3    0    0 -0.19938899892E+03  0.28877838196E+03 -0.73983894474E+02  0.35863985197E+03  0.00000000000E+00 0. -1.
         15    1    3    3    0    0 -0.29963711231E+03  0.18202068260E+03 -0.12084998422E+03  0.37083506664E+03  0.00000000000E+00 0.  1.
         15    1    3    3    0    0  0.32983949557E+03 -0.35265047518E+03 -0.21722413801E+03  0.52947405660E+03  0.00000000000E+00 0. -1.
        -16    1    1    2    0    0 -0.34444179272E+03  0.13317004977E+03  0.10884215242E+03  0.38499483746E+03  0.00000000000E+00 0.  1.
         16    1    4    4    0    0  0.26311139701E+03 -0.17345052019E+03 -0.92346537569E+03  0.97575662452E+03  0.00000000000E+00 0. -1.
    9900018    1    1    2    0    0  0.15656908548E+02  0.22561549296E+02 -0.72412797976E+02  0.11963675855E+03  0.91187600000E+02 0.  0.
<mgrwt>
<rscale>  0 0.28634602E+04</rscale>
<asrwt>0</asrwt>
<pdfrwt beam="1">  1        2 0.42497493E+00 0.28634602E+04</pdfrwt>
<pdfrwt beam="2">  1       -2 0.11416482E+00 0.28634602E+04</pdfrwt>
<totfact> 0.12656226E+00</totfact>
</mgrwt>
</event>
<event>
11    1  0.1374694E-013  0.2592077E+04  0.7818608E-02  0.8370897E-01
         -1   -1    0    0    0  501 -0.00000000000E+00  0.00000000000E+00  0.14005897450E+04  0.14005897450E+04  0.00000000000E+00 0.  1.
          1   -1    0    0  501    0  0.00000000000E+00 -0.00000000000E+00 -0.11992921511E+04  0.11992921511E+04  0.00000000000E+00 0. -1.
    9900016    2    1    2    0    0  0.17933479962E+02  0.95545738652E+02  0.47892139535E+03  0.23057296004E+04  0.22533469971E+04 0.  0.
        -24    2    3    3    0    0  0.25680361894E+03  0.17848419907E+02 -0.29103906366E+03  0.39895775425E+03  0.90536668272E+02 0.  0.
        -15    1    3    3    0    0 -0.14197842550E+03 -0.17838745107E+03  0.89409722397E+03  0.92270786380E+03  0.00000000000E+00 0.  1.
        -15    1    3    3    0    0  0.25779210573E+03 -0.17357627175E+03 -0.27263427066E+02  0.31197561819E+03  0.00000000000E+00 0.  1.
         15    1    4    4    0    0  0.19544823332E+03  0.52273834280E+02 -0.22266764639E+03  0.30085452699E+03  0.00000000000E+00 0. -1.
         15    1    3    3    0    0 -0.39589324080E+03  0.37479707136E+03 -0.11323758319E+03  0.55680073012E+03  0.00000000000E+00 0. -1.
        -16    1    4    4    0    0  0.61355385623E+02 -0.34425414373E+02 -0.68371417274E+02  0.98103227265E+02  0.00000000000E+00 0.  1.
         16    1    1    2    0    0 -0.17933479962E+02 -0.95545738652E+02 -0.27762380147E+03  0.29415229562E+03  0.00000000000E+00 0. -1.
    9900018    1    3    3    0    0  0.41209421586E+02  0.54863970201E+02  0.16364245306E+02  0.11528763408E+03  0.91187600000E+02 0.  0.
<mgrwt>
<rscale>  0 0.25920774E+04</rscale>
<asrwt>0</asrwt>
<pdfrwt beam="1">  1        1 0.18450648E+00 0.25920774E+04</pdfrwt>
<pdfrwt beam="2">  1       -1 0.21547535E+00 0.25920774E+04</pdfrwt>
<totfact> 0.11129906E+00</totfact>
</mgrwt>
</event>
<event>
11    1  0.1374694E-013  0.3119931E+04  0.7818608E-02  0.8210289E-01
          1   -1    0    0  501    0  0.00000000000E+00  0.00000000000E+00  0.23330272123E+04  0.23330272123E+04  0.00000000000E+00 0. -1.
         -1   -1    0    0    0  501 -0.00000000000E+00 -0.00000000000E+00 -0.10430622071E+04  0.10430622071E+04  0.00000000000E+00 0.  1.
    9900016    2    1    2    0    0  0.12003908856E+03 -0.18588753793E+03  0.17604010116E+04  0.28562109762E+04  0.22382953021E+04 0.  0.
         24    2    3    3    0    0 -0.47178585355E+02  0.50616664167E+02  0.10421854503E+04  0.10503377051E+04  0.11077416856E+03 0.  0.
        -15    1    3    3    0    0 -0.38629333675E+03 -0.48441823058E+02  0.17624429381E+03  0.42735372157E+03  0.00000000000E+00 0.  1.
        -15    1    4    4    0    0 -0.59545498371E+02  0.47396818444E+02  0.35649588363E+03  0.36452906581E+03  0.00000000000E+00 0.  1.
         15    1    3    3    0    0  0.28505339546E+03  0.22887168120E+03  0.64606211233E+03  0.74231660207E+03  0.00000000000E+00 0. -1.
         15    1    3    3    0    0  0.24152591346E+03 -0.41227754528E+03 -0.18389548906E+03  0.51198153493E+03  0.00000000000E+00 0. -1.
        -16    1    1    2    0    0 -0.12003908856E+03  0.18588753793E+03 -0.47043600640E+03  0.51987844315E+03  0.00000000000E+00 0.  1.
         16    1    4    4    0    0  0.12366913017E+02  0.32198457231E+01  0.68568956667E+03  0.68580863933E+03  0.00000000000E+00 0. -1.
    9900018    1    3    3    0    0  0.26931701750E+02 -0.46565149617E+01  0.79804644176E+02  0.12422141247E+03  0.91187600000E+02 0.  0.
<mgrwt>
<rscale>  0 0.31199311E+04</rscale>
<asrwt>0</asrwt>
<pdfrwt beam="1">  1        1 0.35892726E+00 0.31199311E+04</pdfrwt>
<pdfrwt beam="2">  1       -1 0.16047111E+00 0.31199311E+04</pdfrwt>
<totfact> 0.43123682E-01</totfact>
</mgrwt>
</event>
<event>
11    1  0.1374694E-013  0.3232632E+04  0.7818608E-02  0.8180252E-01
          1   -1    0    0  501    0  0.00000000000E+00  0.00000000000E+00  0.21023075287E+04  0.21023075287E+04  0.00000000000E+00 0. -1.
         -1   -1    0    0    0  501 -0.00000000000E+00 -0.00000000000E+00 -0.12426710470E+04  0.12426710470E+04  0.00000000000E+00 0.  1.
    9900016    2    1    2    0    0 -0.72080734644E+01  0.79515272610E+03  0.38568894738E+03  0.24192647542E+04  0.22520582081E+04 0.  0.
         24    2    3    3    0    0 -0.11228922394E+03  0.70076435411E+03  0.42370929817E+03  0.82890794112E+03  0.62283671139E+02 0.  0.
        -15    1    4    4    0    0 -0.42787285743E+02  0.26672008269E+03  0.19685396427E+03  0.33424816765E+03  0.00000000000E+00 0.  1.
        -15    1    3    3    0    0 -0.22647168014E+03  0.46443973006E+02 -0.18509863665E+03  0.29615531369E+03  0.00000000000E+00 0.  1.
         15    1    3    3    0    0 -0.39218253020E+03  0.59144103143E+02  0.10650096155E+03  0.41066728229E+03  0.00000000000E+00 0. -1.
         15    1    3    3    0    0  0.73850221631E+03 -0.10185862614E+03 -0.73084295271E+01  0.74552942018E+03  0.00000000000E+00 0. -1.
        -16    1    1    2    0    0  0.72080734644E+01 -0.79515272610E+03  0.47394753427E+03  0.92571382154E+03  0.00000000000E+00 0.  1.
         16    1    4    4    0    0 -0.69501938199E+02  0.43404427142E+03  0.22685533390E+03  0.49465977347E+03  0.00000000000E+00 0. -1.
    9900018    1    3    3    0    0 -0.14766855490E+02  0.90658921980E+02  0.47885753835E+02  0.13800479691E+03  0.91187600000E+02 0.  0.
<mgrwt>
<rscale>  0 0.32326316E+04</rscale>
<asrwt>0</asrwt>
<pdfrwt beam="1">  1        1 0.32343193E+00 0.32326316E+04</pdfrwt>
<pdfrwt beam="2">  1       -1 0.19118016E+00 0.32326316E+04</pdfrwt>
<totfact> 0.36728060E-01</totfact>
</mgrwt>
</event>
<event>
11    1  0.1374694E-013  0.2716623E+04  0.7818608E-02  0.8329631E-01
         -2   -1    0    0    0  501 -0.00000000000E+00  0.00000000000E+00  0.62605694783E+03  0.62605694783E+03  0.00000000000E+00 0.  1.
          2   -1    0    0  501    0  0.00000000000E+00 -0.00000000000E+00 -0.29470324415E+04  0.29470324415E+04  0.00000000000E+00 0. -1.
    9900016    2    1    2    0    0  0.21482223052E+03  0.26233417668E+03 -0.23047557980E+04  0.32336326329E+04  0.22426575542E+04 0.  0.
         24    2    3    3    0    0 -0.18897582616E+03 -0.47979931167E+03 -0.14177262967E+04  0.15126820186E+04  0.11108462763E+03 0.  0.
        -15    1    4    4    0    0 -0.48675847061E+02 -0.16313510606E+03 -0.33286390894E+03  0.37387268260E+03  0.00000000000E+00 0.  1.
        -15    1    3    3    0    0  0.22318105526E+03  0.29994320698E+03 -0.74456835194E+02  0.38120798936E+03  0.00000000000E+00 0.  1.
         15    1    3    3    0    0  0.38140810194E+03 -0.60917841692E+02 -0.26405301690E+03  0.46787511089E+03  0.00000000000E+00 0. -1.
         15    1    3    3    0    0 -0.24355199318E+03  0.51803869539E+03 -0.43213421723E+03  0.71723193251E+03  0.00000000000E+00 0. -1.
        -16    1    1    2    0    0 -0.21482223052E+03 -0.26233417668E+03 -0.16219695723E+02  0.33945675646E+03  0.00000000000E+00 0.  1.
         16    1    4    4    0    0 -0.14029997909E+03 -0.31666420561E+03 -0.10848623878E+04  0.11388093360E+04  0.00000000000E+00 0. -1.
    9900018    1    3    3    0    0  0.42760892657E+02 -0.14930572330E+02 -0.11638543192E+03  0.15463558157E+03  0.91187600000E+02 0.  0.
<mgrwt>
<rscale>  0 0.27166230E+04</rscale>
<asrwt>0</asrwt>
<pdfrwt beam="1">  1        2 0.45338960E+00 0.27166230E+04</pdfrwt>
<pdfrwt beam="2">  1       -2 0.96316455E-01 0.27166230E+04</pdfrwt>
<totfact> 0.14850301E+00</totfact>
</mgrwt>
</event>
<event>
11    1  0.1374694E-013  0.2732767E+04  0.7818608E-02  0.8324451E-01
          1   -1    0    0  501    0  0.00000000000E+00  0.00000000000E+00  0.18117963573E+04  0.18117963573E+04  0.00000000000E+00 0. -1.
         -1   -1    0    0    0  501 -0.00000000000E+00 -0.00000000000E+00 -0.10304714349E+04  0.10304714349E+04  0.00000000000E+00 0.  1.
    9900016    2    1    2    0    0  0.26895701759E+03  0.34078805882E+03  0.55319205795E+03  0.23518404457E+04  0.22442499082E+04 0.  0.
        -24    2    3    3    0    0 -0.31201328347E+02  0.25040824090E+03  0.14895214842E+03  0.29944508856E+03  0.61666916113E+02 0.  0.
        -15    1    3    3    0    0  0.24622190917E+03  0.45787431188E+03 -0.33511996840E+02  0.52095793301E+03  0.00000000000E+00 0.  1.
        -15    1    3    3    0    0  0.60548249711E+03 -0.22200909492E+03 -0.64568693655E+02  0.64812514897E+03  0.00000000000E+00 0.  1.
         15    1    3    3    0    0 -0.57682993523E+03 -0.15668927525E+03  0.51265585600E+03  0.78746449434E+03  0.00000000000E+00 0. -1.
         15    1    4    4    0    0 -0.49762290148E+02  0.19408113688E+03  0.11847024365E+03  0.23276376832E+03  0.00000000000E+00 0. -1.
        -16    1    4    4    0    0  0.18560961801E+02  0.56327104015E+02  0.30481904776E+02  0.66681320236E+02  0.00000000000E+00 0.  1.
         16    1    1    2    0    0 -0.26895701759E+03 -0.34078805882E+03  0.22813286442E+03  0.49042734648E+03  0.00000000000E+00 0. -1.
    9900018    1    3    3    0    0  0.25283874887E+02  0.11203876204E+02 -0.10335255982E+02  0.95847780784E+02  0.91187600000E+02 0.  0.
<mgrwt>
<rscale>  0 0.27327674E+04</rscale>
<asrwt>0</asrwt>
<pdfrwt beam="1">  1        1 0.27873790E+00 0.27327674E+04</pdfrwt>
<pdfrwt beam="2">  1       -1 0.15853407E+00 0.27327674E+04</pdfrwt>
<totfact> 0.10441297E+00</totfact>
</mgrwt>
</event>
<event>
11    1  0.1374694E-013  0.2633692E+04  0.7818608E-02  0.8356846E-01
         -2   -1    0    0    0  501 -0.00000000000E+00  0.00000000000E+00  0.48836101848E+03  0.48836101848E+03  0.00000000000E+00 0. -1.
          2   -1    0    0  501    0  0.00000000000E+00 -0.00000000000E+00 -0.35508222473E+04  0.35508222473E+04  0.00000000000E+00 0.  1.
    9900016    2    1    2    0    0 -0.15086118522E+03 -0.25257572594E+03 -0.23418719890E+04  0.31955637085E+04  0.21542305837E+04 0.  0.
         24    2    3    3    0    0  0.16501781566E+02  0.55196297705E+03 -0.38831117436E+03  0.67785228188E+03  0.61340941370E+02 0.  0.
        -15    1    4    4    0    0 -0.21254222502E+02  0.30622542926E+03 -0.21148480588E+03  0.37276209386E+03  0.00000000000E+00 0.  1.
        -15    1    3    3    0    0 -0.62371422637E+02 -0.12367867845E+03 -0.13132079936E+03  0.19087106174E+03  0.00000000000E+00 0.  1.
         15    1    3    3    0    0  0.42997302894E+03  0.11084577836E+03 -0.32331566116E+03  0.54926915892E+03  0.00000000000E+00 0. -1.
         15    1    3    3    0    0 -0.53496457309E+03 -0.79170580290E+03 -0.14989243541E+04  0.17775712059E+04  0.00000000000E+00 0. -1.
        -16    1    1    2    0    0  0.19906219529E+03  0.26678110396E+03 -0.57914303491E+03  0.66798545636E+03  0.00000000000E+00 0.  1.
         16    1    4    4    0    0  0.37756004069E+02  0.24573754779E+03 -0.17682636848E+03  0.30509018802E+03  0.00000000000E+00 0. -1.
    9900018    1    1    2    0    0 -0.48201010065E+02 -0.14205378016E+02 -0.14144620490E+03  0.17563410093E+03  0.91187600000E+02 0.  0.
<mgrwt>
<rscale>  0 0.26336918E+04</rscale>
<asrwt>0</asrwt>
<pdfrwt beam="1">  1        2 0.54628033E+00 0.26336918E+04</pdfrwt>
<pdfrwt beam="2">  1       -2 0.75132467E-01 0.26336918E+04</pdfrwt>
<totfact> 0.10509678E+00</totfact>
</mgrwt>
</event>
<event>
10    1  0.1374694E-013  0.2541817E+04  0.7818608E-02  0.8388238E-01
         -2   -1    0    0    0  501 -0.00000000000E+00  0.00000000000E+00  0.11411508002E+04  0.11411508002E+04  0.00000000000E+00 0.  1.
          2   -1    0    0  501    0  0.00000000000E+00 -0.00000000000E+00 -0.14154203467E+04  0.14154203467E+04  0.00000000000E+00 0. -1.
    9900016    2    1    2    0    0  0.23650405877E+03  0.72733262976E+01 -0.38802546538E+03  0.22940307116E+04  0.22485608893E+04 0.  0.
        -15    1    3    3    0    0 -0.46921083023E+03 -0.60207974780E+02 -0.22341655797E+03  0.52316227101E+03  0.00000000000E+00 0.  1.
        -15    1    3    3    0    0  0.11006596861E+03  0.14535292353E+03 -0.17385741038E+02  0.18315090449E+03  0.00000000000E+00 0.  1.
         15    1    3    3    0    0  0.16669798634E-01  0.38529578964E+03 -0.10201747122E+03  0.39857296725E+03  0.00000000000E+00 0. -1.
         15    1    3    3    0    0  0.89833820496E+02 -0.56267485542E+03 -0.10886932855E+03  0.58010829931E+03  0.00000000000E+00 0. -1.
        -16    1    1    2    0    0 -0.23650405877E+03 -0.72733262976E+01  0.11375591881E+03  0.26254043528E+03  0.00000000000E+00 0.  1.
         16    1    3    3    0    0  0.46817423464E+03  0.13400400656E+03  0.10232980240E+03  0.49760986346E+03  0.00000000000E+00 0. -1.
    9900018    1    3    3    0    0  0.37624195456E+02 -0.34496563235E+02 -0.38666169003E+02  0.11142640611E+03  0.91187600000E+02 0.  0.
<mgrwt>
<rscale>  0 0.25418167E+04</rscale>
<asrwt>0</asrwt>
<pdfrwt beam="1">  1        2 0.21775698E+00 0.25418167E+04</pdfrwt>
<pdfrwt beam="2">  1       -2 0.17556166E+00 0.25418167E+04</pdfrwt>
<totfact> 0.24541391E+00</totfact>
</mgrwt>
</event>
<event>
11    1  0.1374694E-013  0.3874473E+04  0.7818608E-02  0.8030359E-01
         -2   -1    0    0    0  501 -0.00000000000E+00  0.00000000000E+00  0.18458755456E+04  0.18458755456E+04  0.00000000000E+00 0. -1.
          2   -1    0    0  501    0  0.00000000000E+00 -0.00000000000E+00 -0.20331194911E+04  0.20331194911E+04  0.00000000000E+00 0.  1.
    9900016    2    1    2    0    0  0.64496433224E+03  0.10122029437E+04  0.19641256522E+02  0.24674293305E+04  0.21557569281E+04 0.  0.
        -24    2    3    3    0    0 -0.36332426242E+03  0.59584806884E+02 -0.16408370565E+03  0.40834319508E+03  0.65313349558E+02 0.  0.
        -15    1    3    3    0    0  0.10134495772E+03  0.41892488225E+03 -0.37481427990E+03  0.57118701126E+03  0.00000000000E+00 0.  1.
        -15    1    3    3    0    0  0.59602537315E+03  0.23944359331E+02  0.65182288691E+03  0.88356813754E+03  0.00000000000E+00 0.  1.
         15    1    4    4    0    0 -0.15918277815E+03 -0.20353156478E+00 -0.49351063311E+02  0.16665751029E+03  0.00000000000E+00 0. -1.
         15    1    3    3    0    0  0.31091826379E+03  0.50974889527E+03 -0.93283644834E+02  0.60433098661E+03  0.00000000000E+00 0. -1.
        -16    1    4    4    0    0 -0.20414148427E+03  0.59788338448E+02 -0.11473264234E+03  0.24168568479E+03  0.00000000000E+00 0.  1.
         16    1    1    2    0    0 -0.67935915780E+03 -0.10800559388E+04 -0.17005536691E+03  0.12872328943E+04  0.00000000000E+00 0. -1.
    9900018    1    1    2    0    0  0.34394825557E+02  0.67852995117E+02 -0.36829835179E+02  0.12433281194E+03  0.91187600000E+02 0.  0.
<mgrwt>
<rscale>  0 0.38744732E+04</rscale>
<asrwt>0</asrwt>
<pdfrwt beam="1">  1        2 0.31278761E+00 0.38744732E+04</pdfrwt>
<pdfrwt beam="2">  1       -2 0.28398085E+00 0.38744732E+04</pdfrwt>
<totfact> 0.20322795E-01</totfact>
</mgrwt>
</event>
<event>
11    1  0.1374694E-013  0.2818632E+04  0.7818608E-02  0.8297507E-01
          2   -1    0    0  501    0  0.00000000000E+00  0.00000000000E+00  0.21922870377E+04  0.21922870377E+04  0.00000000000E+00 0. -1.
         -2   -1    0    0    0  501 -0.00000000000E+00 -0.00000000000E+00 -0.90598145221E+03  0.90598145221E+03  0.00000000000E+00 0.  1.
    9900016    2    1    2    0    0  0.16334461138E+03  0.30812566772E+03  0.14628056490E+04  0.27074038565E+04  0.22513578983E+04 0.  0.
         24    2    3    3    0    0 -0.31366143384E+03  0.63338225084E+03  0.98737774154E+03  0.12181062533E+04  0.96495953594E+02 0.  0.
        -15    1    3    3    0    0 -0.10203643333E+03 -0.28794459202E+03 -0.70426675566E+00  0.30548979982E+03  0.00000000000E+00 0.  1.
        -15    1    4    4    0    0 -0.23257115315E+03  0.48942119248E+03  0.82039707607E+03  0.98319571162E+03  0.00000000000E+00 0.  1.
         15    1    3    3    0    0  0.69570275168E+03 -0.22262084831E+03  0.24473644760E+03  0.77036244040E+03  0.00000000000E+00 0. -1.
         15    1    3    3    0    0 -0.12914096225E+03  0.20112834797E+03  0.11804503896E+03  0.26657950354E+03  0.00000000000E+00 0. -1.
        -16    1    1    2    0    0 -0.16334461138E+03 -0.30812566772E+03 -0.17650006356E+03  0.39086463336E+03  0.00000000000E+00 0.  1.
         16    1    4    4    0    0 -0.81090280697E+02  0.14396105836E+03  0.16698066548E+03  0.23491054168E+03  0.00000000000E+00 0. -1.
    9900018    1    3    3    0    0  0.12480689127E+02 -0.15819490754E+02  0.11335068767E+03  0.14686585947E+03  0.91187600000E+02 0.  0.
<mgrwt>
<rscale>  0 0.28186319E+04</rscale>
<asrwt>0</asrwt>
<pdfrwt beam="1">  1        2 0.33727493E+00 0.28186319E+04</pdfrwt>
<pdfrwt beam="2">  1       -2 0.13938176E+00 0.28186319E+04</pdfrwt>
<totfact> 0.16463237E+00</totfact>
</mgrwt>
</event>
<event>
11    1  0.1374694E-013  0.3059522E+04  0.7818608E-02  0.8226935E-01
          2   -1    0    0  501    0  0.00000000000E+00  0.00000000000E+00  0.19492450824E+04  0.19492450824E+04  0.00000000000E+00 0. -1.
         -2   -1    0    0    0  501 -0.00000000000E+00 -0.00000000000E+00 -0.12005510719E+04  0.12005510719E+04  0.00000000000E+00 0.  1.
    9900016    2    1    2    0    0 -0.17840615852E+03  0.61470369320E+03  0.43338024427E+03  0.22892916394E+04  0.21548430074E+04 0.  0.
        -24    2    3    3    0    0  0.36574602698E+02 -0.40656767574E+02 -0.46475083151E+03  0.47119669839E+03  0.55157219605E+02 0.  0.
        -15    1    3    3    0    0 -0.57009500480E+03  0.20913623118E+03 -0.32373722607E+02  0.60810717444E+03  0.00000000000E+00 0.  1.
        -15    1    3    3    0    0  0.44140724830E+03  0.28295434183E+03  0.86977947183E+03  0.10155884245E+04  0.00000000000E+00 0.  1.
         15    1    4    4    0    0  0.70692657981E+01 -0.46592687286E+02 -0.25832272787E+03  0.26258614731E+03  0.00000000000E+00 0. -1.
         15    1    3    3    0    0 -0.86293004718E+02  0.16326988777E+03  0.60725326557E+02  0.19439934208E+03  0.00000000000E+00 0. -1.
        -16    1    4    4    0    0  0.29505336900E+02  0.59359197128E+01 -0.20642810364E+03  0.20861055108E+03  0.00000000000E+00 0.  1.
         16    1    1    2    0    0  0.18783007209E+03 -0.66582639368E+03  0.30141839957E+03  0.75462439273E+03  0.00000000000E+00 0. -1.
    9900018    1    1    2    0    0 -0.94239135746E+01  0.51122700479E+02  0.13895366697E+02  0.10588012212E+03  0.91187600000E+02 0.  0.
<mgrwt>
<rscale>  0 0.30595217E+04</rscale>
<asrwt>0</asrwt>
<pdfrwt beam="1">  1        2 0.29988386E+00 0.30595217E+04</pdfrwt>
<pdfrwt beam="2">  1       -2 0.18470017E+00 0.30595217E+04</pdfrwt>
<totfact> 0.10225366E+00</totfact>
</mgrwt>
</event>
<event>
11    1  0.1374694E-013  0.3058055E+04  0.7818608E-02  0.8227345E-01
         -1   -1    0    0    0  501 -0.00000000000E+00  0.00000000000E+00  0.67512539055E+03  0.67512539055E+03  0.00000000000E+00 0.  1.
          1   -1    0    0  501    0  0.00000000000E+00 -0.00000000000E+00 -0.34629492733E+04  0.34629492733E+04  0.00000000000E+00 0. -1.
    9900016    2    1    2    0    0  0.59792865135E+03 -0.23433019061E+03 -0.19491597057E+04  0.29740841235E+04  0.21525620792E+04 0.  0.
         24    2    3    3    0    0  0.74851469541E+03 -0.56158069227E+03 -0.47613506541E+03  0.10539241532E+04  0.91675498019E+02 0.  0.
        -15    1    3    3    0    0 -0.20242717214E+03  0.17436911814E+03 -0.36784689181E+02  0.26969327530E+03  0.00000000000E+00 0.  1.
        -15    1    4    4    0    0  0.32122708246E+03 -0.21853442834E+03 -0.15140504028E+03  0.41697436504E+03  0.00000000000E+00 0.  1.
         15    1    3    3    0    0  0.39490858361E+03 -0.62645530699E+02 -0.83022743721E+03  0.92149598448E+03  0.00000000000E+00 0. -1.
         15    1    3    3    0    0 -0.34306745553E+03  0.21552691422E+03 -0.60601251392E+03  0.72897071054E+03  0.00000000000E+00 0. -1.
        -16    1    1    2    0    0 -0.66096789675E+03  0.21044946166E+03 -0.72723711029E+03  0.10050081348E+04  0.00000000000E+00 0.  1.
         16    1    4    4    0    0  0.42728761295E+03 -0.34304626393E+03 -0.32473002512E+03  0.63694978812E+03  0.00000000000E+00 0. -1.
    9900018    1    1    2    0    0  0.63039245408E+02  0.23880728945E+02 -0.11142706672E+03  0.15898240553E+03  0.91187600000E+02 0.  0.
<mgrwt>
<rscale>  0 0.30580549E+04</rscale>
<asrwt>0</asrwt>
<pdfrwt beam="1">  1        1 0.53276143E+00 0.30580549E+04</pdfrwt>
<pdfrwt beam="2">  1       -1 0.10386544E+00 0.30580549E+04</pdfrwt>
<totfact> 0.19740909E-01</totfact>
</mgrwt>
</event>
<event>
11    1  0.1374694E-013  0.3178762E+04  0.7818608E-02  0.8194449E-01
         -1   -1    0    0    0  501 -0.00000000000E+00  0.00000000000E+00  0.11548326153E+04  0.11548326153E+04  0.00000000000E+00 0.  1.
          1   -1    0    0  501    0  0.00000000000E+00 -0.00000000000E+00 -0.21874441757E+04  0.21874441757E+04  0.00000000000E+00 0. -1.
    9900016    2    1    2    0    0 -0.28320989014E+03 -0.70714843402E+03 -0.55605209901E+03  0.24437359351E+04  0.22544144769E+04 0.  0.
         24    2    3    3    0    0  0.44747379132E+03  0.20870295806E+03 -0.40388512540E+03  0.64522255142E+03  0.96949614390E+02 0.  0.
        -15    1    4    4    0    0  0.16582606058E+03  0.27526231699E+02 -0.14350131755E+03  0.22101720281E+03  0.00000000000E+00 0.  1.
        -15    1    3    3    0    0  0.48302142980E+02 -0.34742548131E+01  0.27634749226E+02  0.55757033886E+02  0.00000000000E+00 0.  1.
         15    1    3    3    0    0 -0.90302411449E+03 -0.26731233655E+03 -0.87903953062E+02  0.94585175455E+03  0.00000000000E+00 0. -1.
         15    1    3    3    0    0  0.16262545432E+03 -0.65852112830E+03 -0.29190349031E+02  0.67893239081E+03  0.00000000000E+00 0. -1.
        -16    1    1    2    0    0  0.28320989014E+03  0.70714843402E+03 -0.47655946132E+03  0.89854085594E+03  0.00000000000E+00 0.  1.
         16    1    4    4    0    0  0.28164773074E+03  0.18117672636E+03 -0.26038380785E+03  0.42420534862E+03  0.00000000000E+00 0. -1.
    9900018    1    3    3    0    0 -0.38587164273E+02  0.13456327582E+02 -0.62707420741E+02  0.11797220439E+03  0.91187600000E+02 0.  0.
<mgrwt>
<rscale>  0 0.31787619E+04</rscale>
<asrwt>0</asrwt>
<pdfrwt beam="1">  1        1 0.33652987E+00 0.31787619E+04</pdfrwt>
<pdfrwt beam="2">  1       -1 0.17766656E+00 0.31787619E+04</pdfrwt>
<totfact> 0.40285925E-01</totfact>
</mgrwt>
</event>
<event>
10    1  0.1374694E-013  0.2439139E+04  0.7818608E-02  0.8424994E-01
          2   -1    0    0  501    0  0.00000000000E+00  0.00000000000E+00  0.18554870380E+04  0.18554870380E+04  0.00000000000E+00 0. -1.
         -2   -1    0    0    0  501 -0.00000000000E+00 -0.00000000000E+00 -0.80159513780E+03  0.80159513780E+03  0.00000000000E+00 0.  1.
    9900016    2    1    2    0    0 -0.18426243417E+03 -0.11916823278E+02  0.84845078000E+03  0.23191971737E+04  0.21505143917E+04 0.  0.
        -15    1    3    3    0    0  0.25645302226E+03  0.51828731002E+02  0.43143079476E+02  0.26517106797E+03  0.00000000000E+00 0.  1.
        -15    1    3    3    0    0  0.17984619142E+03 -0.29951328599E+03 -0.44326936390E+03  0.56439400247E+03  0.00000000000E+00 0.  1.
         15    1    3    3    0    0 -0.94267445307E+02  0.47410104474E+02  0.44824824758E+03  0.46050033736E+03  0.00000000000E+00 0. -1.
         15    1    3    3    0    0 -0.41979243957E+03  0.10276911538E+02  0.40894749891E+03  0.58614790291E+03  0.00000000000E+00 0. -1.
        -16    1    3    3    0    0 -0.10650176297E+03  0.17808071570E+03  0.39138131793E+03  0.44298386297E+03  0.00000000000E+00 0.  1.
         16    1    1    2    0    0  0.15140793183E+03 -0.82190636088E+01  0.18061259607E+03  0.23582371528E+03  0.00000000000E+00 0. -1.
    9900018    1    1    2    0    0  0.32854502342E+02  0.20135886887E+02  0.24828524131E+02  0.10206128683E+03  0.91187600000E+02 0.  0.
<mgrwt>
<rscale>  0 0.24391387E+04</rscale>
<asrwt>0</asrwt>
<pdfrwt beam="1">  1        2 0.28545954E+00 0.24391387E+04</pdfrwt>
<pdfrwt beam="2">  1       -2 0.12332233E+00 0.24391387E+04</pdfrwt>
<totfact> 0.35739393E+00</totfact>
</mgrwt>
</event>
<event>
11    1  0.1374694E-013  0.3086792E+04  0.7818608E-02  0.8219372E-01
         -2   -1    0    0    0  501 -0.00000000000E+00  0.00000000000E+00  0.16903977907E+04  0.16903977907E+04  0.00000000000E+00 0.  1.
          2   -1    0    0  501    0  0.00000000000E+00 -0.00000000000E+00 -0.14091782120E+04  0.14091782120E+04  0.00000000000E+00 0. -1.
    9900016    2    1    2    0    0  0.69609734114E+03  0.79224576139E+02  0.39717445074E+03  0.22920765492E+04  0.21459355353E+04 0.  0.
         24    2    3    3    0    0 -0.75390735539E+02  0.20650736048E+02 -0.58820689335E+02  0.11790983985E+03  0.65822799511E+02 0.  0.
        -15    1    3    3    0    0  0.11234494771E+03 -0.85569677924E+02  0.21012496316E+02  0.14277633578E+03  0.00000000000E+00 0.  1.
        -15    1    4    4    0    0 -0.73610356309E+02  0.32961364462E+02 -0.29187776306E+02  0.85772153924E+02  0.00000000000E+00 0.  1.
         15    1    3    3    0    0 -0.40612735977E+03 -0.28480098747E+03  0.69507195119E+03  0.85391805938E+03  0.00000000000E+00 0. -1.
         15    1    3    3    0    0  0.10652704887E+04  0.42894450548E+03 -0.26008930743E+03  0.11774723142E+04  0.00000000000E+00 0. -1.
        -16    1    1    2    0    0 -0.67991875469E+03 -0.11551901946E+03 -0.14318643607E+03  0.70436958503E+03  0.00000000000E+00 0.  1.
         16    1    4    4    0    0 -0.17803792296E+01 -0.12310628414E+02 -0.29632913029E+02  0.32137685927E+02  0.00000000000E+00 0. -1.
    9900018    1    1    2    0    0 -0.16178586452E+02  0.36294443320E+02  0.27231564007E+02  0.10312986836E+03  0.91187600000E+02 0.  0.
<mgrwt>
<rscale>  0 0.30867923E+04</rscale>
<asrwt>0</asrwt>
<pdfrwt beam="1">  1        2 0.21679665E+00 0.30867923E+04</pdfrwt>
<pdfrwt beam="2">  1       -2 0.26006120E+00 0.30867923E+04</pdfrwt>
<totfact> 0.67736677E-01</totfact>
</mgrwt>
</event>
<event>
11    1  0.1374694E-013  0.3428288E+04  0.7818608E-02  0.8130998E-01
         -1   -1    0    0    0  501 -0.00000000000E+00  0.00000000000E+00  0.12173997826E+04  0.12173997826E+04  0.00000000000E+00 0.  1.
          1   -1    0    0  501    0  0.00000000000E+00 -0.00000000000E+00 -0.24135784963E+04  0.24135784963E+04  0.00000000000E+00 0. -1.
    9900016    2    1    2    0    0 -0.53810811625E+03  0.52799974080E+03 -0.18476605269E+03  0.23695110213E+04  0.22387719658E+04 0.  0.
        -24    2    3    3    0    0 -0.20924519217E+03  0.80375052405E+02 -0.75102616703E+02  0.24200463470E+03  0.51789387769E+02 0.  0.
        -15    1    3    3    0    0  0.44805966893E+03 -0.41534108672E+03  0.17042105059E+02  0.61119237445E+03  0.00000000000E+00 0.  1.
        -15    1    3    3    0    0 -0.30105346490E+02  0.21596518331E+03  0.28156020658E+03  0.35612279093E+03  0.00000000000E+00 0.  1.
         15    1    3    3    0    0 -0.73240215364E+03  0.65790005415E+03 -0.41181335958E+03  0.10671624239E+04  0.00000000000E+00 0. -1.
         15    1    4    4    0    0 -0.35186481765E+02 -0.49548166963E+01 -0.18496302555E+02  0.40059354909E+02  0.00000000000E+00 0. -1.
        -16    1    4    4    0    0 -0.17405871041E+03  0.85329869101E+02 -0.56606314147E+02  0.20194527979E+03  0.00000000000E+00 0.  1.
         16    1    1    2    0    0  0.53810811625E+03 -0.52799974080E+03 -0.10114126610E+04  0.12614672575E+04  0.00000000000E+00 0. -1.
    9900018    1    3    3    0    0 -0.14415092871E+02 -0.10899462340E+02  0.35476119528E+01  0.93028797295E+02  0.91187600000E+02 0.  0.
<mgrwt>
<rscale>  0 0.34282882E+04</rscale>
<asrwt>0</asrwt>
<pdfrwt beam="1">  1        1 0.37131976E+00 0.34282882E+04</pdfrwt>
<pdfrwt beam="2">  1       -1 0.18729228E+00 0.34282882E+04</pdfrwt>
<totfact> 0.23558444E-01</totfact>
</mgrwt>
</event>
<event>
11    1  0.1374694E-013  0.2756212E+04  0.7818608E-02  0.8316993E-01
         -2   -1    0    0    0  501 -0.00000000000E+00  0.00000000000E+00  0.12449977812E+04  0.12449977812E+04  0.00000000000E+00 0.  1.
          2   -1    0    0  501    0  0.00000000000E+00 -0.00000000000E+00 -0.15254451518E+04  0.15254451518E+04  0.00000000000E+00 0. -1.
    9900016    2    1    2    0    0 -0.25385295998E+03  0.32636012612E+03 -0.24092712743E+02  0.22839555561E+04  0.22460899952E+04 0.  0.
         24    2    3    3    0    0 -0.72032877229E+03  0.26431865036E+02 -0.21951198459E+03  0.75952071552E+03  0.95467388380E+02 0.  0.
        -15    1    4    4    0    0 -0.32332730372E+03 -0.22499804567E+02 -0.13258197570E+03  0.35017819295E+03  0.00000000000E+00 0.  1.
        -15    1    3    3    0    0  0.52701084637E+03  0.20981651489E+03 -0.39682293008E+03  0.69226572929E+03  0.00000000000E+00 0.  1.
         15    1    3    3    0    0 -0.50263841744E+02 -0.78409401040E+02  0.51498197294E+03  0.52333633584E+03  0.00000000000E+00 0. -1.
         15    1    3    3    0    0  0.32784224556E+01  0.20093530746E+03  0.58752600662E+02  0.20937433921E+03  0.00000000000E+00 0. -1.
        -16    1    1    2    0    0  0.25385295998E+03 -0.32636012612E+03 -0.25635465789E+03  0.48648737685E+03  0.00000000000E+00 0.  1.
         16    1    4    4    0    0 -0.39700146857E+03  0.48931669603E+02 -0.86930008886E+02  0.40934252257E+03  0.00000000000E+00 0. -1.
    9900018    1    3    3    0    0 -0.13549614772E+02 -0.32414160231E+02  0.18507628326E+02  0.99458436263E+02  0.91187600000E+02 0.  0.
<mgrwt>
<rscale>  0 0.27562118E+04</rscale>
<asrwt>0</asrwt>
<pdfrwt beam="1">  1        2 0.23468387E+00 0.27562118E+04</pdfrwt>
<pdfrwt beam="2">  1       -2 0.19153812E+00 0.27562118E+04</pdfrwt>
<totfact> 0.16235309E+00</totfact>
</mgrwt>
</event>
<event>
11    1  0.1374694E-013  0.4401214E+04  0.7818608E-02  0.7928163E-01
          2   -1    0    0  501    0  0.00000000000E+00  0.00000000000E+00  0.28349529145E+04  0.28349529145E+04  0.00000000000E+00 0. -1.
         -2   -1    0    0    0  501 -0.00000000000E+00 -0.00000000000E+00 -0.17082013864E+04  0.17082013864E+04  0.00000000000E+00 0.  1.
    9900016    2    1    2    0    0  0.77056737823E+03  0.17210179609E+03  0.21812616464E+04  0.32258142908E+04  0.22415580197E+04 0.  0.
         24    2    3    3    0    0  0.32462966670E+03 -0.34038286760E+02  0.39095646073E+02  0.34153729956E+03  0.92607947744E+02 0.  0.
        -15    1    3    3    0    0 -0.30232161932E+03 -0.14608770011E+03 -0.31198114935E+01  0.33578223725E+03  0.00000000000E+00 0.  1.
        -15    1    4    4    0    0  0.48604064105E+02 -0.32194136765E+02 -0.15127843291E+02  0.60230134752E+02  0.00000000000E+00 0.  1.
         15    1    3    3    0    0  0.76706301742E+03 -0.38155601350E+02  0.80909745656E+03  0.11155627355E+04  0.00000000000E+00 0. -1.
         15    1    3    3    0    0 -0.62413438671E+02  0.37544558203E+03  0.12210637593E+04  0.12790041152E+04  0.00000000000E+00 0. -1.
        -16    1    1    2    0    0 -0.77056737823E+03 -0.17210179609E+03 -0.10545101184E+04  0.13173400102E+04  0.00000000000E+00 0.  1.
         16    1    4    4    0    0  0.27602560259E+03 -0.18441499955E+01  0.54223489364E+02  0.28130716481E+03  0.00000000000E+00 0. -1.
    9900018    1    3    3    0    0  0.43609752092E+02  0.14937802274E+02  0.11512459600E+03  0.15392790330E+03  0.91187600000E+02 0.  0.
<mgrwt>
<rscale>  0 0.44012137E+04</rscale>
<asrwt>0</asrwt>
<pdfrwt beam="1">  1        2 0.43614660E+00 0.44012137E+04</pdfrwt>
<pdfrwt beam="2">  1       -2 0.26280021E+00 0.44012137E+04</pdfrwt>
<totfact> 0.90184010E-02</totfact>
</mgrwt>
</event>
<event>
10    1  0.1374694E-013  0.2539783E+04  0.7818608E-02  0.8388948E-01
         -2   -1    0    0    0  501 -0.00000000000E+00  0.00000000000E+00  0.71941127806E+03  0.71941127806E+03  0.00000000000E+00 0. -1.
          2   -1    0    0  501    0  0.00000000000E+00 -0.00000000000E+00 -0.22415884801E+04  0.22415884801E+04  0.00000000000E+00 0.  1.
    9900016    2    1    2    0    0 -0.35596118500E+02 -0.98426107802E+02 -0.16602986317E+04  0.27877014268E+04  0.22369025272E+04 0.  0.
        -15    1    3    3    0    0  0.53032610165E+03  0.68325516342E+03 -0.35547093823E+03  0.93511655977E+03  0.00000000000E+00 0.  1.
        -15    1    3    3    0    0 -0.93622414918E+02 -0.55174043299E+02 -0.55773119546E+03  0.56821951570E+03  0.00000000000E+00 0.  1.
         15    1    3    3    0    0 -0.39661136726E+02  0.40430600846E+02  0.61131993406E+01  0.56964993262E+02  0.00000000000E+00 0. -1.
         15    1    3    3    0    0 -0.72210174792E+02 -0.17686332764E+03 -0.22018897670E+03  0.29151008811E+03  0.00000000000E+00 0. -1.
        -16    1    3    3    0    0 -0.32741996915E+03 -0.58712411030E+03 -0.46553422261E+03  0.81770451234E+03  0.00000000000E+00 0.  1.
         16    1    1    2    0    0  0.35596118500E+02  0.98426107802E+02  0.13812142959E+03  0.17329833139E+03  0.00000000000E+00 0. -1.
    9900018    1    3    3    0    0 -0.33008524562E+02 -0.29503908238E+01 -0.67486498012E+02  0.11818575763E+03  0.91187600000E+02 0.  0.
<mgrwt>
<rscale>  0 0.25397827E+04</rscale>
<asrwt>0</asrwt>
<pdfrwt beam="1">  1        2 0.34485976E+00 0.25397827E+04</pdfrwt>
<pdfrwt beam="2">  1       -2 0.11067866E+00 0.25397827E+04</pdfrwt>
<totfact> 0.28147856E+00</totfact>
</mgrwt>
</event>
<event>
11    1  0.1374694E-013  0.2708050E+04  0.7818608E-02  0.8332398E-01
         -1   -1    0    0    0  501 -0.00000000000E+00  0.00000000000E+00  0.67820136502E+03  0.67820136502E+03  0.00000000000E+00 0.  1.
          1   -1    0    0  501    0  0.00000000000E+00 -0.00000000000E+00 -0.27033027327E+04  0.27033027327E+04  0.00000000000E+00 0. -1.
    9900016    2    1    2    0    0  0.20976263878E+03  0.11003461081E+03 -0.21452544581E+04  0.31159014897E+04  0.22473578761E+04 0.  0.
         24    2    3    3    0    0 -0.96025724966E+02  0.59334121844E+03 -0.43099945798E+03  0.74285788745E+03  0.69300554263E+02 0.  0.
        -15    1    4    4    0    0 -0.94128444732E+02  0.40841933458E+03 -0.27923619823E+03  0.50362622189E+03  0.00000000000E+00 0.  1.
        -15    1    3    3    0    0 -0.33758389290E+03 -0.89340610192E+02 -0.55530193062E+03  0.65597626750E+03  0.00000000000E+00 0.  1.
         15    1    3    3    0    0 -0.82689982088E+02  0.13850818341E+03 -0.56666029812E+03  0.58917403497E+03  0.00000000000E+00 0. -1.
         15    1    3    3    0    0  0.68218850714E+03 -0.50059354155E+03 -0.47752870853E+03  0.97160111187E+03  0.00000000000E+00 0. -1.
        -16    1    1    2    0    0 -0.20976263878E+03 -0.11003461081E+03  0.12015309048E+03  0.26560260796E+03  0.00000000000E+00 0.  1.
         16    1    4    4    0    0 -0.18972802340E+01  0.18492188386E+03 -0.15176325975E+03  0.23923166557E+03  0.00000000000E+00 0. -1.
    9900018    1    3    3    0    0  0.43873731597E+02 -0.31880639296E+02 -0.11476406288E+03  0.15629218793E+03  0.91187600000E+02 0.  0.
<mgrwt>
<rscale>  0 0.27080499E+04</rscale>
<asrwt>0</asrwt>
<pdfrwt beam="1">  1        1 0.41589273E+00 0.27080499E+04</pdfrwt>
<pdfrwt beam="2">  1       -1 0.10433867E+00 0.27080499E+04</pdfrwt>
<totfact> 0.73550862E-01</totfact>
</mgrwt>
</event>
<event>
11    1  0.1374694E-013  0.3422248E+04  0.7818608E-02  0.8132467E-01
         -2   -1    0    0    0  501 -0.00000000000E+00  0.00000000000E+00  0.21493598116E+04  0.21493598116E+04  0.00000000000E+00 0. -1.
          2   -1    0    0  501    0  0.00000000000E+00 -0.00000000000E+00 -0.13622405813E+04  0.13622405813E+04  0.00000000000E+00 0.  1.
    9900016    2    1    2    0    0 -0.83637321252E+03  0.28268774071E+03  0.56476692514E+03  0.23850083931E+04  0.21423983864E+04 0.  0.
        -24    2    3    3    0    0 -0.46033738981E+03  0.33703560194E+03 -0.56142578820E+03  0.80554644137E+03  0.90568449887E+02 0.  0.
        -15    1    3    3    0    0 -0.62810048622E+03 -0.23047717219E+01  0.84550897731E+03  0.10532810468E+04  0.00000000000E+00 0.  1.
        -15    1    3    3    0    0 -0.52977923684E+01  0.10896854721E+03  0.17210214392E+03  0.20376790431E+03  0.00000000000E+00 0.  1.
         15    1    3    3    0    0  0.25736245589E+03 -0.16101163671E+03  0.10858159211E+03  0.32241300067E+03  0.00000000000E+00 0. -1.
         15    1    4    4    0    0 -0.28785004464E+03  0.26319408773E+03 -0.37712648385E+03  0.54254323407E+03  0.00000000000E+00 0. -1.
        -16    1    4    4    0    0 -0.17248734517E+03  0.73841514201E+02 -0.18429930435E+03  0.26300320730E+03  0.00000000000E+00 0.  1.
         16    1    1    2    0    0  0.93110507225E+03 -0.25204707937E+03  0.22896723025E+03  0.99141836695E+03  0.00000000000E+00 0. -1.
    9900018    1    1    2    0    0 -0.94731859733E+02 -0.30640661343E+02 -0.66149250306E+01  0.13517363279E+03  0.91187600000E+02 0.  0.
<mgrwt>
<rscale>  0 0.34222479E+04</rscale>
<asrwt>0</asrwt>
<pdfrwt beam="1">  1        2 0.20957547E+00 0.34222479E+04</pdfrwt>
<pdfrwt beam="2">  1       -2 0.33067074E+00 0.34222479E+04</pdfrwt>
<totfact> 0.25856490E-01</totfact>
</mgrwt>
</event>
<event>
11    1  0.1374694E-013  0.3502325E+04  0.7818608E-02  0.8113239E-01
         -1   -1    0    0    0  501 -0.00000000000E+00  0.00000000000E+00  0.94777533677E+03  0.94777533677E+03  0.00000000000E+00 0. -1.
          1   -1    0    0  501    0  0.00000000000E+00 -0.00000000000E+00 -0.32355447841E+04  0.32355447841E+04  0.00000000000E+00 0.  1.
    9900016    2    1    2    0    0 -0.31216546592E+03 -0.51960716461E+03 -0.64613550295E+03  0.23398581619E+04  0.21656422248E+04 0.  0.
         24    2    3    3    0    0 -0.20401261444E+03 -0.82412056674E+03  0.24169135918E+03  0.88509596260E+03  0.64686123186E+02 0.  0.
        -15    1    3    3    0    0  0.21773896707E+03  0.40357312205E+00 -0.90611606594E+02  0.23584080202E+03  0.00000000000E+00 0.  1.
        -15    1    4    4    0    0 -0.16548623462E+03 -0.54551115964E+03  0.16930612705E+03  0.59467023114E+03  0.00000000000E+00 0.  1.
         15    1    3    3    0    0 -0.31872066601E+03 -0.20161016571E+03 -0.51938668211E+03  0.64186606657E+03  0.00000000000E+00 0. -1.
         15    1    3    3    0    0 -0.71711525343E+01  0.50571999472E+03 -0.27782857342E+03  0.57705533070E+03  0.00000000000E+00 0. -1.
        -16    1    1    2    0    0  0.32352756567E+03  0.53708625267E+03 -0.16333434383E+04  0.17495549480E+04  0.00000000000E+00 0.  1.
         16    1    4    4    0    0 -0.38526379823E+02 -0.27860940710E+03  0.72385232123E+02  0.29042573146E+03  0.00000000000E+00 0. -1.
    9900018    1    1    2    0    0 -0.11362099748E+02 -0.17479088060E+02 -0.82905060965E+01  0.93907011001E+02  0.91187600000E+02 0.  0.
<mgrwt>
<rscale>  0 0.35023247E+04</rscale>
<asrwt>0</asrwt>
<pdfrwt beam="1">  1        1 0.49777612E+00 0.35023247E+04</pdfrwt>
<pdfrwt beam="2">  1       -1 0.14581159E+00 0.35023247E+04</pdfrwt>
<totfact> 0.12258932E-01</totfact>
</mgrwt>
</event>
<event>
11    1  0.1374694E-013  0.2868133E+04  0.7818608E-02  0.8282422E-01
         -1   -1    0    0    0  501 -0.00000000000E+00  0.00000000000E+00  0.56583982285E+03  0.56583982285E+03  0.00000000000E+00 0.  1.
          1   -1    0    0  501    0  0.00000000000E+00 -0.00000000000E+00 -0.36345036579E+04  0.36345036579E+04  0.00000000000E+00 0. -1.
    9900016    2    1    2    0    0  0.19760250591E+03 -0.46391571015E+03 -0.20833213483E+04  0.30399551048E+04  0.21556517952E+04 0.  0.
        -24    2    3    3    0    0  0.66709698114E+03  0.20174312301E+03 -0.12170037247E+04  0.14053757135E+04  0.90907426416E+02 0.  0.
        -15    1    3    3    0    0  0.47478837921E+01 -0.34451247816E+03 -0.33374632761E+03  0.47968531477E+03  0.00000000000E+00 0.  1.
        -15    1    3    3    0    0 -0.42817308033E+03 -0.44211345951E+03 -0.70720658535E+03  0.93751674767E+03  0.00000000000E+00 0.  1.
         15    1    4    4    0    0  0.51064575269E+02  0.29328402907E+02 -0.65251837304E+02  0.87895098475E+02  0.00000000000E+00 0. -1.
         15    1    3    3    0    0 -0.46069278687E+02  0.12096710452E+03  0.17463528934E+03  0.21737732885E+03  0.00000000000E+00 0. -1.
        -16    1    4    4    0    0  0.61603240587E+03  0.17241472010E+03 -0.11517518874E+04  0.13174806150E+04  0.00000000000E+00 0.  1.
         16    1    1    2    0    0 -0.16925205611E+03  0.48382639613E+03 -0.86514171062E+03  0.10055866047E+04  0.00000000000E+00 0. -1.
    9900018    1    1    2    0    0 -0.28350449800E+02 -0.19910685988E+02 -0.12020077607E+03  0.15480177125E+03  0.91187600000E+02 0.  0.
<mgrwt>
<rscale>  0 0.28681331E+04</rscale>
<asrwt>0</asrwt>
<pdfrwt beam="1">  1        1 0.55915441E+00 0.28681331E+04</pdfrwt>
<pdfrwt beam="2">  1       -1 0.87052280E-01 0.28681331E+04</pdfrwt>
<totfact> 0.21816131E-01</totfact>
</mgrwt>
</event>
<event>
11    1  0.1899577E-013  0.3389767E+04  0.7818608E-02  0.8140422E-01
         -2   -1    0    0    0  501 -0.00000000000E+00  0.00000000000E+00  0.10801163765E+04  0.10801163765E+04  0.00000000000E+00 0.  1.
          2   -1    0    0  501    0  0.00000000000E+00 -0.00000000000E+00 -0.26595560964E+04  0.26595560964E+04  0.00000000000E+00 0. -1.
    9900016    2    1    2    0    0  0.66626577954E+03  0.32520128598E+03 -0.17928596009E+04  0.29681713316E+04  0.22463369160E+04 0.  0.
         24    2    3    3    0    0 -0.42876497696E+03 -0.18386579932E+03 -0.36410039747E+03  0.59974511157E+03  0.97360473453E+02 0.  0.
        -15    1    3    3    0    0  0.20437116156E+01  0.38556434921E+03  0.67219691236E+02  0.39138539962E+03  0.00000000000E+00 0.  1.
        -15    1    4    4    0    0 -0.29546122150E+03 -0.15450074773E+03 -0.30170877418E+03  0.44966209411E+03  0.00000000000E+00 0.  1.
         15    1    3    3    0    0  0.25854619745E+03 -0.18001010062E+03 -0.30864625646E+03  0.44103546815E+03  0.00000000000E+00 0. -1.
         15    1    3    3    0    0  0.81350304004E+03  0.32881295804E+03 -0.10752902121E+04  0.13878595742E+04  0.00000000000E+00 0. -1.
        -16    1    1    2    0    0 -0.66626577954E+03 -0.32520128598E+03  0.21341988101E+03  0.77150114128E+03  0.00000000000E+00 0.  1.
         16    1    4    4    0    0 -0.13330375546E+03 -0.29365051590E+02 -0.62391623283E+02  0.15008301746E+03  0.00000000000E+00 0. -1.
    9900018    1    3    3    0    0  0.20937807390E+02 -0.25300121340E+02 -0.11204242610E+03  0.14814577807E+03  0.91187600000E+02 0.  0.
<mgrwt>
<rscale>  0 0.33897670E+04</rscale>
<asrwt>0</asrwt>
<pdfrwt beam="1">  1        2 0.40916247E+00 0.33897670E+04</pdfrwt>
<pdfrwt beam="2">  1       -2 0.16617175E+00 0.33897670E+04</pdfrwt>
<totfact> 0.52818353E-01</totfact>
</mgrwt>
</event>
<event>
11    1  0.1374694E-013  0.3689839E+04  0.7818608E-02  0.8070217E-01
          2   -1    0    0  501    0  0.00000000000E+00  0.00000000000E+00  0.25873134532E+04  0.25873134532E+04  0.00000000000E+00 0. -1.
         -2   -1    0    0    0  501 -0.00000000000E+00 -0.00000000000E+00 -0.13155454842E+04  0.13155454842E+04  0.00000000000E+00 0.  1.
    9900016    2    1    2    0    0 -0.82802642968E+03 -0.79384188823E+03  0.10823452109E+04  0.27402353125E+04  0.22408939513E+04 0.  0.
         24    2    3    3    0    0 -0.46723812803E+03 -0.70575602921E+03 -0.37899286182E+00  0.84905243898E+03  0.66984023863E+02 0.  0.
        -15    1    4    4    0    0 -0.32359947000E+03 -0.45234487205E+03  0.24398141569E+02  0.55671156766E+03  0.00000000000E+00 0.  1.
        -15    1    3    3    0    0 -0.76732142234E+02  0.28957442774E+03  0.10008624459E+03  0.31584557494E+03  0.00000000000E+00 0.  1.
         15    1    3    3    0    0 -0.34815774623E+03  0.27946736482E+03  0.57660965845E+03  0.72924243052E+03  0.00000000000E+00 0. -1.
         15    1    3    3    0    0  0.64597361736E+02 -0.64736508549E+03  0.35405836824E+03  0.74068326644E+03  0.00000000000E+00 0. -1.
        -16    1    1    2    0    0  0.82802642968E+03  0.79384188823E+03  0.18942275817E+03  0.11626236249E+04  0.00000000000E+00 0.  1.
         16    1    4    4    0    0 -0.14363865802E+03 -0.25341115717E+03 -0.24777134431E+02  0.29234087132E+03  0.00000000000E+00 0. -1.
    9900018    1    3    3    0    0 -0.49577493076E+00 -0.97625660829E+01  0.51969932472E+02  0.10541160166E+03  0.91187600000E+02 0.  0.
<mgrwt>
<rscale>  0 0.36898393E+04</rscale>
<asrwt>0</asrwt>
<pdfrwt beam="1">  1        2 0.39804822E+00 0.36898393E+04</pdfrwt>
<pdfrwt beam="2">  1       -2 0.20239161E+00 0.36898393E+04</pdfrwt>
<totfact> 0.32128390E-01</totfact>
</mgrwt>
</event>
<event>
11    1  0.1374694E-013  0.2507190E+04  0.7818608E-02  0.8400429E-01
          2   -1    0    0  501    0  0.00000000000E+00  0.00000000000E+00  0.14571355578E+04  0.14571355578E+04  0.00000000000E+00 0. -1.
         -2   -1    0    0    0  501 -0.00000000000E+00 -0.00000000000E+00 -0.10784858190E+04  0.10784858190E+04  0.00000000000E+00 0.  1.
    9900016    2    1    2    0    0 -0.14612965951E+03  0.17788039755E+03  0.25739016579E+03  0.22754306827E+04  0.22490753169E+04 0.  0.
        -24    2    3    3    0    0  0.71882031936E+03  0.18666160279E+03  0.48895737928E+03  0.89469483017E+03  0.99268901948E+02 0.  0.
        -15    1    3    3    0    0 -0.10061267313E+04 -0.14586929538E+03 -0.23822784964E+03  0.10441845426E+04  0.00000000000E+00 0.  1.
        -15    1    3    3    0    0  0.36530695912E+02  0.32028116258E+01 -0.57572007723E+02  0.68258961458E+02  0.00000000000E+00 0.  1.
         15    1    3    3    0    0  0.12459657993E+03  0.84264257721E+02  0.61615058066E+02  0.16254595732E+03  0.00000000000E+00 0. -1.
         15    1    4    4    0    0  0.14665389690E+02  0.84117199802E+01  0.33001778656E+02  0.37080292370E+02  0.00000000000E+00 0. -1.
        -16    1    4    4    0    0  0.70415492967E+03  0.17824988281E+03  0.45595560062E+03  0.85761453780E+03  0.00000000000E+00 0.  1.
         16    1    1    2    0    0  0.14612965951E+03 -0.17788039755E+03  0.12125957299E+03  0.26019069404E+03  0.00000000000E+00 0. -1.
    9900018    1    3    3    0    0 -0.19950523443E+02  0.49621020796E+02  0.26175858147E+01  0.10574639114E+03  0.91187600000E+02 0.  0.
<mgrwt>
<rscale>  0 0.25071897E+04</rscale>
<asrwt>0</asrwt>
<pdfrwt beam="1">  1        2 0.22417470E+00 0.25071897E+04</pdfrwt>
<pdfrwt beam="2">  1       -2 0.16592090E+00 0.25071897E+04</pdfrwt>
<totfact> 0.27284406E+00</totfact>
</mgrwt>
</event>
<event>
10    1  0.1374694E-013  0.3020474E+04  0.7818608E-02  0.8237908E-01
          2   -1    0    0  501    0  0.00000000000E+00  0.00000000000E+00  0.16467005348E+04  0.16467005348E+04  0.00000000000E+00 0. -1.
         -2   -1    0    0    0  501 -0.00000000000E+00 -0.00000000000E+00 -0.13850826065E+04  0.13850826065E+04  0.00000000000E+00 0.  1.
    9900016    2    1    2    0    0  0.42256308020E+03  0.13826721008E+03  0.60816415659E+03  0.22823585939E+04  0.21544418609E+04 0.  0.
        -15    1    3    3    0    0  0.34790228111E+03  0.64282482561E+03  0.73054516916E+03  0.10334195652E+04  0.00000000000E+00 0.  1.
        -15    1    3    3    0    0  0.30830169463E+03 -0.12959843659E+03  0.14272777978E+03  0.36361643087E+03  0.00000000000E+00 0.  1.
         15    1    3    3    0    0  0.20722600786E+03  0.57678623551E+02 -0.13135018794E+03  0.25203633433E+03  0.00000000000E+00 0. -1.
         15    1    3    3    0    0 -0.35044248058E+03 -0.32014905985E+03 -0.10400156509E+03  0.48592353129E+03  0.00000000000E+00 0. -1.
        -16    1    3    3    0    0 -0.90424422820E+02 -0.11248874264E+03 -0.29757039305E+02  0.14736273223E+03  0.00000000000E+00 0.  1.
         16    1    1    2    0    0 -0.49072534118E+03 -0.16765046651E+03 -0.35970143792E+03  0.63111263958E+03  0.00000000000E+00 0. -1.
    9900018    1    1    2    0    0  0.68162260979E+02  0.29383256430E+02  0.13155209697E+02  0.11831190775E+03  0.91187600000E+02 0.  0.
<mgrwt>
<rscale>  0 0.30204743E+04</rscale>
<asrwt>0</asrwt>
<pdfrwt beam="1">  1        2 0.25333854E+00 0.30204743E+04</pdfrwt>
<pdfrwt beam="2">  1       -2 0.21308963E+00 0.30204743E+04</pdfrwt>
<totfact> 0.98176901E-01</totfact>
</mgrwt>
</event>
<event>
11    1  0.1374694E-013  0.3259445E+04  0.7818608E-02  0.8173292E-01
         -2   -1    0    0    0  501 -0.00000000000E+00  0.00000000000E+00  0.12080118159E+04  0.12080118159E+04  0.00000000000E+00 0.  1.
          2   -1    0    0  501    0  0.00000000000E+00 -0.00000000000E+00 -0.21986497058E+04  0.21986497058E+04  0.00000000000E+00 0. -1.
    9900016    2    1    2    0    0  0.37324794627E+03  0.42437204156E+03 -0.18464884896E+03  0.22228352947E+04  0.21418440398E+04 0.  0.
        -24    2    3    3    0    0  0.43204094707E+03 -0.45256431552E+03  0.52840957400E+03  0.82395540932E+03  0.90620080691E+02 0.  0.
        -15    1    3    3    0    0  0.47356041815E+02  0.28806509730E+03  0.29311648145E+02  0.29339950187E+03  0.00000000000E+00 0.  1.
        -15    1    3    3    0    0  0.39833692179E+02  0.64441833393E+03 -0.67887531309E+03  0.93687427271E+03  0.00000000000E+00 0.  1.
         15    1    3    3    0    0 -0.14598273479E+03 -0.55547074148E+02 -0.63494758015E+02  0.16860611080E+03  0.00000000000E+00 0. -1.
         15    1    4    4    0    0  0.34208950883E+03 -0.40294880623E+03  0.42564630749E+03  0.67865142126E+03  0.00000000000E+00 0. -1.
        -16    1    4    4    0    0  0.89951438239E+02 -0.49615509297E+02  0.10276326651E+03  0.14530398807E+03  0.00000000000E+00 0.  1.
         16    1    1    2    0    0 -0.38110991388E+03 -0.49812075391E+03 -0.85169517349E+03  0.10577115488E+04  0.00000000000E+00 0. -1.
    9900018    1    1    2    0    0  0.78619676063E+01  0.73748712347E+02  0.45706132513E+02  0.12611467817E+03  0.91187600000E+02 0.  0.
<mgrwt>
<rscale>  0 0.32594446E+04</rscale>
<asrwt>0</asrwt>
<pdfrwt beam="1">  1        2 0.33825380E+00 0.32594446E+04</pdfrwt>
<pdfrwt beam="2">  1       -2 0.18584797E+00 0.32594446E+04</pdfrwt>
<totfact> 0.71670840E-01</totfact>
</mgrwt>
</event>
<event>
10    1  0.1374694E-013  0.3090442E+04  0.7818608E-02  0.8218366E-01
         -1   -1    0    0    0  501 -0.00000000000E+00  0.00000000000E+00  0.16990190968E+04  0.16990190968E+04  0.00000000000E+00 0.  1.
          1   -1    0    0  501    0  0.00000000000E+00 -0.00000000000E+00 -0.14053446507E+04  0.14053446507E+04  0.00000000000E+00 0. -1.
    9900016    2    1    2    0    0  0.33827975100E+03  0.12704502988E+03 -0.40756861582E+03  0.23154940107E+04  0.22505169867E+04 0.  0.
        -15    1    3    3    0    0  0.32642253783E+02  0.43008813019E+01 -0.84451980601E+02  0.90642988363E+02  0.00000000000E+00 0.  1.
        -15    1    3    3    0    0 -0.14949089629E+03  0.46865378702E+03 -0.10577838039E+03  0.50316296159E+03  0.00000000000E+00 0.  1.
         15    1    3    3    0    0 -0.33863270762E+03 -0.15591778289E+03  0.39412258258E+03  0.54250813431E+03  0.00000000000E+00 0. -1.
         15    1    3    3    0    0  0.54830681132E+03 -0.27452551694E+03 -0.28254943373E+03  0.67515835276E+03  0.00000000000E+00 0. -1.
        -16    1    1    2    0    0 -0.33827975100E+03 -0.12704502988E+03  0.70124306194E+03  0.78886973669E+03  0.00000000000E+00 0.  1.
         16    1    3    3    0    0  0.19321568338E+03  0.97278473102E+02 -0.33411798067E+03  0.39803294667E+03  0.00000000000E+00 0. -1.
    9900018    1    3    3    0    0  0.52238606424E+02 -0.12744811714E+02  0.52065769881E+01  0.10598862705E+03  0.91187600000E+02 0.  0.
<mgrwt>
<rscale>  0 0.30904417E+04</rscale>
<asrwt>0</asrwt>
<pdfrwt beam="1">  1        1 0.21620687E+00 0.30904417E+04</pdfrwt>
<pdfrwt beam="2">  1       -1 0.26138756E+00 0.30904417E+04</pdfrwt>
<totfact> 0.37800728E-01</totfact>
</mgrwt>
</event>
<event>
11    1  0.1374694E-013  0.3178825E+04  0.7818608E-02  0.8194432E-01
          2   -1    0    0  501    0  0.00000000000E+00  0.00000000000E+00  0.25447548385E+04  0.25447548385E+04  0.00000000000E+00 0. -1.
         -2   -1    0    0    0  501 -0.00000000000E+00 -0.00000000000E+00 -0.99272094479E+03  0.99272094479E+03  0.00000000000E+00 0.  1.
    9900016    2    1    2    0    0 -0.54638959313E+03  0.49900552167E+03  0.83137617085E+03  0.25045693734E+04  0.22436874360E+04 0.  0.
         24    2    3    3    0    0 -0.21516639325E+03  0.20378298776E+03  0.68510825944E+03  0.74942613635E+03  0.66649259679E+02 0.  0.
        -15    1    4    4    0    0 -0.15938658635E+03  0.12270745281E+03  0.51520849869E+03  0.55308317639E+03  0.00000000000E+00 0.  1.
        -15    1    3    3    0    0 -0.18730838915E+03 -0.78108032177E+02 -0.30187687332E+03  0.36375121166E+03  0.00000000000E+00 0.  1.
         15    1    3    3    0    0  0.25340881178E+03  0.51153445936E+03 -0.10972582978E+03  0.58131169498E+03  0.00000000000E+00 0. -1.
         15    1    3    3    0    0 -0.39590702217E+03 -0.19952702884E+03  0.54009535572E+03  0.69875346060E+03  0.00000000000E+00 0. -1.
        -16    1    1    2    0    0  0.54638959313E+03 -0.49900552167E+03  0.72065772285E+03  0.10329064099E+04  0.00000000000E+00 0.  1.
         16    1    4    4    0    0 -0.55779806904E+02  0.81075534949E+02  0.16989976075E+03  0.19634295997E+03  0.00000000000E+00 0. -1.
    9900018    1    3    3    0    0 -0.14166003355E+01  0.61323135573E+02  0.17775258805E+02  0.11132686977E+03  0.91187600000E+02 0.  0.
<mgrwt>
<rscale>  0 0.31788246E+04</rscale>
<asrwt>0</asrwt>
<pdfrwt beam="1">  1        2 0.39150074E+00 0.31788246E+04</pdfrwt>
<pdfrwt beam="2">  1       -2 0.15272630E+00 0.31788246E+04</pdfrwt>
<totfact> 0.78964635E-01</totfact>
</mgrwt>
</event>
<event>
10    1  0.1374694E-013  0.2848888E+04  0.7818608E-02  0.8288249E-01
         -2   -1    0    0    0  501 -0.00000000000E+00  0.00000000000E+00  0.13515921710E+04  0.13515921710E+04  0.00000000000E+00 0.  1.
          2   -1    0    0  501    0  0.00000000000E+00 -0.00000000000E+00 -0.15012228085E+04  0.15012228085E+04  0.00000000000E+00 0. -1.
    9900016    2    1    2    0    0  0.18602950124E+03 -0.87320038192E+01 -0.62011436442E+03  0.23468128446E+04  0.22557272617E+04 0.  0.
        -15    1    3    3    0    0  0.29969238943E+02  0.88439016218E+02  0.18946359456E+02  0.95281579590E+02  0.00000000000E+00 0.  1.
        -15    1    3    3    0    0  0.22032983011E+02 -0.61937158741E+03  0.13752304303E+02  0.61991591487E+03  0.00000000000E+00 0.  1.
         15    1    3    3    0    0  0.30185365037E+03  0.22761341707E+03 -0.37905849367E+03  0.53535860458E+03  0.00000000000E+00 0. -1.
         15    1    3    3    0    0 -0.26971951841E+03  0.98290716475E+02 -0.51876855079E+03  0.59290006987E+03  0.00000000000E+00 0. -1.
        -16    1    1    2    0    0 -0.18602950124E+03  0.87320038192E+01  0.47048372693E+03  0.50600213491E+03  0.00000000000E+00 0.  1.
         16    1    3    3    0    0  0.41284410312E+02  0.24460153289E+03  0.28438591692E+03  0.37737204742E+03  0.00000000000E+00 0. -1.
    9900018    1    3    3    0    0  0.60608737026E+02 -0.48305099069E+02 -0.39371900645E+02  0.12598462825E+03  0.91187600000E+02 0.  0.
<mgrwt>
<rscale>  0 0.28488882E+04</rscale>
<asrwt>0</asrwt>
<pdfrwt beam="1">  1        2 0.23095736E+00 0.28488882E+04</pdfrwt>
<pdfrwt beam="2">  1       -2 0.20793726E+00 0.28488882E+04</pdfrwt>
<totfact> 0.12970064E+00</totfact>
</mgrwt>
</event>
<event>
11    1  0.1374694E-013  0.3345310E+04  0.7818608E-02  0.8151461E-01
         -2   -1    0    0    0  501 -0.00000000000E+00  0.00000000000E+00  0.17792852923E+04  0.17792852923E+04  0.00000000000E+00 0.  1.
          2   -1    0    0  501    0  0.00000000000E+00 -0.00000000000E+00 -0.15724147241E+04  0.15724147241E+04  0.00000000000E+00 0. -1.
    9900016    2    1    2    0    0 -0.75930877959E+03  0.47308468587E+03 -0.34718866350E+02  0.24250261808E+04  0.22537053123E+04 0.  0.
         24    2    3    3    0    0  0.20928506878E+03  0.57418376905E+03 -0.16991304251E+03  0.64245037475E+03  0.10190584551E+03 0.  0.
        -15    1    3    3    0    0  0.61889262768E+02 -0.57694786717E+02  0.10787443949E+03  0.13709800858E+03  0.00000000000E+00 0.  1.
        -15    1    4    4    0    0  0.73971177579E+02  0.16906528997E+03 -0.50221123321E+01  0.18460777069E+03  0.00000000000E+00 0.  1.
         15    1    3    3    0    0 -0.48135609554E+03 -0.60102902068E+03 -0.43914157141E+02  0.77127688129E+03  0.00000000000E+00 0. -1.
         15    1    3    3    0    0 -0.55348766507E+03  0.51644146278E+03  0.11355113174E+03  0.76547647866E+03  0.00000000000E+00 0. -1.
        -16    1    1    2    0    0  0.75930877959E+03 -0.47308468587E+03  0.24158943454E+03  0.92667383564E+03  0.00000000000E+00 0.  1.
         16    1    4    4    0    0  0.13531389121E+03  0.40511847908E+03 -0.16489093018E+03  0.45784260407E+03  0.00000000000E+00 0. -1.
    9900018    1    3    3    0    0  0.43606494631E+01  0.41183261436E+02 -0.42317237926E+02  0.10872443748E+03  0.91187600000E+02 0.  0.
<mgrwt>
<rscale>  0 0.33453098E+04</rscale>
<asrwt>0</asrwt>
<pdfrwt beam="1">  1        2 0.24190996E+00 0.33453098E+04</pdfrwt>
<pdfrwt beam="2">  1       -2 0.27373620E+00 0.33453098E+04</pdfrwt>
<totfact> 0.44221184E-01</totfact>
</mgrwt>
</event>
<event>
11    1  0.1374694E-013  0.2918029E+04  0.7818608E-02  0.8267533E-01
         -1   -1    0    0    0  501 -0.00000000000E+00  0.00000000000E+00  0.72969410238E+03  0.72969410238E+03  0.00000000000E+00 0.  1.
          1   -1    0    0  501    0  0.00000000000E+00 -0.00000000000E+00 -0.29172822653E+04  0.29172822653E+04  0.00000000000E+00 0. -1.
    9900016    2    1    2    0    0 -0.47586694634E+03  0.11450545661E+03 -0.13021737781E+04  0.25643553924E+04  0.21542286740E+04 0.  0.
        -24    2    3    3    0    0 -0.59866692631E+02 -0.43383013076E+03  0.15609872328E+03  0.46866033805E+03  0.59017775308E+02 0.  0.
        -15    1    3    3    0    0 -0.23907966902E+03  0.35987796101E+03 -0.85292092129E+03  0.95610947748E+03  0.00000000000E+00 0.  1.
        -15    1    3    3    0    0  0.13237427158E+03  0.35198450301E+03  0.66697141932E+02  0.38192217385E+03  0.00000000000E+00 0.  1.
         15    1    4    4    0    0 -0.36397106330E+02 -0.13313267063E+03  0.71338319943E+02  0.15536477474E+03  0.00000000000E+00 0. -1.
         15    1    3    3    0    0 -0.30929485627E+03 -0.16352687665E+03 -0.67204872200E+03  0.75766340300E+03  0.00000000000E+00 0. -1.
        -16    1    4    4    0    0 -0.23469586301E+02 -0.30069746014E+03  0.84760403342E+02  0.31329556331E+03  0.00000000000E+00 0.  1.
         16    1    1    2    0    0  0.45800781509E+03 -0.11961547221E+03 -0.86692165305E+03  0.98774094397E+03  0.00000000000E+00 0. -1.
    9900018    1    1    2    0    0  0.17859131244E+02  0.51100156002E+01 -0.18492731852E+02  0.94880031373E+02  0.91187600000E+02 0.  0.
<mgrwt>
<rscale>  0 0.29180292E+04</rscale>
<asrwt>0</asrwt>
<pdfrwt beam="1">  1        1 0.44881265E+00 0.29180292E+04</pdfrwt>
<pdfrwt beam="2">  1       -1 0.11226063E+00 0.29180292E+04</pdfrwt>
<totfact> 0.42752860E-01</totfact>
</mgrwt>
</event>
<event>
11    1  0.1374694E-013  0.2796157E+04  0.7818608E-02  0.8304462E-01
          2   -1    0    0  501    0  0.00000000000E+00  0.00000000000E+00  0.18360241543E+04  0.18360241543E+04  0.00000000000E+00 0. -1.
         -2   -1    0    0    0  501 -0.00000000000E+00 -0.00000000000E+00 -0.10645959228E+04  0.10645959228E+04  0.00000000000E+00 0.  1.
    9900016    2    1    2    0    0 -0.91718267815E+01  0.28325247114E+03  0.10480999610E+04  0.24130636779E+04  0.21550050350E+04 0.  0.
         24    2    3    3    0    0  0.60195897771E+03  0.53901497030E+03  0.46323410815E+03  0.93275794398E+03  0.50594407223E+02 0.  0.
        -15    1    3    3    0    0 -0.45391310425E+03 -0.14974498403E+03  0.14571314176E+03  0.49969289182E+03  0.00000000000E+00 0.  1.
        -15    1    4    4    0    0  0.45583729611E+03  0.38143252810E+03  0.32849476422E+03  0.67910766755E+03  0.00000000000E+00 0.  1.
         15    1    3    3    0    0 -0.17935698949E+03  0.31617814935E+03  0.42271553376E+03  0.55751768967E+03  0.00000000000E+00 0. -1.
         15    1    3    3    0    0  0.22139289256E+02 -0.42219566449E+03  0.16437177311E+02  0.42309515246E+03  0.00000000000E+00 0. -1.
        -16    1    1    2    0    0  0.31037672157E+02 -0.26670986756E+03 -0.28549908471E+03  0.39192756718E+03  0.00000000000E+00 0.  1.
         16    1    4    4    0    0  0.14612168160E+03  0.15758244221E+03  0.13473934393E+03  0.25365027642E+03  0.00000000000E+00 0. -1.
    9900018    1    1    2    0    0 -0.21865845375E+02 -0.16542603584E+02  0.88273552636E+01  0.95628832065E+02  0.91187600000E+02 0.  0.
<mgrwt>
<rscale>  0 0.27961572E+04</rscale>
<asrwt>0</asrwt>
<pdfrwt beam="1">  1        2 0.28246525E+00 0.27961572E+04</pdfrwt>
<pdfrwt beam="2">  1       -2 0.16378399E+00 0.27961572E+04</pdfrwt>
<totfact> 0.16950067E+00</totfact>
</mgrwt>
</event>
<event>
11    1  0.1374694E-013  0.2491430E+04  0.7818608E-02  0.8406045E-01
          2   -1    0    0  501    0  0.00000000000E+00  0.00000000000E+00  0.25608881645E+04  0.25608881645E+04  0.00000000000E+00 0. -1.
         -2   -1    0    0    0  501 -0.00000000000E+00 -0.00000000000E+00 -0.60596387382E+03  0.60596387382E+03  0.00000000000E+00 0.  1.
    9900016    2    1    2    0    0 -0.18487211805E+03 -0.73710629543E+02  0.19175485894E+04  0.29643479643E+04  0.22518337647E+04 0.  0.
         24    2    3    3    0    0 -0.47969225213E+03 -0.43275939595E+03  0.90431959158E+03  0.11134166132E+04  0.67210708499E+02 0.  0.
        -15    1    4    4    0    0 -0.23779197949E+03 -0.25443212361E+03  0.51218931782E+03  0.61936954101E+03  0.00000000000E+00 0.  1.
        -15    1    3    3    0    0 -0.65330170223E+02  0.46967808608E+03  0.55101522556E+03  0.72696857874E+03  0.00000000000E+00 0.  1.
         15    1    3    3    0    0  0.43226777347E+03  0.60364929227E+02  0.56428290190E+03  0.71338246827E+03  0.00000000000E+00 0. -1.
         15    1    3    3    0    0 -0.64249326644E+02 -0.10992742536E+03 -0.21692137140E+03  0.25152911599E+03  0.00000000000E+00 0. -1.
        -16    1    1    2    0    0  0.18487211805E+03  0.73710629543E+02  0.37375701297E+02  0.20250407400E+03  0.00000000000E+00 0.  1.
         16    1    4    4    0    0 -0.24190027264E+03 -0.17832727233E+03  0.39213027376E+03  0.49404707221E+03  0.00000000000E+00 0. -1.
    9900018    1    3    3    0    0 -0.78681425299E+01 -0.61066823543E+02  0.11485224174E+03  0.15905118809E+03  0.91187600000E+02 0.  0.
<mgrwt>
<rscale>  0 0.24914299E+04</rscale>
<asrwt>0</asrwt>
<pdfrwt beam="1">  1        2 0.39398279E+00 0.24914299E+04</pdfrwt>
<pdfrwt beam="2">  1       -2 0.93225213E-01 0.24914299E+04</pdfrwt>
<totfact> 0.27882944E+00</totfact>
</mgrwt>
</event>
