<event>
12    1  0.3980859E-012  0.3134840E+04  0.7818608E-02  0.8856364E-01
          2   -1    0    0  501    0  0.00000000000E+00  0.00000000000E+00  0.13045903565E+04  0.13045903565E+04  0.00000000000E+00 0. -1.
         -2   -1    0    0    0  501 -0.00000000000E+00 -0.00000000000E+00 -0.21916205755E+04  0.21916205755E+04  0.00000000000E+00 0.  1.
         23    2    1    2    0    0  0.15657003092E+03 -0.33929567100E+02  0.10031501769E+03  0.20956047560E+03  0.90482595321E+02 0.  0.
    9900016    2    1    2    0    0  0.16055267433E+03  0.23621993576E+02 -0.64682602940E+03  0.22892475442E+04  0.21899623847E+04 0.  0.
         24    2    4    4    0    0  0.59820380395E+03  0.58907788936E+03  0.46823439416E+03  0.96461981175E+03  0.79921102076E+02 0.  0.
        -15    1    5    5    0    0  0.25136918094E+03  0.20109707707E+03  0.20232700062E+03  0.38021403803E+03  0.00000000000E+00 0.  1.
        -15    1    3    3    0    0  0.51707992670E+02 -0.22718187330E+02 -0.95395797288E+01  0.57278583457E+02  0.00000000000E+00 0. -1.
         15    1    3    3    0    0  0.10486203825E+03 -0.11211379771E+02  0.10985459742E+03  0.15228189214E+03  0.00000000000E+00 0.  1.
         15    1    4    4    0    0 -0.43765112962E+03 -0.56545589579E+03 -0.11150604236E+04  0.13246277324E+04  0.00000000000E+00 0. -1.
        -16    1    1    2    0    0 -0.42987163472E+03 -0.80641034200E+02 -0.56537964038E+03  0.71480538365E+03  0.00000000000E+00 0.  1.
         16    1    5    5    0    0  0.34683462300E+03  0.38798081229E+03  0.26590739354E+03  0.58440577372E+03  0.00000000000E+00 0. -1.
    9900018    1    1    2    0    0  0.11274892948E+03  0.90948607724E+02  0.22486043311E+03  0.28259752851E+03  0.91187600000E+02 0.  0.
<mgrwt>
<rscale>  0 0.15429802E+04</rscale>
<asrwt>0</asrwt>
<pdfrwt beam="1">  1        2 0.20070621E+00 0.31348398E+04</pdfrwt>
<pdfrwt beam="2">  1       -2 0.33717239E+00 0.31348398E+04</pdfrwt>
<totfact> 0.25822400E-01</totfact>
</mgrwt>
</event>
<event>
12    1  0.3980859E-012  0.3458888E+04  0.7818608E-02  0.8736693E-01
         -1   -1    0    0    0  501 -0.00000000000E+00  0.00000000000E+00  0.10086056526E+04  0.10086056526E+04  0.00000000000E+00 0.  1.
          1   -1    0    0  501    0  0.00000000000E+00 -0.00000000000E+00 -0.34901074648E+04  0.34901074648E+04  0.00000000000E+00 0. -1.
         23    2    1    2    0    0  0.35839459463E+02  0.20079071132E+03  0.28137455656E+02  0.22528408878E+03  0.91432093062E+02 0.  0.
    9900016    2    1    2    0    0  0.66385615828E+02 -0.52347194066E+03 -0.22991378412E+04  0.32257500752E+04  0.22002269910E+04 0.  0.
        -24    2    4    4    0    0 -0.15941445694E+03  0.76974054925E+03 -0.14818358627E+04  0.16793456194E+04  0.80316269407E+02 0.  0.
        -15    1    3    3    0    0  0.54011590005E+02  0.95233962540E+02 -0.13608983891E+02  0.11032662380E+03  0.00000000000E+00 0. -1.
        -15    1    4    4    0    0  0.22580007277E+03 -0.12932124899E+04 -0.81730197855E+03  0.15464044558E+04  0.00000000000E+00 0.  1.
         15    1    5    5    0    0 -0.21003351638E+02  0.21212008743E+03 -0.34414431287E+03  0.40481030168E+03  0.00000000000E+00 0. -1.
         15    1    3    3    0    0 -0.18172130542E+02  0.10555674878E+03  0.41746439547E+02  0.11495746499E+03  0.00000000000E+00 0.  1.
        -16    1    5    5    0    0 -0.13841110531E+03  0.55762046182E+03 -0.11376915498E+04  0.12745353177E+04  0.00000000000E+00 0.  1.
         16    1    1    2    0    0  0.31912770086E+03 -0.96319519039E+02 -0.28927565433E+03  0.44136191883E+03  0.00000000000E+00 0. -1.
    9900018    1    1    2    0    0 -0.42135277616E+03  0.41900074838E+03  0.78774227637E+02  0.60631703460E+03  0.91187600000E+02 0.  0.
<mgrwt>
<rscale>  0 0.17439398E+04</rscale>
<asrwt>0</asrwt>
<pdfrwt beam="1">  1        1 0.53693962E+00 0.34588880E+04</pdfrwt>
<pdfrwt beam="2">  1       -1 0.15517010E+00 0.34588880E+04</pdfrwt>
<totfact> 0.65575850E-02</totfact>
</mgrwt>
</event>
<event>
12    1  0.3980859E-012  0.4486951E+04  0.7818608E-02  0.8367923E-01
         -2   -1    0    0    0  501 -0.00000000000E+00  0.00000000000E+00  0.17542687212E+04  0.17542687212E+04  0.00000000000E+00 0.  1.
          2   -1    0    0  501    0  0.00000000000E+00 -0.00000000000E+00 -0.42114855744E+04  0.42114855744E+04  0.00000000000E+00 0. -1.
         23    2    1    2    0    0 -0.10699990887E+03 -0.48684074492E+03  0.40078505904E+03  0.64589495421E+03  0.89937405490E+02 0.  0.
    9900016    2    1    2    0    0  0.99932473487E+02  0.28012446123E+03 -0.26419032889E+03  0.22445273137E+04  0.22089930102E+04 0.  0.
        -24    2    4    4    0    0 -0.81942711597E+03 -0.96566424318E+02  0.52015164798E+03  0.97870330750E+03  0.80725179035E+02 0.  0.
        -15    1    3    3    0    0 -0.65096844111E+02 -0.11811107364E+03  0.12026441567E+03  0.18069685804E+03  0.00000000000E+00 0.  1.
        -15    1    4    4    0    0  0.91935958945E+03  0.37669088555E+03 -0.78434197688E+03  0.12658240062E+04  0.00000000000E+00 0.  1.
         15    1    3    3    0    0 -0.41903064764E+02 -0.36872967128E+03  0.28052064337E+03  0.46519809617E+03  0.00000000000E+00 0. -1.
         15    1    5    5    0    0 -0.20387798656E+03 -0.19463506453E+01  0.97128424736E+02  0.22584054680E+03  0.00000000000E+00 0. -1.
        -16    1    5    5    0    0 -0.61554912940E+03 -0.94620073673E+02  0.42302322325E+03  0.75286276071E+03  0.00000000000E+00 0.  1.
         16    1    1    2    0    0  0.69403137437E+03  0.20213761498E+03 -0.21093627631E+04  0.22297870819E+04  0.00000000000E+00 0. -1.
    9900018    1    1    2    0    0 -0.68696393899E+03  0.45786687044E+01 -0.48444882017E+03  0.84554494584E+03  0.91187600000E+02 0.  0.
<mgrwt>
<rscale>  0 0.26008202E+04</rscale>
<asrwt>0</asrwt>
<pdfrwt beam="1">  1        2 0.64792084E+00 0.44869509E+04</pdfrwt>
<pdfrwt beam="2">  1       -2 0.26988750E+00 0.44869509E+04</pdfrwt>
<totfact> 0.80604914E-03</totfact>
</mgrwt>
</event>
<event>
12    1  0.3980859E-012  0.5343173E+04  0.7818608E-02  0.8348640E-01
          1   -1    0    0  501    0  0.00000000000E+00  0.00000000000E+00  0.25425808625E+04  0.25425808625E+04  0.00000000000E+00 0. -1.
         -1   -1    0    0    0  501 -0.00000000000E+00 -0.00000000000E+00 -0.32018104912E+04  0.32018104912E+04  0.00000000000E+00 0.  1.
         23    2    1    2    0    0 -0.29355651684E+03  0.11284541168E+03 -0.19506171715E+03  0.38109473054E+03  0.90964853812E+02 0.  0.
    9900016    2    1    2    0    0  0.58644540726E+03 -0.27153534935E+03 -0.61454179042E+03  0.23780989570E+04  0.22045506063E+04 0.  0.
        -24    2    4    4    0    0  0.67857977115E+02  0.70344125104E+03  0.45222775625E+03  0.84268059068E+03  0.78526018957E+02 0.  0.
        -15    1    3    3    0    0 -0.20996400473E+03  0.44077156142E+02 -0.15887374109E+03  0.26696169123E+03  0.00000000000E+00 0. -1.
        -15    1    4    4    0    0  0.51858743015E+03 -0.97497660039E+03 -0.10667695467E+04  0.15354183664E+04  0.00000000000E+00 0.  1.
         15    1    5    5    0    0  0.34278983827E+02  0.15062396767E+03  0.13020777027E+03  0.20203141292E+03  0.00000000000E+00 0. -1.
         15    1    3    3    0    0 -0.83592512107E+02  0.68768255536E+02 -0.36187976060E+02  0.11413303931E+03  0.00000000000E+00 0.  1.
        -16    1    5    5    0    0  0.33578993288E+02  0.55281728338E+03  0.32201998598E+03  0.64064917776E+03  0.00000000000E+00 0.  1.
         16    1    1    2    0    0  0.70763890287E+03 -0.45213298197E+03  0.11623002511E+04  0.14339173351E+04  0.00000000000E+00 0. -1.
    9900018    1    1    2    0    0 -0.10005277933E+04  0.61082291965E+03 -0.10119263722E+04  0.15512803310E+04  0.91187600000E+02 0.  0.
<mgrwt>
<rscale>  0 0.26583719E+04</rscale>
<asrwt>0</asrwt>
<pdfrwt beam="1">  1        1 0.39116629E+00 0.53431731E+04</pdfrwt>
<pdfrwt beam="2">  1       -1 0.49258623E+00 0.53431731E+04</pdfrwt>
<totfact> 0.14727932E-03</totfact>
</mgrwt>
</event>
<event>
12    1  0.3980859E-012  0.3501568E+04  0.7818608E-02  0.8792723E-01
         -2   -1    0    0    0  501 -0.00000000000E+00  0.00000000000E+00  0.14379238800E+04  0.14379238800E+04  0.00000000000E+00 0. -1.
          2   -1    0    0  501    0  0.00000000000E+00 -0.00000000000E+00 -0.24737804779E+04  0.24737804779E+04  0.00000000000E+00 0.  1.
         23    2    1    2    0    0 -0.95767855091E+02  0.10945853150E+03 -0.28216225515E+03  0.32994043639E+03  0.89958330065E+02 0.  0.
    9900016    2    1    2    0    0 -0.91950015428E+02 -0.27220945394E+03 -0.27486342881E+03  0.22400441242E+04  0.22044715879E+04 0.  0.
         24    2    4    4    0    0  0.69646712868E+03  0.68713957721E+03 -0.13172821817E+03  0.99006818634E+03  0.75202594658E+02 0.  0.
        -15    1    3    3    0    0 -0.73562606800E+02  0.12393469884E+03 -0.24589955873E+03  0.28502255994E+03  0.00000000000E+00 0. -1.
        -15    1    5    5    0    0  0.27990892123E+03  0.24977629502E+03 -0.18885364890E+02  0.37562462479E+03  0.00000000000E+00 0.  1.
         15    1    4    4    0    0 -0.78841714411E+03 -0.95934903114E+03 -0.14313521064E+03  0.12499759379E+04  0.00000000000E+00 0. -1.
         15    1    3    3    0    0 -0.22205248291E+02 -0.14476167341E+02 -0.36262696425E+02  0.44917876448E+02  0.00000000000E+00 0.  1.
        -16    1    1    2    0    0  0.39582409558E+03 -0.42519815114E+03 -0.40262251999E+03  0.70680625067E+03  0.00000000000E+00 0.  1.
         16    1    5    5    0    0  0.41655820745E+03  0.43736328218E+03 -0.11284285328E+03  0.61444356155E+03  0.00000000000E+00 0. -1.
    9900018    1    1    2    0    0 -0.20810622506E+03  0.58794907359E+03 -0.76208393977E+02  0.63491354667E+03  0.91187600000E+02 0.  0.
<mgrwt>
<rscale>  0 0.16460903E+04</rscale>
<asrwt>0</asrwt>
<pdfrwt beam="1">  1        2 0.38058161E+00 0.35015679E+04</pdfrwt>
<pdfrwt beam="2">  1       -2 0.22121906E+00 0.35015679E+04</pdfrwt>
<totfact> 0.28474364E-01</totfact>
</mgrwt>
</event>
<event>
12    1  0.3980859E-012  0.3531120E+04  0.7818608E-02  0.8106454E-01
          2   -1    0    0  501    0  0.00000000000E+00  0.00000000000E+00  0.42807227894E+04  0.42807227894E+04  0.00000000000E+00 0. -1.
         -2   -1    0    0    0  501 -0.00000000000E+00 -0.00000000000E+00 -0.72819530073E+03  0.72819530073E+03  0.00000000000E+00 0.  1.
         23    2    1    2    0    0  0.16710015510E+01  0.32298063508E+03  0.33801107396E+03  0.47744902884E+03  0.96885531077E+02 0.  0.
    9900016    2    1    2    0    0  0.32616715263E+03 -0.64588325201E+03  0.22152591737E+04  0.32067980726E+04  0.22028686945E+04 0.  0.
         24    2    4    4    0    0  0.20448293551E+03 -0.12458200345E+04  0.22632753775E+04  0.25927648914E+04  0.78316782397E+02 0.  0.
        -15    1    3    3    0    0  0.39919085096E+02  0.64802927814E+02  0.71595200661E+02  0.10449318430E+03  0.00000000000E+00 0.  1.
        -15    1    5    5    0    0  0.85183572522E+02 -0.52589824497E+03  0.87649175660E+03  0.10257012257E+04  0.00000000000E+00 0.  1.
         15    1    3    3    0    0 -0.38248083545E+02  0.25817770727E+03  0.26641587330E+03  0.37295584453E+03  0.00000000000E+00 0. -1.
         15    1    4    4    0    0  0.12168421712E+03  0.59993678253E+03 -0.48016203849E+02  0.61403318115E+03  0.00000000000E+00 0. -1.
        -16    1    1    2    0    0 -0.24060437176E+02  0.37782306063E+03  0.13420501909E+03  0.40167170292E+03  0.00000000000E+00 0.  1.
         16    1    5    5    0    0  0.11929936299E+03 -0.71992178957E+03  0.13867836209E+04  0.15670636657E+04  0.00000000000E+00 0. -1.
    9900018    1    1    2    0    0 -0.30377771700E+03 -0.54920443697E+02  0.86505222192E+03  0.92299928577E+03  0.91187600000E+02 0.  0.
<mgrwt>
<rscale>  0 0.35311201E+04</rscale>
<asrwt>0</asrwt>
<pdfrwt beam="1">  1        2 0.65857272E+00 0.35311201E+04</pdfrwt>
<pdfrwt beam="2">  1       -2 0.11203005E+00 0.35311201E+04</pdfrwt>
<totfact> 0.10129064E-01</totfact>
</mgrwt>
</event>
<event>
12    1  0.3980859E-012  0.3271330E+04  0.7818608E-02  0.8868370E-01
          1   -1    0    0  501    0  0.00000000000E+00  0.00000000000E+00  0.19711105838E+04  0.19711105838E+04  0.00000000000E+00 0. -1.
         -1   -1    0    0    0  501 -0.00000000000E+00 -0.00000000000E+00 -0.14911440917E+04  0.14911440917E+04  0.00000000000E+00 0.  1.
         23    2    1    2    0    0  0.89350068694E+02 -0.88271197999E+02 -0.92964789301E+01  0.15453989204E+03  0.89559558608E+02 0.  0.
    9900016    2    1    2    0    0 -0.24019037740E+03 -0.20934966982E+03  0.35184389585E+03  0.22451563568E+04  0.21944052127E+04 0.  0.
        -24    2    4    4    0    0  0.60197587267E+03  0.57322158005E+03  0.64916851328E+03  0.10576953334E+04  0.79634970902E+02 0.  0.
        -15    1    3    3    0    0  0.46173013119E+02 -0.98938690510E+02 -0.12782460845E+02  0.10992817166E+03  0.00000000000E+00 0. -1.
        -15    1    4    4    0    0 -0.84216625007E+03 -0.78257124987E+03 -0.29732461744E+03  0.11874610234E+04  0.00000000000E+00 0.  1.
         15    1    3    3    0    0  0.43177055575E+02  0.10667492510E+02  0.34859819152E+01  0.44611720371E+02  0.00000000000E+00 0.  1.
         15    1    5    5    0    0  0.27692703564E+03  0.30300305779E+03  0.28458800294E+03  0.49948950691E+03  0.00000000000E+00 0. -1.
        -16    1    5    5    0    0  0.32504883702E+03  0.27021852227E+03  0.36458051034E+03  0.55820582651E+03  0.00000000000E+00 0.  1.
         16    1    1    2    0    0 -0.32002059448E+03  0.44419832952E+03  0.21854621497E+02  0.54790780367E+03  0.00000000000E+00 0. -1.
    9900018    1    1    2    0    0  0.47086090319E+03 -0.14657746170E+03  0.11556445360E+03  0.51465062301E+03  0.91187600000E+02 0.  0.
<mgrwt>
<rscale>  0 0.15244269E+04</rscale>
<asrwt>0</asrwt>
<pdfrwt beam="1">  1        1 0.30324778E+00 0.32713298E+04</pdfrwt>
<pdfrwt beam="2">  1       -1 0.22940678E+00 0.32713298E+04</pdfrwt>
<totfact> 0.24561595E-01</totfact>
</mgrwt>
</event>
<event>
12    1  0.3980859E-012  0.3812759E+04  0.7818608E-02  0.8587077E-01
         -2   -1    0    0    0  501 -0.00000000000E+00  0.00000000000E+00  0.13872303217E+04  0.13872303217E+04  0.00000000000E+00 0. -1.
          2   -1    0    0  501    0  0.00000000000E+00 -0.00000000000E+00 -0.34723168839E+04  0.34723168839E+04  0.00000000000E+00 0.  1.
         23    2    1    2    0    0 -0.33800338467E+02  0.29940888621E+03 -0.76136778590E+03  0.82353862612E+03  0.88016017215E+02 0.  0.
    9900016    2    1    2    0    0  0.48979109888E+03 -0.14214942189E+03 -0.10745750516E+04  0.24635606726E+04  0.21573868145E+04 0.  0.
         24    2    4    4    0    0  0.90195191353E+03  0.60350310346E+03  0.51906600147E+01  0.10881450199E+04  0.79368704255E+02 0.  0.
        -15    1    5    5    0    0  0.43013408901E+03  0.31363509976E+03  0.35912584377E+02  0.53354664655E+03  0.00000000000E+00 0.  1.
        -15    1    3    3    0    0 -0.50055162341E+02  0.97078935660E+02 -0.30840272374E+03  0.32717285804E+03  0.00000000000E+00 0.  1.
         15    1    3    3    0    0  0.16254823873E+02  0.20232995055E+03 -0.45296506216E+03  0.49636576808E+03  0.00000000000E+00 0. -1.
         15    1    4    4    0    0 -0.41216081465E+03 -0.74565252535E+03 -0.10797657116E+04  0.13754156527E+04  0.00000000000E+00 0. -1.
        -16    1    1    2    0    0 -0.40654596126E+03 -0.79933452347E+03 -0.20898322299E+03  0.92080903912E+03  0.00000000000E+00 0.  1.
         16    1    5    5    0    0  0.47181782452E+03  0.28986800370E+03 -0.30721924362E+02  0.55459837337E+03  0.00000000000E+00 0. -1.
    9900018    1    1    2    0    0 -0.49444799159E+02  0.64207505915E+03 -0.40160501722E+02  0.65163886781E+03  0.91187600000E+02 0.  0.
<mgrwt>
<rscale>  0 0.20423414E+04</rscale>
<asrwt>0</asrwt>
<pdfrwt beam="1">  1        2 0.53420260E+00 0.38127593E+04</pdfrwt>
<pdfrwt beam="2">  1       -2 0.21342005E+00 0.38127593E+04</pdfrwt>
<totfact> 0.72563083E-02</totfact>
</mgrwt>
</event>
