<event>
11    1  0.1238799E-010  0.3106200E+04  0.7818608E-02  0.8622648E-01
         -1   -1    0    0    0  501 -0.00000000000E+00  0.00000000000E+00  0.19565339560E+04  0.19565339560E+04  0.00000000000E+00 0.  1.
          1   -1    0    0  501    0  0.00000000000E+00 -0.00000000000E+00 -0.24295699650E+04  0.24295699650E+04  0.00000000000E+00 0. -1.
    9900016    2    1    2    0    0  0.48349035124E+03  0.16076230839E+03 -0.13298976671E+03  0.19369953325E+04  0.18640432400E+04 0.  0.
         23    2    3    3    0    0 -0.63258930932E+03 -0.10990342958E+03 -0.39437340481E+03  0.75919434900E+03  0.92723670317E+02 0.  0.
        -15    1    4    4    0    0 -0.86593557011E+02  0.15415044290E+02 -0.42785534122E+02  0.97809353522E+02  0.00000000000E+00 0.  1.
        -15    1    1    2    0    0 -0.24486197771E+03 -0.75894907016E+02 -0.41682515606E+03  0.48934715260E+03  0.00000000000E+00 0.  1.
         15    1    1    2    0    0  0.42739897415E+03 -0.10373271936E+03  0.23644251614E+03  0.49933498136E+03  0.00000000000E+00 0. -1.
         15    1    4    4    0    0 -0.54599575231E+03 -0.12531847387E+03 -0.35158787069E+03  0.66138499548E+03  0.00000000000E+00 0. -1.
        -16    1    3    3    0    0  0.11160796606E+04  0.27066573797E+03  0.26138363810E+03  0.11778009835E+04  0.00000000000E+00 0.  1.
         16    1    1    2    0    0 -0.18734335929E+03 -0.11710192208E+03 -0.69177855244E+03  0.72620104657E+03  0.00000000000E+00 0. -1.
    9900018    1    1    2    0    0 -0.47868398840E+03  0.13596724006E+03  0.53211495012E+03  0.73422540793E+03  0.91187600000E+02 0.  0.
<mgrwt>
<rscale>  0 0.19660745E+04</rscale>
<asrwt>0</asrwt>
<pdfrwt beam="1">  1        1 0.37378000E+00 0.31061998E+04</pdfrwt>
<pdfrwt beam="2">  1       -1 0.30100522E+00 0.31061998E+04</pdfrwt>
<totfact> 0.40064738E-02</totfact>
</mgrwt>
</event>
<event>
12    1  0.1238799E-010  0.3579464E+04  0.7818608E-02  0.8883634E-01
          2   -1    0    0  501    0  0.00000000000E+00  0.00000000000E+00  0.29321407513E+04  0.29321407513E+04  0.00000000000E+00 0.  1.
         -2   -1    0    0    0  501 -0.00000000000E+00 -0.00000000000E+00 -0.16413127324E+04  0.16413127324E+04  0.00000000000E+00 0. -1.
         24    2    1    2    0    0  0.61112898708E+02 -0.12532292626E+02  0.97368979844E+03  0.97996785317E+03  0.91505873726E+02 0.  0.
    9900016    2    1    2    0    0 -0.66592926179E+02 -0.57208491392E+03  0.13450118770E+04  0.23512933810E+04  0.18405998608E+04 0.  0.
         23    2    4    4    0    0 -0.17005187877E+02 -0.34865753154E+03 -0.43011422113E+03  0.56147456244E+03  0.91674371166E+02 0.  0.
        -15    1    3    3    0    0  0.36892973144E+02  0.23604881645E+02  0.18637663944E+03  0.19145373758E+03  0.00000000000E+00 0.  1.
        -15    1    5    5    0    0 -0.21523582507E+02 -0.19969928700E+03 -0.17684678344E+03  0.26761512410E+03  0.00000000000E+00 0.  1.
         15    1    5    5    0    0  0.45183946299E+01 -0.14895824454E+03 -0.25326743769E+03  0.29385943834E+03  0.00000000000E+00 0. -1.
         15    1    1    2    0    0  0.16727588675E+03  0.21684900225E+03 -0.52458814404E+03  0.59177481607E+03  0.00000000000E+00 0. -1.
        -16    1    4    4    0    0 -0.49587738302E+02 -0.22342738238E+03  0.17751260981E+04  0.17898188185E+04  0.00000000000E+00 0.  1.
         16    1    3    3    0    0  0.24219925565E+02 -0.36137174271E+02  0.78731315899E+03  0.78851411559E+03  0.00000000000E+00 0. -1.
    9900018    1    1    2    0    0 -0.16179585928E+03  0.36776820430E+03 -0.50328551249E+03  0.65041743338E+03  0.91187600000E+02 0.  0.
<mgrwt>
<rscale>  0 0.15012316E+04</rscale>
<asrwt>0</asrwt>
<pdfrwt beam="1">  1        2 0.45109858E+00 0.35794640E+04</pdfrwt>
<pdfrwt beam="2">  1       -2 0.25250965E+00 0.35794640E+04</pdfrwt>
<totfact> 0.94507335E-02</totfact>
</mgrwt>
</event>
<event>
13    1  0.1238799E-010  0.6014698E+04  0.7818608E-02  0.7688582E-01
         -2   -1    0    0    0  501 -0.00000000000E+00  0.00000000000E+00  0.22127403146E+04  0.22127403146E+04  0.00000000000E+00 0. -1.
          2   -1    0    0  501    0  0.00000000000E+00 -0.00000000000E+00 -0.40873058934E+04  0.40873058934E+04  0.00000000000E+00 0.  1.
    9900016    2    1    2    0    0 -0.78361970224E+02  0.10747954992E+04  0.97555132464E+03  0.24018386093E+04  0.19120152601E+04 0.  0.
         24    2    3    3    0    0  0.23881602511E+03 -0.30657460105E+03 -0.29958337909E+03  0.49533559409E+03  0.67720527761E+02 0.  0.
    9900016    2    1    2    0    0  0.26361137592E+03 -0.54548328044E+03 -0.15977747070E+04  0.25230112771E+04  0.18562486157E+04 0.  0.
         23    2    5    5    0    0  0.16142860482E+03 -0.12995233723E+03  0.41085638196E+03  0.46930581260E+03  0.92185545124E+02 0.  0.
        -15    1    4    4    0    0  0.16040344889E+03 -0.17586510823E+03 -0.21637871620E+03  0.32167926811E+03  0.00000000000E+00 0.  1.
        -15    1    6    6    0    0  0.10733333805E+03 -0.11642543300E+03  0.22409088713E+03  0.27439397333E+03  0.00000000000E+00 0. -1.
         15    1    6    6    0    0  0.54095266770E+02 -0.13526904235E+02  0.18676549483E+03  0.19491183926E+03  0.00000000000E+00 0.  1.
         15    1    3    3    0    0 -0.31717799533E+03  0.13813701002E+04  0.12751347037E+04  0.19065030153E+04  0.00000000000E+00 0. -1.
        -16    1    5    5    0    0  0.10218277110E+03 -0.41553094320E+03 -0.20086310889E+04  0.20537054645E+04  0.00000000000E+00 0.  1.
         16    1    4    4    0    0  0.78412576215E+02 -0.13070949283E+03 -0.83204662889E+02  0.17365632597E+03  0.00000000000E+00 0. -1.
    9900018    1    1    2    0    0 -0.18524940570E+03 -0.52931221873E+03 -0.12523421965E+04  0.13751963215E+04  0.91187600000E+02 0.  0.
<mgrwt>
<rscale>  0 0.60146975E+04</rscale>
<asrwt>0</asrwt>
<pdfrwt beam="1">  1        2 0.62881629E+00 0.60146975E+04</pdfrwt>
<pdfrwt beam="2">  1       -2 0.34042159E+00 0.60146975E+04</pdfrwt>
<totfact> 0.34630342E-03</totfact>
</mgrwt>
</event>
<event>
13    1  0.1238799E-010  0.4526910E+04  0.7818608E-02  0.7905943E-01
          1   -1    0    0  501    0  0.00000000000E+00  0.00000000000E+00  0.49440284269E+04  0.49440284269E+04  0.00000000000E+00 0. -1.
         -1   -1    0    0    0  501 -0.00000000000E+00 -0.00000000000E+00 -0.10362455487E+04  0.10362455487E+04  0.00000000000E+00 0.  1.
    9900016    2    1    2    0    0  0.11968755694E+03 -0.44425531436E+03  0.24460509048E+04  0.31423245427E+04  0.19181633421E+04 0.  0.
        -24    2    3    3    0    0  0.91167431931E+03 -0.53685944142E+03  0.85785366007E+03  0.13651951033E+04  0.92068690159E+02 0.  0.
    9900016    2    1    2    0    0 -0.32177356283E+03  0.25052887436E+02  0.14400965892E+04  0.23632361544E+04  0.18457630028E+04 0.  0.
         23    2    5    5    0    0 -0.37965707594E+02 -0.46666161505E+03 -0.27906688882E+03  0.55275193340E+03  0.91879886369E+02 0.  0.
        -15    1    6    6    0    0 -0.65134859330E+02 -0.37699757019E+03 -0.23707029539E+03  0.45008004042E+03  0.00000000000E+00 0.  1.
        -15    1    3    3    0    0 -0.79198676237E+03  0.92604127059E+02  0.15881972448E+04  0.17771294394E+04  0.00000000000E+00 0.  1.
         15    1    6    6    0    0  0.27169151736E+02 -0.89664044863E+02 -0.41996593436E+02  0.10267189298E+03  0.00000000000E+00 0. -1.
         15    1    4    4    0    0  0.73685529901E+03 -0.39113117968E+03  0.66364249341E+03  0.10660022000E+04  0.00000000000E+00 0. -1.
        -16    1    4    4    0    0  0.17481902030E+03 -0.14572826173E+03  0.19421116666E+03  0.29919290329E+03  0.00000000000E+00 0.  1.
         16    1    5    5    0    0 -0.28380785524E+03  0.49171450249E+03  0.17191634780E+04  0.18104842211E+04  0.00000000000E+00 0. -1.
    9900018    1    1    2    0    0  0.20208600589E+03  0.41920242692E+03  0.21635384227E+02  0.47471327847E+03  0.91187600000E+02 0.  0.
<mgrwt>
<rscale>  0 0.45269095E+04</rscale>
<asrwt>0</asrwt>
<pdfrwt beam="1">  1        1 0.76061974E+00 0.45269095E+04</pdfrwt>
<pdfrwt beam="2">  1       -1 0.15942240E+00 0.45269095E+04</pdfrwt>
<totfact> 0.22253422E-03</totfact>
</mgrwt>
</event>
<event>
12    1  0.1238799E-010  0.4479221E+04  0.7818608E-02  0.7914285E-01
          1   -1    0    0  501    0  0.00000000000E+00  0.00000000000E+00  0.23506288237E+04  0.23506288237E+04  0.00000000000E+00 0. -1.
         -1   -1    0    0    0  501 -0.00000000000E+00 -0.00000000000E+00 -0.21338355875E+04  0.21338355875E+04  0.00000000000E+00 0.  1.
    9900016    2    1    2    0    0 -0.31883067981E+03  0.44406730135E+03  0.85136265276E+03  0.19830271821E+04  0.17054998293E+04 0.  0.
    9900016    2    1    2    0    0  0.51362128925E+03 -0.26959236350E+03 -0.13756064128E+03  0.19324752035E+04  0.18382194131E+04 0.  0.
         23    2    4    4    0    0 -0.33376767304E+03 -0.29431125879E+03 -0.75660231179E+03  0.88276492581E+03  0.93844975446E+02 0.  0.
        -15    1    5    5    0    0 -0.11866980530E+03 -0.14320893457E+03 -0.24517370218E+03  0.30773603278E+03  0.00000000000E+00 0. -1.
        -15    1    3    3    0    0  0.28289182384E+03 -0.53952056791E+03  0.13246172098E+03  0.62342307843E+03  0.00000000000E+00 0.  1.
         15    1    5    5    0    0 -0.21509786774E+03 -0.15110232422E+03 -0.51142860962E+03  0.57502889304E+03  0.00000000000E+00 0.  1.
         15    1    3    3    0    0 -0.47151509221E+03  0.80333877127E+03  0.57187940111E+03  0.10930350923E+04  0.00000000000E+00 0. -1.
        -16    1    3    3    0    0 -0.13020741144E+03  0.18024909799E+03  0.14702153066E+03  0.26656901133E+03  0.00000000000E+00 0.  1.
         16    1    4    4    0    0  0.84738896229E+03  0.24718895294E+02  0.61904167051E+03  0.10497102777E+04  0.00000000000E+00 0. -1.
    9900018    1    1    2    0    0 -0.19479060944E+03 -0.17447493785E+03 -0.49700877528E+03  0.56896202559E+03  0.91187600000E+02 0.  0.
<mgrwt>
<rscale>  0 0.44792211E+04</rscale>
<asrwt>0</asrwt>
<pdfrwt beam="1">  1        1 0.36163520E+00 0.44792211E+04</pdfrwt>
<pdfrwt beam="2">  1       -1 0.32828240E+00 0.44792211E+04</pdfrwt>
<totfact> 0.27938326E-02</totfact>
</mgrwt>
</event>
