<event>
11    1  0.1544469E-013  0.3145050E+04  0.7818608E-02  0.8739258E-01
          2   -1    0    0  501    0  0.00000000000E+00  0.00000000000E+00  0.18255877120E+04  0.18255877120E+04  0.00000000000E+00 0. -1.
         -2   -1    0    0    0  501 -0.00000000000E+00 -0.00000000000E+00 -0.19517084333E+04  0.19517084333E+04  0.00000000000E+00 0.  1.
         23    2    1    2    0    0  0.23559290886E+03 -0.13710333098E+03  0.49089096650E+03  0.57229345888E+03  0.11065495928E+03 0.  0.
    9900016    2    1    2    0    0  0.16631467795E+03 -0.17385440909E+03 -0.11255676679E+04  0.24860773709E+04  0.22035862115E+04 0.  0.
        -15    1    3    3    0    0  0.17030269733E+03 -0.36376952231E+02  0.29244855179E+03  0.34037104286E+03  0.00000000000E+00 0.  1.
        -15    1    4    4    0    0 -0.24204904415E+03  0.65581464091E+03 -0.88368045472E+03  0.11267527364E+04  0.00000000000E+00 0.  1.
         15    1    4    4    0    0  0.35477872306E+02 -0.13464426984E+03  0.27717929524E+02  0.14197197766E+03  0.00000000000E+00 0. -1.
         15    1    3    3    0    0  0.65290211529E+02 -0.10072637875E+03  0.19844241471E+03  0.23192241602E+03  0.00000000000E+00 0. -1.
        -16    1    4    4    0    0  0.22989211266E+03 -0.80334488461E+03  0.52844915176E+02  0.83726099405E+03  0.00000000000E+00 0.  1.
         16    1    1    2    0    0 -0.40190758681E+03  0.31095774007E+03  0.50855598007E+03  0.71892531553E+03  0.00000000000E+00 0. -1.
    9900018    1    4    4    0    0  0.14299373714E+03  0.10832010445E+03 -0.32245005785E+03  0.38009166275E+03  0.91187600000E+02 0.  0.
<mgrwt>
<rscale>  0 0.17393078E+04</rscale>
<asrwt>0</asrwt>
<pdfrwt beam="1">  1        2 0.28085965E+00 0.31450499E+04</pdfrwt>
<pdfrwt beam="2">  1       -2 0.30026283E+00 0.31450499E+04</pdfrwt>
<totfact> 0.21893330E-01</totfact>
</mgrwt>
</event>
<event>
12    1  0.1599349E-013  0.3402494E+04  0.7818608E-02  0.8738503E-01
         -1   -1    0    0    0  501 -0.00000000000E+00  0.00000000000E+00  0.29402954006E+04  0.29402954006E+04  0.00000000000E+00 0.  1.
          1   -1    0    0  501    0  0.00000000000E+00 -0.00000000000E+00 -0.11275931807E+04  0.11275931807E+04  0.00000000000E+00 0. -1.
         23    2    1    2    0    0  0.73902138004E+02  0.19301725240E+03  0.60803582987E+02  0.24086396751E+03  0.10770881771E+03 0.  0.
    9900016    2    1    2    0    0  0.31658641160E+03 -0.94423448092E+03  0.17401655262E+04  0.29802977997E+04  0.22050381415E+04 0.  0.
        -24    2    4    4    0    0 -0.13355073139E+03  0.55505278162E+03  0.11357067119E+01  0.57863553715E+03  0.94331366911E+02 0.  0.
        -15    1    4    4    0    0  0.17456905394E+03 -0.68085155975E+02  0.12610534104E+03  0.22585946980E+03  0.00000000000E+00 0.  1.
        -15    1    3    3    0    0  0.27723378263E+02  0.37781237362E+02 -0.29555936360E+02  0.55403618772E+02  0.00000000000E+00 0.  1.
         15    1    3    3    0    0  0.46178759741E+02  0.15523601504E+03  0.90359519348E+02  0.18546034874E+03  0.00000000000E+00 0. -1.
         15    1    5    5    0    0 -0.26530408122E+02  0.30517994820E+03  0.12322244086E+02  0.30657870284E+03  0.00000000000E+00 0. -1.
        -16    1    5    5    0    0 -0.10702032327E+03  0.24987283342E+03 -0.11186537374E+02  0.27205683431E+03  0.00000000000E+00 0.  1.
         16    1    1    2    0    0 -0.39048854960E+03  0.75121722852E+03  0.11733110739E+02  0.84672681408E+03  0.00000000000E+00 0. -1.
    9900018    1    4    4    0    0  0.27556808904E+03 -0.14312021066E+04  0.16129244784E+04  0.21758027928E+04  0.91187600000E+02 0.  0.
<mgrwt>
<rscale>  0 0.17406699E+04</rscale>
<asrwt>0</asrwt>
<pdfrwt beam="1">  1        1 0.17347588E+00 0.34024945E+04</pdfrwt>
<pdfrwt beam="2">  1       -1 0.45235314E+00 0.34024945E+04</pdfrwt>
<totfact> 0.30729994E-02</totfact>
</mgrwt>
</event>
<event>
12    1  0.1544469E-013  0.3860990E+04  0.7818608E-02  0.8539262E-01
         -2   -1    0    0    0  501 -0.00000000000E+00  0.00000000000E+00  0.14348425854E+04  0.14348425854E+04  0.00000000000E+00 0.  1.
          2   -1    0    0  501    0  0.00000000000E+00 -0.00000000000E+00 -0.34851539323E+04  0.34851539323E+04  0.00000000000E+00 0. -1.
         23    2    1    2    0    0  0.22207076848E+03  0.28989457646E+03  0.22885823403E+03  0.43648715780E+03  0.69214564679E+02 0.  0.
    9900016    2    1    2    0    0 -0.79360468827E+03  0.79907784607E+03 -0.20616666242E+04  0.32345820223E+04  0.22234472749E+04 0.  0.
         24    2    4    4    0    0 -0.10204893232E+04  0.31530371673E+03 -0.44729037706E+03  0.11590197404E+04  0.49428581624E+02 0.  0.
        -15    1    5    5    0    0 -0.85014343522E+03  0.24405659125E+03 -0.37617272759E+03  0.96115212176E+03  0.00000000000E+00 0.  1.
        -15    1    3    3    0    0  0.16984510042E+03  0.26017565443E+03  0.18030527099E+03  0.35923351742E+03  0.00000000000E+00 0.  1.
         15    1    4    4    0    0  0.58511258810E+03  0.78184740450E+02 -0.32409036089E+03  0.67342717231E+03  0.00000000000E+00 0. -1.
         15    1    3    3    0    0  0.52225668063E+02  0.29718922038E+02  0.48552963040E+02  0.77253640379E+02  0.00000000000E+00 0. -1.
        -16    1    1    2    0    0  0.57153391978E+03 -0.10889724225E+04 -0.21750295675E+03  0.12489273376E+04  0.00000000000E+00 0.  1.
         16    1    5    5    0    0 -0.17034588797E+03  0.71247125483E+02 -0.71117649476E+02  0.19786761863E+03  0.00000000000E+00 0. -1.
    9900018    1    4    4    0    0 -0.35822795318E+03  0.40558938889E+03 -0.12902858862E+04  0.14021351095E+04  0.91187600000E+02 0.  0.
<mgrwt>
<rscale>  0 0.21506308E+04</rscale>
<asrwt>0</asrwt>
<pdfrwt beam="1">  1        2 0.53617752E+00 0.38609898E+04</pdfrwt>
<pdfrwt beam="2">  1       -2 0.22074502E+00 0.38609898E+04</pdfrwt>
<totfact> 0.63509233E-02</totfact>
</mgrwt>
</event>
