<event>
11    1  0.8654778E-011  0.4255623E+04  0.7818608E-02  0.8222667E-01
         -2   -1    0    0    0  501 -0.00000000000E+00  0.00000000000E+00  0.30290092752E+04  0.30290092752E+04  0.00000000000E+00 0. -1.
          2   -1    0    0  501    0  0.00000000000E+00 -0.00000000000E+00 -0.25964851449E+04  0.25964851449E+04  0.00000000000E+00 0.  1.
    9900016    2    1    2    0    0  0.73816522002E+03  0.21033967410E+03 -0.97297468696E+03  0.22161655146E+04  0.18372749321E+04 0.  0.
         24    2    3    3    0    0  0.70756047365E+02  0.10875211333E+03 -0.14059923192E+04  0.14141310353E+04  0.78222393704E+02 0.  0.
        -15    1    4    4    0    0  0.47024605181E+02  0.39668825603E+02 -0.33162238511E+03  0.33728079626E+03  0.00000000000E+00 0.  1.
        -15    1    1    2    0    0  0.28348376844E+02 -0.14525955213E+03  0.65382852159E+02  0.16179890393E+03  0.00000000000E+00 0.  1.
         15    1    1    2    0    0 -0.97263265563E+03  0.27198040568E+03  0.64611637392E+03  0.11989386942E+04  0.00000000000E+00 0. -1.
         15    1    3    3    0    0  0.66740917265E+03  0.10158756077E+03  0.43301763225E+03  0.80203447936E+03  0.00000000000E+00 0. -1.
        -16    1    1    2    0    0  0.69869601259E+02 -0.48510224877E+03 -0.57784803400E+03  0.75770330825E+03  0.00000000000E+00 0.  1.
         16    1    4    4    0    0  0.23731442184E+02  0.69083287730E+02 -0.10743699341E+04  0.10768502390E+04  0.00000000000E+00 0. -1.
    9900018    1    1    2    0    0  0.13624945751E+03  0.14804172113E+03  0.12718476252E+04  0.12908879990E+04  0.91187600000E+02 0.  0.
<mgrwt>
<rscale>  0 0.30748772E+04</rscale>
<asrwt>0</asrwt>
<pdfrwt beam="1">  1        2 0.39945925E+00 0.42556226E+04</pdfrwt>
<pdfrwt beam="2">  1       -2 0.46600143E+00 0.42556226E+04</pdfrwt>
<totfact> 0.61637913E-03</totfact>
</mgrwt>
</event>
<event>
11    1  0.8654778E-011  0.4046490E+04  0.7818608E-02  0.8305685E-01
          2   -1    0    0  501    0  0.00000000000E+00  0.00000000000E+00  0.33943613042E+04  0.33943613042E+04  0.00000000000E+00 0. -1.
         -2   -1    0    0    0  501 -0.00000000000E+00 -0.00000000000E+00 -0.18162765537E+04  0.18162765537E+04  0.00000000000E+00 0.  1.
    9900016    2    1    2    0    0  0.20264990636E+03  0.58263687839E+02  0.70470874960E+03  0.19760052322E+04  0.18339903528E+04 0.  0.
        -24    2    3    3    0    0 -0.35629180872E+03 -0.61092945158E+03  0.83196562792E+03  0.10948527983E+04  0.79732026771E+02 0.  0.
        -15    1    3    3    0    0  0.55894171508E+03  0.66919313942E+03 -0.12725687832E+03  0.88115243390E+03  0.00000000000E+00 0.  1.
        -15    1    1    2    0    0  0.37959358959E+03 -0.22097537745E+03 -0.35954517345E+02  0.44069733153E+03  0.00000000000E+00 0.  1.
         15    1    4    4    0    0 -0.51965250326E+02 -0.15552951646E+03  0.18977199000E+03  0.25080515529E+03  0.00000000000E+00 0. -1.
         15    1    1    2    0    0  0.37855035787E+03 -0.28050103145E+02  0.38561652304E+03  0.54109822082E+03  0.00000000000E+00 0. -1.
        -16    1    4    4    0    0 -0.30432655839E+03 -0.45539993511E+03  0.64219363793E+03  0.84404764299E+03  0.00000000000E+00 0.  1.
         16    1    1    2    0    0 -0.13411772634E+04 -0.32465276054E+02 -0.24322205699E+03  0.13634395531E+04  0.00000000000E+00 0. -1.
    9900018    1    1    2    0    0  0.38038340959E+03  0.22322706881E+03  0.76693605219E+03  0.88939752028E+03  0.91187600000E+02 0.  0.
<mgrwt>
<rscale>  0 0.27922282E+04</rscale>
<asrwt>0</asrwt>
<pdfrwt beam="1">  1        2 0.52220943E+00 0.40464904E+04</pdfrwt>
<pdfrwt beam="2">  1       -2 0.27942716E+00 0.40464904E+04</pdfrwt>
<totfact> 0.31062547E-02</totfact>
</mgrwt>
</event>
<event>
11    1  0.8654778E-011  0.3373253E+04  0.7818608E-02  0.8303491E-01
          2   -1    0    0  501    0  0.00000000000E+00  0.00000000000E+00  0.25312367159E+04  0.25312367159E+04  0.00000000000E+00 0. -1.
         -2   -1    0    0    0  501 -0.00000000000E+00 -0.00000000000E+00 -0.26610687059E+04  0.26610687059E+04  0.00000000000E+00 0.  1.
    9900016    2    1    2    0    0  0.59372839109E+02  0.93710100788E+02  0.23006802028E+02  0.18589312901E+04  0.18554755486E+04 0.  0.
        -24    2    3    3    0    0  0.20796058992E+03  0.12954626094E+02  0.91978759318E+03  0.94634400453E+03  0.78373012258E+02 0.  0.
        -15    1    1    2    0    0  0.38616997975E+03 -0.50807300217E+03 -0.10611605204E+04  0.12382758492E+04  0.00000000000E+00 0.  1.
        -15    1    3    3    0    0 -0.14858775081E+03  0.80755474695E+02 -0.89678079115E+03  0.91258728555E+03  0.00000000000E+00 0.  1.
         15    1    4    4    0    0  0.33220471431E+02  0.32799512700E+02  0.20264769487E+03  0.20795551445E+03  0.00000000000E+00 0. -1.
         15    1    1    2    0    0  0.27073678829E+03  0.77059298876E+03  0.41245156701E+03  0.91500178032E+03  0.00000000000E+00 0. -1.
        -16    1    4    4    0    0  0.17474011848E+03 -0.19844886607E+02  0.71713989831E+03  0.73838849008E+03  0.00000000000E+00 0.  1.
         16    1    1    2    0    0 -0.94984723500E+02 -0.40725795478E+03  0.31825897117E+03  0.52551870772E+03  0.00000000000E+00 0. -1.
    9900018    1    1    2    0    0 -0.62129488364E+03  0.51027867407E+02  0.17761119020E+03  0.65457779444E+03  0.91187600000E+02 0.  0.
<mgrwt>
<rscale>  0 0.27992838E+04</rscale>
<asrwt>0</asrwt>
<pdfrwt beam="1">  1        2 0.38942104E+00 0.33732525E+04</pdfrwt>
<pdfrwt beam="2">  1       -2 0.40939518E+00 0.33732525E+04</pdfrwt>
<totfact> 0.16899976E-02</totfact>
</mgrwt>
</event>
<event>
11    1  0.8654778E-011  0.2777779E+04  0.7818608E-02  0.8618085E-01
         -2   -1    0    0    0  501 -0.00000000000E+00  0.00000000000E+00  0.16310667991E+04  0.16310667991E+04  0.00000000000E+00 0.  1.
          2   -1    0    0  501    0  0.00000000000E+00 -0.00000000000E+00 -0.28181240015E+04  0.28181240015E+04  0.00000000000E+00 0. -1.
    9900016    2    1    2    0    0  0.16451835401E+03  0.36788701410E+03 -0.16410192403E+04  0.25087289095E+04  0.18542840803E+04 0.  0.
        -24    2    3    3    0    0 -0.57376297863E+03  0.72783832893E+03 -0.13455686090E+04  0.16358512831E+04  0.80634671589E+02 0.  0.
        -15    1    3    3    0    0  0.73828133264E+03 -0.35995131482E+03 -0.29545063134E+03  0.87287762643E+03  0.00000000000E+00 0.  1.
        -15    1    1    2    0    0 -0.35578507835E+02  0.25253395315E+03  0.76107233915E+03  0.80266452092E+03  0.00000000000E+00 0.  1.
         15    1    1    2    0    0 -0.32982102536E+02 -0.47052731740E+03  0.50094975442E+02  0.47433456766E+03  0.00000000000E+00 0. -1.
         15    1    4    4    0    0 -0.46091496283E+03  0.53395069175E+03 -0.10454080222E+04  0.12611200883E+04  0.00000000000E+00 0. -1.
        -16    1    4    4    0    0 -0.11284801580E+03  0.19388763718E+03 -0.30016058683E+03  0.37473119487E+03  0.00000000000E+00 0.  1.
         16    1    1    2    0    0 -0.23989448186E+03 -0.58193130485E+02  0.11443566174E+02  0.24711689151E+03  0.00000000000E+00 0. -1.
    9900018    1    1    2    0    0  0.14393673822E+03 -0.91700519368E+02 -0.36864884280E+03  0.41634591094E+03  0.91187600000E+02 0.  0.
<mgrwt>
<rscale>  0 0.19756624E+04</rscale>
<asrwt>0</asrwt>
<pdfrwt beam="1">  1        2 0.43355754E+00 0.27777792E+04</pdfrwt>
<pdfrwt beam="2">  1       -2 0.25093335E+00 0.27777792E+04</pdfrwt>
<totfact> 0.11936711E-01</totfact>
</mgrwt>
</event>
<event>
11    1  0.8654778E-011  0.4040437E+04  0.7818608E-02  0.8289409E-01
          2   -1    0    0  501    0  0.00000000000E+00  0.00000000000E+00  0.22322581137E+04  0.22322581137E+04  0.00000000000E+00 0. -1.
         -2   -1    0    0    0  501 -0.00000000000E+00 -0.00000000000E+00 -0.29233821598E+04  0.29233821598E+04  0.00000000000E+00 0.  1.
    9900016    2    1    2    0    0 -0.76199197844E+03  0.12504560773E+04 -0.57174755015E+03  0.24227349848E+04  0.18434959640E+04 0.  0.
         24    2    3    3    0    0 -0.88096348953E+03  0.54769161649E+03 -0.11160766688E+04  0.15258925810E+04  0.81598171041E+02 0.  0.
        -15    1    4    4    0    0 -0.64540771364E+03  0.36549468060E+03 -0.82657849088E+03  0.11105716906E+04  0.00000000000E+00 0.  1.
        -15    1    1    2    0    0  0.81630463223E+02 -0.44282887498E+03  0.19284872661E+03  0.48984852393E+03  0.00000000000E+00 0.  1.
         15    1    1    2    0    0 -0.23137390505E+02  0.52490714416E+03  0.18699079312E+02  0.52574946923E+03  0.00000000000E+00 0. -1.
         15    1    3    3    0    0  0.11897151109E+03  0.70276446081E+03  0.54432911866E+03  0.89684240380E+03  0.00000000000E+00 0. -1.
        -16    1    1    2    0    0  0.62383943313E+03 -0.10841429242E+04 -0.54830923944E+03  0.13657175918E+04  0.00000000000E+00 0.  1.
         16    1    4    4    0    0 -0.23555577589E+03  0.18219693589E+03 -0.28949817793E+03  0.41532089043E+03  0.00000000000E+00 0. -1.
    9900018    1    1    2    0    0  0.79659472593E+02 -0.24839142225E+03  0.21738493762E+03  0.35158970366E+03  0.91187600000E+02 0.  0.
<mgrwt>
<rscale>  0 0.28450748E+04</rscale>
<asrwt>0</asrwt>
<pdfrwt beam="1">  1        2 0.34342433E+00 0.40404373E+04</pdfrwt>
<pdfrwt beam="2">  1       -2 0.44975110E+00 0.40404373E+04</pdfrwt>
<totfact> 0.13097323E-02</totfact>
</mgrwt>
</event>
<event>
11    1  0.8654778E-011  0.2931725E+04  0.7818608E-02  0.8475766E-01
          2   -1    0    0  501    0  0.00000000000E+00  0.00000000000E+00  0.38573573900E+04  0.38573573900E+04  0.00000000000E+00 0. -1.
         -2   -1    0    0    0  501 -0.00000000000E+00 -0.00000000000E+00 -0.11218736628E+04  0.11218736628E+04  0.00000000000E+00 0.  1.
    9900016    2    1    2    0    0 -0.16201377836E+03 -0.41051290097E+03  0.94483185275E+03  0.21128599113E+04  0.18375800577E+04 0.  0.
         24    2    3    3    0    0 -0.46153297480E+03 -0.93753342653E+03  0.10659373892E+04  0.14946941290E+04  0.76853165377E+02 0.  0.
        -15    1    4    4    0    0 -0.19232617811E+03 -0.47597367209E+03  0.53306503218E+03  0.74006663473E+03  0.00000000000E+00 0.  1.
        -15    1    1    2    0    0  0.71914741966E+02 -0.51266769967E+02 -0.14547236645E+03  0.17018290518E+03  0.00000000000E+00 0.  1.
         15    1    3    3    0    0  0.29951919644E+03  0.52702052556E+03 -0.12110553641E+03  0.61816578225E+03  0.00000000000E+00 0. -1.
         15    1    1    2    0    0 -0.22699017819E+03  0.50379116508E+03  0.14399273986E+04  0.15423102776E+04  0.00000000000E+00 0. -1.
        -16    1    1    2    0    0  0.91559468948E+02 -0.37311132339E+03  0.61593313642E+03  0.72592618395E+03  0.00000000000E+00 0.  1.
         16    1    4    4    0    0 -0.26920679669E+03 -0.46155975444E+03  0.53287235697E+03  0.75462749428E+03  0.00000000000E+00 0. -1.
    9900018    1    1    2    0    0  0.22552974564E+03  0.33109982925E+03 -0.11973629417E+03  0.42795177489E+03  0.91187600000E+02 0.  0.
<mgrwt>
<rscale>  0 0.23054737E+04</rscale>
<asrwt>0</asrwt>
<pdfrwt beam="1">  1        2 0.59343959E+00 0.29317252E+04</pdfrwt>
<pdfrwt beam="2">  1       -2 0.17259595E+00 0.29317252E+04</pdfrwt>
<totfact> 0.75456879E-02</totfact>
</mgrwt>
</event>
<event>
11    1  0.8654778E-011  0.3441632E+04  0.7818608E-02  0.8469409E-01
         -2   -1    0    0    0  501 -0.00000000000E+00  0.00000000000E+00  0.18876038160E+04  0.18876038160E+04  0.00000000000E+00 0.  1.
          2   -1    0    0  501    0  0.00000000000E+00 -0.00000000000E+00 -0.25328904022E+04  0.25328904022E+04  0.00000000000E+00 0. -1.
    9900016    2    1    2    0    0 -0.13259390330E+03 -0.32187361725E+03 -0.86719213859E+03  0.20736051133E+04  0.18511164718E+04 0.  0.
         24    2    3    3    0    0 -0.59682768521E+03  0.50848682866E+03 -0.79528725076E+03  0.11195706342E+04  0.78704847969E+02 0.  0.
        -15    1    4    4    0    0 -0.33300056710E+03  0.27116919917E+03 -0.48908528966E+03  0.65086598684E+03  0.00000000000E+00 0.  1.
        -15    1    1    2    0    0 -0.29725216890E+03 -0.57135784450E+02 -0.16036258559E+03  0.34254854932E+03  0.00000000000E+00 0.  1.
         15    1    3    3    0    0  0.46423378191E+03 -0.83036044591E+03 -0.71904887833E+02  0.95403447909E+03  0.00000000000E+00 0. -1.
         15    1    1    2    0    0  0.35627936929E+03  0.13152917803E+03 -0.51043067175E+03  0.63621881795E+03  0.00000000000E+00 0. -1.
        -16    1    1    2    0    0  0.53351335110E+02  0.59895789366E+03  0.29820079454E+03  0.67120834113E+03  0.00000000000E+00 0.  1.
         16    1    4    4    0    0 -0.26382711811E+03  0.23731762949E+03 -0.30620196110E+03  0.46870464740E+03  0.00000000000E+00 0. -1.
    9900018    1    1    2    0    0  0.20215367809E+02 -0.35147766999E+03  0.59449801525E+03  0.69691339643E+03  0.91187600000E+02 0.  0.
<mgrwt>
<rscale>  0 0.23217137E+04</rscale>
<asrwt>0</asrwt>
<pdfrwt beam="1">  1        2 0.38967545E+00 0.34416323E+04</pdfrwt>
<pdfrwt beam="2">  1       -2 0.29040059E+00 0.34416323E+04</pdfrwt>
<totfact> 0.96974538E-02</totfact>
</mgrwt>
</event>
<event>
11    1  0.8654778E-011  0.5414539E+04  0.7818608E-02  0.7997015E-01
         -1   -1    0    0    0  501 -0.00000000000E+00  0.00000000000E+00  0.39647315449E+04  0.39647315449E+04  0.00000000000E+00 0.  1.
          1   -1    0    0  501    0  0.00000000000E+00 -0.00000000000E+00 -0.32840062370E+04  0.32840062370E+04  0.00000000000E+00 0. -1.
    9900016    2    1    2    0    0 -0.10532954070E+04  0.75843656315E+03 -0.80790126582E+03  0.23937850797E+04  0.18419677841E+04 0.  0.
         24    2    3    3    0    0 -0.40182540462E+03  0.74927962657E+03 -0.13151457937E+04  0.15680768839E+04  0.79831325972E+02 0.  0.
        -15    1    4    4    0    0 -0.32294811171E+03  0.66013500950E+03 -0.11267184588E+04  0.13452019176E+04  0.00000000000E+00 0.  1.
        -15    1    1    2    0    0  0.90498806013E+02 -0.79735974466E+03  0.48406461459E+03  0.93717188787E+03  0.00000000000E+00 0.  1.
         15    1    3    3    0    0 -0.65147000242E+03  0.91569365844E+01  0.50724452788E+03  0.82570819580E+03  0.00000000000E+00 0. -1.
         15    1    1    2    0    0 -0.84475355372E+03 -0.14291558711E+03  0.26432118676E+03  0.89660421666E+03  0.00000000000E+00 0. -1.
        -16    1    1    2    0    0  0.85246694748E+03 -0.10501113295E+04  0.19132441202E+03  0.13660302820E+04  0.00000000000E+00 0.  1.
         16    1    4    4    0    0 -0.78877292912E+02  0.89144617072E+02 -0.18842733492E+03  0.22287496637E+03  0.00000000000E+00 0. -1.
    9900018    1    1    2    0    0  0.95508320727E+03  0.12319500981E+04  0.54891636031E+03  0.16551463156E+04  0.91187600000E+02 0.  0.
<mgrwt>
<rscale>  0 0.40375442E+04</rscale>
<asrwt>0</asrwt>
<pdfrwt beam="1">  1        1 0.50523173E+00 0.54145389E+04</pdfrwt>
<pdfrwt beam="2">  1       -1 0.60995870E+00 0.54145389E+04</pdfrwt>
<totfact> 0.99501064E-05</totfact>
</mgrwt>
</event>
<event>
11    1  0.8696899E-011  0.4102169E+04  0.7818608E-02  0.8514018E-01
          2   -1    0    0  501    0  0.00000000000E+00  0.00000000000E+00  0.32829359157E+04  0.32829359157E+04  0.00000000000E+00 0. -1.
         -2   -1    0    0    0  501 -0.00000000000E+00 -0.00000000000E+00 -0.20339789688E+04  0.20339789688E+04  0.00000000000E+00 0.  1.
    9900016    2    1    2    0    0 -0.76204061397E+03 -0.20963579659E+03 -0.10568512052E+04  0.22626830015E+04  0.18379735664E+04 0.  0.
         24    2    3    3    0    0 -0.95529520197E+02 -0.32154199576E+03 -0.14432924816E+04  0.14841607503E+04  0.84408535624E+02 0.  0.
        -15    1    1    2    0    0  0.55871154077E+02 -0.34510412905E+02  0.24030751813E+03  0.24911896300E+03  0.00000000000E+00 0. -1.
        -15    1    4    4    0    0 -0.92915682018E+02 -0.19670440870E+03 -0.81190526094E+03  0.84054512140E+03  0.00000000000E+00 0.  1.
         15    1    3    3    0    0 -0.66651109377E+03  0.11190619917E+03  0.38644127642E+03  0.77852225123E+03  0.00000000000E+00 0. -1.
         15    1    1    2    0    0  0.34267853603E+02 -0.27791370739E+03  0.92320516126E+03  0.96473731363E+03  0.00000000000E+00 0.  1.
        -16    1    1    2    0    0  0.93860039861E+03  0.30348815257E+03  0.50055922795E+03  0.11061805041E+04  0.00000000000E+00 0.  1.
         16    1    4    4    0    0 -0.26138381794E+01 -0.12483758706E+03 -0.63138722068E+03  0.64361562887E+03  0.00000000000E+00 0. -1.
    9900018    1    1    2    0    0 -0.26669879232E+03  0.21857176432E+03  0.64173624470E+03  0.73419510223E+03  0.91187600000E+02 0.  0.
<mgrwt>
<rscale>  0 0.22106259E+04</rscale>
<asrwt>0</asrwt>
<pdfrwt beam="1">  1        2 0.50506706E+00 0.41021688E+04</pdfrwt>
<pdfrwt beam="2">  1       -2 0.31291984E+00 0.41021688E+04</pdfrwt>
<totfact> 0.22820600E-02</totfact>
</mgrwt>
</event>
<event>
11    1  0.8654778E-011  0.5534128E+04  0.7818608E-02  0.7883293E-01
         -2   -1    0    0    0  501 -0.00000000000E+00  0.00000000000E+00  0.44957890764E+04  0.44957890764E+04  0.00000000000E+00 0.  1.
          2   -1    0    0  501    0  0.00000000000E+00 -0.00000000000E+00 -0.45118427438E+04  0.45118427438E+04  0.00000000000E+00 0. -1.
    9900016    2    1    2    0    0 -0.51067128178E+03  0.18221793899E+03 -0.48626265717E+03  0.19879449554E+04  0.18497257198E+04 0.  0.
         24    2    3    3    0    0 -0.86790254827E+03 -0.58303553492E+03 -0.82104288047E+02  0.10516912267E+04  0.78281888223E+02 0.  0.
        -15    1    1    2    0    0  0.13518118888E+04 -0.58816418993E+03 -0.99872558186E+03  0.17806698978E+04  0.00000000000E+00 0.  1.
        -15    1    4    4    0    0 -0.40029806696E+03 -0.31600850939E+03 -0.41494867400E+02  0.51168520053E+03  0.00000000000E+00 0.  1.
         15    1    3    3    0    0  0.35723126650E+03  0.76525347391E+03 -0.40415836913E+03  0.93625372866E+03  0.00000000000E+00 0. -1.
         15    1    1    2    0    0  0.12776390161E+04  0.23576319237E+03 -0.65585174920E+03  0.14553649904E+04  0.00000000000E+00 0. -1.
        -16    1    1    2    0    0 -0.19342138122E+04  0.61617486476E+03  0.24596501687E+04  0.31891587430E+04  0.00000000000E+00 0.  1.
         16    1    4    4    0    0 -0.46760448132E+03 -0.26702702552E+03 -0.40609420647E+02  0.54000602622E+03  0.00000000000E+00 0. -1.
    9900018    1    1    2    0    0 -0.18456581095E+03 -0.44599180619E+03 -0.33486384793E+03  0.59449323361E+03  0.91187600000E+02 0.  0.
<mgrwt>
<rscale>  0 0.46595019E+04</rscale>
<asrwt>0</asrwt>
<pdfrwt beam="1">  1        2 0.69412965E+00 0.55341279E+04</pdfrwt>
<pdfrwt beam="2">  1       -2 0.69165986E+00 0.55341279E+04</pdfrwt>
<totfact> 0.18478813E-05</totfact>
</mgrwt>
</event>
