<event>
12    1  0.1253124E-014  0.1003595E+04  0.7818608E-02  0.9304611E-01
         -3   -1    0    0    0  501 -0.00000000000E+00  0.00000000000E+00  0.12864728581E+03  0.12864728581E+03  0.00000000000E+00 0.  1.
          3   -1    0    0  501    0  0.00000000000E+00 -0.00000000000E+00 -0.19572935099E+04  0.19572935099E+04  0.00000000000E+00 0. -1.
    9900016    2    1    2    0    0  0.15134854189E+03 -0.10914023531E+03 -0.16482921057E+04  0.18264305259E+04  0.76430597819E+03 0.  0.
         23    2    3    3    0    0 -0.98214887557E+02 -0.19914331085E+03 -0.58496606262E+03  0.63030145358E+03  0.76094714481E+02 0.  0.
         23    2    3    3    0    0 -0.38857086517E+01 -0.28478467705E+01 -0.46133713275E+03  0.47013275972E+03  0.90386131368E+02 0.  0.
        -15    1    4    4    0    0 -0.74705916924E+02 -0.10417995142E+03 -0.24464943278E+03  0.27620242805E+03  0.00000000000E+00 0.  1.
        -15    1    5    5    0    0  0.36858174541E+02 -0.23648738607E+02 -0.26015086869E+03  0.26381103530E+03  0.00000000000E+00 0.  1.
         15    1    4    4    0    0 -0.23508970633E+02 -0.94963359431E+02 -0.34031662984E+03  0.35409902552E+03  0.00000000000E+00 0. -1.
         15    1    5    5    0    0 -0.40743883193E+02  0.20800891837E+02 -0.20118626407E+03  0.20632172442E+03  0.00000000000E+00 0. -1.
        -16    1    1    2    0    0 -0.15134854189E+03  0.10914023531E+03 -0.18035411842E+03  0.25951026979E+03  0.00000000000E+00 0.  1.
         16    1    3    3    0    0  0.22190647454E+03  0.12014867972E+03 -0.23243883972E+03  0.34308308453E+03  0.00000000000E+00 0. -1.
    9900018    1    3    3    0    0  0.31542663557E+02 -0.27297757404E+02 -0.36955007058E+03  0.38291322809E+03  0.91187600000E+02 0.  0.
<mgrwt>
<rscale>  0 0.10035945E+04</rscale>
<asrwt>0</asrwt>
<pdfrwt beam="1">  1        3 0.30112207E+00 0.10035945E+04</pdfrwt>
<pdfrwt beam="2">  1       -3 0.19791891E-01 0.10035945E+04</pdfrwt>
<totfact> 0.23712165E+00</totfact>
</mgrwt>
</event>
<event>
12    1  0.1253124E-014  0.1201155E+04  0.7818608E-02  0.9111846E-01
         -2   -1    0    0    0  501 -0.00000000000E+00  0.00000000000E+00  0.10978878989E+04  0.10978878989E+04  0.00000000000E+00 0.  1.
          2   -1    0    0  501    0  0.00000000000E+00 -0.00000000000E+00 -0.32853389345E+03  0.32853389345E+03  0.00000000000E+00 0. -1.
    9900016    2    1    2    0    0  0.18070666238E+03  0.86006218432E+02  0.89132209781E+03  0.11920541687E+04  0.76582379929E+03 0.  0.
         23    2    3    3    0    0  0.26020687924E+02  0.87748081986E+02  0.54878526154E+02  0.15827334823E+03  0.11688455003E+03 0.  0.
         23    2    3    3    0    0  0.99157066133E+02  0.41899752613E+02 -0.42501924449E+01  0.14016062691E+03  0.89661720751E+02 0.  0.
        -15    1    4    4    0    0  0.30869706514E+02 -0.52587908268E+01 -0.21367852689E+02  0.37910140989E+02  0.00000000000E+00 0. -1.
        -15    1    5    5    0    0  0.56509647549E+02  0.35583953183E+02  0.40435574412E+02  0.78067878594E+02  0.00000000000E+00 0. -1.
         15    1    4    4    0    0 -0.48490185900E+01  0.93006872813E+02  0.76246378843E+02  0.12036320725E+03  0.00000000000E+00 0.  1.
         15    1    5    5    0    0  0.42647418584E+02  0.63157994299E+01 -0.44685766857E+02  0.62092748320E+02  0.00000000000E+00 0.  1.
        -16    1    3    3    0    0  0.88776731858E+02 -0.76527849088E+02  0.74248679436E+03  0.75168108903E+03  0.00000000000E+00 0.  1.
         16    1    1    2    0    0 -0.18070666238E+03 -0.86006218432E+02 -0.12196809241E+03  0.23436762363E+03  0.00000000000E+00 0. -1.
    9900018    1    3    3    0    0 -0.33247823532E+02  0.32886232922E+02  0.98206969741E+02  0.14193910450E+03  0.91187600000E+02 0.  0.
<mgrwt>
<rscale>  0 0.12011551E+04</rscale>
<asrwt>0</asrwt>
<pdfrwt beam="1">  1        2 0.50543676E-01 0.12011551E+04</pdfrwt>
<pdfrwt beam="2">  1       -2 0.16890583E+00 0.12011551E+04</pdfrwt>
<totfact> 0.21212979E+01</totfact>
</mgrwt>
</event>
<event>
12    1  0.1253124E-014  0.1063386E+04  0.7818608E-02  0.9241632E-01
         -2   -1    0    0    0  501 -0.00000000000E+00  0.00000000000E+00  0.38446159737E+03  0.38446159737E+03  0.00000000000E+00 0. -1.
          2   -1    0    0  501    0  0.00000000000E+00 -0.00000000000E+00 -0.73530726805E+03  0.73530726805E+03  0.00000000000E+00 0.  1.
    9900016    2    1    2    0    0 -0.20126021973E+03 -0.15438252072E+03 -0.31054589511E+03  0.86293485159E+03  0.76411920953E+03 0.  0.
         23    2    3    3    0    0  0.62185730164E+01 -0.13679370142E+03  0.61821123943E+02  0.16495730239E+03  0.68101929842E+02 0.  0.
         23    2    3    3    0    0 -0.44439127399E+02 -0.22648467756E+02  0.95063172513E+02  0.14369413326E+03  0.95515485813E+02 0.  0.
        -15    1    4    4    0    0 -0.89666710352E+01 -0.10922160060E+03  0.72861635475E+02  0.13160006517E+03  0.00000000000E+00 0.  1.
        -15    1    5    5    0    0 -0.31373704630E+02 -0.11759118447E+02  0.11365820293E+03  0.11849376904E+03  0.00000000000E+00 0. -1.
         15    1    4    4    0    0  0.15185244052E+02 -0.27572100815E+02 -0.11040511533E+02  0.33357237224E+02  0.00000000000E+00 0. -1.
         15    1    5    5    0    0 -0.13065422769E+02 -0.10889349309E+02 -0.18595030417E+02  0.25200364218E+02  0.00000000000E+00 0.  1.
        -16    1    3    3    0    0 -0.15576994952E+03  0.61393954262E+02 -0.38180473406E+03  0.41690328584E+03  0.00000000000E+00 0.  1.
         16    1    1    2    0    0  0.20126021973E+03  0.15438252072E+03 -0.40299775568E+02  0.25683401383E+03  0.00000000000E+00 0. -1.
    9900018    1    3    3    0    0 -0.72697158319E+01 -0.56334305809E+02 -0.85625457506E+02  0.13738013010E+03  0.91187600000E+02 0.  0.
<mgrwt>
<rscale>  0 0.10633859E+04</rscale>
<asrwt>0</asrwt>
<pdfrwt beam="1">  1        2 0.11312419E+00 0.10633859E+04</pdfrwt>
<pdfrwt beam="2">  1       -2 0.59147938E-01 0.10633859E+04</pdfrwt>
<totfact> 0.10222765E+02</totfact>
</mgrwt>
</event>
<event>
12    1  0.1253124E-014  0.1368690E+04  0.7818608E-02  0.8976799E-01
         -2   -1    0    0    0  501 -0.00000000000E+00  0.00000000000E+00  0.18773099038E+04  0.18773099038E+04  0.00000000000E+00 0.  1.
          2   -1    0    0  501    0  0.00000000000E+00 -0.00000000000E+00 -0.24946771716E+03  0.24946771716E+03  0.00000000000E+00 0. -1.
    9900016    2    1    2    0    0 -0.14471528715E+03  0.16619652588E+03  0.17169295904E+04  0.18890795666E+04  0.75644602628E+03 0.  0.
         23    2    3    3    0    0  0.14473969858E+03  0.19617901484E+03  0.45924136265E+03  0.52551015668E+03  0.76305369443E+02 0.  0.
         23    2    3    3    0    0 -0.71928497986E+02  0.93279059581E+02  0.55507468426E+03  0.57462246608E+03  0.90600119389E+02 0.  0.
        -15    1    4    4    0    0  0.11922591355E+03  0.12469033608E+03  0.37075719654E+03  0.40892957482E+03  0.00000000000E+00 0.  1.
        -15    1    5    5    0    0 -0.93622868901E+02  0.71212557226E+02  0.43467041896E+03  0.45030527757E+03  0.00000000000E+00 0. -1.
         15    1    4    4    0    0  0.25513785028E+02  0.71488678759E+02  0.88484166106E+02  0.11658058187E+03  0.00000000000E+00 0. -1.
         15    1    5    5    0    0  0.21694370915E+02  0.22066502355E+02  0.12040426530E+03  0.12431718851E+03  0.00000000000E+00 0.  1.
        -16    1    3    3    0    0 -0.17359894921E+03 -0.16511370952E+03  0.39010250812E+03  0.45779809859E+03  0.00000000000E+00 0.  1.
         16    1    1    2    0    0  0.14471528715E+03 -0.16619652588E+03 -0.89087403803E+02  0.23769805440E+03  0.00000000000E+00 0. -1.
    9900018    1    3    3    0    0 -0.43927538536E+02  0.41852160979E+02  0.31251103542E+03  0.33114884519E+03  0.91187600000E+02 0.  0.
<mgrwt>
<rscale>  0 0.13686902E+04</rscale>
<asrwt>0</asrwt>
<pdfrwt beam="1">  1        2 0.38379650E-01 0.13686902E+04</pdfrwt>
<pdfrwt beam="2">  1       -2 0.28881690E+00 0.13686902E+04</pdfrwt>
<totfact> 0.49173768E+00</totfact>
</mgrwt>
</event>
<event>
12    1  0.1253124E-014  0.9138504E+03  0.7818608E-02  0.9408431E-01
         -2   -1    0    0    0  501 -0.00000000000E+00  0.00000000000E+00  0.27266620921E+03  0.27266620921E+03  0.00000000000E+00 0. -1.
          2   -1    0    0  501    0  0.00000000000E+00 -0.00000000000E+00 -0.76570041494E+03  0.76570041494E+03  0.00000000000E+00 0.  1.
    9900016    2    1    2    0    0 -0.68866843336E+02  0.11830100359E+03 -0.40017844440E+03  0.87295815408E+03  0.76365920531E+03 0.  0.
         23    2    3    3    0    0 -0.12701381873E+03 -0.14646586496E+03 -0.83235380238E+02  0.22167320915E+03  0.68015611360E+02 0.  0.
         23    2    3    3    0    0 -0.16025069463E+03  0.58973146175E+02 -0.17994929240E+03  0.26453686002E+03  0.91868848775E+02 0.  0.
        -15    1    4    4    0    0 -0.94959876696E+02 -0.13499692382E+03 -0.46256230711E+02  0.17140941194E+03  0.00000000000E+00 0.  1.
        -15    1    5    5    0    0 -0.15077444575E+03  0.31391286675E+02 -0.17789883618E+03  0.23530053609E+03  0.00000000000E+00 0.  1.
         15    1    4    4    0    0 -0.32053942030E+02 -0.11468941138E+02 -0.36979149527E+02  0.50263797212E+02  0.00000000000E+00 0. -1.
         15    1    5    5    0    0 -0.94762488796E+01  0.27581859500E+02 -0.20504562219E+01  0.29236323931E+02  0.00000000000E+00 0. -1.
        -16    1    3    3    0    0  0.16863704213E+03  0.18900013226E+03 -0.73079256178E+02  0.26362867761E+03  0.00000000000E+00 0.  1.
         16    1    1    2    0    0  0.68866843336E+02 -0.11830100359E+03 -0.92855761321E+02  0.16540847007E+03  0.00000000000E+00 0. -1.
    9900018    1    3    3    0    0  0.49760627889E+02  0.16793590103E+02 -0.63914515585E+02  0.12311940730E+03  0.91187600000E+02 0.  0.
<mgrwt>
<rscale>  0 0.91385038E+03</rscale>
<asrwt>0</asrwt>
<pdfrwt beam="1">  1        2 0.11780006E+00 0.91385038E+03</pdfrwt>
<pdfrwt beam="2">  1       -2 0.41948648E-01 0.91385038E+03</pdfrwt>
<totfact> 0.19694357E+02</totfact>
</mgrwt>
</event>
<event>
12    1  0.1253124E-014  0.1222475E+04  0.7818608E-02  0.9093409E-01
         -2   -1    0    0    0  501 -0.00000000000E+00  0.00000000000E+00  0.20021235241E+03  0.20021235241E+03  0.00000000000E+00 0.  1.
          2   -1    0    0  501    0  0.00000000000E+00 -0.00000000000E+00 -0.18660749211E+04  0.18660749211E+04  0.00000000000E+00 0. -1.
    9900016    2    1    2    0    0 -0.20703628910E+03  0.17173088668E+02 -0.16834180434E+04  0.18577995408E+04  0.75786798658E+03 0.  0.
         23    2    3    3    0    0  0.57267335759E+02  0.14472479620E+03 -0.18133383868E+03  0.24709236796E+03  0.62832021077E+02 0.  0.
         23    2    3    3    0    0  0.87664422162E+02  0.23228686184E+02 -0.28947108851E+03  0.31677461946E+03  0.91258017057E+02 0.  0.
        -15    1    4    4    0    0  0.10856033575E+02  0.29120728881E+02 -0.82230969171E+02  0.87907921181E+02  0.00000000000E+00 0.  1.
        -15    1    5    5    0    0  0.31964846328E+02 -0.33104613301E+02 -0.73336093151E+02  0.86578573454E+02  0.00000000000E+00 0. -1.
         15    1    4    4    0    0  0.46411302184E+02  0.11560406732E+03 -0.99102869512E+02  0.15918444678E+03  0.00000000000E+00 0. -1.
         15    1    5    5    0    0  0.55699575834E+02  0.56333299485E+02 -0.21613499535E+03  0.23019604600E+03  0.00000000000E+00 0.  1.
        -16    1    1    2    0    0  0.20703628910E+03 -0.17173088668E+02  0.17555474729E+02  0.20848773267E+03  0.00000000000E+00 0.  1.
         16    1    3    3    0    0 -0.32186222308E+03 -0.13888824167E+03 -0.87148060506E+03  0.93934215242E+03  0.00000000000E+00 0. -1.
    9900018    1    3    3    0    0 -0.30105823943E+02 -0.11892152039E+02 -0.34113251116E+03  0.35459040100E+03  0.91187600000E+02 0.  0.
<mgrwt>
<rscale>  0 0.12224749E+04</rscale>
<asrwt>0</asrwt>
<pdfrwt beam="1">  1        2 0.28708843E+00 0.12224749E+04</pdfrwt>
<pdfrwt beam="2">  1       -2 0.30801902E-01 0.12224749E+04</pdfrwt>
<totfact> 0.76298141E+01</totfact>
</mgrwt>
</event>
<event>
12    1  0.1253124E-014  0.1153849E+04  0.7818608E-02  0.9154240E-01
          1   -1    0    0  501    0  0.00000000000E+00  0.00000000000E+00  0.17658096856E+04  0.17658096856E+04  0.00000000000E+00 0. -1.
         -1   -1    0    0    0  501 -0.00000000000E+00 -0.00000000000E+00 -0.18849240079E+03  0.18849240079E+03  0.00000000000E+00 0.  1.
    9900016    2    1    2    0    0 -0.11486545453E+03 -0.13379209763E+03  0.65286368961E+03  0.10131810274E+04  0.75446033627E+03 0.  0.
         23    2    3    3    0    0  0.14593747569E+03  0.16000757717E+02  0.43187755304E+03  0.46331015608E+03  0.81143754187E+02 0.  0.
         23    2    3    3    0    0 -0.80238873122E+01  0.28172352047E+02  0.88269042553E+02  0.14040695755E+03  0.10518852441E+03 0.  0.
        -15    1    5    5    0    0  0.24595474336E+02  0.36394474024E+01 -0.15225653803E+02  0.29154818966E+02  0.00000000000E+00 0.  1.
        -15    1    4    4    0    0  0.25725004078E+02  0.34272784553E+02  0.76209364498E+02  0.87431497946E+02  0.00000000000E+00 0. -1.
         15    1    4    4    0    0  0.12021247162E+03 -0.18272026836E+02  0.35566818854E+03  0.37587865813E+03  0.00000000000E+00 0.  1.
         15    1    5    5    0    0 -0.32619361648E+02  0.24532904645E+02  0.10349469636E+03  0.11125213858E+03  0.00000000000E+00 0. -1.
        -16    1    3    3    0    0 -0.24008459578E+03 -0.17093995484E+03  0.10789642338E+03  0.31385142898E+03  0.00000000000E+00 0.  1.
         16    1    1    2    0    0  0.11486545453E+03  0.13379209763E+03  0.92445359522E+03  0.94112105903E+03  0.00000000000E+00 0. -1.
    9900018    1    3    3    0    0 -0.12694447126E+02 -0.70252525528E+01  0.24820670632E+02  0.95612484779E+02  0.91187600000E+02 0.  0.
<mgrwt>
<rscale>  0 0.11538487E+04</rscale>
<asrwt>0</asrwt>
<pdfrwt beam="1">  1        1 0.27166302E+00 0.11538487E+04</pdfrwt>
<pdfrwt beam="2">  1       -1 0.28998832E-01 0.11538487E+04</pdfrwt>
<totfact> 0.46255074E+01</totfact>
</mgrwt>
</event>
<event>
12    1  0.1253124E-014  0.9400116E+03  0.7818608E-02  0.9376902E-01
         -2   -1    0    0    0  501 -0.00000000000E+00  0.00000000000E+00  0.26429017716E+03  0.26429017716E+03  0.00000000000E+00 0.  1.
          2   -1    0    0  501    0  0.00000000000E+00 -0.00000000000E+00 -0.83584441562E+03  0.83584441562E+03  0.00000000000E+00 0. -1.
    9900016    2    1    2    0    0  0.13197947209E+02 -0.16095029506E+03 -0.50728482647E+03  0.92632509761E+03  0.75806405271E+03 0.  0.
         23    2    3    3    0    0 -0.53308420200E+02 -0.78420630180E+02 -0.50422650778E+03  0.52073384023E+03  0.89038072244E+02 0.  0.
         23    2    3    3    0    0 -0.26968151242E+02  0.23752581972E+02 -0.29192922248E+02  0.79628094916E+02  0.64783797811E+02 0.  0.
        -15    1    5    5    0    0 -0.43701223287E+02  0.27933038767E+02 -0.33635863652E+02  0.61817658442E+02  0.00000000000E+00 0. -1.
        -15    1    4    4    0    0 -0.69651038126E+02 -0.57253476829E+02 -0.46226280227E+03  0.47097359382E+03  0.00000000000E+00 0.  1.
         15    1    4    4    0    0  0.16342617927E+02 -0.21167153351E+02 -0.41963705512E+02  0.49760246402E+02  0.00000000000E+00 0. -1.
         15    1    5    5    0    0  0.16733072045E+02 -0.41804567951E+01  0.44429414043E+01  0.17810436474E+02  0.00000000000E+00 0.  1.
        -16    1    1    2    0    0 -0.13197947209E+02  0.16095029506E+03 -0.64269411997E+02  0.17380949517E+03  0.00000000000E+00 0.  1.
         16    1    3    3    0    0  0.10303052295E+03 -0.10164293574E+03  0.12486290349E+03  0.19114737694E+03  0.00000000000E+00 0. -1.
    9900018    1    3    3    0    0 -0.95560043021E+01 -0.46393111213E+01 -0.98728299928E+02  0.13481578552E+03  0.91187600000E+02 0.  0.
<mgrwt>
<rscale>  0 0.94001164E+03</rscale>
<asrwt>0</asrwt>
<pdfrwt beam="1">  1        2 0.12859145E+00 0.94001164E+03</pdfrwt>
<pdfrwt beam="2">  1       -2 0.40660028E-01 0.94001164E+03</pdfrwt>
<totfact> 0.18608651E+02</totfact>
</mgrwt>
</event>
