<event>
11    1  0.1309487E-008  0.5579214E+04  0.7818608E-02  0.8407225E-01
         -2   -1    0    0    0  501 -0.00000000000E+00  0.00000000000E+00  0.26666977418E+04  0.26666977418E+04  0.00000000000E+00 0.  1.
          2   -1    0    0  501    0  0.00000000000E+00 -0.00000000000E+00 -0.33261933169E+04  0.33261933169E+04  0.00000000000E+00 0. -1.
        -24    2    1    2    0    0  0.17686398980E+04 -0.66902104459E+03 -0.38808537873E+03  0.19320017514E+04  0.79650858953E+02 0.  0.
         23    2    1    2    0    0 -0.16069163005E+03  0.11997935797E+03 -0.33896735507E+03  0.40447690988E+03  0.92118708834E+02 0.  0.
        -15    1    4    4    0    0 -0.78718519299E+02  0.23021226718E+02 -0.20041916414E+03  0.21655120299E+03  0.00000000000E+00 0.  1.
        -15    1    1    2    0    0 -0.76767018249E+03  0.35550740909E+03 -0.89432129936E+03  0.12310619860E+04  0.00000000000E+00 0.  1.
         15    1    3    3    0    0  0.14824263076E+04 -0.54317315414E+03 -0.29865908473E+03  0.16068049296E+04  0.00000000000E+00 0. -1.
         15    1    4    4    0    0 -0.81973110747E+02  0.96958131254E+02 -0.13854819093E+03  0.18792570689E+03  0.00000000000E+00 0. -1.
        -16    1    3    3    0    0  0.28621359035E+03 -0.12584789045E+03 -0.89426293996E+02  0.32519682177E+03  0.00000000000E+00 0.  1.
         16    1    1    2    0    0 -0.99636184710E+03 -0.75550446280E+03  0.42851423686E+03  0.13217974031E+04  0.00000000000E+00 0. -1.
    9900018    1    1    2    0    0  0.15608376165E+03  0.94903874033E+03  0.53336422114E+03  0.11035530083E+04  0.91187600000E+02 0.  0.
<mgrwt>
<rscale>  0 0.24881349E+04</rscale>
<asrwt>0</asrwt>
<pdfrwt beam="1">  1        2 0.51172205E+00 0.55792145E+04</pdfrwt>
<pdfrwt beam="2">  1       -2 0.41026119E+00 0.55792145E+04</pdfrwt>
<totfact> 0.46639558E-03</totfact>
</mgrwt>
</event>
<event>
11    1  0.1309487E-008  0.2934087E+04  0.7818608E-02  0.8796746E-01
         -2   -1    0    0    0  501 -0.00000000000E+00  0.00000000000E+00  0.10560709183E+04  0.10560709183E+04  0.00000000000E+00 0.  1.
          2   -1    0    0  501    0  0.00000000000E+00 -0.00000000000E+00 -0.24562290003E+04  0.24562290003E+04  0.00000000000E+00 0. -1.
         24    2    1    2    0    0  0.27378242919E+03  0.40566539435E-01 -0.98093131930E+02  0.30227794009E+03  0.82418871346E+02 0.  0.
         23    2    1    2    0    0  0.69971819064E+02 -0.48081648624E+03  0.23051514539E+02  0.49506008913E+03  0.92046567703E+02 0.  0.
        -15    1    3    3    0    0  0.18226621492E+03 -0.76967818484E+01 -0.23453050694E+02  0.18393003871E+03  0.00000000000E+00 0.  1.
        -15    1    4    4    0    0  0.35867810936E+02 -0.38751597921E+03 -0.12981132735E+02  0.38938880802E+03  0.00000000000E+00 0. -1.
         15    1    1    2    0    0 -0.40248388510E+03 -0.25555162968E+03 -0.10950277323E+04  0.11943138816E+04  0.00000000000E+00 0. -1.
         15    1    4    4    0    0  0.34104008128E+02 -0.93300507034E+02  0.36032647273E+02  0.10567128112E+03  0.00000000000E+00 0.  1.
        -16    1    1    2    0    0 -0.58863007418E+03  0.58671076662E+03 -0.15987067577E+03  0.84632943992E+03  0.00000000000E+00 0.  1.
         16    1    3    3    0    0  0.91516214269E+02  0.77373483879E+01 -0.74640081237E+02  0.11834790138E+03  0.00000000000E+00 0. -1.
    9900018    1    1    2    0    0  0.64735971103E+03  0.14961678277E+03 -0.70218056500E+02  0.67431856789E+03  0.91187600000E+02 0.  0.
<mgrwt>
<rscale>  0 0.16393270E+04</rscale>
<asrwt>0</asrwt>
<pdfrwt beam="1">  1        2 0.37788139E+00 0.29340872E+04</pdfrwt>
<pdfrwt beam="2">  1       -2 0.16247245E+00 0.29340872E+04</pdfrwt>
<totfact> 0.75962023E-01</totfact>
</mgrwt>
</event>
<event>
12    1  0.1309487E-008  0.3447980E+04  0.7818608E-02  0.8492430E-01
          2   -1    0    0  501    0  0.00000000000E+00  0.00000000000E+00  0.25052374892E+04  0.25052374892E+04  0.00000000000E+00 0. -1.
         -2   -1    0    0    0  501 -0.00000000000E+00 -0.00000000000E+00 -0.19520907117E+04  0.19520907117E+04  0.00000000000E+00 0.  1.
         24    2    1    2    0    0  0.43983397781E+03 -0.45853675402E+03 -0.54264179488E+03  0.83941148056E+03  0.80259786537E+02 0.  0.
    9900016    2    1    2    0    0 -0.60298756448E+03  0.11183153520E+04  0.56960539652E+03  0.27583845071E+04  0.23811786056E+04 0.  0.
         23    2    4    4    0    0  0.13138916296E+03  0.24552946131E+03  0.86950968786E+03  0.91776181922E+03  0.93229989878E+02 0.  0.
        -15    1    3    3    0    0  0.34670840579E+03 -0.31709366534E+03 -0.37535196363E+03  0.60136861229E+03  0.00000000000E+00 0.  1.
        -15    1    5    5    0    0  0.32332430517E+02  0.33151527029E+02  0.27248876999E+03  0.27639562149E+03  0.00000000000E+00 0.  1.
         15    1    1    2    0    0  0.16315358667E+03 -0.65977859795E+03  0.52618317588E+03  0.85953221332E+03  0.00000000000E+00 0. -1.
         15    1    5    5    0    0  0.99056732443E+02  0.21237793428E+03  0.59702091787E+03  0.64136619772E+03  0.00000000000E+00 0. -1.
        -16    1    4    4    0    0  0.16729135189E+03 -0.15718232521E+03 -0.40410883288E+03  0.46475437447E+03  0.00000000000E+00 0.  1.
         16    1    3    3    0    0  0.93125572019E+02 -0.14144308868E+03 -0.16728983125E+03  0.23804286828E+03  0.00000000000E+00 0. -1.
    9900018    1    4    4    0    0 -0.90166807933E+03  0.10299682159E+04  0.10420454155E+03  0.13758683134E+04  0.91187600000E+02 0.  0.
<mgrwt>
<rscale>  0 0.22635583E+04</rscale>
<asrwt>0</asrwt>
<pdfrwt beam="1">  1        2 0.38542115E+00 0.34479804E+04</pdfrwt>
<pdfrwt beam="2">  1       -2 0.30032165E+00 0.34479804E+04</pdfrwt>
<totfact> 0.87351157E-02</totfact>
</mgrwt>
</event>
<event>
12    1  0.1309487E-008  0.3553920E+04  0.7818608E-02  0.8101129E-01
         -2   -1    0    0    0  501 -0.00000000000E+00  0.00000000000E+00  0.23434153365E+04  0.23434153365E+04  0.00000000000E+00 0.  1.
          2   -1    0    0  501    0  0.00000000000E+00 -0.00000000000E+00 -0.13474294222E+04  0.13474294222E+04  0.00000000000E+00 0. -1.
         24    2    1    2    0    0  0.78749794891E+03 -0.37542496321E+03 -0.30753058693E+03  0.92980186470E+03  0.94125040068E+02 0.  0.
    9900016    2    1    2    0    0 -0.57933308212E+03  0.16728463686E+03  0.11576026355E+04  0.24324917360E+04  0.20526473672E+04 0.  0.
         23    2    4    4    0    0  0.30269260814E+03 -0.13535204535E+01  0.46680767274E+03  0.56383572717E+03  0.91524187280E+02 0.  0.
        -15    1    5    5    0    0  0.25199606318E+03  0.15322223561E+02  0.43122779531E+03  0.49969410427E+03  0.00000000000E+00 0.  1.
        -15    1    3    3    0    0  0.30600258717E+03 -0.13651457868E+03 -0.70799555479E+02  0.34247100695E+03  0.00000000000E+00 0.  1.
         15    1    1    2    0    0 -0.20816486679E+03  0.20814032635E+03  0.14591386575E+03  0.32855115802E+03  0.00000000000E+00 0. -1.
         15    1    5    5    0    0  0.50696544968E+02 -0.16675744014E+02  0.35579877428E+02  0.64141622898E+02  0.00000000000E+00 0. -1.
        -16    1    4    4    0    0 -0.83446531771E+03 -0.47662771167E+03  0.74073440283E+03  0.12133399349E+04  0.00000000000E+00 0.  1.
         16    1    3    3    0    0  0.48149536174E+03 -0.23891038453E+03 -0.23673103145E+03  0.58733085775E+03  0.00000000000E+00 0. -1.
    9900018    1    4    4    0    0 -0.47560372553E+02  0.64526586899E+03 -0.49939440026E+02  0.65531607396E+03  0.91187600000E+02 0.  0.
<mgrwt>
<rscale>  0 0.35539200E+04</rscale>
<asrwt>0</asrwt>
<pdfrwt beam="1">  1        2 0.20729683E+00 0.35539200E+04</pdfrwt>
<pdfrwt beam="2">  1       -2 0.36052544E+00 0.35539200E+04</pdfrwt>
<totfact> 0.16929293E-01</totfact>
</mgrwt>
</event>
<event>
11    1  0.1309487E-008  0.4038737E+04  0.7818608E-02  0.8493211E-01
          2   -1    0    0  501    0  0.00000000000E+00  0.00000000000E+00  0.18347978016E+04  0.18347978016E+04  0.00000000000E+00 0.  1.
         -2   -1    0    0    0  501 -0.00000000000E+00 -0.00000000000E+00 -0.28241270663E+04  0.28241270663E+04  0.00000000000E+00 0. -1.
        -24    2    1    2    0    0  0.62865936104E+03  0.10223500138E+04 -0.54312981823E+02  0.12039551490E+04  0.78396160772E+02 0.  0.
         23    2    1    2    0    0  0.35998738411E+03 -0.13948120154E+03  0.20549930824E+03  0.44715389166E+03  0.93116673285E+02 0.  0.
        -15    1    1    2    0    0 -0.52107895546E+03 -0.41248398071E+03 -0.13109107124E+03  0.67738554836E+03  0.00000000000E+00 0.  1.
        -15    1    4    4    0    0  0.13297999528E+02 -0.17320118020E+01  0.34037801029E+02  0.36584266498E+02  0.00000000000E+00 0.  1.
         15    1    4    4    0    0  0.34668938458E+03 -0.13774918973E+03  0.17146150721E+03  0.41056962516E+03  0.00000000000E+00 0. -1.
         15    1    3    3    0    0  0.56072268678E+03  0.94615282847E+03 -0.62073399137E+02  0.11015753325E+04  0.00000000000E+00 0. -1.
        -16    1    3    3    0    0  0.67936674265E+02  0.76197185283E+02  0.77604173136E+01  0.10237981653E+03  0.00000000000E+00 0.  1.
         16    1    1    2    0    0 -0.25527239594E+03 -0.79914701099E+03 -0.14863672640E+04  0.17067769581E+04  0.00000000000E+00 0. -1.
    9900018    1    1    2    0    0 -0.21229539375E+03  0.32876217948E+03  0.47694274417E+03  0.62365332074E+03  0.91187600000E+02 0.  0.
<mgrwt>
<rscale>  0 0.22616162E+04</rscale>
<asrwt>0</asrwt>
<pdfrwt beam="1">  1        2 0.28227659E+00 0.40387374E+04</pdfrwt>
<pdfrwt beam="2">  1       -2 0.43448108E+00 0.40387374E+04</pdfrwt>
<totfact> 0.28034932E-02</totfact>
</mgrwt>
</event>
<event>
11    1  0.1309487E-008  0.2377974E+04  0.7818608E-02  0.9175955E-01
          2   -1    0    0  501    0  0.00000000000E+00  0.00000000000E+00  0.90445582762E+03  0.90445582762E+03  0.00000000000E+00 0.  1.
         -2   -1    0    0    0  501 -0.00000000000E+00 -0.00000000000E+00 -0.17293420052E+04  0.17293420052E+04  0.00000000000E+00 0. -1.
        -24    2    1    2    0    0 -0.17040548027E+03  0.76055820700E+02  0.19457219565E+03  0.28124432226E+03  0.80109387186E+02 0.  0.
         23    2    1    2    0    0  0.74860574212E+02  0.20020922353E+02 -0.62455223126E+02  0.13658701401E+03  0.93543650765E+02 0.  0.
        -15    1    4    4    0    0  0.85031440486E+02  0.13302540006E+02 -0.14714222146E+02  0.87314441961E+02  0.00000000000E+00 0. -1.
        -15    1    1    2    0    0 -0.19927590675E+02  0.15209447898E+03 -0.38781268218E+02  0.15822081460E+03  0.00000000000E+00 0. -1.
         15    1    4    4    0    0 -0.10170866274E+02  0.67183823467E+01 -0.47741000981E+02  0.49272572053E+02  0.00000000000E+00 0.  1.
         15    1    3    3    0    0 -0.60500092516E+01  0.27254827036E+02  0.48713472730E+02  0.56146510436E+02  0.00000000000E+00 0.  1.
        -16    1    3    3    0    0 -0.16435547102E+03  0.48800993664E+02  0.14585872292E+03  0.22509781183E+03  0.00000000000E+00 0.  1.
         16    1    1    2    0    0  0.65103599846E+03  0.56287009963E+03 -0.50379199139E+03  0.99723467195E+03  0.00000000000E+00 0. -1.
    9900018    1    1    2    0    0 -0.53556350172E+03 -0.81104132166E+03 -0.41442989052E+03  0.10605110100E+04  0.91187600000E+02 0.  0.
<mgrwt>
<rscale>  0 0.11305091E+04</rscale>
<asrwt>0</asrwt>
<pdfrwt beam="1">  1        2 0.13914705E+00 0.23779741E+04</pdfrwt>
<pdfrwt beam="2">  1       -2 0.26605261E+00 0.23779741E+04</pdfrwt>
<totfact> 0.13385527E+00</totfact>
</mgrwt>
</event>
<event>
12    1  0.1309487E-008  0.4807479E+04  0.7818608E-02  0.8186778E-01
         -2   -1    0    0    0  501 -0.00000000000E+00  0.00000000000E+00  0.18262782813E+04  0.18262782813E+04  0.00000000000E+00 0.  1.
          2   -1    0    0  501    0  0.00000000000E+00 -0.00000000000E+00 -0.45426510191E+04  0.45426510191E+04  0.00000000000E+00 0. -1.
         24    2    1    2    0    0 -0.94564237001E+03  0.88016446433E+02 -0.42773353096E+03  0.10444836553E+04  0.77483843100E+02 0.  0.
    9900016    2    1    2    0    0  0.13002956205E+04  0.12765721025E+04 -0.46836746075E+03  0.30219969344E+04  0.23648873883E+04 0.  0.
         23    2    4    4    0    0 -0.14233876900E+03  0.22094264477E+03  0.68184160493E+03  0.73721004176E+03  0.97440720522E+02 0.  0.
        -15    1    5    5    0    0 -0.10242131974E+03  0.21598050850E+03  0.55940644415E+03  0.60833648300E+03  0.00000000000E+00 0.  1.
        -15    1    3    3    0    0 -0.40051390467E+03  0.68865554142E+01 -0.20576697758E+03  0.45033194594E+03  0.00000000000E+00 0.  1.
         15    1    5    5    0    0 -0.39917449259E+02  0.49621362639E+01  0.12243516078E+03  0.12887355876E+03  0.00000000000E+00 0. -1.
         15    1    1    2    0    0 -0.35465325047E+03 -0.13645885489E+04 -0.18202717461E+04  0.23024487107E+04  0.00000000000E+00 0. -1.
        -16    1    4    4    0    0  0.49344731138E+03 -0.49071561691E+02 -0.43492548290E+03  0.65958960191E+03  0.00000000000E+00 0.  1.
         16    1    3    3    0    0 -0.54512846534E+03  0.81129891019E+02 -0.22196655338E+03  0.59415170938E+03  0.00000000000E+00 0. -1.
    9900018    1    4    4    0    0  0.94918707810E+03  0.11047010194E+04 -0.71528358278E+03  0.16251972907E+04  0.91187600000E+02 0.  0.
<mgrwt>
<rscale>  0 0.32077331E+04</rscale>
<asrwt>0</asrwt>
<pdfrwt beam="1">  1        2 0.69886939E+00 0.48074788E+04</pdfrwt>
<pdfrwt beam="2">  1       -2 0.28096589E+00 0.48074788E+04</pdfrwt>
<totfact> 0.32898049E-03</totfact>
</mgrwt>
</event>
<event>
12    1  0.1309487E-008  0.4783354E+04  0.7818608E-02  0.7862824E-01
          2   -1    0    0  501    0  0.00000000000E+00  0.00000000000E+00  0.33436887758E+04  0.33436887758E+04  0.00000000000E+00 0.  1.
         -2   -1    0    0    0  501 -0.00000000000E+00 -0.00000000000E+00 -0.17107211751E+04  0.17107211751E+04  0.00000000000E+00 0. -1.
         24    2    1    2    0    0  0.93892831105E+03 -0.14207078611E+03  0.19329932765E+04  0.21551165979E+04  0.79335123439E+02 0.  0.
    9900016    2    1    2    0    0 -0.28430124490E+03  0.48173917189E+03 -0.20648627133E+03  0.21558817387E+04  0.20717841740E+04 0.  0.
         23    2    4    4    0    0  0.36114955006E+03  0.15697498600E+03 -0.77380015187E+03  0.87311904729E+03  0.92195726446E+02 0.  0.
        -15    1    3    3    0    0  0.59035957841E+03 -0.12104751135E+03  0.11738037501E+04  0.13194666255E+04  0.00000000000E+00 0.  1.
        -15    1    5    5    0    0  0.27476243523E+03  0.88437306295E+02 -0.61972406438E+03  0.68364718161E+03  0.00000000000E+00 0.  1.
         15    1    5    5    0    0  0.86387114828E+02  0.68537679702E+02 -0.15407608749E+03  0.18947186568E+03  0.00000000000E+00 0. -1.
         15    1    1    2    0    0 -0.65462706615E+03 -0.33966838579E+03 -0.93539404445E+02  0.74341161426E+03  0.00000000000E+00 0. -1.
        -16    1    4    4    0    0  0.21657796954E+03 -0.56625933238E+00  0.16958645828E+03  0.27507436152E+03  0.00000000000E+00 0.  1.
         16    1    3    3    0    0  0.34856873264E+03 -0.21023274757E+02  0.75918952637E+03  0.83564997241E+03  0.00000000000E+00 0. -1.
    9900018    1    4    4    0    0 -0.86202876449E+03  0.32533044523E+03  0.39772742226E+03  0.10076883299E+04  0.91187600000E+02 0.  0.
<mgrwt>
<rscale>  0 0.47833541E+04</rscale>
<asrwt>0</asrwt>
<pdfrwt beam="1">  1        2 0.51441366E+00 0.47833541E+04</pdfrwt>
<pdfrwt beam="2">  1       -2 0.26318787E+00 0.47833541E+04</pdfrwt>
<totfact> 0.41076241E-02</totfact>
</mgrwt>
</event>
<event>
12    1  0.1309487E-008  0.5201770E+04  0.7818608E-02  0.7798114E-01
          2   -1    0    0  501    0  0.00000000000E+00  0.00000000000E+00  0.17312753527E+04  0.17312753527E+04  0.00000000000E+00 0. -1.
         -2   -1    0    0    0  501 -0.00000000000E+00 -0.00000000000E+00 -0.39072939573E+04  0.39072939573E+04  0.00000000000E+00 0.  1.
         24    2    1    2    0    0 -0.12268870945E+04  0.53650568629E+03  0.47438115026E+02  0.13422418731E+04  0.79199602558E+02 0.  0.
    9900016    2    1    2    0    0  0.76804360000E+03  0.38514184102E+03 -0.23330982429E+04  0.32609565948E+04  0.21100391686E+04 0.  0.
         23    2    4    4    0    0  0.27216305515E+03  0.60785677397E+03  0.11407353613E+03  0.68175802368E+03  0.90656742505E+02 0.  0.
        -15    1    3    3    0    0 -0.51681363573E+03  0.26435510249E+03  0.30710518061E+01  0.58050786872E+03  0.00000000000E+00 0.  1.
        -15    1    5    5    0    0  0.24856300551E+03  0.55767290784E+03  0.12961442103E+03  0.62416547325E+03  0.00000000000E+00 0. -1.
         15    1    1    2    0    0  0.45884349448E+03 -0.92164752731E+03  0.10964152319E+03  0.10353708421E+04  0.00000000000E+00 0. -1.
         15    1    5    5    0    0  0.23600049636E+02  0.50183866123E+02 -0.15540884905E+02  0.57592550434E+02  0.00000000000E+00 0.  1.
        -16    1    4    4    0    0  0.61591857743E+03 -0.18285162488E+03 -0.17345548174E+04  0.18497218238E+04  0.00000000000E+00 0.  1.
         16    1    3    3    0    0 -0.71007345874E+03  0.27215058381E+03  0.44367063220E+02  0.76173400435E+03  0.00000000000E+00 0. -1.
    9900018    1    4    4    0    0 -0.12003803258E+03 -0.39863308072E+02 -0.71261696161E+03  0.72947674737E+03  0.91187600000E+02 0.  0.
<mgrwt>
<rscale>  0 0.52017696E+04</rscale>
<asrwt>0</asrwt>
<pdfrwt beam="1">  1        2 0.26635005E+00 0.52017696E+04</pdfrwt>
<pdfrwt beam="2">  1       -2 0.60112215E+00 0.52017696E+04</pdfrwt>
<totfact> 0.34357255E-03</totfact>
</mgrwt>
</event>
