<event>
11    1  0.1706990E-011  0.4234232E+04  0.7818608E-02  0.7958892E-01
          1   -1    0    0  501    0  0.00000000000E+00  0.00000000000E+00  0.10356492644E+04  0.10356492644E+04  0.00000000000E+00 0. -1.
         -1   -1    0    0    0  501 -0.00000000000E+00 -0.00000000000E+00 -0.43278933708E+04  0.43278933708E+04  0.00000000000E+00 0.  1.
    9900016    2    1    2    0    0 -0.20494052555E+03 -0.97806305641E+02 -0.90082971897E+03  0.22246950459E+04  0.20214369078E+04 0.  0.
        -24    2    3    3    0    0 -0.71800128429E+03 -0.46937186606E+03  0.18329897291E+03  0.88087750719E+03  0.80690001348E+02 0.  0.
        -15    1    3    3    0    0  0.31513912313E+03  0.20681281234E+02 -0.21653934869E+03  0.38292254028E+03  0.00000000000E+00 0.  1.
        -15    1    1    2    0    0  0.90610854745E+03 -0.21107013632E+03 -0.12981862958E+04  0.15971446274E+04  0.00000000000E+00 0.  1.
         15    1    4    4    0    0 -0.27176660515E+03 -0.17727378995E+03  0.10954634963E+03  0.34246676773E+03  0.00000000000E+00 0. -1.
         15    1    1    2    0    0 -0.74525223267E+03  0.32674565145E+03 -0.51823164628E+03  0.96474227141E+03  0.00000000000E+00 0. -1.
        -16    1    4    4    0    0 -0.44623467914E+03 -0.29209807611E+03  0.73752623277E+02  0.53841073947E+03  0.00000000000E+00 0.  1.
         16    1    1    2    0    0  0.44084210774E+02 -0.17869209488E+02 -0.57499644532E+03  0.57696069053E+03  0.00000000000E+00 0. -1.
    9900018    1    3    3    0    0  0.19792163561E+03  0.35088427918E+03 -0.86758934319E+03  0.96089499844E+03  0.91187600000E+02 0.  0.
<mgrwt>
<rscale>  0 0.42342317E+04</rscale>
<asrwt>0</asrwt>
<pdfrwt beam="1">  1        1 0.15933066E+00 0.42342317E+04</pdfrwt>
<pdfrwt beam="2">  1       -1 0.66582974E+00 0.42342317E+04</pdfrwt>
<totfact> 0.28412510E-03</totfact>
</mgrwt>
</event>
<event>
11    1  0.1706990E-011  0.3017242E+04  0.7818608E-02  0.8405603E-01
          2   -1    0    0  501    0  0.00000000000E+00  0.00000000000E+00  0.13945708807E+04  0.13945708807E+04  0.00000000000E+00 0. -1.
         -2   -1    0    0    0  501 -0.00000000000E+00 -0.00000000000E+00 -0.35137234238E+04  0.35137234238E+04  0.00000000000E+00 0.  1.
    9900016    2    1    2    0    0  0.58139376575E+02  0.56827645473E+02 -0.15013381576E+04  0.25192580060E+04  0.20213943378E+04 0.  0.
        -24    2    3    3    0    0 -0.76473643120E+03 -0.43028332226E+03 -0.27953497440E+03  0.92444139271E+03  0.80539058914E+02 0.  0.
        -15    1    1    2    0    0 -0.85663513016E+03  0.49556516250E+03 -0.55603163297E+03  0.11351562683E+04  0.00000000000E+00 0.  1.
        -15    1    3    3    0    0  0.32142992643E+03  0.38898696611E+03 -0.64352253680E+03  0.81777094151E+03  0.00000000000E+00 0.  1.
         15    1    1    2    0    0 -0.54547677420E+02 -0.37765206535E+03 -0.14894794102E+02  0.38186173737E+03  0.00000000000E+00 0. -1.
         15    1    4    4    0    0 -0.61441742883E+03 -0.38051354262E+03 -0.22345427081E+03  0.75645961169E+03  0.00000000000E+00 0. -1.
        -16    1    4    4    0    0 -0.15031900237E+03 -0.49769779639E+02 -0.56080703586E+02  0.16798178102E+03  0.00000000000E+00 0.  1.
         16    1    1    2    0    0  0.85304343101E+03 -0.17474074262E+03 -0.46887958430E+02  0.87201829279E+03  0.00000000000E+00 0. -1.
    9900018    1    3    3    0    0  0.50144588134E+03  0.98124001630E+02 -0.57828064643E+03  0.77704567179E+03  0.91187600000E+02 0.  0.
<mgrwt>
<rscale>  0 0.24926663E+04</rscale>
<asrwt>0</asrwt>
<pdfrwt beam="1">  1        2 0.21454937E+00 0.30172423E+04</pdfrwt>
<pdfrwt beam="2">  1       -2 0.54057283E+00 0.30172423E+04</pdfrwt>
<totfact> 0.11398535E-02</totfact>
</mgrwt>
</event>
<event>
11    1  0.1706990E-011  0.4138585E+04  0.7818608E-02  0.7977159E-01
          1   -1    0    0  501    0  0.00000000000E+00  0.00000000000E+00  0.18363346265E+04  0.18363346265E+04  0.00000000000E+00 0. -1.
         -1   -1    0    0    0  501 -0.00000000000E+00 -0.00000000000E+00 -0.23318029493E+04  0.23318029493E+04  0.00000000000E+00 0.  1.
    9900016    2    1    2    0    0 -0.55006050656E+03  0.28743464964E+03  0.60222858450E+02  0.21103482912E+04  0.20161244701E+04 0.  0.
         24    2    3    3    0    0 -0.11805126244E+03  0.46877091274E+03 -0.56984189855E+03  0.75107266235E+03  0.75551873513E+02 0.  0.
        -15    1    1    2    0    0  0.53779901613E+03 -0.46727736578E+02  0.18539760088E+03  0.57077450322E+03  0.00000000000E+00 0.  1.
        -15    1    4    4    0    0 -0.73272753534E+02  0.29676957934E+03 -0.30260778935E+03  0.43013085661E+03  0.00000000000E+00 0.  1.
         15    1    1    2    0    0 -0.50626506524E+03  0.19746877892E+03 -0.56872172387E+03  0.78660195406E+03  0.00000000000E+00 0. -1.
         15    1    3    3    0    0 -0.74321650758E+03 -0.35266151582E+03  0.33374744020E+03  0.88776589015E+03  0.00000000000E+00 0. -1.
        -16    1    1    2    0    0  0.51852655567E+03 -0.43817569197E+03 -0.17236705823E+03  0.70041282736E+03  0.00000000000E+00 0.  1.
         16    1    4    4    0    0 -0.44778508909E+02  0.17200133339E+03 -0.26723410921E+03  0.32094180574E+03  0.00000000000E+00 0. -1.
    9900018    1    3    3    0    0  0.31120726346E+03  0.17132525272E+03  0.29631731681E+03  0.47150973870E+03  0.91187600000E+02 0.  0.
<mgrwt>
<rscale>  0 0.41385845E+04</rscale>
<asrwt>0</asrwt>
<pdfrwt beam="1">  1        1 0.28251302E+00 0.41385845E+04</pdfrwt>
<pdfrwt beam="2">  1       -1 0.35873891E+00 0.41385845E+04</pdfrwt>
<totfact> 0.40467132E-02</totfact>
</mgrwt>
</event>
<event>
11    1  0.1706990E-011  0.3294314E+04  0.7818608E-02  0.8164344E-01
          2   -1    0    0  501    0  0.00000000000E+00  0.00000000000E+00  0.18992752228E+04  0.18992752228E+04  0.00000000000E+00 0.  1.
         -2   -1    0    0    0  501 -0.00000000000E+00 -0.00000000000E+00 -0.14285059853E+04  0.14285059853E+04  0.00000000000E+00 0. -1.
    9900016    2    1    2    0    0  0.27432459408E+03  0.34308952925E+03  0.30476119332E+03  0.20542662955E+04  0.19834732718E+04 0.  0.
        -24    2    3    3    0    0 -0.12252908447E+03 -0.57818542615E+02  0.10351584417E+04  0.10470832061E+04  0.80460429980E+02 0.  0.
        -15    1    1    2    0    0  0.23777575188E+03 -0.15899700797E+03  0.23327529510E+03  0.36909987812E+03  0.00000000000E+00 0.  1.
        -15    1    3    3    0    0  0.28494480475E+03  0.41337670157E+03 -0.38521178262E+03  0.63282063543E+03  0.00000000000E+00 0.  1.
         15    1    1    2    0    0 -0.16758552534E+03 -0.31448496400E+03 -0.30243026114E+03  0.46738609707E+03  0.00000000000E+00 0. -1.
         15    1    4    4    0    0 -0.36122103694E+02 -0.59431881382E+02  0.38859489501E+03  0.39476948632E+03  0.00000000000E+00 0. -1.
        -16    1    4    4    0    0 -0.86406980773E+02  0.16133387662E+01  0.64656354666E+03  0.65231371981E+03  0.00000000000E+00 0.  1.
         16    1    1    2    0    0 -0.34451482062E+03  0.13039244272E+03  0.23516301018E+03  0.43702893738E+03  0.00000000000E+00 0. -1.
    9900018    1    3    3    0    0  0.11190887380E+03 -0.12468629706E+02 -0.34518546573E+03  0.37436245392E+03  0.91187600000E+02 0.  0.
<mgrwt>
<rscale>  0 0.32943139E+04</rscale>
<asrwt>0</asrwt>
<pdfrwt beam="1">  1        2 0.29219619E+00 0.32943139E+04</pdfrwt>
<pdfrwt beam="2">  1       -2 0.21977015E+00 0.32943139E+04</pdfrwt>
<totfact> 0.62985557E-01</totfact>
</mgrwt>
</event>
<event>
11    1  0.1706990E-011  0.3016593E+04  0.7818608E-02  0.8552537E-01
         -2   -1    0    0    0  501 -0.00000000000E+00  0.00000000000E+00  0.12104613723E+04  0.12104613723E+04  0.00000000000E+00 0.  1.
          2   -1    0    0  501    0  0.00000000000E+00 -0.00000000000E+00 -0.35606875211E+04  0.35606875211E+04  0.00000000000E+00 0. -1.
    9900016    2    1    2    0    0  0.26747810512E+03 -0.80905802302E+02 -0.12092948025E+04  0.23709987227E+04  0.20201858177E+04 0.  0.
         24    2    3    3    0    0  0.14699198053E+02  0.48296364277E+03 -0.10285432718E+04  0.11391191350E+04  0.78874553690E+02 0.  0.
        -15    1    1    2    0    0  0.15223749322E+03  0.14345169407E+03 -0.78103907446E+02  0.22328202622E+03  0.00000000000E+00 0.  1.
        -15    1    4    4    0    0  0.22118121555E+02  0.23065200148E+03 -0.57744495816E+03  0.62219951526E+03  0.00000000000E+00 0.  1.
         15    1    3    3    0    0 -0.21193529313E+03 -0.67065318883E+03 -0.23920459933E+03  0.74290720046E+03  0.00000000000E+00 0. -1.
         15    1    1    2    0    0  0.29417848906E+03 -0.20501248009E+01 -0.13671632128E+04  0.13984564480E+04  0.00000000000E+00 0. -1.
        -16    1    1    2    0    0 -0.71389408740E+03 -0.60495766967E+02  0.30433577395E+03  0.77841169644E+03  0.00000000000E+00 0.  1.
         16    1    4    4    0    0 -0.74189235018E+01  0.25231164129E+03 -0.45109831363E+03  0.51691961978E+03  0.00000000000E+00 0. -1.
    9900018    1    3    3    0    0  0.46471420020E+03  0.10678374375E+03  0.58453068629E+02  0.48897238718E+03  0.91187600000E+02 0.  0.
<mgrwt>
<rscale>  0 0.21198795E+04</rscale>
<asrwt>0</asrwt>
<pdfrwt beam="1">  1        2 0.54779807E+00 0.30165933E+04</pdfrwt>
<pdfrwt beam="2">  1       -2 0.18622483E+00 0.30165933E+04</pdfrwt>
<totfact> 0.10010248E-01</totfact>
</mgrwt>
</event>
<event>
11    1  0.1706990E-011  0.2454237E+04  0.7818608E-02  0.8739297E-01
         -2   -1    0    0    0  501 -0.00000000000E+00  0.00000000000E+00  0.88653505223E+03  0.88653505223E+03  0.00000000000E+00 0.  1.
          2   -1    0    0  501    0  0.00000000000E+00 -0.00000000000E+00 -0.36105840229E+04  0.36105840229E+04  0.00000000000E+00 0. -1.
    9900016    2    1    2    0    0  0.29051764805E+03  0.63288125199E+02 -0.23744218705E+04  0.31314097295E+04  0.20197628040E+04 0.  0.
        -24    2    3    3    0    0  0.42583376750E+03  0.43060282720E+03 -0.24834288266E+04  0.25574796551E+04  0.80810005007E+02 0.  0.
        -15    1    1    2    0    0 -0.35649095203E+03  0.13363032415E+03  0.36614959420E+02  0.38247028337E+03  0.00000000000E+00 0.  1.
        -15    1    3    3    0    0 -0.10003309695E+02 -0.39793005951E+03  0.11950459693E+03  0.41560768419E+03  0.00000000000E+00 0.  1.
         15    1    4    4    0    0  0.84493824000E+02  0.12793840595E+03 -0.55120814459E+03  0.57213447779E+03  0.00000000000E+00 0. -1.
         15    1    1    2    0    0 -0.68409415415E+02  0.18915672922E+03  0.19001736294E+03  0.27670691091E+03  0.00000000000E+00 0. -1.
        -16    1    4    4    0    0  0.34133994350E+03  0.30266442124E+03 -0.19322206820E+04  0.19853451773E+04  0.00000000000E+00 0.  1.
         16    1    1    2    0    0  0.13438271939E+03 -0.38607517857E+03 -0.57625942259E+03  0.70653215136E+03  0.00000000000E+00 0. -1.
    9900018    1    3    3    0    0 -0.12531280975E+03  0.30615357512E+02 -0.10497640804E+02  0.15832239026E+03  0.91187600000E+02 0.  0.
<mgrwt>
<rscale>  0 0.17392370E+04</rscale>
<asrwt>0</asrwt>
<pdfrwt beam="1">  1        2 0.55547447E+00 0.24542367E+04</pdfrwt>
<pdfrwt beam="2">  1       -2 0.13639001E+00 0.24542367E+04</pdfrwt>
<totfact> 0.22750240E-01</totfact>
</mgrwt>
</event>
<event>
11    1  0.1706990E-011  0.4277825E+04  0.7818608E-02  0.7950731E-01
          2   -1    0    0  501    0  0.00000000000E+00  0.00000000000E+00  0.19069857986E+04  0.19069857986E+04  0.00000000000E+00 0. -1.
         -2   -1    0    0    0  501 -0.00000000000E+00 -0.00000000000E+00 -0.23990455124E+04  0.23990455124E+04  0.00000000000E+00 0.  1.
    9900016    2    1    2    0    0  0.45655948354E+03  0.12390984895E+03 -0.26252487479E+03  0.20951982617E+04  0.20241383928E+04 0.  0.
        -24    2    3    3    0    0 -0.42213244525E+03  0.70431983948E+03  0.30422080056E+03  0.87936290669E+03  0.80415101456E+02 0.  0.
        -15    1    3    3    0    0  0.62108793194E+03 -0.47607384539E+03 -0.43045758231E+03  0.89313507132E+03  0.00000000000E+00 0.  1.
        -15    1    1    2    0    0 -0.74246827181E+03  0.14129086063E+03 -0.87548744148E+03  0.11565900320E+04  0.00000000000E+00 0.  1.
         15    1    4    4    0    0 -0.38127379517E+03  0.59168603215E+03  0.24181401746E+03  0.74426882681E+03  0.00000000000E+00 0. -1.
         15    1    1    2    0    0 -0.11837180737E+03  0.13364626197E+03  0.39477342750E+03  0.43326581584E+03  0.00000000000E+00 0. -1.
        -16    1    4    4    0    0 -0.40858650087E+02  0.11263380733E+03  0.62406783100E+02  0.13509407988E+03  0.00000000000E+00 0.  1.
         16    1    1    2    0    0  0.40428059564E+03 -0.39884697156E+03  0.25117917498E+03  0.62097720141E+03  0.00000000000E+00 0. -1.
    9900018    1    3    3    0    0  0.25760399686E+03 -0.10433614514E+03 -0.13628809304E+03  0.32270028367E+03  0.91187600000E+02 0.  0.
<mgrwt>
<rscale>  0 0.42778246E+04</rscale>
<asrwt>0</asrwt>
<pdfrwt beam="1">  1        2 0.29338243E+00 0.42778246E+04</pdfrwt>
<pdfrwt beam="2">  1       -2 0.36908393E+00 0.42778246E+04</pdfrwt>
<totfact> 0.68306471E-02</totfact>
</mgrwt>
</event>
<event>
11    1  0.1706990E-011  0.2849275E+04  0.7818608E-02  0.8507075E-01
          1   -1    0    0  501    0  0.00000000000E+00  0.00000000000E+00  0.32034877779E+04  0.32034877779E+04  0.00000000000E+00 0.  1.
         -1   -1    0    0    0  501 -0.00000000000E+00 -0.00000000000E+00 -0.20152212782E+04  0.20152212782E+04  0.00000000000E+00 0. -1.
    9900016    2    1    2    0    0  0.12520295691E+03 -0.14251001376E+03 -0.25032074696E+01  0.20286330977E+04  0.20197428288E+04 0.  0.
        -24    2    3    3    0    0  0.59748791169E+03 -0.14860168181E+03  0.79594684440E+03  0.10093931812E+04  0.79176705642E+02 0.  0.
        -15    1    3    3    0    0 -0.22333494302E+03  0.13314392478E+01 -0.70266119972E+03  0.73730118073E+03  0.00000000000E+00 0.  1.
        -15    1    1    2    0    0  0.52492253016E+03  0.28101949312E+01  0.98448813857E+03  0.11156919175E+04  0.00000000000E+00 0.  1.
         15    1    1    2    0    0 -0.45258043630E+03 -0.29336548103E+03  0.10073038498E+04  0.11426081579E+04  0.00000000000E+00 0. -1.
         15    1    4    4    0    0  0.53685851639E+03 -0.12233347050E+03  0.67054132178E+03  0.86764520908E+03  0.00000000000E+00 0. -1.
        -16    1    4    4    0    0  0.60629395296E+02 -0.26268211308E+02  0.12540552262E+03  0.14174797213E+03  0.00000000000E+00 0.  1.
         16    1    1    2    0    0 -0.19754505076E+03  0.43306529986E+03 -0.80102228115E+03  0.93177588288E+03  0.00000000000E+00 0. -1.
    9900018    1    3    3    0    0 -0.24895001177E+03  0.47602287976E+01 -0.95788852147E+02  0.28193873577E+03  0.91187600000E+02 0.  0.
<mgrwt>
<rscale>  0 0.22274828E+04</rscale>
<asrwt>0</asrwt>
<pdfrwt beam="1">  1        1 0.49284427E+00 0.28492750E+04</pdfrwt>
<pdfrwt beam="2">  1       -1 0.31003404E+00 0.28492750E+04</pdfrwt>
<totfact> 0.97920737E-03</totfact>
</mgrwt>
</event>
