<event>
13    1  0.4069101E-008  0.4912873E+04  0.7818608E-02  0.7842090E-01
          2   -1    0    0  501    0  0.00000000000E+00  0.00000000000E+00  0.30848000181E+04  0.30848000181E+04  0.00000000000E+00 0. -1.
         -2   -1    0    0    0  501 -0.00000000000E+00 -0.00000000000E+00 -0.19560687166E+04  0.19560687166E+04  0.00000000000E+00 0.  1.
    9900016    2    1    2    0    0 -0.29801491209E+03 -0.33010074033E+03  0.66651760385E+03  0.23349088474E+04  0.21931197466E+04 0.  0.
         23    2    3    3    0    0 -0.27264082737E+03  0.27844555551E+03 -0.71837561085E+03  0.82199719946E+03  0.88039363552E+02 0.  0.
    9900016    2    1    2    0    0  0.41429943695E+03  0.16706605317E+03  0.55870582613E+02  0.22438643284E+04  0.21982380473E+04 0.  0.
        -24    2    5    5    0    0 -0.80784088092E+03  0.19828131130E+03  0.46448344829E+03  0.95484694184E+03  0.63760813310E+02 0.  0.
        -15    1    4    4    0    0 -0.18802082260E+03  0.14891727620E+03 -0.37176234519E+03  0.44241996585E+03  0.00000000000E+00 0. -1.
        -15    1    5    5    0    0  0.12221403179E+04 -0.31215258133E+02 -0.40861286568E+03  0.12890173866E+04  0.00000000000E+00 0.  1.
         15    1    6    6    0    0 -0.68665947878E+03  0.15785473729E+03  0.41596361559E+03  0.81819624013E+03  0.00000000000E+00 0. -1.
         15    1    4    4    0    0 -0.84620004768E+02  0.12952827931E+03 -0.34661326565E+03  0.37957723361E+03  0.00000000000E+00 0.  1.
        -16    1    6    6    0    0 -0.12118140215E+03  0.40426574011E+02  0.48519832705E+02  0.13665070171E+03  0.00000000000E+00 0.  1.
         16    1    3    3    0    0 -0.25374084726E+02 -0.60854629585E+03  0.13848932147E+04  0.15129116479E+04  0.00000000000E+00 0. -1.
    9900018    1    1    2    0    0 -0.11628452486E+03  0.16303468717E+03  0.40634311511E+03  0.46209555887E+03  0.91187600000E+02 0.  0.
<mgrwt>
<rscale>  0 0.49128732E+04</rscale>
<asrwt>0</asrwt>
<pdfrwt beam="1">  1        2 0.47458462E+00 0.49128732E+04</pdfrwt>
<pdfrwt beam="2">  1       -2 0.30093365E+00 0.49128732E+04</pdfrwt>
<totfact> 0.35362369E-02</totfact>
</mgrwt>
</event>
<event>
13    1  0.4069101E-008  0.6566229E+04  0.7818608E-02  0.7623904E-01
          2   -1    0    0  501    0  0.00000000000E+00  0.00000000000E+00  0.36709997694E+04  0.36709997694E+04  0.00000000000E+00 0. -1.
         -2   -1    0    0    0  501 -0.00000000000E+00 -0.00000000000E+00 -0.29362140016E+04  0.29362140016E+04  0.00000000000E+00 0.  1.
    9900016    2    1    2    0    0 -0.87629760661E+02 -0.15447647847E+04  0.25458613849E+03  0.27039684194E+04  0.22028740082E+04 0.  0.
         23    2    3    3    0    0 -0.23279706838E+03  0.31935986353E+03  0.67502971488E+03  0.78751151867E+03  0.91236388499E+02 0.  0.
    9900016    2    1    2    0    0  0.96643025879E+03  0.48435166591E+03  0.18731397444E+02  0.24478985183E+04  0.21961949615E+04 0.  0.
         24    2    5    5    0    0  0.82249061528E+03 -0.76120618762E+03  0.29459426668E+03  0.11640631277E+04  0.11104733662E+03 0.  0.
        -15    1    4    4    0    0 -0.96428904113E+02  0.10905256754E+03  0.33339654754E+03  0.36379149790E+03  0.00000000000E+00 0. -1.
        -15    1    6    6    0    0  0.20233245103E+03 -0.18343971224E+03  0.23245087423E+02  0.27409648458E+03  0.00000000000E+00 0.  1.
         15    1    5    5    0    0  0.14393964352E+03  0.12455578535E+04 -0.27586286923E+03  0.12838353906E+04  0.00000000000E+00 0. -1.
         15    1    4    4    0    0 -0.13636816426E+03  0.21030729599E+03  0.34163316734E+03  0.42372002077E+03  0.00000000000E+00 0.  1.
        -16    1    3    3    0    0  0.14516730771E+03 -0.18641246482E+04 -0.42044357639E+03  0.19164569007E+04  0.00000000000E+00 0.  1.
         16    1    6    6    0    0  0.62015816425E+03 -0.57776647538E+03  0.27134917925E+03  0.88996664310E+03  0.00000000000E+00 0. -1.
    9900018    1    1    2    0    0 -0.87880049813E+03  0.10604131188E+04  0.46146823195E+03  0.14553468334E+04  0.91187600000E+02 0.  0.
<mgrwt>
<rscale>  0 0.65662290E+04</rscale>
<asrwt>0</asrwt>
<pdfrwt beam="1">  1        2 0.56476920E+00 0.65662290E+04</pdfrwt>
<pdfrwt beam="2">  1       -2 0.45172523E+00 0.65662290E+04</pdfrwt>
<totfact> 0.13395343E-03</totfact>
</mgrwt>
</event>
<event>
13    1  0.4069101E-008  0.7178287E+04  0.7818608E-02  0.7559323E-01
          2   -1    0    0  501    0  0.00000000000E+00  0.00000000000E+00  0.42958787577E+04  0.42958787577E+04  0.00000000000E+00 0. -1.
         -2   -1    0    0    0  501 -0.00000000000E+00 -0.00000000000E+00 -0.29986766269E+04  0.29986766269E+04  0.00000000000E+00 0.  1.
    9900016    2    1    2    0    0  0.19118499440E+03 -0.23057841812E+04  0.17843710436E+04  0.36575016270E+04  0.22000331220E+04 0.  0.
         23    2    3    3    0    0  0.26813291775E+03  0.32545668530E+03  0.67487575015E+03  0.80087261947E+03  0.90124130449E+02 0.  0.
    9900016    2    1    2    0    0 -0.22751239689E+03  0.13645922856E+04 -0.54745531616E+02  0.25966370028E+04  0.21967368196E+04 0.  0.
         24    2    5    5    0    0 -0.10006183718E+04  0.52696169943E+02 -0.31333360300E+03  0.10520878591E+04  0.68533963979E+02 0.  0.
        -15    1    6    6    0    0 -0.20528347523E+03  0.37452397244E+02 -0.73519577252E+02  0.22124446999E+03  0.00000000000E+00 0.  1.
        -15    1    4    4    0    0  0.17934439143E+03  0.27560800589E+03  0.53218796152E+03  0.62557830048E+03  0.00000000000E+00 0.  1.
         15    1    5    5    0    0  0.77310597492E+03  0.13118961156E+04  0.25858807138E+03  0.15445491437E+04  0.00000000000E+00 0. -1.
         15    1    4    4    0    0  0.88788526324E+02  0.49848679410E+02  0.14268778863E+03  0.17529431899E+03  0.00000000000E+00 0. -1.
        -16    1    3    3    0    0 -0.76947923350E+02 -0.26312408665E+04  0.11094952934E+04  0.28566290076E+04  0.00000000000E+00 0.  1.
         16    1    6    6    0    0 -0.79533489658E+03  0.15243772700E+02 -0.23981402574E+03  0.83084338913E+03  0.00000000000E+00 0. -1.
    9900018    1    1    2    0    0  0.36327402482E+02  0.94119189568E+03 -0.43242338114E+03  0.10404167548E+04  0.91187600000E+02 0.  0.
<mgrwt>
<rscale>  0 0.71782870E+04</rscale>
<asrwt>0</asrwt>
<pdfrwt beam="1">  1        2 0.66090443E+00 0.71782870E+04</pdfrwt>
<pdfrwt beam="2">  1       -2 0.46133487E+00 0.71782870E+04</pdfrwt>
<totfact> 0.34339681E-04</totfact>
</mgrwt>
</event>
<event>
13    1  0.4069101E-008  0.6766939E+04  0.7818608E-02  0.7601960E-01
          2   -1    0    0  501    0  0.00000000000E+00  0.00000000000E+00  0.40501539097E+04  0.40501539097E+04  0.00000000000E+00 0. -1.
         -2   -1    0    0    0  501 -0.00000000000E+00 -0.00000000000E+00 -0.28265262643E+04  0.28265262643E+04  0.00000000000E+00 0.  1.
    9900016    2    1    2    0    0  0.12272510631E+04 -0.37191445751E+03 -0.62856022754E+03  0.26355465892E+04  0.22150738878E+04 0.  0.
         23    2    3    3    0    0 -0.61426903371E+03 -0.19831116237E+03 -0.41599076394E+03  0.77368726371E+03  0.94286284501E+02 0.  0.
    9900016    2    1    2    0    0  0.32049477891E+03  0.38787993294E+03  0.10577948266E+04  0.24989660905E+04  0.22074269819E+04 0.  0.
         24    2    5    5    0    0  0.19328414540E+03  0.65691396167E+03  0.16759781520E+04  0.18128811995E+04  0.93492049556E+02 0.  0.
        -15    1    4    4    0    0 -0.53674873131E+03 -0.14307810927E+03 -0.37393920438E+03  0.66962756401E+03  0.00000000000E+00 0.  1.
        -15    1    6    6    0    0  0.21241098713E+02  0.20799837174E+03  0.55985199996E+03  0.59761925067E+03  0.00000000000E+00 0.  1.
         15    1    4    4    0    0 -0.77520302403E+02 -0.55233053099E+02 -0.42051559555E+02  0.10405969969E+03  0.00000000000E+00 0. -1.
         15    1    5    5    0    0  0.12721063352E+03 -0.26903402873E+03 -0.61818332543E+03  0.68608489105E+03  0.00000000000E+00 0. -1.
        -16    1    3    3    0    0  0.18415200968E+04 -0.17360329514E+03 -0.21256946360E+03  0.18618593255E+04  0.00000000000E+00 0.  1.
         16    1    6    6    0    0  0.17204304668E+03  0.44891558993E+03  0.11161261521E+04  0.12152619488E+04  0.00000000000E+00 0. -1.
    9900018    1    1    2    0    0 -0.15477458420E+04 -0.15965475435E+02  0.79439304633E+03  0.17421674943E+04  0.91187600000E+02 0.  0.
<mgrwt>
<rscale>  0 0.67669392E+04</rscale>
<asrwt>0</asrwt>
<pdfrwt beam="1">  1        2 0.62310060E+00 0.67669392E+04</pdfrwt>
<pdfrwt beam="2">  1       -2 0.43485020E+00 0.67669392E+04</pdfrwt>
<totfact> 0.86210459E-04</totfact>
</mgrwt>
</event>
<event>
13    1  0.4069101E-008  0.6825941E+04  0.7818608E-02  0.7595657E-01
          1   -1    0    0  501    0  0.00000000000E+00  0.00000000000E+00  0.27897380698E+04  0.27897380698E+04  0.00000000000E+00 0. -1.
         -1   -1    0    0    0  501 -0.00000000000E+00 -0.00000000000E+00 -0.41754345772E+04  0.41754345772E+04  0.00000000000E+00 0.  1.
    9900016    2    1    2    0    0  0.21873055689E+04 -0.39750102483E+03 -0.15995577071E+04  0.35112069635E+04  0.21971974799E+04 0.  0.
         23    2    3    3    0    0  0.15049203678E+03  0.31633302045E+03  0.42062683972E+03  0.55497388540E+03  0.91403732001E+02 0.  0.
    9900016    2    1    2    0    0 -0.13305299853E+04  0.32506490271E+03  0.12477724561E+03  0.25847346890E+04  0.21884484958E+04 0.  0.
         24    2    5    5    0    0 -0.17638265286E+03 -0.84187024398E+03 -0.25058135950E+03  0.90108158222E+03  0.96439888867E+02 0.  0.
        -15    1    6    6    0    0 -0.99524474158E+02 -0.51363077692E+03 -0.20039010235E+03  0.56024806030E+03  0.00000000000E+00 0.  1.
        -15    1    4    4    0    0  0.50810514414E+02  0.43253601167E+02  0.11650928215E+03  0.13426464619E+03  0.00000000000E+00 0.  1.
         15    1    5    5    0    0 -0.11541473324E+04  0.11669351467E+04  0.37535860511E+03  0.16836531068E+04  0.00000000000E+00 0. -1.
         15    1    4    4    0    0  0.99681522364E+02  0.27307941928E+03  0.30411755757E+03  0.42070923921E+03  0.00000000000E+00 0. -1.
        -16    1    3    3    0    0  0.20368135321E+04 -0.71383404528E+03 -0.20201845468E+04  0.29562330781E+04  0.00000000000E+00 0.  1.
         16    1    6    6    0    0 -0.76858178697E+02 -0.32823946706E+03 -0.50191257152E+02  0.34083352192E+03  0.00000000000E+00 0. -1.
    9900018    1    1    2    0    0 -0.85677558357E+03  0.72436122121E+02  0.89083954086E+02  0.86923099442E+03  0.91187600000E+02 0.  0.
<mgrwt>
<rscale>  0 0.68259413E+04</rscale>
<asrwt>0</asrwt>
<pdfrwt beam="1">  1        1 0.42919047E+00 0.68259413E+04</pdfrwt>
<pdfrwt beam="2">  1       -1 0.64237455E+00 0.68259413E+04</pdfrwt>
<totfact> 0.16987093E-04</totfact>
</mgrwt>
</event>
