<event>
13    1  0.9535917E-011  0.1949584E+04  0.7818608E-02  0.8630561E-01
          2   -1    0    0  501    0  0.00000000000E+00  0.00000000000E+00  0.16732962472E+04  0.16732962472E+04  0.00000000000E+00 0. -1.
         -2   -1    0    0    0  501 -0.00000000000E+00 -0.00000000000E+00 -0.56787277153E+03  0.56787277153E+03  0.00000000000E+00 0.  1.
    9900016    2    1    2    0    0 -0.26158463136E+03 -0.32957869626E+03  0.11099348958E+04  0.13817745708E+04  0.70731665840E+03 0.  0.
         23    2    3    3    0    0  0.23625433511E+03 -0.81957908188E+02  0.39047465283E+03  0.47249863226E+03  0.90836630367E+02 0.  0.
    9900016    2    1    2    0    0  0.26158463136E+03  0.32957869626E+03 -0.45114200841E+01  0.85939444795E+03  0.74932624928E+03 0.  0.
         23    2    5    5    0    0  0.21374495185E+03 -0.16592306440E+03  0.63586961713E+02  0.29230211441E+03  0.90442559948E+02 0.  0.
        -15    1    4    4    0    0  0.13059926705E+03 -0.18102867226E+01  0.22813161821E+03  0.26287540949E+03  0.00000000000E+00 0.  1.
        -15    1    6    6    0    0  0.35244633695E+01 -0.22703299253E+02  0.26775255659E+02  0.35281382550E+02  0.00000000000E+00 0. -1.
         15    1    4    4    0    0  0.10565506806E+03 -0.80147621465E+02  0.16234303463E+03  0.20962322277E+03  0.00000000000E+00 0. -1.
         15    1    6    6    0    0  0.21022048848E+03 -0.14321976515E+03  0.36811706054E+02  0.25702073186E+03  0.00000000000E+00 0.  1.
        -16    1    5    5    0    0 -0.21549150023E+02  0.43061861782E+03 -0.57709058495E+02  0.43500240840E+03  0.00000000000E+00 0.  1.
         16    1    3    3    0    0 -0.49783896647E+03 -0.24762078807E+03  0.71946024292E+03  0.90927593852E+03  0.00000000000E+00 0. -1.
    9900018    1    5    5    0    0  0.69388829539E+02  0.64883142841E+02 -0.10389323302E+02  0.13208992513E+03  0.91187600000E+02 0.  0.
<mgrwt>
<rscale>  0 0.19495839E+04</rscale>
<asrwt>0</asrwt>
<pdfrwt beam="1">  1        2 0.25743019E+00 0.19495839E+04</pdfrwt>
<pdfrwt beam="2">  1       -2 0.87365042E-01 0.19495839E+04</pdfrwt>
<totfact> 0.10712980E+01</totfact>
</mgrwt>
</event>
<event>
13    1  0.9535917E-011  0.2331280E+04  0.7818608E-02  0.8465689E-01
         -1   -1    0    0    0  501 -0.00000000000E+00  0.00000000000E+00  0.18235912576E+04  0.18235912576E+04  0.00000000000E+00 0.  1.
          1   -1    0    0  501    0  0.00000000000E+00 -0.00000000000E+00 -0.74507710085E+03  0.74507710085E+03  0.00000000000E+00 0. -1.
    9900016    2    1    2    0    0 -0.18920612369E+03 -0.84380370207E+03  0.81273625693E+03  0.13804777146E+04  0.70524807854E+03 0.  0.
         23    2    3    3    0    0 -0.15985252058E+03 -0.25932882473E+03 -0.66453823396E+02  0.32433013324E+03  0.89272935501E+02 0.  0.
    9900016    2    1    2    0    0  0.18491807992E+03  0.64951133726E+03  0.24479432712E+03  0.97249780887E+03  0.65556697000E+03 0.  0.
         23    2    5    5    0    0  0.14269187128E+03  0.22416188636E+03  0.42398383413E+03  0.50901740206E+03  0.93417892128E+02 0.  0.
        -15    1    4    4    0    0 -0.15011699977E+02 -0.98516583860E+02 -0.70572298591E+01  0.99903317887E+02  0.00000000000E+00 0. -1.
        -15    1    6    6    0    0  0.96512644114E+02  0.68009050687E+02  0.19685439103E+03  0.22954645002E+03  0.00000000000E+00 0.  1.
         15    1    6    6    0    0  0.46179227168E+02  0.15615283568E+03  0.22712944310E+03  0.27947095204E+03  0.00000000000E+00 0. -1.
         15    1    4    4    0    0 -0.14484082060E+03 -0.16081224087E+03 -0.59396593537E+02  0.22442681535E+03  0.00000000000E+00 0.  1.
        -16    1    3    3    0    0 -0.29353603114E+02 -0.58447487734E+03  0.87919008032E+03  0.10561475814E+04  0.00000000000E+00 0.  1.
         16    1    5    5    0    0  0.42226208639E+02  0.42534945089E+03 -0.17918950701E+03  0.46348040681E+03  0.00000000000E+00 0. -1.
    9900018    1    1    2    0    0  0.42880437686E+01  0.19429236482E+03  0.20983572709E+02  0.21569283498E+03  0.91187600000E+02 0.  0.
<mgrwt>
<rscale>  0 0.23312796E+04</rscale>
<asrwt>0</asrwt>
<pdfrwt beam="1">  1        2 0.36494212E+00 0.20375218E+04</pdfrwt>
<pdfrwt beam="2">  1       -2 0.67312205E-01 0.20375218E+04</pdfrwt>
<totfact> 0.77349097E+00</totfact>
</mgrwt>
</event>
<event>
13    1  0.2912760E-010  0.2339423E+04  0.7818608E-02  0.8462537E-01
         -1   -1    0    0    0  501 -0.00000000000E+00  0.00000000000E+00  0.83511422039E+03  0.83511422039E+03  0.00000000000E+00 0.  1.
          1   -1    0    0  501    0  0.00000000000E+00 -0.00000000000E+00 -0.16383685679E+04  0.16383685679E+04  0.00000000000E+00 0. -1.
    9900016    2    1    2    0    0 -0.25458432940E+02 -0.58386361398E+03  0.33810370017E+03  0.97848461698E+03  0.70821831526E+03 0.  0.
         23    2    3    3    0    0 -0.12011095272E+03 -0.82559098850E+02 -0.18129916255E+03  0.25044296283E+03  0.92788175550E+02 0.  0.
    9900016    2    1    2    0    0  0.21639160005E+02  0.49510331220E+03 -0.10270898663E+04  0.13239269181E+04  0.67251271208E+03 0.  0.
         23    2    5    5    0    0  0.26845974201E+03  0.11232882969E+03 -0.69826780626E+03  0.76217906419E+03  0.93008588696E+02 0.  0.
        -15    1    4    4    0    0 -0.45552186470E+02 -0.82113674899E+02 -0.12818217977E+03  0.15889722624E+03  0.00000000000E+00 0.  1.
        -15    1    6    6    0    0  0.73576189091E+02 -0.75532980106E+01 -0.12981881634E+03  0.14941028407E+03  0.00000000000E+00 0.  1.
         15    1    4    4    0    0 -0.74558766245E+02 -0.44542395160E+00 -0.53116982784E+02  0.91545736583E+02  0.00000000000E+00 0. -1.
         15    1    6    6    0    0  0.19488355292E+03  0.11988212771E+03 -0.56844898993E+03  0.61276878012E+03  0.00000000000E+00 0. -1.
        -16    1    3    3    0    0  0.94652519775E+02 -0.50130451513E+03  0.51940286272E+03  0.72804165416E+03  0.00000000000E+00 0.  1.
         16    1    5    5    0    0 -0.24682058201E+03  0.38277448251E+03 -0.32882206008E+03  0.56174785390E+03  0.00000000000E+00 0. -1.
    9900018    1    1    2    0    0  0.38192729351E+01  0.88760301774E+02 -0.11426818130E+03  0.17107125319E+03  0.91187600000E+02 0.  0.
<mgrwt>
<rscale>  0 0.23394229E+04</rscale>
<asrwt>0</asrwt>
<pdfrwt beam="1">  1        1 0.25205670E+00 0.23394229E+04</pdfrwt>
<pdfrwt beam="2">  1       -1 0.12847911E+00 0.23394229E+04</pdfrwt>
<totfact> 0.24715229E+00</totfact>
</mgrwt>
</event>
<event>
13    1  0.2912760E-010  0.1667906E+04  0.7818608E-02  0.8779883E-01
          2   -1    0    0  501    0  0.00000000000E+00  0.00000000000E+00  0.46517360464E+03  0.46517360464E+03  0.00000000000E+00 0. -1.
         -2   -1    0    0    0  501 -0.00000000000E+00 -0.00000000000E+00 -0.14950928259E+04  0.14950928259E+04  0.00000000000E+00 0.  1.
    9900016    2    1    2    0    0 -0.33804393823E+03 -0.65311829140E+02 -0.74676560042E+03  0.10801953671E+04  0.70044545112E+03 0.  0.
         23    2    3    3    0    0 -0.10636124969E+02  0.67409194475E+02  0.10704787821E+03  0.15617794166E+03  0.90967986554E+02 0.  0.
    9900016    2    1    2    0    0  0.33804393823E+03  0.65311829140E+02 -0.28315362081E+03  0.88007106338E+03  0.75882129940E+03 0.  0.
         23    2    5    5    0    0 -0.45679020015E+02  0.13589786384E+03 -0.35172171035E+03  0.39116323730E+03  0.93518524451E+02 0.  0.
        -15    1    6    6    0    0 -0.68312012511E+02  0.94258752525E+02 -0.19175673966E+03  0.22432541248E+03  0.00000000000E+00 0.  1.
        -15    1    4    4    0    0 -0.34463323029E+02 -0.70639185327E+01  0.27686662961E+02  0.44767967177E+02  0.00000000000E+00 0.  1.
         15    1    4    4    0    0  0.23827198060E+02  0.74473113007E+02  0.79361215244E+02  0.11140997448E+03  0.00000000000E+00 0. -1.
         15    1    6    6    0    0  0.22632992496E+02  0.41639111310E+02 -0.15996497070E+03  0.16683782482E+03  0.00000000000E+00 0. -1.
        -16    1    3    3    0    0 -0.32740781326E+03 -0.13272102362E+03 -0.85381347863E+03  0.92401742547E+03  0.00000000000E+00 0.  1.
         16    1    5    5    0    0  0.29981758962E+03 -0.10073917801E+03  0.13641271470E+03  0.34445231566E+03  0.00000000000E+00 0. -1.
    9900018    1    5    5    0    0  0.83905368624E+02  0.30153143313E+02 -0.67844625164E+02  0.14445551043E+03  0.91187600000E+02 0.  0.
<mgrwt>
<rscale>  0 0.16679061E+04</rscale>
<asrwt>0</asrwt>
<pdfrwt beam="1">  1        2 0.71565171E-01 0.16679061E+04</pdfrwt>
<pdfrwt beam="2">  1       -2 0.23001428E+00 0.16679061E+04</pdfrwt>
<totfact> 0.54566136E+00</totfact>
</mgrwt>
</event>
<event>
13    1  0.2912760E-010  0.2084597E+04  0.7818608E-02  0.8568059E-01
         -2   -1    0    0    0  501 -0.00000000000E+00  0.00000000000E+00  0.19235698872E+04  0.19235698872E+04  0.00000000000E+00 0.  1.
          2   -1    0    0  501    0  0.00000000000E+00 -0.00000000000E+00 -0.56477585966E+03  0.56477585966E+03  0.00000000000E+00 0. -1.
    9900016    2    1    2    0    0  0.39315334402E+02 -0.23742299953E+03  0.15128699448E+04  0.16823466008E+04  0.69541299883E+03 0.  0.
         23    2    3    3    0    0 -0.88325567817E+02  0.11987275831E+03  0.67143555706E+02  0.18766360739E+03  0.92403941213E+02 0.  0.
    9900016    2    1    2    0    0 -0.39315334402E+02  0.23742299953E+03 -0.15407591732E+03  0.80599914605E+03  0.75364438491E+03 0.  0.
         23    2    5    5    0    0  0.63051570064E+02  0.29125922730E+03 -0.33422734044E+03  0.45549363634E+03  0.83421218366E+02 0.  0.
        -15    1    6    6    0    0  0.33290036774E+02  0.30143180365E+02 -0.32956057509E+02  0.55704035738E+02  0.00000000000E+00 0.  1.
        -15    1    4    4    0    0 -0.37928890371E+02  0.11847930978E+03  0.41807919367E+02  0.13123966509E+03  0.00000000000E+00 0.  1.
         15    1    6    6    0    0  0.29761533290E+02  0.26111604693E+03 -0.30127128293E+03  0.39978960060E+03  0.00000000000E+00 0. -1.
         15    1    4    4    0    0 -0.50396677446E+02  0.13934485301E+01  0.25335636339E+02  0.56423942304E+02  0.00000000000E+00 0. -1.
        -16    1    3    3    0    0  0.12764090222E+03 -0.35729575784E+03  0.14457263891E+04  0.14946829934E+04  0.00000000000E+00 0.  1.
         16    1    5    5    0    0 -0.91692160946E+02 -0.85473819701E+02  0.21371132704E+03  0.24776149325E+03  0.00000000000E+00 0. -1.
    9900018    1    5    5    0    0 -0.10674743520E+02  0.31637591926E+02 -0.33559903923E+02  0.10274401645E+03  0.91187600000E+02 0.  0.
<mgrwt>
<rscale>  0 0.20845967E+04</rscale>
<asrwt>0</asrwt>
<pdfrwt beam="1">  1        2 0.86888595E-01 0.20845967E+04</pdfrwt>
<pdfrwt beam="2">  1       -2 0.29593383E+00 0.20845967E+04</pdfrwt>
<totfact> 0.16577602E+00</totfact>
</mgrwt>
</event>
<event>
13    1  0.2912760E-010  0.3361164E+04  0.7818608E-02  0.8147504E-01
          2   -1    0    0  501    0  0.00000000000E+00  0.00000000000E+00  0.23362287304E+04  0.23362287304E+04  0.00000000000E+00 0. -1.
         -2   -1    0    0    0  501 -0.00000000000E+00 -0.00000000000E+00 -0.12089378732E+04  0.12089378732E+04  0.00000000000E+00 0.  1.
    9900016    2    1    2    0    0  0.50051071586E+03  0.64697205588E+03  0.18992491057E+04  0.21875370454E+04  0.71350356807E+03 0.  0.
         23    2    3    3    0    0 -0.14199142127E+03  0.59765879255E+02  0.58028843865E+03  0.60725943329E+03  0.91081409975E+02 0.  0.
    9900016    2    1    2    0    0 -0.42051779116E+03 -0.58297243551E+03 -0.66226454165E+03  0.11820086394E+04  0.66472402336E+03 0.  0.
         23    2    5    5    0    0 -0.67615433105E+02  0.20534891429E+02  0.96161410199E+02  0.15051889518E+03  0.91735448080E+02 0.  0.
        -15    1    6    6    0    0 -0.85898350525E+02  0.24815861899E+02  0.54221519446E+02  0.10456733140E+03  0.00000000000E+00 0.  1.
        -15    1    4    4    0    0 -0.10448611781E+03  0.66318281978E+02  0.52958482485E+03  0.54385250763E+03  0.00000000000E+00 0. -1.
         15    1    4    4    0    0 -0.37505303459E+02 -0.65524027230E+01  0.50703613804E+02  0.63406925661E+02  0.00000000000E+00 0.  1.
         15    1    6    6    0    0  0.18282917419E+02 -0.42809704707E+01  0.41939890753E+02  0.45951563781E+02  0.00000000000E+00 0. -1.
        -16    1    5    5    0    0 -0.35290235805E+03 -0.60350732693E+03 -0.75842595185E+03  0.10314897442E+04  0.00000000000E+00 0.  1.
         16    1    3    3    0    0  0.64250213713E+03  0.58720617663E+03  0.13189606671E+04  0.15802776121E+04  0.00000000000E+00 0. -1.
    9900018    1    1    2    0    0 -0.79992924699E+02 -0.63999620378E+02 -0.10969370689E+03  0.17562091884E+03  0.91187600000E+02 0.  0.
<mgrwt>
<rscale>  0 0.33611637E+04</rscale>
<asrwt>0</asrwt>
<pdfrwt beam="1">  1        2 0.35941980E+00 0.33611637E+04</pdfrwt>
<pdfrwt beam="2">  1       -2 0.18599044E+00 0.33611637E+04</pdfrwt>
<totfact> 0.59274288E-01</totfact>
</mgrwt>
</event>
<event>
13    1  0.2912760E-010  0.2135007E+04  0.7818608E-02  0.8545977E-01
          1   -1    0    0  501    0  0.00000000000E+00  0.00000000000E+00  0.18803829720E+04  0.18803829720E+04  0.00000000000E+00 0. -1.
         -1   -1    0    0    0  501 -0.00000000000E+00 -0.00000000000E+00 -0.60602756790E+03  0.60602756790E+03  0.00000000000E+00 0.  1.
    9900016    2    1    2    0    0  0.27964698303E+03  0.29573116597E+03 -0.13874563176E+03  0.82594557193E+03  0.70517826101E+03 0.  0.
         23    2    3    3    0    0  0.47501577591E+02 -0.77341890231E+02  0.22235541017E+03  0.25720225810E+03  0.92048385558E+02 0.  0.
    9900016    2    1    2    0    0 -0.25838352126E+03 -0.24691902171E+03  0.12834683612E+04  0.14932687690E+04  0.67441050907E+03 0.  0.
         23    2    5    5    0    0  0.35438668447E+02 -0.27082773094E+03  0.11191165827E+04  0.11557563801E+04  0.93527137181E+02 0.  0.
        -15    1    6    6    0    0  0.36109584934E+02 -0.22440458033E+03  0.10351396193E+04  0.10597996741E+04  0.00000000000E+00 0.  1.
        -15    1    4    4    0    0  0.11247631285E+01 -0.47439459659E+02  0.27851897675E+02  0.55022682858E+02  0.00000000000E+00 0.  1.
         15    1    6    6    0    0 -0.67091648735E+00 -0.46423150609E+02  0.83976963377E+02  0.95956705963E+02  0.00000000000E+00 0. -1.
         15    1    4    4    0    0  0.46376814462E+02 -0.29902430572E+02  0.19450351249E+03  0.20217957524E+03  0.00000000000E+00 0. -1.
        -16    1    3    3    0    0  0.23214540544E+03  0.37307305621E+03 -0.36110104193E+03  0.56874331382E+03  0.00000000000E+00 0.  1.
         16    1    5    5    0    0 -0.29382218971E+03  0.23908709236E+02  0.16435177857E+03  0.33751238890E+03  0.00000000000E+00 0. -1.
    9900018    1    1    2    0    0 -0.21263461764E+02 -0.48812144268E+02  0.12963267459E+03  0.16719619896E+03  0.91187600000E+02 0.  0.
<mgrwt>
<rscale>  0 0.21350072E+04</rscale>
<asrwt>0</asrwt>
<pdfrwt beam="1">  1        1 0.28928969E+00 0.21350072E+04</pdfrwt>
<pdfrwt beam="2">  1       -1 0.93235011E-01 0.21350072E+04</pdfrwt>
<totfact> 0.36780664E+00</totfact>
</mgrwt>
</event>
<event>
13    1  0.2912760E-010  0.1949104E+04  0.7818608E-02  0.8630793E-01
         -1   -1    0    0    0  501 -0.00000000000E+00  0.00000000000E+00  0.43690527383E+03  0.43690527383E+03  0.00000000000E+00 0.  1.
          1   -1    0    0  501    0  0.00000000000E+00 -0.00000000000E+00 -0.21738162758E+04  0.21738162758E+04  0.00000000000E+00 0. -1.
    9900016    2    1    2    0    0 -0.12781440755E+03  0.51657496370E+03 -0.12917617452E+04  0.15761938122E+04  0.72976181820E+03 0.  0.
         23    2    3    3    0    0  0.42477696742E+02  0.71215504576E+02  0.64315471371E+02  0.13873429417E+03  0.90745367423E+02 0.  0.
    9900016    2    1    2    0    0  0.12781440755E+03 -0.51657496370E+03 -0.44514925673E+03  0.10345277374E+04  0.76740052306E+03 0.  0.
         23    2    5    5    0    0 -0.18840671881E+03 -0.17689234122E+03  0.40952790044E+02  0.27689672091E+03  0.90590678122E+02 0.  0.
        -15    1    4    4    0    0 -0.24578870719E+02  0.40167159339E+02  0.37233879690E+02  0.60032352711E+02  0.00000000000E+00 0. -1.
        -15    1    6    6    0    0 -0.90450683132E+02 -0.26553854846E+02  0.97818705876E+01  0.94774037998E+02  0.00000000000E+00 0. -1.
         15    1    4    4    0    0  0.67056567461E+02  0.31048345237E+02  0.27081591681E+02  0.78701941460E+02  0.00000000000E+00 0.  1.
         15    1    6    6    0    0 -0.97956035680E+02 -0.15033848637E+03  0.31170919456E+02  0.18212268291E+03  0.00000000000E+00 0.  1.
        -16    1    5    5    0    0  0.30564107249E+03 -0.26404052919E+03 -0.49438183837E+03  0.63839428910E+03  0.00000000000E+00 0.  1.
         16    1    3    3    0    0 -0.17029210429E+03  0.44535945912E+03 -0.13560772166E+04  0.14374595180E+04  0.00000000000E+00 0. -1.
    9900018    1    5    5    0    0  0.10580053874E+02 -0.75642093286E+02  0.82797915998E+01  0.11923672739E+03  0.91187600000E+02 0.  0.
<mgrwt>
<rscale>  0 0.19491042E+04</rscale>
<asrwt>0</asrwt>
<pdfrwt beam="1">  1        1 0.33443327E+00 0.19491042E+04</pdfrwt>
<pdfrwt beam="2">  1       -1 0.67216197E-01 0.19491042E+04</pdfrwt>
<totfact> 0.47420835E+00</totfact>
</mgrwt>
</event>
<event>
13    1  0.2912760E-010  0.1937116E+04  0.7818608E-02  0.8636599E-01
         -2   -1    0    0    0  501 -0.00000000000E+00  0.00000000000E+00  0.44134098618E+03  0.44134098618E+03  0.00000000000E+00 0.  1.
          2   -1    0    0  501    0  0.00000000000E+00 -0.00000000000E+00 -0.21255775171E+04  0.21255775171E+04  0.00000000000E+00 0. -1.
    9900016    2    1    2    0    0 -0.11689583856E+03 -0.32224814581E+03 -0.15378224083E+04  0.17261275892E+04  0.70506041584E+03 0.  0.
         23    2    3    3    0    0 -0.30653542827E+03 -0.34539041237E+02 -0.29611366683E+03  0.43749253549E+03  0.92517570086E+02 0.  0.
    9900016    2    1    2    0    0  0.11689583856E+03  0.32224814581E+03 -0.14641412264E+03  0.84079091415E+03  0.75364697403E+03 0.  0.
         23    2    5    5    0    0  0.14835098059E+02 -0.49430411065E+02 -0.32824878202E+03  0.34416032089E+03  0.89641608093E+02 0.  0.
        -15    1    6    6    0    0 -0.27265237403E+02 -0.53759303110E+02 -0.17088489928E+03  0.18120459333E+03  0.00000000000E+00 0.  1.
        -15    1    4    4    0    0 -0.15490401227E+03  0.13286993543E+00 -0.20595631756E+03  0.25770773254E+03  0.00000000000E+00 0.  1.
         15    1    4    4    0    0 -0.15163141601E+03 -0.34671911172E+02 -0.90157349268E+02  0.17978480295E+03  0.00000000000E+00 0. -1.
         15    1    6    6    0    0  0.42100335462E+02  0.43288920454E+01 -0.15736388274E+03  0.16295572755E+03  0.00000000000E+00 0. -1.
        -16    1    5    5    0    0  0.11635286503E+03  0.33809645285E+03  0.17523478748E+03  0.39818893929E+03  0.00000000000E+00 0.  1.
         16    1    3    3    0    0  0.18963958972E+03 -0.28770910458E+03 -0.12417087415E+04  0.12886350537E+04  0.00000000000E+00 0. -1.
    9900018    1    5    5    0    0 -0.14292124532E+02  0.33582104027E+02  0.65998719075E+01  0.98441653976E+02  0.91187600000E+02 0.  0.
<mgrwt>
<rscale>  0 0.19371159E+04</rscale>
<asrwt>0</asrwt>
<pdfrwt beam="1">  1        2 0.32701192E+00 0.19371159E+04</pdfrwt>
<pdfrwt beam="2">  1       -2 0.67898614E-01 0.19371159E+04</pdfrwt>
<totfact> 0.10546736E+01</totfact>
</mgrwt>
</event>
<event>
13    1  0.2912760E-010  0.1734791E+04  0.7818608E-02  0.8741767E-01
          2   -1    0    0  501    0  0.00000000000E+00  0.00000000000E+00  0.43713925952E+04  0.43713925952E+04  0.00000000000E+00 0. -1.
         -2   -1    0    0    0  501 -0.00000000000E+00 -0.00000000000E+00 -0.17211335404E+03  0.17211335404E+03  0.00000000000E+00 0.  1.
    9900016    2    1    2    0    0 -0.25961655919E+03 -0.14870277539E+03  0.12311044070E+04  0.14629963899E+04  0.73159216961E+03 0.  0.
         23    2    3    3    0    0 -0.16371243262E+03  0.11988126104E+03  0.11426813678E+04  0.11644103554E+04  0.94644018248E+02 0.  0.
    9900016    2    1    2    0    0  0.21672451006E+03  0.12430620720E+03  0.23674691814E+04  0.24709216821E+04  0.66190791501E+03 0.  0.
         23    2    5    5    0    0 -0.38137894579E+02 -0.20989373268E+03  0.13549893196E+04  0.13746735735E+04  0.90672484573E+02 0.  0.
        -15    1    4    4    0    0 -0.69346010942E+01  0.52979653939E+02  0.27784120109E+03  0.28293226300E+03  0.00000000000E+00 0. -1.
        -15    1    6    6    0    0 -0.62968448854E+02 -0.93304308735E+02  0.66946488872E+03  0.67886225172E+03  0.00000000000E+00 0.  1.
         15    1    6    6    0    0  0.24830554275E+02 -0.11658942394E+03  0.68552443083E+03  0.69581132174E+03  0.00000000000E+00 0. -1.
         15    1    4    4    0    0 -0.15677783152E+03  0.66901607102E+02  0.86484016669E+03  0.88147809241E+03  0.00000000000E+00 0.  1.
        -16    1    3    3    0    0 -0.95904126580E+02 -0.26858403643E+03  0.88423039257E+02  0.29858603449E+03  0.00000000000E+00 0.  1.
         16    1    5    5    0    0  0.25486240464E+03  0.33419993988E+03  0.10124798618E+04  0.10962481087E+04  0.00000000000E+00 0. -1.
    9900018    1    1    2    0    0  0.42892049131E+02  0.24396568189E+02  0.60070565276E+03  0.60958787723E+03  0.91187600000E+02 0.  0.
<mgrwt>
<rscale>  0 0.17347911E+04</rscale>
<asrwt>0</asrwt>
<pdfrwt beam="1">  1        2 0.67252185E+00 0.17347911E+04</pdfrwt>
<pdfrwt beam="2">  1       -2 0.26478981E-01 0.17347911E+04</pdfrwt>
<totfact> 0.20465110E+00</totfact>
</mgrwt>
</event>
<event>
13    1  0.2912760E-010  0.1794017E+04  0.7818608E-02  0.8709487E-01
          1   -1    0    0  501    0  0.00000000000E+00  0.00000000000E+00  0.31815833161E+04  0.31815833161E+04  0.00000000000E+00 0. -1.
         -1   -1    0    0    0  501 -0.00000000000E+00 -0.00000000000E+00 -0.25290066638E+03  0.25290066638E+03  0.00000000000E+00 0.  1.
    9900016    2    1    2    0    0 -0.97562668852E+02 -0.36236007244E+03  0.77902593104E+03  0.11222706915E+04  0.71539276440E+03 0.  0.
         23    2    3    3    0    0 -0.38938949936E+02 -0.10163820197E+03  0.83683646808E+03  0.84885764802E+03  0.91746751266E+02 0.  0.
    9900016    2    1    2    0    0  0.97562668852E+02  0.36236007244E+03  0.21496567187E+04  0.23122132909E+04  0.76451487773E+03 0.  0.
         23    2    5    5    0    0 -0.18415059779E+03  0.25272609976E+03  0.44688803923E+03  0.55214001917E+03  0.85835639450E+02 0.  0.
        -15    1    6    6    0    0 -0.66534602659E+02  0.12789034779E+03  0.14219686646E+03  0.20249134115E+03  0.00000000000E+00 0. -1.
        -15    1    4    4    0    0  0.71195415119E+01 -0.95518622861E+02  0.57856558139E+03  0.58644064248E+03  0.00000000000E+00 0.  1.
         15    1    4    4    0    0 -0.46058491448E+02 -0.61195791046E+01  0.25827088670E+03  0.26241700554E+03  0.00000000000E+00 0. -1.
         15    1    6    6    0    0 -0.11761599513E+03  0.12483575197E+03  0.30469117277E+03  0.34964867803E+03  0.00000000000E+00 0.  1.
        -16    1    3    3    0    0 -0.58623718916E+02 -0.26072187047E+03 -0.57810537042E+02  0.27341304350E+03  0.00000000000E+00 0.  1.
         16    1    5    5    0    0  0.32567718939E+03  0.71045791320E+02  0.13765980095E+04  0.14163810278E+04  0.00000000000E+00 0. -1.
    9900018    1    5    5    0    0 -0.43963922750E+02  0.38588181356E+02  0.32617066990E+03  0.34369224393E+03  0.91187600000E+02 0.  0.
<mgrwt>
<rscale>  0 0.17940173E+04</rscale>
<asrwt>0</asrwt>
<pdfrwt beam="1">  1        1 0.48947433E+00 0.17940173E+04</pdfrwt>
<pdfrwt beam="2">  1       -1 0.38907797E-01 0.17940173E+04</pdfrwt>
<totfact> 0.26657449E+00</totfact>
</mgrwt>
</event>
<event>
13    1  0.2912760E-010  0.1626143E+04  0.7818608E-02  0.8804646E-01
          1   -1    0    0  501    0  0.00000000000E+00  0.00000000000E+00  0.22253468460E+04  0.22253468460E+04  0.00000000000E+00 0. -1.
         -1   -1    0    0    0  501 -0.00000000000E+00 -0.00000000000E+00 -0.29707075583E+03  0.29707075583E+03  0.00000000000E+00 0.  1.
    9900016    2    1    2    0    0 -0.13212691787E+03  0.14701438238E+03  0.13599883516E+04  0.15491860715E+04  0.71507930783E+03 0.  0.
         23    2    3    3    0    0  0.17950692136E+03 -0.14814270775E+03  0.83108169879E+03  0.86802852362E+03  0.92777858731E+02 0.  0.
    9900016    2    1    2    0    0  0.75143093705E+02 -0.13220915855E+03  0.45932575870E+03  0.81943217301E+03  0.66133439909E+03 0.  0.
         23    2    5    5    0    0 -0.11792696511E+03 -0.84028155730E+02  0.56735382367E+03  0.59300885384E+03  0.93817053009E+02 0.  0.
        -15    1    6    6    0    0 -0.68164744465E+02 -0.12005710707E+01  0.32558049432E+03  0.33264174729E+03  0.00000000000E+00 0.  1.
        -15    1    4    4    0    0  0.12990505774E+03 -0.14313245517E+03  0.73227993936E+03  0.75736129644E+03  0.00000000000E+00 0.  1.
         15    1    4    4    0    0  0.49601863618E+02 -0.50102525834E+01  0.98801759432E+02  0.11066722718E+03  0.00000000000E+00 0. -1.
         15    1    6    6    0    0 -0.49762220647E+02 -0.82827584659E+02  0.24177332935E+03  0.26036710654E+03  0.00000000000E+00 0. -1.
        -16    1    5    5    0    0  0.19307005882E+03 -0.48181002820E+02 -0.10802806497E+03  0.22642331917E+03  0.00000000000E+00 0.  1.
         16    1    3    3    0    0 -0.31163383923E+03  0.29515709014E+03  0.52890665281E+03  0.68115754785E+03  0.00000000000E+00 0. -1.
    9900018    1    1    2    0    0  0.56983824161E+02 -0.14805223835E+02  0.10896197985E+03  0.15379935733E+03  0.91187600000E+02 0.  0.
<mgrwt>
<rscale>  0 0.16261433E+04</rscale>
<asrwt>0</asrwt>
<pdfrwt beam="1">  1        1 0.34236104E+00 0.16261433E+04</pdfrwt>
<pdfrwt beam="2">  1       -1 0.45703195E-01 0.16261433E+04</pdfrwt>
<totfact> 0.95442614E+00</totfact>
</mgrwt>
</event>
<event>
13    1  0.2912760E-010  0.2856197E+04  0.7818608E-02  0.8286031E-01
         -1   -1    0    0    0  501 -0.00000000000E+00  0.00000000000E+00  0.25578615100E+04  0.25578615100E+04  0.00000000000E+00 0.  1.
          1   -1    0    0  501    0  0.00000000000E+00 -0.00000000000E+00 -0.79733214733E+03  0.79733214733E+03  0.00000000000E+00 0. -1.
    9900016    2    1    2    0    0 -0.81735774218E+03 -0.89598078130E+03  0.10541986403E+04  0.17564589841E+04  0.70919542483E+03 0.  0.
         23    2    3    3    0    0  0.17637037493E+02 -0.40926393843E+03  0.19623922486E+03  0.46409528698E+03  0.95218515177E+02 0.  0.
    9900016    2    1    2    0    0  0.67394289849E+03  0.73289384887E+03  0.58829009493E+03  0.13352694325E+04  0.66747793779E+03 0.  0.
         23    2    5    5    0    0  0.12789288150E+03  0.11624002961E+03  0.46362301225E+03  0.50221815235E+03  0.86072303558E+02 0.  0.
        -15    1    6    6    0    0  0.83489842439E+02  0.20662095117E+02  0.17590923882E+03  0.19580994935E+03  0.00000000000E+00 0. -1.
        -15    1    4    4    0    0  0.37980305004E+02 -0.18888274309E+03  0.50737766532E+02  0.19923231454E+03  0.00000000000E+00 0. -1.
         15    1    4    4    0    0 -0.20343267512E+02 -0.22038119534E+03  0.14550145833E+03  0.26486297244E+03  0.00000000000E+00 0.  1.
         15    1    6    6    0    0  0.44403039066E+02  0.95577934495E+02  0.28771377343E+03  0.30640820300E+03  0.00000000000E+00 0.  1.
        -16    1    5    5    0    0  0.54605001699E+03  0.61665381925E+03  0.12466708268E+03  0.83305128015E+03  0.00000000000E+00 0.  1.
         16    1    3    3    0    0 -0.83499477967E+03 -0.48671684288E+03  0.85795941540E+03  0.12923636971E+04  0.00000000000E+00 0. -1.
    9900018    1    1    2    0    0  0.14341484369E+03  0.16308693244E+03  0.11804062743E+03  0.26346524067E+03  0.91187600000E+02 0.  0.
<mgrwt>
<rscale>  0 0.28561969E+04</rscale>
<asrwt>0</asrwt>
<pdfrwt beam="1">  1        1 0.12266649E+00 0.28561969E+04</pdfrwt>
<pdfrwt beam="2">  1       -1 0.39351715E+00 0.28561969E+04</pdfrwt>
<totfact> 0.15163131E-01</totfact>
</mgrwt>
</event>
