<event>
11    1  0.1029073E-010  0.5243639E+04  0.7818608E-02  0.8017745E-01
         -1   -1    0    0    0  501 -0.00000000000E+00  0.00000000000E+00  0.43173426986E+04  0.43173426986E+04  0.00000000000E+00 0.  1.
          1   -1    0    0  501    0  0.00000000000E+00 -0.00000000000E+00 -0.27645049439E+04  0.27645049439E+04  0.00000000000E+00 0. -1.
    9900016    2    1    2    0    0 -0.15624172803E+04  0.43781677095E+03 -0.76384573869E+03  0.27100731736E+04  0.20317984671E+04 0.  0.
         24    2    3    3    0    0 -0.51410050142E+03  0.10445966274E+04  0.17238092607E+03  0.11791681370E+04  0.72393867210E+02 0.  0.
        -15    1    1    2    0    0  0.43074777016E+03  0.53153398551E+03  0.20196187731E+03  0.71334467065E+03  0.00000000000E+00 0.  1.
        -15    1    4    4    0    0 -0.32160822695E+03  0.59776403825E+03  0.12653580012E+03  0.69048172009E+03  0.00000000000E+00 0.  1.
         15    1    3    3    0    0 -0.10483167789E+04 -0.60677985648E+03 -0.93622666476E+03  0.15309050366E+04  0.00000000000E+00 0. -1.
         15    1    1    2    0    0 -0.60175019096E+03 -0.76236918465E+03  0.90016211584E+02  0.97540401084E+03  0.00000000000E+00 0. -1.
        -16    1    1    2    0    0  0.10143520007E+04 -0.76226749947E+02  0.10575827969E+04  0.14673792526E+04  0.00000000000E+00 0.  1.
         16    1    4    4    0    0 -0.19249227447E+03  0.44683258919E+03  0.45845125953E+02  0.48868641690E+03  0.00000000000E+00 0. -1.
    9900018    1    1    2    0    0  0.71906770046E+03 -0.13075482187E+03  0.96712260758E+03  0.12156465349E+04  0.91187600000E+02 0.  0.
<mgrwt>
<rscale>  0 0.39352134E+04</rscale>
<asrwt>0</asrwt>
<pdfrwt beam="1">  1        1 0.42530845E+00 0.52436389E+04</pdfrwt>
<pdfrwt beam="2">  1       -1 0.66420657E+00 0.52436389E+04</pdfrwt>
<totfact> 0.15870461E-04</totfact>
</mgrwt>
</event>
<event>
11    1  0.1029073E-010  0.3452816E+04  0.7818608E-02  0.8306923E-01
          2   -1    0    0  501    0  0.00000000000E+00  0.00000000000E+00  0.42233525475E+04  0.42233525475E+04  0.00000000000E+00 0. -1.
         -2   -1    0    0    0  501 -0.00000000000E+00 -0.00000000000E+00 -0.17443948696E+04  0.17443948696E+04  0.00000000000E+00 0.  1.
    9900016    2    1    2    0    0 -0.95039093711E+03 -0.43693312001E+03  0.52703486347E+03  0.23337471120E+04  0.20185282635E+04 0.  0.
         24    2    3    3    0    0 -0.14132815190E+04  0.18736023190E+03  0.60892003022E+03  0.15522645078E+04  0.79202213810E+02 0.  0.
        -15    1    1    2    0    0  0.36917304572E+03  0.40093514483E+02  0.23073572499E+03  0.43719012154E+03  0.00000000000E+00 0.  1.
        -15    1    4    4    0    0 -0.66298629675E+03  0.49164181330E+02  0.27341211806E+03  0.71883387004E+03  0.00000000000E+00 0.  1.
         15    1    3    3    0    0  0.46289058186E+03 -0.62429335191E+03 -0.81885166747E+02  0.78148260413E+03  0.00000000000E+00 0. -1.
         15    1    1    2    0    0  0.10219007838E+04  0.52104208046E+02  0.17704137667E+04  0.20448376380E+04  0.00000000000E+00 0. -1.
        -16    1    1    2    0    0 -0.63274742618E+03  0.42848495654E+03 -0.29246441787E+03  0.81823230139E+03  0.00000000000E+00 0.  1.
         16    1    4    4    0    0 -0.75029522222E+03  0.13819605057E+03  0.33550791215E+03  0.83343063779E+03  0.00000000000E+00 0. -1.
    9900018    1    1    2    0    0  0.19206453380E+03 -0.83749559060E+02  0.24323774064E+03  0.33374024428E+03  0.91187600000E+02 0.  0.
<mgrwt>
<rscale>  0 0.27882566E+04</rscale>
<asrwt>0</asrwt>
<pdfrwt beam="1">  1        2 0.64974654E+00 0.34528164E+04</pdfrwt>
<pdfrwt beam="2">  1       -2 0.26836844E+00 0.34528164E+04</pdfrwt>
<totfact> 0.85625987E-03</totfact>
</mgrwt>
</event>
<event>
11    1  0.1029073E-010  0.4130903E+04  0.7818608E-02  0.8101344E-01
         -1   -1    0    0    0  501 -0.00000000000E+00  0.00000000000E+00  0.25550328845E+04  0.25550328845E+04  0.00000000000E+00 0.  1.
          1   -1    0    0  501    0  0.00000000000E+00 -0.00000000000E+00 -0.39984376318E+04  0.39984376318E+04  0.00000000000E+00 0. -1.
    9900016    2    1    2    0    0 -0.80805657920E+03  0.11162646209E+04 -0.72017527845E+02  0.24470712061E+04  0.20208831793E+04 0.  0.
         24    2    3    3    0    0 -0.32123603399E+02  0.12612756756E+04  0.61012563643E+03  0.14037977589E+04  0.80911061431E+02 0.  0.
        -15    1    1    2    0    0  0.28611131998E+03 -0.27758276022E+02 -0.47971482065E+03  0.55924638439E+03  0.00000000000E+00 0.  1.
        -15    1    4    4    0    0 -0.42931324390E+02  0.10411282089E+04  0.53187636099E+03  0.11699074789E+04  0.00000000000E+00 0.  1.
         15    1    1    2    0    0  0.13127060018E+04 -0.11529065694E+04  0.22414667494E+02  0.17472529932E+04  0.00000000000E+00 0. -1.
         15    1    3    3    0    0 -0.77593297580E+03 -0.14501105475E+03 -0.68214316428E+03  0.10432734471E+04  0.00000000000E+00 0. -1.
        -16    1    1    2    0    0 -0.53683571185E+03  0.12864562356E+03  0.24799454939E+03  0.60518061313E+03  0.00000000000E+00 0.  1.
         16    1    4    4    0    0  0.10807720990E+02  0.22014746677E+03  0.78249275443E+02  0.23389027998E+03  0.00000000000E+00 0. -1.
    9900018    1    1    2    0    0 -0.25392503076E+03 -0.64245399012E+02 -0.11620816157E+04  0.11947193195E+04  0.91187600000E+02 0.  0.
<mgrwt>
<rscale>  0 0.35529987E+04</rscale>
<asrwt>0</asrwt>
<pdfrwt beam="1">  1        1 0.61514425E+00 0.41309032E+04</pdfrwt>
<pdfrwt beam="2">  1       -1 0.39308198E+00 0.41309032E+04</pdfrwt>
<totfact> 0.55578640E-04</totfact>
</mgrwt>
</event>
<event>
11    1  0.1154796E-010  0.2732095E+04  0.7818608E-02  0.8482419E-01
         -2   -1    0    0    0  501 -0.00000000000E+00  0.00000000000E+00  0.13959259700E+04  0.13959259700E+04  0.00000000000E+00 0.  1.
          2   -1    0    0  501    0  0.00000000000E+00 -0.00000000000E+00 -0.34586722717E+04  0.34586722717E+04  0.00000000000E+00 0. -1.
    9900016    2    1    2    0    0  0.35157394150E+03  0.14368798759E+03 -0.13255720417E+04  0.24475964403E+04  0.20222108255E+04 0.  0.
        -24    2    3    3    0    0  0.29641763741E+03  0.51729819237E+03 -0.17670572007E+04  0.18666179995E+04  0.79440356069E+02 0.  0.
        -15    1    3    3    0    0  0.55156304089E+02 -0.37361020478E+03  0.44148515901E+03  0.58097844076E+03  0.00000000000E+00 0.  1.
        -15    1    1    2    0    0  0.50009082418E+03 -0.67818340660E+03  0.15822338090E+02  0.84277749839E+03  0.00000000000E+00 0.  1.
         15    1    4    4    0    0  0.18366682489E+03  0.24192357346E+03 -0.87061174425E+03  0.92207663845E+03  0.00000000000E+00 0. -1.
         15    1    1    2    0    0 -0.32036483026E+03  0.37842571589E+03  0.11395676286E+03  0.50874924149E+03  0.00000000000E+00 0. -1.
        -16    1    4    4    0    0  0.11275081253E+03  0.27537461891E+03 -0.89644545641E+03  0.94454136108E+03  0.00000000000E+00 0.  1.
         16    1    1    2    0    0 -0.41897460167E+03  0.89064924480E+02 -0.72458354652E+03  0.84172061488E+03  0.00000000000E+00 0. -1.
    9900018    1    1    2    0    0 -0.11232533375E+03  0.67004778640E+02 -0.14236981446E+03  0.21375444657E+03  0.91187600000E+02 0.  0.
<mgrwt>
<rscale>  0 0.22886275E+04</rscale>
<asrwt>0</asrwt>
<pdfrwt beam="1">  1        2 0.53210342E+00 0.27320949E+04</pdfrwt>
<pdfrwt beam="2">  1       -2 0.21475784E+00 0.27320949E+04</pdfrwt>
<totfact> 0.77648527E-02</totfact>
</mgrwt>
</event>
<event>
11    1  0.1029073E-010  0.3742080E+04  0.7818608E-02  0.8457802E-01
         -1   -1    0    0    0  501 -0.00000000000E+00  0.00000000000E+00  0.39449999327E+04  0.39449999327E+04  0.00000000000E+00 0.  1.
          1   -1    0    0  501    0  0.00000000000E+00 -0.00000000000E+00 -0.14069440680E+04  0.14069440680E+04  0.00000000000E+00 0. -1.
    9900016    2    1    2    0    0  0.59993872883E+03  0.42994120179E+03  0.11503380376E+04  0.24338455027E+04  0.20138397193E+04 0.  0.
         24    2    3    3    0    0 -0.67974885365E+03  0.50641331477E+03  0.58371622716E+03  0.10322362245E+04  0.79208836977E+02 0.  0.
        -15    1    4    4    0    0 -0.13296779912E+03  0.13952991161E+03  0.12436787207E+03  0.22938264852E+03  0.00000000000E+00 0.  1.
        -15    1    1    2    0    0 -0.29152631749E+02 -0.91368768042E+02 -0.14423709691E+03  0.17321220464E+03  0.00000000000E+00 0.  1.
         15    1    3    3    0    0  0.12796875825E+04 -0.76472112973E+02  0.56662181045E+03  0.14016092783E+04  0.00000000000E+00 0. -1.
         15    1    1    2    0    0 -0.40676661490E+03  0.20866124118E+03 -0.15489483475E+03  0.48269141530E+03  0.00000000000E+00 0. -1.
        -16    1    1    2    0    0 -0.20088727909E+03 -0.20427892929E+03  0.18484504967E+04  0.18705226057E+04  0.00000000000E+00 0.  1.
         16    1    4    4    0    0 -0.54678105454E+03  0.36688340315E+03  0.45934835509E+03  0.80285357596E+03  0.00000000000E+00 0. -1.
    9900018    1    1    2    0    0  0.36867796905E+02 -0.34295474564E+03 -0.16160073798E+03  0.39167227233E+03  0.91187600000E+02 0.  0.
<mgrwt>
<rscale>  0 0.23517222E+04</rscale>
<asrwt>0</asrwt>
<pdfrwt beam="1">  1        1 0.21645294E+00 0.37420797E+04</pdfrwt>
<pdfrwt beam="2">  1       -1 0.60692306E+00 0.37420797E+04</pdfrwt>
<totfact> 0.24389039E-03</totfact>
</mgrwt>
</event>
<event>
11    1  0.1029073E-010  0.7463290E+04  0.7818608E-02  0.7531456E-01
         -2   -1    0    0    0  501 -0.00000000000E+00  0.00000000000E+00  0.40479174868E+04  0.40479174868E+04  0.00000000000E+00 0.  1.
          2   -1    0    0  501    0  0.00000000000E+00 -0.00000000000E+00 -0.34400836646E+04  0.34400836646E+04  0.00000000000E+00 0. -1.
    9900016    2    1    2    0    0 -0.12928870883E+03 -0.75672523940E+03  0.10121249830E+04  0.23759976657E+04  0.20078892569E+04 0.  0.
        -24    2    3    3    0    0  0.50989489921E+03 -0.12256824658E+04  0.44958548712E+03  0.14039239805E+04  0.81148737557E+02 0.  0.
        -15    1    3    3    0    0 -0.63918360804E+03  0.46895722642E+03  0.56253949588E+03  0.97207368519E+03  0.00000000000E+00 0.  1.
        -15    1    1    2    0    0  0.14497464388E+04 -0.14117671241E+03 -0.15080365509E+03  0.14643897512E+04  0.00000000000E+00 0.  1.
         15    1    1    2    0    0 -0.14835574760E+03  0.17478165201E+04 -0.54656742210E+03  0.18372827662E+04  0.00000000000E+00 0. -1.
         15    1    4    4    0    0  0.14974086359E+03 -0.43970626671E+03  0.13227757845E+03  0.48297130864E+03  0.00000000000E+00 0. -1.
        -16    1    4    4    0    0  0.36015403562E+03 -0.78597619912E+03  0.31730790868E+03  0.92095267189E+03  0.00000000000E+00 0.  1.
         16    1    1    2    0    0 -0.10227840087E+04 -0.95265323447E+03  0.53319505552E+03  0.14959720187E+04  0.00000000000E+00 0. -1.
    9900018    1    1    2    0    0 -0.14931797369E+03  0.10273866613E+03 -0.24011513913E+03  0.31435894964E+03  0.91187600000E+02 0.  0.
<mgrwt>
<rscale>  0 0.74632901E+04</rscale>
<asrwt>0</asrwt>
<pdfrwt beam="1">  1        2 0.52924364E+00 0.74632901E+04</pdfrwt>
<pdfrwt beam="2">  1       -2 0.62275654E+00 0.74632901E+04</pdfrwt>
<totfact> 0.23205147E-04</totfact>
</mgrwt>
</event>
<event>
11    1  0.1029073E-010  0.3148801E+04  0.7818608E-02  0.8451466E-01
          2   -1    0    0  501    0  0.00000000000E+00  0.00000000000E+00  0.23061174230E+04  0.23061174230E+04  0.00000000000E+00 0. -1.
         -2   -1    0    0    0  501 -0.00000000000E+00 -0.00000000000E+00 -0.19013667937E+04  0.19013667937E+04  0.00000000000E+00 0.  1.
    9900016    2    1    2    0    0  0.31338939719E+03 -0.59014349088E+02 -0.10760886437E+03  0.20541511134E+04  0.20263912557E+04 0.  0.
         24    2    3    3    0    0  0.11148741058E+04  0.22465684043E+03  0.18464713435E+03  0.11551179378E+04  0.82388823845E+02 0.  0.
        -15    1    1    2    0    0  0.17322153678E+03  0.28683198078E+03 -0.15199266942E+03  0.36794029075E+03  0.00000000000E+00 0.  1.
        -15    1    4    4    0    0  0.12164932774E+03  0.21260219253E+01  0.32743486111E+02  0.12599688406E+03  0.00000000000E+00 0.  1.
         15    1    3    3    0    0 -0.80148470865E+03 -0.28367118952E+03 -0.29225599873E+03  0.89903317555E+03  0.00000000000E+00 0. -1.
         15    1    1    2    0    0  0.49986220401E+03  0.44233443761E+02  0.47304491732E+03  0.68963056367E+03  0.00000000000E+00 0. -1.
        -16    1    1    2    0    0 -0.93286265789E+03 -0.23049165430E+03  0.13997657276E+03  0.97105745562E+03  0.00000000000E+00 0.  1.
         16    1    4    4    0    0  0.99322477809E+03  0.22253081851E+03  0.15190364824E+03  0.10291210538E+04  0.00000000000E+00 0. -1.
    9900018    1    1    2    0    0 -0.53610480089E+02 -0.41559421151E+02  0.51330672993E+02  0.12470479319E+03  0.91187600000E+02 0.  0.
<mgrwt>
<rscale>  0 0.23683048E+04</rscale>
<asrwt>0</asrwt>
<pdfrwt beam="1">  1        2 0.35478730E+00 0.31488012E+04</pdfrwt>
<pdfrwt beam="2">  1       -2 0.29251797E+00 0.31488012E+04</pdfrwt>
<totfact> 0.12985455E-01</totfact>
</mgrwt>
</event>
