<event>
11    1  0.3808585E-015  0.3280432E+04  0.7818608E-02  0.8167892E-01
          2   -1    0    0  501    0  0.00000000000E+00  0.00000000000E+00  0.28169906153E+04  0.28169906153E+04  0.00000000000E+00 0. -1.
         -2   -1    0    0    0  501 -0.00000000000E+00 -0.00000000000E+00 -0.95502906604E+03  0.95502906604E+03  0.00000000000E+00 0.  1.
    9900016    2    1    2    0    0 -0.10608634795E+03  0.85549670439E+03  0.13397388254E+04  0.24470615609E+04  0.18574394306E+04 0.  0.
         24    2    3    3    0    0  0.10027404965E+03  0.11098098527E+03 -0.45900729229E+03  0.48941607067E+03  0.80428426180E+02 0.  0.
        -15    1    4    4    0    0  0.34055290122E+01  0.21864966045E+02 -0.26488160056E+02  0.34515170450E+02  0.00000000000E+00 0.  1.
        -15    1    4    4    0    0  0.77295218670E+02  0.70772879157E+02 -0.27326800325E+03  0.29267516610E+03  0.00000000000E+00 0.  1.
         15    1    4    4    0    0  0.44391729513E+01  0.10546136855E+02 -0.35230828190E+02  0.37042388072E+02  0.00000000000E+00 0. -1.
         15    1    3    3    0    0 -0.20636039760E+03  0.74451571912E+03  0.17987461177E+04  0.19576454903E+04  0.00000000000E+00 0. -1.
        -16    1    1    2    0    0  0.12959445021E+03 -0.96591376060E+03  0.23400664438E+03  0.10022690378E+04  0.00000000000E+00 0.  1.
         16    1    4    4    0    0  0.15134129016E+02  0.77970032109E+01 -0.12402030079E+03  0.12518334605E+03  0.00000000000E+00 0. -1.
    9900018    1    1    2    0    0 -0.23508102257E+02  0.11041705621E+03  0.28821607949E+03  0.32268908263E+03  0.91187600000E+02 0.  0.
<mgrwt>
<rscale>  0 0.32804316E+04</rscale>
<asrwt>0</asrwt>
<pdfrwt beam="1">  1        2 0.43338317E+00 0.32804316E+04</pdfrwt>
<pdfrwt beam="2">  1       -2 0.14692755E+00 0.32804316E+04</pdfrwt>
<totfact> 0.59755432E-01</totfact>
</mgrwt>
</event>
<event>
12    1  0.3808585E-015  0.2627862E+04  0.7818608E-02  0.8358798E-01
         -2   -1    0    0    0  501 -0.00000000000E+00  0.00000000000E+00  0.64008409213E+03  0.64008409213E+03  0.00000000000E+00 0.  1.
          2   -1    0    0  501    0  0.00000000000E+00 -0.00000000000E+00 -0.26971685475E+04  0.26971685475E+04  0.00000000000E+00 0. -1.
    9900016    2    1    2    0    0  0.21724133947E+03 -0.52364343225E+03 -0.13830248848E+04  0.23685505436E+04  0.18373561445E+04 0.  0.
         24    2    3    3    0    0 -0.36047641752E+02 -0.99624404793E+02  0.45037587483E+03  0.46978626404E+03  0.81463186397E+02 0.  0.
         24    2    4    4    0    0 -0.22841370948E+02 -0.75794303165E+02  0.31163153683E+03  0.32674842160E+03  0.58170539383E+02 0.  0.
        -15    1    5    5    0    0 -0.19776731975E+02 -0.65032177081E+02  0.14945361247E+03  0.16418491242E+03  0.00000000000E+00 0.  1.
        -15    1    4    4    0    0 -0.12130638658E+01 -0.22598261075E+02  0.95451394336E+02  0.98097510714E+02  0.00000000000E+00 0. -1.
         15    1    4    4    0    0 -0.11993206939E+02 -0.12318405534E+01  0.43292943671E+02  0.44940331724E+02  0.00000000000E+00 0.  1.
         15    1    3    3    0    0  0.25328898123E+03 -0.42401902746E+03 -0.18334007597E+04  0.18987642795E+04  0.00000000000E+00 0. -1.
        -16    1    1    2    0    0 -0.24073482854E+03  0.54420525126E+03 -0.61446096445E+03  0.85537996821E+03  0.00000000000E+00 0.  1.
         16    1    5    5    0    0 -0.30646389725E+01 -0.10762126084E+02  0.16217792435E+03  0.16256350918E+03  0.00000000000E+00 0. -1.
    9900018    1    1    2    0    0  0.23493489070E+02 -0.20561819010E+02 -0.59598606142E+02  0.11332212793E+03  0.91187600000E+02 0.  0.
<mgrwt>
<rscale>  0 0.26278620E+04</rscale>
<asrwt>0</asrwt>
<pdfrwt beam="1">  1        2 0.41494900E+00 0.26278620E+04</pdfrwt>
<pdfrwt beam="2">  1       -2 0.98474478E-01 0.26278620E+04</pdfrwt>
<totfact> 0.20147819E+00</totfact>
</mgrwt>
</event>
<event>
11    1  0.3808585E-015  0.2812789E+04  0.7818608E-02  0.8299309E-01
          2   -1    0    0  501    0  0.00000000000E+00  0.00000000000E+00  0.14117282986E+04  0.14117282986E+04  0.00000000000E+00 0. -1.
         -2   -1    0    0    0  501 -0.00000000000E+00 -0.00000000000E+00 -0.14010805396E+04  0.14010805396E+04  0.00000000000E+00 0.  1.
    9900016    2    1    2    0    0 -0.57181934427E+03 -0.39140092470E+03 -0.22200111029E+03  0.19787558226E+04  0.18401136015E+04 0.  0.
         24    2    3    3    0    0  0.17709789372E+03 -0.17569892934E+03 -0.90521477479E+03  0.94232671676E+03  0.79574335700E+02 0.  0.
        -15    1    4    4    0    0  0.27744510304E+02 -0.30576317891E+02 -0.20671750353E+03  0.21080036844E+03  0.00000000000E+00 0.  1.
        -15    1    4    4    0    0  0.27390209424E+02 -0.56476097972E+02 -0.19887470058E+03  0.20854476676E+03  0.00000000000E+00 0.  1.
         15    1    3    3    0    0 -0.74891723799E+03 -0.21570199536E+03  0.68321366450E+03  0.10364291059E+04  0.00000000000E+00 0. -1.
         15    1    4    4    0    0  0.46328688587E+02 -0.34019326094E+02 -0.13743000021E+03  0.14896532111E+03  0.00000000000E+00 0. -1.
        -16    1    1    2    0    0  0.21848618847E+03  0.29287916422E+01 -0.59218339261E+02  0.22638817124E+03  0.00000000000E+00 0.  1.
         16    1    4    4    0    0  0.75634485402E+02 -0.54627187382E+02 -0.36219257047E+03  0.37401626046E+03  0.00000000000E+00 0. -1.
    9900018    1    1    2    0    0  0.35333315581E+03  0.38847213305E+03  0.29186720861E+03  0.60766484431E+03  0.91187600000E+02 0.  0.
<mgrwt>
<rscale>  0 0.28127887E+04</rscale>
<asrwt>0</asrwt>
<pdfrwt beam="1">  1        2 0.21718897E+00 0.28127887E+04</pdfrwt>
<pdfrwt beam="2">  1       -2 0.21555085E+00 0.28127887E+04</pdfrwt>
<totfact> 0.13066641E+00</totfact>
</mgrwt>
</event>
<event>
11    1  0.3808585E-015  0.2958827E+04  0.7818608E-02  0.8255587E-01
         -2   -1    0    0    0  501 -0.00000000000E+00  0.00000000000E+00  0.85353341017E+03  0.85353341017E+03  0.00000000000E+00 0.  1.
          2   -1    0    0  501    0  0.00000000000E+00 -0.00000000000E+00 -0.25642389980E+04  0.25642389980E+04  0.00000000000E+00 0. -1.
    9900016    2    1    2    0    0  0.69346582342E+01 -0.57845178229E+03 -0.79766008297E+03  0.20933795402E+04  0.18469763771E+04 0.  0.
         24    2    3    3    0    0 -0.11880378024E+03  0.21097269328E+03  0.50446544560E+03  0.56546198695E+03  0.81474274269E+02 0.  0.
        -15    1    4    4    0    0 -0.29153478305E+02  0.44855941195E+02  0.66093326894E+02  0.85031221429E+02  0.00000000000E+00 0.  1.
        -15    1    4    4    0    0 -0.11076537059E+02  0.55347391640E+01  0.20175893535E+02  0.23672551421E+02  0.00000000000E+00 0.  1.
         15    1    4    4    0    0 -0.28681536073E+01  0.20959864948E+02  0.25333486226E+02  0.33004965810E+02  0.00000000000E+00 0. -1.
         15    1    3    3    0    0  0.12573843848E+03 -0.78942447558E+03 -0.13021255286E+04  0.15279175533E+04  0.00000000000E+00 0. -1.
        -16    1    1    2    0    0  0.30151871287E+03  0.55978934374E+03 -0.57253473809E+03  0.85561303748E+03  0.00000000000E+00 0.  1.
         16    1    4    4    0    0 -0.75705611271E+02  0.13962214797E+03  0.39286273894E+03  0.42375324829E+03  0.00000000000E+00 0. -1.
    9900018    1    1    2    0    0 -0.30845337110E+03  0.18662438550E+02 -0.34051076676E+03  0.46877983045E+03  0.91187600000E+02 0.  0.
<mgrwt>
<rscale>  0 0.29588266E+04</rscale>
<asrwt>0</asrwt>
<pdfrwt beam="1">  1        2 0.39449831E+00 0.29588266E+04</pdfrwt>
<pdfrwt beam="2">  1       -2 0.13131283E+00 0.29588266E+04</pdfrwt>
<totfact> 0.11610547E+00</totfact>
</mgrwt>
</event>
<event>
11    1  0.3808585E-015  0.2591589E+04  0.7818608E-02  0.8371064E-01
          1   -1    0    0  501    0  0.00000000000E+00  0.00000000000E+00  0.14521074027E+04  0.14521074027E+04  0.00000000000E+00 0.  1.
         -1   -1    0    0    0  501 -0.00000000000E+00 -0.00000000000E+00 -0.11563076127E+04  0.11563076127E+04  0.00000000000E+00 0. -1.
    9900016    2    1    2    0    0  0.12564039690E+03  0.15912974825E+03  0.39924203824E+03  0.19015457012E+04  0.18480730674E+04 0.  0.
        -24    2    3    3    0    0 -0.92791625792E+02  0.15129447970E+03 -0.72785209365E+03  0.75345375272E+03  0.80147251139E+02 0.  0.
        -15    1    3    3    0    0  0.21843202269E+03  0.78352685527E+01  0.11270941319E+04  0.11480919485E+04  0.00000000000E+00 0.  1.
        -15    1    4    4    0    0 -0.29888591587E+02  0.25786964382E+02 -0.94515770854E+02  0.10242815228E+03  0.00000000000E+00 0.  1.
         15    1    4    4    0    0 -0.10968544394E+01  0.27875709246E+02 -0.77069413658E+02  0.81963118396E+02  0.00000000000E+00 0. -1.
         15    1    4    4    0    0 -0.53032629531E+02  0.97591710541E+02 -0.52244481317E+03  0.53412094563E+03  0.00000000000E+00 0. -1.
        -16    1    4    4    0    0 -0.87735502346E+01  0.40095528038E-01 -0.33822095967E+02  0.34941536414E+02  0.00000000000E+00 0.  1.
         16    1    1    2    0    0 -0.11093852858E+03 -0.12631526772E+03 -0.37888353525E+03  0.41450649847E+03  0.00000000000E+00 0. -1.
    9900018    1    1    2    0    0 -0.14701868322E+02 -0.32814480526E+02  0.27544128704E+03  0.29236281580E+03  0.91187600000E+02 0.  0.
<mgrwt>
<rscale>  0 0.25915886E+04</rscale>
<asrwt>0</asrwt>
<pdfrwt beam="1">  1        1 0.22340114E+00 0.25915886E+04</pdfrwt>
<pdfrwt beam="2">  1       -1 0.17789348E+00 0.25915886E+04</pdfrwt>
<totfact> 0.13418037E+00</totfact>
</mgrwt>
</event>
<event>
12    1  0.3808585E-015  0.4420070E+04  0.7818608E-02  0.7924781E-01
         -1   -1    0    0    0  501 -0.00000000000E+00  0.00000000000E+00  0.23704252811E+04  0.23704252811E+04  0.00000000000E+00 0.  1.
          1   -1    0    0  501    0  0.00000000000E+00 -0.00000000000E+00 -0.20604974171E+04  0.20604974171E+04  0.00000000000E+00 0. -1.
    9900016    2    1    2    0    0  0.88554986294E+03  0.14949709580E+02 -0.43466849847E+03  0.20867710438E+04  0.18388188143E+04 0.  0.
         24    2    3    3    0    0 -0.38756750706E+03 -0.92316853981E+02 -0.67417626080E+03  0.78688723293E+03  0.77116228265E+02 0.  0.
         24    2    4    4    0    0 -0.29358327102E+03 -0.81824074664E+02 -0.50925340110E+03  0.59589725303E+03  0.53555517214E+02 0.  0.
        -15    1    4    4    0    0 -0.75204064606E+02 -0.47938056084E+01 -0.14244729887E+03  0.16115168277E+03  0.00000000000E+00 0.  1.
        -15    1    5    5    0    0 -0.28286876075E+02  0.61485624800E+01 -0.35122153386E+02  0.45513930144E+02  0.00000000000E+00 0.  1.
         15    1    3    3    0    0  0.12731173700E+04  0.10726656356E+03  0.23950776232E+03  0.12998838108E+04  0.00000000000E+00 0. -1.
         15    1    4    4    0    0 -0.18780171434E+02 -0.56989737085E+01 -0.22475560826E+02  0.29838297117E+02  0.00000000000E+00 0. -1.
        -16    1    1    2    0    0 -0.15393811981E+04 -0.15725799638E+03  0.51234295232E+03  0.16300060893E+04  0.00000000000E+00 0.  1.
         16    1    5    5    0    0 -0.26529639495E+03 -0.87972637144E+02 -0.47413124771E+03  0.55038332289E+03  0.00000000000E+00 0. -1.
    9900018    1    1    2    0    0  0.65383133512E+03  0.14230828680E+03  0.23225341013E+03  0.71414556512E+03  0.91187600000E+02 0.  0.
<mgrwt>
<rscale>  0 0.44200702E+04</rscale>
<asrwt>0</asrwt>
<pdfrwt beam="1">  1        1 0.31699960E+00 0.44200702E+04</pdfrwt>
<pdfrwt beam="2">  1       -1 0.36468081E+00 0.44200702E+04</pdfrwt>
<totfact> 0.25428282E-02</totfact>
</mgrwt>
</event>
<event>
11    1  0.3808585E-015  0.2964106E+04  0.7818608E-02  0.8254056E-01
          2   -1    0    0  501    0  0.00000000000E+00  0.00000000000E+00  0.22545776966E+04  0.22545776966E+04  0.00000000000E+00 0. -1.
         -2   -1    0    0    0  501 -0.00000000000E+00 -0.00000000000E+00 -0.97423151264E+03  0.97423151264E+03  0.00000000000E+00 0.  1.
    9900016    2    1    2    0    0 -0.74098980253E+03 -0.41374790584E+03  0.96692753663E+03  0.22431623775E+04  0.18375460194E+04 0.  0.
         24    2    3    3    0    0  0.55862862275E+02  0.13999633979E+03 -0.47535769285E+03  0.50483170058E+03  0.78552372546E+02 0.  0.
        -15    1    4    4    0    0  0.25727991824E+02  0.44659409123E+02 -0.12807839791E+03  0.13805965521E+03  0.00000000000E+00 0.  1.
        -15    1    4    4    0    0  0.10295686322E+02  0.34563743186E+02 -0.56963443160E+02  0.67420229579E+02  0.00000000000E+00 0. -1.
         15    1    3    3    0    0 -0.79685266481E+03 -0.55374424563E+03  0.14422852295E+04  0.17383306769E+04  0.00000000000E+00 0. -1.
         15    1    4    4    0    0  0.15965838344E+02  0.38876647778E+02 -0.24813153045E+03  0.25166556804E+03  0.00000000000E+00 0.  1.
        -16    1    1    2    0    0  0.32585476300E+03  0.32074424508E+03  0.13919378091E+02  0.45744064796E+03  0.00000000000E+00 0.  1.
         16    1    4    4    0    0  0.38733457853E+01  0.21896539700E+02 -0.42184321328E+02  0.47686247748E+02  0.00000000000E+00 0. -1.
    9900018    1    1    2    0    0  0.41513503954E+03  0.93003660764E+02  0.29949926924E+03  0.52820618383E+03  0.91187600000E+02 0.  0.
<mgrwt>
<rscale>  0 0.29641057E+04</rscale>
<asrwt>0</asrwt>
<pdfrwt beam="1">  1        2 0.34685811E+00 0.29641057E+04</pdfrwt>
<pdfrwt beam="2">  1       -2 0.14988177E+00 0.29641057E+04</pdfrwt>
<totfact> 0.12399172E+00</totfact>
</mgrwt>
</event>
<event>
12    1  0.3808585E-015  0.2444194E+04  0.7818608E-02  0.8423141E-01
          1   -1    0    0  501    0  0.00000000000E+00  0.00000000000E+00  0.18231404594E+04  0.18231404594E+04  0.00000000000E+00 0. -1.
         -1   -1    0    0    0  501 -0.00000000000E+00 -0.00000000000E+00 -0.81920209535E+03  0.81920209535E+03  0.00000000000E+00 0.  1.
    9900016    2    1    2    0    0 -0.77799767444E+02  0.70547549865E+02  0.11448506948E+04  0.21748778245E+04  0.18461800230E+04 0.  0.
         24    2    3    3    0    0 -0.38063140647E+02 -0.19535937347E+03 -0.48113514483E+03  0.52681367460E+03  0.80171894514E+02 0.  0.
         24    2    4    4    0    0 -0.22671136764E+02 -0.10452644198E+03 -0.29538888965E+03  0.31803485515E+03  0.49515810044E+02 0.  0.
        -15    1    4    4    0    0 -0.10777580827E+02 -0.65856451741E+02 -0.10764943639E+03  0.12665555511E+03  0.00000000000E+00 0.  1.
        -15    1    5    5    0    0  0.14103702231E+02 -0.24030601489E+02 -0.50990981956E+02  0.58107352937E+02  0.00000000000E+00 0. -1.
         15    1    4    4    0    0 -0.46144230562E+01 -0.24976479750E+02 -0.78096818792E+02  0.82123264342E+02  0.00000000000E+00 0.  1.
         15    1    3    3    0    0 -0.39736626797E+02  0.26590692334E+03  0.16259858396E+04  0.16480641499E+04  0.00000000000E+00 0. -1.
        -16    1    1    2    0    0  0.38303566097E+02  0.16725386578E+03 -0.11898796188E+03  0.20880410404E+03  0.00000000000E+00 0.  1.
         16    1    5    5    0    0 -0.36774838996E+02 -0.80495840493E+02 -0.24439790770E+03  0.25992750221E+03  0.00000000000E+00 0. -1.
    9900018    1    1    2    0    0  0.39496201347E+02 -0.23780141564E+03 -0.21924368905E+02  0.25866062620E+03  0.91187600000E+02 0.  0.
<mgrwt>
<rscale>  0 0.24441935E+04</rscale>
<asrwt>0</asrwt>
<pdfrwt beam="1">  1        1 0.28048315E+00 0.24441935E+04</pdfrwt>
<pdfrwt beam="2">  1       -1 0.12603109E+00 0.24441935E+04</pdfrwt>
<totfact> 0.19228726E+00</totfact>
</mgrwt>
</event>
<event>
11    1  0.3808585E-015  0.2203660E+04  0.7818608E-02  0.8516906E-01
         -2   -1    0    0    0  501 -0.00000000000E+00  0.00000000000E+00  0.45978126681E+03  0.45978126681E+03  0.00000000000E+00 0.  1.
          2   -1    0    0  501    0  0.00000000000E+00 -0.00000000000E+00 -0.26404499311E+04  0.26404499311E+04  0.00000000000E+00 0. -1.
    9900016    2    1    2    0    0  0.52709541549E+02  0.10082584556E+03 -0.15148332105E+04  0.23822236550E+04  0.18350274494E+04 0.  0.
         24    2    3    3    0    0  0.50472665919E+02 -0.29330349187E+03  0.35575328948E+03  0.47056552871E+03  0.79354177465E+02 0.  0.
        -15    1    4    4    0    0 -0.11539277947E+02 -0.62237243475E+02  0.54678888942E+02  0.83644547383E+02  0.00000000000E+00 0.  1.
        -15    1    4    4    0    0  0.61017532671E+01 -0.90099557732E+01  0.80968962481E+01  0.13563569767E+02  0.00000000000E+00 0. -1.
         15    1    3    3    0    0  0.22368756307E+01  0.39412933744E+03 -0.18705864999E+04  0.19116581263E+04  0.00000000000E+00 0. -1.
         15    1    4    4    0    0  0.20165976471E+02 -0.14607777536E+03  0.18704585766E+03  0.23818382801E+03  0.00000000000E+00 0.  1.
        -16    1    1    2    0    0  0.57465873435E+01 -0.11270834648E+03 -0.13431619025E+03  0.17543384393E+03  0.00000000000E+00 0.  1.
         16    1    4    4    0    0  0.35744214128E+02 -0.75978517270E+02  0.10593164663E+03  0.13517358354E+03  0.00000000000E+00 0. -1.
    9900018    1    1    2    0    0 -0.58456128893E+02  0.11882500918E+02 -0.53151926360E+03  0.54257369897E+03  0.91187600000E+02 0.  0.
<mgrwt>
<rscale>  0 0.22036601E+04</rscale>
<asrwt>0</asrwt>
<pdfrwt beam="1">  1        2 0.40622306E+00 0.22036601E+04</pdfrwt>
<pdfrwt beam="2">  1       -2 0.70735580E-01 0.22036601E+04</pdfrwt>
<totfact> 0.47839482E+00</totfact>
</mgrwt>
</event>
<event>
11    1  0.3808585E-015  0.2529721E+04  0.7818608E-02  0.8392473E-01
         -2   -1    0    0    0  501 -0.00000000000E+00  0.00000000000E+00  0.61832536834E+03  0.61832536834E+03  0.00000000000E+00 0.  1.
          2   -1    0    0  501    0  0.00000000000E+00 -0.00000000000E+00 -0.25874269679E+04  0.25874269679E+04  0.00000000000E+00 0. -1.
    9900016    2    1    2    0    0  0.44344093754E+03 -0.31527558797E+03 -0.15576703216E+04  0.24564952328E+04  0.18198883034E+04 0.  0.
         24    2    3    3    0    0 -0.79278032849E+02 -0.19102822120E+02  0.39630477072E+03  0.41224180173E+03  0.78967762363E+02 0.  0.
        -15    1    4    4    0    0 -0.50550181551E+02  0.14501723288E+02  0.19926106821E+03  0.20608394925E+03  0.00000000000E+00 0.  1.
        -15    1    4    4    0    0  0.84794555742E+00 -0.12961112452E+02  0.18690398061E+02  0.22760501474E+02  0.00000000000E+00 0.  1.
         15    1    4    4    0    0 -0.19016381714E+02 -0.18507247912E+02  0.15942152850E+03  0.16161486549E+03  0.00000000000E+00 0. -1.
         15    1    3    3    0    0  0.52271897038E+03 -0.29617276585E+03 -0.19539750923E+04  0.20442534311E+04  0.00000000000E+00 0. -1.
        -16    1    1    2    0    0 -0.33005929262E+03  0.23431067767E+03 -0.13526288161E+03  0.42677473854E+03  0.00000000000E+00 0.  1.
         16    1    4    4    0    0 -0.10559415142E+02 -0.21361850440E+01  0.18931775945E+02  0.21782485512E+02  0.00000000000E+00 0. -1.
    9900018    1    1    2    0    0 -0.11338164491E+03  0.80964910308E+02 -0.27616839638E+03  0.32248236487E+03  0.91187600000E+02 0.  0.
<mgrwt>
<rscale>  0 0.25297207E+04</rscale>
<asrwt>0</asrwt>
<pdfrwt beam="1">  1        2 0.39806569E+00 0.25297207E+04</pdfrwt>
<pdfrwt beam="2">  1       -2 0.95126980E-01 0.25297207E+04</pdfrwt>
<totfact> 0.25582664E+00</totfact>
</mgrwt>
</event>
<event>
11    1  0.3808585E-015  0.3136322E+04  0.7818608E-02  0.8205840E-01
         -1   -1    0    0    0  501 -0.00000000000E+00  0.00000000000E+00  0.20742053086E+04  0.20742053086E+04  0.00000000000E+00 0.  1.
          1   -1    0    0  501    0  0.00000000000E+00 -0.00000000000E+00 -0.11855767776E+04  0.11855767776E+04  0.00000000000E+00 0. -1.
    9900016    2    1    2    0    0  0.50947308907E+03 -0.59499206468E+03  0.59441606605E+03  0.20919610909E+04  0.18464539964E+04 0.  0.
         24    2    3    3    0    0 -0.68463599620E+02 -0.38560955122E+03  0.11782266492E+04  0.12442072056E+04  0.80321497588E+02 0.  0.
        -15    1    4    4    0    0 -0.18206201794E+02 -0.39239784247E+02  0.11835255378E+03  0.12601013228E+03  0.00000000000E+00 0.  1.
        -15    1    4    4    0    0 -0.13792938908E+02 -0.29236826766E+02  0.14056067861E+03  0.14423016874E+03  0.00000000000E+00 0.  1.
         15    1    3    3    0    0  0.57793668869E+03 -0.20938251346E+03 -0.58381058318E+03  0.84775388534E+03  0.00000000000E+00 0. -1.
         15    1    4    4    0    0  0.38203820254E+01 -0.27386121837E+02  0.56348788071E+02  0.62767674046E+02  0.00000000000E+00 0. -1.
        -16    1    1    2    0    0 -0.97801507539E+02  0.33041799527E+03  0.51792083304E+03  0.62207971818E+03  0.00000000000E+00 0.  1.
         16    1    4    4    0    0 -0.40284840944E+02 -0.28974681837E+03  0.86296462877E+03  0.91119923051E+03  0.00000000000E+00 0. -1.
    9900018    1    1    2    0    0 -0.41167158153E+03  0.26457406941E+03 -0.22370836808E+03  0.54574127715E+03  0.91187600000E+02 0.  0.
<mgrwt>
<rscale>  0 0.31363225E+04</rscale>
<asrwt>0</asrwt>
<pdfrwt beam="1">  1        1 0.18239643E+00 0.31363225E+04</pdfrwt>
<pdfrwt beam="2">  1       -1 0.31910851E+00 0.31363225E+04</pdfrwt>
<totfact> 0.22842471E-01</totfact>
</mgrwt>
</event>
<event>
11    1  0.3808585E-015  0.4465357E+04  0.7818608E-02  0.7916730E-01
          2   -1    0    0  501    0  0.00000000000E+00  0.00000000000E+00  0.20055434875E+04  0.20055434875E+04  0.00000000000E+00 0. -1.
         -2   -1    0    0    0  501 -0.00000000000E+00 -0.00000000000E+00 -0.24855375677E+04  0.24855375677E+04  0.00000000000E+00 0.  1.
    9900016    2    1    2    0    0 -0.12978382866E+04  0.22139129534E+03 -0.66518174079E+03  0.23601194893E+04  0.18423623237E+04 0.  0.
        -24    2    3    3    0    0  0.27099606680E+03 -0.97795626191E+02 -0.69747377268E+03  0.75881867604E+03  0.79581824595E+02 0.  0.
        -15    1    3    3    0    0 -0.15688343534E+04  0.31918692153E+03  0.32292031890E+02  0.16013008133E+04  0.00000000000E+00 0.  1.
        -15    1    4    4    0    0  0.83034427782E+02 -0.26375505172E+02 -0.14116865095E+03  0.16588843082E+03  0.00000000000E+00 0.  1.
         15    1    4    4    0    0  0.11940113436E+02 -0.60231185042E+01 -0.33535325613E+02  0.36103494697E+02  0.00000000000E+00 0. -1.
         15    1    4    4    0    0  0.33112103774E+02 -0.16663165876E+02 -0.15280538514E+03  0.15723726734E+03  0.00000000000E+00 0. -1.
        -16    1    4    4    0    0  0.14290942180E+03 -0.48733836639E+02 -0.36996441098E+03  0.39958948318E+03  0.00000000000E+00 0.  1.
         16    1    1    2    0    0  0.16548157543E+04  0.23537712395E+01 -0.16855784915E+02  0.16549032716E+04  0.00000000000E+00 0. -1.
    9900018    1    1    2    0    0 -0.35697746770E+03 -0.22374506658E+03  0.20204344549E+03  0.47605829425E+03  0.91187600000E+02 0.  0.
<mgrwt>
<rscale>  0 0.44653572E+04</rscale>
<asrwt>0</asrwt>
<pdfrwt beam="1">  1        2 0.30854515E+00 0.44653572E+04</pdfrwt>
<pdfrwt beam="2">  1       -2 0.38239040E+00 0.44653572E+04</pdfrwt>
<totfact> 0.48703813E-02</totfact>
</mgrwt>
</event>
