<event>
13    1  0.6692978E-009  0.5385146E+04  0.7818608E-02  0.7771694E-01
          2   -1    0    0  501    0  0.00000000000E+00  0.00000000000E+00  0.34139037535E+04  0.34139037535E+04  0.00000000000E+00 0.  1.
         -2   -1    0    0    0  501 -0.00000000000E+00 -0.00000000000E+00 -0.21236540249E+04  0.21236540249E+04  0.00000000000E+00 0. -1.
    9900016    2    1    2    0    0 -0.14654647464E+04 -0.52385136677E+03  0.63381806122E+03  0.27669784412E+04  0.21982805058E+04 0.  0.
         23    2    3    3    0    0  0.29121746443E+03  0.50667641303E+03  0.40202598611E+03  0.71718638816E+03  0.10584338785E+03 0.  0.
    9900016    2    1    2    0    0  0.14654647464E+04  0.52385136677E+03  0.65643166740E+03  0.27705793371E+04  0.21961785337E+04 0.  0.
         23    2    5    5    0    0 -0.27560565222E+03  0.70496041141E+02  0.33127547358E+03  0.44605092639E+03  0.91048460616E+02 0.  0.
        -15    1    4    4    0    0  0.59196153558E+02  0.94294342871E+02  0.13088605894E+03  0.17183354771E+03  0.00000000000E+00 0.  1.
        -15    1    6    6    0    0 -0.10386346893E+03  0.61898564849E+02  0.94687795219E+02  0.15357353636E+03  0.00000000000E+00 0. -1.
         15    1    4    4    0    0  0.23202131087E+03  0.41238207016E+03  0.27113992717E+03  0.54535284045E+03  0.00000000000E+00 0. -1.
         15    1    6    6    0    0 -0.17174218330E+03  0.85974762922E+01  0.23658767836E+03  0.29247739003E+03  0.00000000000E+00 0.  1.
        -16    1    3    3    0    0 -0.17566822108E+04 -0.10305277798E+04  0.23179207511E+03  0.20497920531E+04  0.00000000000E+00 0.  1.
         16    1    5    5    0    0  0.86052186552E+03  0.78344394707E+03  0.64067824617E+03  0.13284392776E+04  0.00000000000E+00 0. -1.
    9900018    1    5    5    0    0  0.88054853311E+03 -0.33008862144E+03 -0.31552205235E+03  0.99608913309E+03  0.91187600000E+02 0.  0.
<mgrwt>
<rscale>  0 0.53851464E+04</rscale>
<asrwt>0</asrwt>
<pdfrwt beam="1">  1        2 0.52521596E+00 0.53851464E+04</pdfrwt>
<pdfrwt beam="2">  1       -2 0.32671600E+00 0.53851464E+04</pdfrwt>
<totfact> 0.14306898E-02</totfact>
</mgrwt>
</event>
<event>
12    1  0.6692978E-009  0.5361813E+04  0.7818608E-02  0.7774995E-01
          2   -1    0    0  501    0  0.00000000000E+00  0.00000000000E+00  0.34224867550E+04  0.34224867550E+04  0.00000000000E+00 0.  1.
         -2   -1    0    0    0  501 -0.00000000000E+00 -0.00000000000E+00 -0.21000112599E+04  0.21000112599E+04  0.00000000000E+00 0. -1.
    9900016    2    1    2    0    0  0.84451164924E+03  0.95747145890E+03 -0.20129212913E+03  0.25507084222E+04  0.21990096438E+04 0.  0.
    9900016    2    1    2    0    0 -0.84451164924E+03 -0.95747145890E+03  0.15237676243E+04  0.29717895928E+04  0.22090074900E+04 0.  0.
         23    2    4    4    0    0 -0.25935686584E+03 -0.31119146083E+03 -0.34417412438E+03  0.53940913112E+03  0.91653007011E+02 0.  0.
        -15    1    3    3    0    0 -0.10442574989E+02 -0.23241271927E+03  0.75979572625E+02  0.24473989234E+03  0.00000000000E+00 0.  1.
        -15    1    5    5    0    0 -0.80151297251E+02 -0.66203366119E+02 -0.45200828836E+02  0.11335885966E+03  0.00000000000E+00 0. -1.
         15    1    5    5    0    0 -0.17920556859E+03 -0.24498809471E+03 -0.29897329554E+03  0.42605027146E+03  0.00000000000E+00 0.  1.
         15    1    3    3    0    0  0.14279603719E+02 -0.44755842402E+03 -0.78697743304E+02  0.45464907873E+03  0.00000000000E+00 0. -1.
        -16    1    3    3    0    0  0.84067462051E+03  0.16374426022E+04 -0.19857395846E+03  0.18513194511E+04  0.00000000000E+00 0.  1.
         16    1    4    4    0    0 -0.40657504559E+03  0.23895634120E+03  0.12455109139E+04  0.13318036031E+04  0.00000000000E+00 0. -1.
    9900018    1    4    4    0    0 -0.17857973781E+03 -0.88523633927E+03  0.62243083473E+03  0.11005768585E+04  0.91187600000E+02 0.  0.
<mgrwt>
<rscale>  0 0.53618134E+04</rscale>
<asrwt>0</asrwt>
<pdfrwt beam="1">  1        2 0.52653642E+00 0.53618134E+04</pdfrwt>
<pdfrwt beam="2">  1       -2 0.32307866E+00 0.53618134E+04</pdfrwt>
<totfact> 0.14893193E-02</totfact>
</mgrwt>
</event>
<event>
12    1  0.6692978E-009  0.5046456E+04  0.7818608E-02  0.7821381E-01
          2   -1    0    0  501    0  0.00000000000E+00  0.00000000000E+00  0.25539406167E+04  0.25539406167E+04  0.00000000000E+00 0. -1.
         -2   -1    0    0    0  501 -0.00000000000E+00 -0.00000000000E+00 -0.24928846546E+04  0.24928846546E+04  0.00000000000E+00 0.  1.
    9900016    2    1    2    0    0  0.10698672832E+03  0.11849438632E+04  0.31758454192E+03  0.25182211151E+04  0.21965972604E+04 0.  0.
    9900016    2    1    2    0    0 -0.10698672832E+03 -0.11849438632E+04 -0.25652857986E+03  0.25286041561E+04  0.22164146605E+04 0.  0.
         23    2    4    4    0    0 -0.82867940984E+02 -0.41003862686E+03 -0.63801681225E+03  0.76858288150E+03  0.93034519737E+02 0.  0.
        -15    1    3    3    0    0  0.63278468503E+03  0.61580220962E+02 -0.58017011216E+03  0.86070084249E+03  0.00000000000E+00 0.  1.
        -15    1    5    5    0    0 -0.78584504895E+02 -0.39506748347E+03 -0.56477233576E+03  0.69370139984E+03  0.00000000000E+00 0.  1.
         15    1    5    5    0    0 -0.42834360893E+01 -0.14971143390E+02 -0.73244476484E+02  0.74881481653E+02  0.00000000000E+00 0. -1.
         15    1    3    3    0    0  0.74712905061E+02  0.58859192516E+02 -0.53164517788E+02  0.10896278575E+03  0.00000000000E+00 0. -1.
        -16    1    4    4    0    0  0.49345101095E+03  0.18785438190E+03  0.40096347724E+03  0.66298935066E+03  0.00000000000E+00 0.  1.
         16    1    3    3    0    0 -0.60051086176E+03  0.10645044498E+04  0.95091917188E+03  0.15485574869E+04  0.00000000000E+00 0. -1.
    9900018    1    4    4    0    0 -0.51756979829E+03 -0.96275961829E+03 -0.19475244853E+02  0.10970319240E+04  0.91187600000E+02 0.  0.
<mgrwt>
<rscale>  0 0.50464559E+04</rscale>
<asrwt>0</asrwt>
<pdfrwt beam="1">  1        2 0.39291394E+00 0.50464559E+04</pdfrwt>
<pdfrwt beam="2">  1       -2 0.38352072E+00 0.50464559E+04</pdfrwt>
<totfact> 0.22326589E-02</totfact>
</mgrwt>
</event>
<event>
13    1  0.6692978E-009  0.5888298E+04  0.7818608E-02  0.7704408E-01
         -2   -1    0    0    0  501 -0.00000000000E+00  0.00000000000E+00  0.32937649432E+04  0.32937649432E+04  0.00000000000E+00 0.  1.
          2   -1    0    0  501    0  0.00000000000E+00 -0.00000000000E+00 -0.26316425449E+04  0.26316425449E+04  0.00000000000E+00 0. -1.
    9900016    2    1    2    0    0 -0.13167351381E+04 -0.80795441208E+03 -0.85585936579E+03  0.28200319032E+04  0.21985228962E+04 0.  0.
         23    2    3    3    0    0  0.61360965858E+03 -0.27396563878E+03 -0.20167024937E+03  0.71305813876E+03  0.12730685541E+03 0.  0.
    9900016    2    1    2    0    0  0.13167351381E+04  0.80795441208E+03  0.15179817640E+04  0.31053755849E+04  0.22254229107E+04 0.  0.
         23    2    5    5    0    0 -0.36028142315E+03 -0.18477513734E+03  0.50100830450E+03  0.65161942174E+03  0.98254742235E+02 0.  0.
        -15    1    6    6    0    0 -0.14528812669E+03 -0.35829696196E+02  0.23476264346E+03  0.27839882481E+03  0.00000000000E+00 0.  1.
        -15    1    4    4    0    0  0.11696832245E+03 -0.42262561007E+02 -0.90635497417E+02  0.15389121454E+03  0.00000000000E+00 0.  1.
         15    1    4    4    0    0  0.49664133613E+03 -0.23170307777E+03 -0.11103475195E+03  0.55916692422E+03  0.00000000000E+00 0. -1.
         15    1    6    6    0    0 -0.21499329646E+03 -0.14894544114E+03  0.26624566104E+03  0.37322059694E+03  0.00000000000E+00 0. -1.
        -16    1    3    3    0    0 -0.19303447967E+04 -0.53398877330E+03 -0.65418911642E+03  0.21069737644E+04  0.00000000000E+00 0.  1.
         16    1    5    5    0    0  0.12715520793E+04  0.12155794004E+04  0.75483893706E+03  0.19142256372E+04  0.00000000000E+00 0. -1.
    9900018    1    5    5    0    0  0.40546448192E+03 -0.22284985102E+03  0.26213452249E+03  0.53953052599E+03  0.91187600000E+02 0.  0.
<mgrwt>
<rscale>  0 0.58882975E+04</rscale>
<asrwt>0</asrwt>
<pdfrwt beam="1">  1        2 0.40486808E+00 0.58882975E+04</pdfrwt>
<pdfrwt beam="2">  1       -2 0.50673307E+00 0.58882975E+04</pdfrwt>
<totfact> 0.30038670E-03</totfact>
</mgrwt>
</event>
<event>
13    1  0.6692978E-009  0.4592970E+04  0.7818608E-02  0.7894560E-01
         -2   -1    0    0    0  501 -0.00000000000E+00  0.00000000000E+00  0.24391179799E+04  0.24391179799E+04  0.00000000000E+00 0.  1.
          2   -1    0    0  501    0  0.00000000000E+00 -0.00000000000E+00 -0.21621930253E+04  0.21621930253E+04  0.00000000000E+00 0. -1.
    9900016    2    1    2    0    0  0.20558425947E+03  0.18036193988E+03  0.74249640776E+03  0.23384939846E+04  0.22005585390E+04 0.  0.
         23    2    3    3    0    0 -0.34581136287E+02  0.18961825011E+03 -0.77285840955E+03  0.80419762508E+03  0.11078250409E+03 0.  0.
    9900016    2    1    2    0    0 -0.20558425947E+03 -0.18036193988E+03 -0.46557145319E+03  0.22628170206E+04  0.21974505168E+04 0.  0.
         23    2    5    5    0    0  0.10999054541E+03  0.30972254336E+03  0.53856457184E+03  0.63719979035E+03  0.89139221673E+02 0.  0.
        -15    1    6    6    0    0  0.73614703186E+02  0.16508992816E+03  0.21479065547E+03  0.28072911246E+03  0.00000000000E+00 0.  1.
        -15    1    4    4    0    0 -0.59919514672E+02  0.43709456852E+02 -0.24960366666E+03  0.26038981406E+03  0.00000000000E+00 0. -1.
         15    1    6    6    0    0  0.36375842226E+02  0.14463261520E+03  0.32377391637E+03  0.35647067790E+03  0.00000000000E+00 0. -1.
         15    1    4    4    0    0  0.25338378386E+02  0.14590879326E+03 -0.52325474289E+03  0.54380781102E+03  0.00000000000E+00 0.  1.
        -16    1    3    3    0    0  0.24016539575E+03 -0.92563102312E+01  0.15153548173E+04  0.15342963596E+04  0.00000000000E+00 0.  1.
         16    1    5    5    0    0 -0.23854790807E+03  0.24453969595E+03 -0.77488963422E+03  0.84685223774E+03  0.00000000000E+00 0. -1.
    9900018    1    5    5    0    0 -0.77026896808E+02 -0.73462417918E+03 -0.22924639081E+03  0.77876499251E+03  0.91187600000E+02 0.  0.
<mgrwt>
<rscale>  0 0.45929702E+04</rscale>
<asrwt>0</asrwt>
<pdfrwt beam="1">  1        2 0.33264508E+00 0.45929702E+04</pdfrwt>
<pdfrwt beam="2">  1       -2 0.37524892E+00 0.45929702E+04</pdfrwt>
<totfact> 0.43816816E-02</totfact>
</mgrwt>
</event>
<event>
13    1  0.6692978E-009  0.5597167E+04  0.7818608E-02  0.7742459E-01
         -2   -1    0    0    0  501 -0.00000000000E+00  0.00000000000E+00  0.17799968208E+04  0.17799968208E+04  0.00000000000E+00 0.  1.
          2   -1    0    0  501    0  0.00000000000E+00 -0.00000000000E+00 -0.44000466364E+04  0.44000466364E+04  0.00000000000E+00 0. -1.
    9900016    2    1    2    0    0 -0.77551411048E+03 -0.15289495006E+04 -0.10379894239E+04  0.29740583802E+04  0.21973831013E+04 0.  0.
         23    2    3    3    0    0  0.35324189795E+03 -0.36823504236E+02  0.45018116495E+03  0.58341373551E+03  0.10757646850E+03 0.  0.
    9900016    2    1    2    0    0  0.77551411048E+03  0.15289495006E+04 -0.15820603916E+04  0.32059850770E+04  0.21991626861E+04 0.  0.
         23    2    5    5    0    0 -0.24752090282E+03  0.91903766358E+01  0.31968855438E+03  0.41444127701E+03  0.90607615182E+02 0.  0.
        -15    1    6    6    0    0 -0.20504920712E+03  0.28158790340E+02  0.20789657988E+03  0.29335828392E+03  0.00000000000E+00 0.  1.
        -15    1    4    4    0    0  0.25264428554E+03  0.95244414752E+01  0.25559020603E+03  0.35950828005E+03  0.00000000000E+00 0. -1.
         15    1    4    4    0    0  0.10059761241E+03 -0.46347945711E+02  0.19459095892E+03  0.22390545547E+03  0.00000000000E+00 0.  1.
         15    1    6    6    0    0 -0.42471695700E+02 -0.18968413704E+02  0.11179197449E+03  0.12108299309E+03  0.00000000000E+00 0. -1.
        -16    1    3    3    0    0 -0.11287560084E+04 -0.14921259963E+04 -0.14881705889E+04  0.23906446447E+04  0.00000000000E+00 0.  1.
         16    1    5    5    0    0  0.26782798456E+03  0.11004387310E+04 -0.13515332335E+04  0.17633318778E+04  0.00000000000E+00 0. -1.
    9900018    1    5    5    0    0  0.75520702875E+03  0.41932039298E+03 -0.55021571247E+03  0.10282119222E+04  0.91187600000E+02 0.  0.
<mgrwt>
<rscale>  0 0.55971668E+04</rscale>
<asrwt>0</asrwt>
<pdfrwt beam="1">  1        2 0.67693025E+00 0.55971668E+04</pdfrwt>
<pdfrwt beam="2">  1       -2 0.27384567E+00 0.55971668E+04</pdfrwt>
<totfact> 0.48466086E-03</totfact>
</mgrwt>
</event>
<event>
12    1  0.6692978E-009  0.5092973E+04  0.7818608E-02  0.7814323E-01
          2   -1    0    0  501    0  0.00000000000E+00  0.00000000000E+00  0.26945668363E+04  0.26945668363E+04  0.00000000000E+00 0.  1.
         -2   -1    0    0    0  501 -0.00000000000E+00 -0.00000000000E+00 -0.24065443933E+04  0.24065443933E+04  0.00000000000E+00 0. -1.
    9900016    2    1    2    0    0 -0.71830146176E+03 -0.10019692440E+04  0.36596063764E+03  0.25601776023E+04  0.22137485880E+04 0.  0.
    9900016    2    1    2    0    0  0.71830146176E+03  0.10019692440E+04 -0.77938194682E+02  0.25409336273E+04  0.22204436450E+04 0.  0.
         23    2    4    4    0    0 -0.37571088184E+03 -0.61179291274E+02  0.28110532539E+03  0.48180672313E+03  0.90641834029E+02 0.  0.
        -15    1    5    5    0    0 -0.14006476473E+03 -0.46886841077E+02  0.63634617710E+02  0.16082872491E+03  0.00000000000E+00 0.  1.
        -15    1    3    3    0    0 -0.46206304696E+02 -0.13357533020E+03 -0.20793188640E+03  0.25142207703E+03  0.00000000000E+00 0.  1.
         15    1    3    3    0    0 -0.24538033927E+03 -0.21059164837E+03 -0.72370464385E+03  0.79265929932E+03  0.00000000000E+00 0. -1.
         15    1    5    5    0    0 -0.23564611711E+03 -0.14292450197E+02  0.21747070768E+03  0.32097799822E+03  0.00000000000E+00 0. -1.
        -16    1    4    4    0    0  0.51292026837E+03 -0.62277367062E+02 -0.57278696514E+03  0.77139521620E+03  0.00000000000E+00 0.  1.
         16    1    3    3    0    0 -0.42671481780E+03 -0.65780226545E+03  0.12975971679E+04  0.15160962259E+04  0.00000000000E+00 0. -1.
    9900018    1    4    4    0    0  0.58109207524E+03  0.11254259024E+04  0.21374344506E+03  0.12877316880E+04  0.91187600000E+02 0.  0.
<mgrwt>
<rscale>  0 0.50929735E+04</rscale>
<asrwt>0</asrwt>
<pdfrwt beam="1">  1        2 0.41454874E+00 0.50929735E+04</pdfrwt>
<pdfrwt beam="2">  1       -2 0.37023760E+00 0.50929735E+04</pdfrwt>
<totfact> 0.22372733E-02</totfact>
</mgrwt>
</event>
