<event>
11    1  0.1839037E-014  0.8652609E+03  0.7818608E-02  0.9470080E-01
         -2   -1    0    0    0  501 -0.00000000000E+00  0.00000000000E+00  0.64346138419E+03  0.64346138419E+03  0.00000000000E+00 0.  1.
          2   -1    0    0  501    0  0.00000000000E+00 -0.00000000000E+00 -0.29087857060E+03  0.29087857060E+03  0.00000000000E+00 0. -1.
    9900016    2    1    2    0    0  0.65273475954E+02 -0.28990989474E+02  0.28920641073E+03  0.83885345013E+03  0.78417705823E+03 0.  0.
         23    2    3    3    0    0  0.39834217101E+02 -0.14816931239E+02  0.30265386303E+01  0.12322528509E+03  0.11562441198E+03 0.  0.
        -15    1    4    4    0    0 -0.32165564910E+02  0.62175310940E+01  0.29094543194E+02  0.43815222269E+02  0.00000000000E+00 0.  1.
        -15    1    3    3    0    0  0.10372318330E+02  0.66182383808E+02  0.16087624774E+03  0.17426663479E+03  0.00000000000E+00 0.  1.
         15    1    4    4    0    0  0.71999782010E+02 -0.21034462333E+02 -0.26068004563E+02  0.79410062820E+02  0.00000000000E+00 0. -1.
         15    1    3    3    0    0 -0.81518831642E+02  0.58281087273E+02 -0.47648593814E+02  0.11096122538E+03  0.00000000000E+00 0. -1.
        -16    1    1    2    0    0 -0.65273475954E+02  0.28990989474E+02  0.63376402858E+02  0.95486504665E+02  0.00000000000E+00 0.  1.
         16    1    3    3    0    0  0.40635033985E+02 -0.17721349773E+03  0.23791153517E+03  0.29942900382E+03  0.00000000000E+00 0. -1.
    9900018    1    3    3    0    0  0.55950738179E+02  0.38575968413E+02 -0.64959316987E+02  0.13097130105E+03  0.91187600000E+02 0.  0.
<mgrwt>
<rscale>  0 0.86526095E+03</rscale>
<asrwt>0</asrwt>
<pdfrwt beam="1">  1        2 0.44750549E-01 0.86526095E+03</pdfrwt>
<pdfrwt beam="2">  1       -2 0.98994059E-01 0.86526095E+03</pdfrwt>
<totfact> 0.96605675E+01</totfact>
</mgrwt>
</event>
<event>
11    1  0.1839037E-014  0.1467216E+04  0.7818608E-02  0.8906552E-01
         -1   -1    0    0    0  501 -0.00000000000E+00  0.00000000000E+00  0.44718920370E+03  0.44718920370E+03  0.00000000000E+00 0.  1.
          1   -1    0    0  501    0  0.00000000000E+00 -0.00000000000E+00 -0.12034738523E+04  0.12034738523E+04  0.00000000000E+00 0. -1.
    9900016    2    1    2    0    0  0.29034784716E+03 -0.18990094820E+03 -0.69517477443E+02  0.88123899226E+03  0.80708440657E+03 0.  0.
         23    2    3    3    0    0 -0.58602754861E+01  0.19973065485E+03 -0.15250286891E+03  0.26018217943E+03  0.67163711548E+02 0.  0.
        -15    1    4    4    0    0  0.13735747649E+01  0.64445074112E+02 -0.90700121639E+02  0.11127248694E+03  0.00000000000E+00 0.  1.
        -15    1    3    3    0    0  0.12337043377E+03 -0.72212862919E+02  0.74972596410E+02  0.16141825087E+03  0.00000000000E+00 0. -1.
         15    1    3    3    0    0  0.32476519849E+02  0.39190774818E+02 -0.18163214750E+02  0.54042053461E+02  0.00000000000E+00 0.  1.
         15    1    4    4    0    0 -0.72338502510E+01  0.13528558074E+03 -0.61802747274E+02  0.14890969249E+03  0.00000000000E+00 0. -1.
        -16    1    3    3    0    0 -0.34379562239E+01 -0.74643214383E+02 -0.39787834276E+01  0.74828201328E+02  0.00000000000E+00 0.  1.
         16    1    1    2    0    0 -0.29034784716E+03  0.18990094820E+03 -0.68676717116E+03  0.76942406374E+03  0.00000000000E+00 0. -1.
    9900018    1    3    3    0    0  0.14379912524E+03 -0.28196630057E+03  0.30154793238E+02  0.33076830717E+03  0.91187600000E+02 0.  0.
<mgrwt>
<rscale>  0 0.14672157E+04</rscale>
<asrwt>0</asrwt>
<pdfrwt beam="1">  1        1 0.18514982E+00 0.14672157E+04</pdfrwt>
<pdfrwt beam="2">  1       -1 0.68798339E-01 0.14672157E+04</pdfrwt>
<totfact> 0.22028784E+01</totfact>
</mgrwt>
</event>
<event>
10    1  0.1839037E-014  0.1001877E+04  0.7818608E-02  0.9306489E-01
          2   -1    0    0  501    0  0.00000000000E+00  0.00000000000E+00  0.31280579561E+03  0.31280579561E+03  0.00000000000E+00 0. -1.
         -2   -1    0    0    0  501 -0.00000000000E+00 -0.00000000000E+00 -0.80222095014E+03  0.80222095014E+03  0.00000000000E+00 0.  1.
    9900016    2    1    2    0    0 -0.38142199206E+02  0.47531736006E+02 -0.15552461092E+03  0.65373652276E+03  0.63203595095E+03 0.  0.
        -15    1    3    3    0    0 -0.12776180423E+03  0.39830432821E+01  0.59425034475E+02  0.14096197352E+03  0.00000000000E+00 0.  1.
        -15    1    3    3    0    0 -0.71823211328E+02  0.85323999367E+02  0.26842723326E+02  0.11471395011E+03  0.00000000000E+00 0. -1.
         15    1    3    3    0    0  0.79768771141E+02 -0.55725295229E+02 -0.18672859385E+03  0.21056099624E+03  0.00000000000E+00 0. -1.
         15    1    3    3    0    0 -0.20746247612E+02  0.54283854197E+02 -0.51048318991E+02  0.77350336058E+02  0.00000000000E+00 0.  1.
        -16    1    1    2    0    0  0.35156785214E+02  0.11423086345E+03 -0.19758117104E+03  0.23091775345E+03  0.00000000000E+00 0.  1.
         16    1    3    3    0    0  0.10242029283E+03 -0.40333865610E+02 -0.40154558831E+01  0.11014926683E+03  0.00000000000E+00 0. -1.
    9900018    1    1    2    0    0  0.29854139918E+01 -0.16176259945E+03 -0.13630937256E+03  0.23037246954E+03  0.91187600000E+02 0.  0.
<mgrwt>
<rscale>  0 0.10018770E+04</rscale>
<asrwt>0</asrwt>
<pdfrwt beam="1">  1        2 0.48123968E-01 0.10018770E+04</pdfrwt>
<pdfrwt beam="2">  1       -2 0.12341861E+00 0.10018770E+04</pdfrwt>
<totfact> 0.51757792E+01</totfact>
</mgrwt>
</event>
<event>
11    1  0.1839037E-014  0.8114047E+03  0.7818608E-02  0.9543654E-01
          2   -1    0    0  501    0  0.00000000000E+00  0.00000000000E+00  0.99342305214E+03  0.99342305214E+03  0.00000000000E+00 0.  1.
         -2   -1    0    0    0  501 -0.00000000000E+00 -0.00000000000E+00 -0.16568410002E+03  0.16568410002E+03  0.00000000000E+00 0. -1.
    9900016    2    1    2    0    0  0.18043451839E+02  0.13275908534E+03  0.76412371791E+03  0.10107918161E+04  0.64796951955E+03 0.  0.
         23    2    3    3    0    0 -0.53451501696E+02 -0.25727810956E+02  0.11098645259E+03  0.14776004896E+03  0.77434205103E+02 0.  0.
        -15    1    4    4    0    0 -0.50858319796E+02 -0.36543484530E+02  0.11871183065E+03  0.13421808258E+03  0.00000000000E+00 0. -1.
        -15    1    3    3    0    0  0.69760800625E+02  0.29657725833E+02  0.16001961214E+03  0.17706616355E+03  0.00000000000E+00 0.  1.
         15    1    3    3    0    0 -0.40374866064E+02  0.37330355847E+01 -0.75212742601E+01  0.41238755205E+02  0.00000000000E+00 0.  1.
         15    1    4    4    0    0 -0.25931818997E+01  0.10815673574E+02 -0.77253780638E+01  0.13541966380E+02  0.00000000000E+00 0. -1.
        -16    1    3    3    0    0 -0.14797196132E+02 -0.77748643381E+02  0.37453860789E+03  0.38280932245E+03  0.00000000000E+00 0.  1.
         16    1    1    2    0    0 -0.18043451839E+02 -0.13275908534E+03  0.63615234216E+02  0.14831533609E+03  0.00000000000E+00 0. -1.
    9900018    1    3    3    0    0  0.56906215105E+02  0.20284477826E+03  0.12610031955E+03  0.26191752590E+03  0.91187600000E+02 0.  0.
<mgrwt>
<rscale>  0 0.81140472E+03</rscale>
<asrwt>0</asrwt>
<pdfrwt beam="1">  1        2 0.15283431E+00 0.81140472E+03</pdfrwt>
<pdfrwt beam="2">  1       -2 0.25489862E-01 0.81140472E+03</pdfrwt>
<totfact> 0.35349769E+02</totfact>
</mgrwt>
</event>
<event>
11    1  0.1839037E-014  0.1842757E+04  0.7818608E-02  0.8683886E-01
         -1   -1    0    0    0  501 -0.00000000000E+00  0.00000000000E+00  0.10450218066E+04  0.10450218066E+04  0.00000000000E+00 0.  1.
          1   -1    0    0  501    0  0.00000000000E+00 -0.00000000000E+00 -0.81236467227E+03  0.81236467227E+03  0.00000000000E+00 0. -1.
    9900016    2    1    2    0    0  0.12185173895E+03  0.19561165609E+03 -0.27769352638E+03  0.96253788932E+03  0.89233050352E+03 0.  0.
         23    2    3    3    0    0 -0.99283674590E+02  0.96531963170E+02 -0.39071872219E+03  0.42020023160E+03  0.68785513081E+02 0.  0.
        -15    1    3    3    0    0  0.33095398708E+02 -0.37077476649E+02  0.24137991562E+02  0.55251129644E+02  0.00000000000E+00 0.  1.
        -15    1    4    4    0    0 -0.19773558942E+02 -0.71657519639E+01 -0.88077416555E+02  0.90553701976E+02  0.00000000000E+00 0.  1.
         15    1    4    4    0    0 -0.79510115648E+02  0.10369771513E+03 -0.30264130564E+03  0.32964652962E+03  0.00000000000E+00 0. -1.
         15    1    3    3    0    0  0.51869902700E+02 -0.18316978658E+02  0.23062728301E+03  0.23709690463E+03  0.00000000000E+00 0. -1.
        -16    1    1    2    0    0  0.22619257090E+02  0.23427483901E+03  0.31373950659E+03  0.39221015920E+03  0.00000000000E+00 0.  1.
         16    1    3    3    0    0  0.13617011213E+03  0.15447414822E+03 -0.14174007876E+03  0.24998962345E+03  0.00000000000E+00 0. -1.
    9900018    1    1    2    0    0 -0.14447099604E+03 -0.42988649510E+03  0.19661115417E+03  0.50263843039E+03  0.91187600000E+02 0.  0.
<mgrwt>
<rscale>  0 0.18427575E+04</rscale>
<asrwt>0</asrwt>
<pdfrwt beam="1">  1        1 0.12497918E+00 0.18427575E+04</pdfrwt>
<pdfrwt beam="2">  1       -1 0.16077259E+00 0.18427575E+04</pdfrwt>
<totfact> 0.58469594E+00</totfact>
</mgrwt>
</event>
<event>
11    1  0.1839037E-014  0.1062050E+04  0.7818608E-02  0.9242991E-01
         -2   -1    0    0    0  501 -0.00000000000E+00  0.00000000000E+00  0.44947826622E+03  0.44947826622E+03  0.00000000000E+00 0.  1.
          2   -1    0    0  501    0  0.00000000000E+00 -0.00000000000E+00 -0.62736620370E+03  0.62736620370E+03  0.00000000000E+00 0. -1.
    9900016    2    1    2    0    0 -0.10997301067E+03  0.28554157037E+02 -0.27432954940E+03  0.69942917541E+03  0.63327329549E+03 0.  0.
         23    2    3    3    0    0  0.11084314145E+03  0.15719736755E+02 -0.27323217608E+03  0.30337874235E+03  0.69638546350E+02 0.  0.
        -15    1    3    3    0    0 -0.39679827792E+02 -0.40138922832E+02  0.11781432039E+01  0.56453608220E+02  0.00000000000E+00 0.  1.
        -15    1    4    4    0    0  0.38417927103E+02  0.39429940279E+02 -0.12888111552E+03  0.14014634941E+03  0.00000000000E+00 0. -1.
         15    1    4    4    0    0  0.72425214342E+02 -0.23710203524E+02 -0.14435106055E+03  0.16323239294E+03  0.00000000000E+00 0.  1.
         15    1    3    3    0    0  0.25621439034E+02  0.11814744816E+03  0.16428590987E+02  0.12200482059E+03  0.00000000000E+00 0. -1.
        -16    1    3    3    0    0 -0.20675776335E+03 -0.65174105046E+02 -0.18704107511E+02  0.21759200425E+03  0.00000000000E+00 0.  1.
         16    1    1    2    0    0 -0.75748318376E+02  0.53524394413E+02 -0.55339155198E+02  0.10800504910E+03  0.00000000000E+00 0. -1.
    9900018    1    1    2    0    0  0.18572132904E+03 -0.82078551450E+02  0.15178076712E+03  0.26941024541E+03  0.91187600000E+02 0.  0.
<mgrwt>
<rscale>  0 0.10620499E+04</rscale>
<asrwt>0</asrwt>
<pdfrwt beam="1">  1        2 0.96517877E-01 0.10620499E+04</pdfrwt>
<pdfrwt beam="2">  1       -2 0.69150503E-01 0.10620499E+04</pdfrwt>
<totfact> 0.89290119E+01</totfact>
</mgrwt>
</event>
