<event>
11    1  0.4418093E-015  0.4872627E+04  0.7818608E-02  0.8146648E-01
          1   -1    0    0  501    0  0.00000000000E+00  0.00000000000E+00  0.41141772246E+04  0.41141772246E+04  0.00000000000E+00 0. -1.
         -1   -1    0    0    0  501 -0.00000000000E+00 -0.00000000000E+00 -0.21748959594E+04  0.21748959594E+04  0.00000000000E+00 0.  1.
    9900016    2    1    2    0    0 -0.13172757716E+04  0.47531021745E+03  0.51667194058E+03  0.24801185531E+04  0.19806319401E+04 0.  0.
         24    2    3    3    0    0  0.38433059149E+03  0.28567740249E+03  0.59469175178E+03  0.76620142844E+03  0.63912185506E+02 0.  0.
        -15    1    1    2    0    0 -0.88115241159E+02 -0.19166214301E+02 -0.15673244043E+03  0.18082228120E+03  0.00000000000E+00 0.  1.
        -15    1    4    4    0    0  0.29242234104E+03  0.23339386130E+03  0.42460991251E+03  0.56593029415E+03  0.00000000000E+00 0.  1.
         15    1    3    3    0    0 -0.17016063631E+04  0.18963281496E+03 -0.78019811196E+02  0.17139171247E+04  0.00000000000E+00 0. -1.
         15    1    1    2    0    0 -0.60741138675E+03  0.55090357580E+03  0.58291447496E+03  0.10060977227E+04  0.00000000000E+00 0. -1.
        -16    1    1    2    0    0  0.20703353111E+04 -0.10338909146E+04  0.95515152934E+03  0.25035041777E+04  0.00000000000E+00 0.  1.
         16    1    4    4    0    0  0.91908250449E+02  0.52283541183E+02  0.17008183927E+03  0.20027113429E+03  0.00000000000E+00 0. -1.
    9900018    1    1    2    0    0 -0.57532911675E+02  0.26843335616E+02  0.41275760737E+02  0.11853044930E+03  0.91187600000E+02 0.  0.
<mgrwt>
<rscale>  0 0.33646084E+04</rscale>
<asrwt>0</asrwt>
<pdfrwt beam="1">  1        1 0.63295034E+00 0.48726274E+04</pdfrwt>
<pdfrwt beam="2">  1       -1 0.33459938E+00 0.48726274E+04</pdfrwt>
<totfact> 0.10440177E-03</totfact>
</mgrwt>
</event>
<event>
11    1  0.4418093E-015  0.3159487E+04  0.7818608E-02  0.8386294E-01
          2   -1    0    0  501    0  0.00000000000E+00  0.00000000000E+00  0.15707572162E+04  0.15707572162E+04  0.00000000000E+00 0. -1.
         -2   -1    0    0    0  501 -0.00000000000E+00 -0.00000000000E+00 -0.32162681380E+04  0.32162681380E+04  0.00000000000E+00 0.  1.
    9900016    2    1    2    0    0 -0.32066364229E+03  0.54267552405E+03 -0.33343014557E+03  0.21765788250E+04  0.20564527282E+04 0.  0.
         24    2    3    3    0    0 -0.10235674810E+04  0.63372329537E+03 -0.56336128591E+03  0.13325501278E+04  0.94964738032E+02 0.  0.
        -15    1    1    2    0    0  0.58597744750E+03 -0.23486671413E+03 -0.67381427958E+03  0.92334047120E+03  0.00000000000E+00 0.  1.
        -15    1    4    4    0    0 -0.76574875243E+03  0.51428617887E+03 -0.40691094105E+03  0.10081854688E+04  0.00000000000E+00 0.  1.
         15    1    1    2    0    0  0.45024751842E+03  0.19438057685E+03  0.14703281705E+03  0.51198172408E+03  0.00000000000E+00 0. -1.
         15    1    3    3    0    0  0.70516235877E+03 -0.11166144818E+03  0.23136732687E+03  0.75050187953E+03  0.00000000000E+00 0. -1.
        -16    1    1    2    0    0 -0.71556132363E+03 -0.50218938676E+03 -0.78529931370E+03  0.11751243339E+04  0.00000000000E+00 0.  1.
         16    1    4    4    0    0 -0.25781872857E+03  0.11943711650E+03 -0.15645034486E+03  0.32436465900E+03  0.00000000000E+00 0. -1.
    9900018    1    3    3    0    0 -0.22585200602E+01  0.20613676853E+02 -0.14361865249E+01  0.93526817607E+02  0.91187600000E+02 0.  0.
<mgrwt>
<rscale>  0 0.25473917E+04</rscale>
<asrwt>0</asrwt>
<pdfrwt beam="1">  1        2 0.24165496E+00 0.31594871E+04</pdfrwt>
<pdfrwt beam="2">  1       -2 0.49481048E+00 0.31594871E+04</pdfrwt>
<totfact> 0.16689462E-02</totfact>
</mgrwt>
</event>
<event>
11    1  0.4418093E-015  0.3047976E+04  0.7818608E-02  0.8408781E-01
          1   -1    0    0  501    0  0.00000000000E+00  0.00000000000E+00  0.26669388153E+04  0.26669388153E+04  0.00000000000E+00 0. -1.
         -1   -1    0    0    0  501 -0.00000000000E+00 -0.00000000000E+00 -0.18134568350E+04  0.18134568350E+04  0.00000000000E+00 0.  1.
    9900016    2    1    2    0    0 -0.65551512236E+03 -0.69952446737E+03 -0.61514544039E+02  0.22711530964E+04  0.20579887736E+04 0.  0.
        -24    2    3    3    0    0 -0.75933671132E+03 -0.41578451198E+03  0.83978469884E+03  0.12072132901E+04  0.51542077322E+02 0.  0.
        -15    1    1    2    0    0 -0.93601344148E+02  0.10710860830E+04  0.34021277053E+03  0.11277106624E+04  0.00000000000E+00 0.  1.
        -15    1    3    3    0    0  0.12741597733E+03 -0.26521519624E+03 -0.92020482577E+03  0.96610085031E+03  0.00000000000E+00 0.  1.
         15    1    4    4    0    0 -0.40059888844E+03 -0.24350932728E+03  0.43396374523E+03  0.63882767165E+03  0.00000000000E+00 0. -1.
         15    1    1    2    0    0  0.16431299687E+03 -0.20792844395E+03  0.31803909772E+02  0.26691663009E+03  0.00000000000E+00 0. -1.
        -16    1    4    4    0    0 -0.35873782289E+03 -0.17227518470E+03  0.40582095361E+03  0.56838561842E+03  0.00000000000E+00 0.  1.
         16    1    1    2    0    0  0.58480346964E+03 -0.16363317167E+03  0.54297984411E+03  0.81461526139E+03  0.00000000000E+00 0. -1.
    9900018    1    3    3    0    0 -0.23594388367E+02 -0.18524759142E+02  0.18905582888E+02  0.97838956054E+02  0.91187600000E+02 0.  0.
<mgrwt>
<rscale>  0 0.24837968E+04</rscale>
<asrwt>0</asrwt>
<pdfrwt beam="1">  1        1 0.41029828E+00 0.30479760E+04</pdfrwt>
<pdfrwt beam="2">  1       -1 0.27899336E+00 0.30479760E+04</pdfrwt>
<totfact> 0.38125363E-02</totfact>
</mgrwt>
</event>
<event>
10    1  0.4418093E-015  0.3272255E+04  0.7818608E-02  0.8279990E-01
          1   -1    0    0  501    0  0.00000000000E+00  0.00000000000E+00  0.43963973881E+04  0.43963973881E+04  0.00000000000E+00 0. -1.
         -1   -1    0    0    0  501 -0.00000000000E+00 -0.00000000000E+00 -0.15527270653E+04  0.15527270653E+04  0.00000000000E+00 0.  1.
    9900016    2    1    2    0    0 -0.12655962713E+04 -0.64690680677E+03  0.20621951852E+04  0.32558883688E+04  0.20803696185E+04 0.  0.
        -15    1    1    2    0    0 -0.26223328841E+02  0.19396467120E+03 -0.15392318086E+03  0.24900261495E+03  0.00000000000E+00 0.  1.
        -15    1    3    3    0    0  0.71528221862E+02  0.14571668447E+03 -0.12154123373E+02  0.16278010127E+03  0.00000000000E+00 0.  1.
         15    1    3    3    0    0 -0.12147486053E+04 -0.11111779781E+04  0.12832021520E+04  0.20873280614E+04  0.00000000000E+00 0. -1.
         15    1    1    2    0    0  0.15490623687E+04  0.15882095236E+03  0.12054540162E+04  0.19692480042E+04  0.00000000000E+00 0. -1.
        -16    1    1    2    0    0 -0.25724276858E+03  0.29412118321E+03 -0.27005569787E+03  0.47498546541E+03  0.00000000000E+00 0.  1.
         16    1    3    3    0    0  0.50254404086E+01  0.41783319332E+03  0.64988964015E+03  0.77263599247E+03  0.00000000000E+00 0. -1.
    9900018    1    3    3    0    0 -0.12740132820E+03 -0.99278706460E+02  0.14125751648E+03  0.23314421361E+03  0.91187600000E+02 0.  0.
<mgrwt>
<rscale>  0 0.28762131E+04</rscale>
<asrwt>0</asrwt>
<pdfrwt beam="1">  1        1 0.67636882E+00 0.32722554E+04</pdfrwt>
<pdfrwt beam="2">  1       -1 0.23888109E+00 0.32722554E+04</pdfrwt>
<totfact> 0.26663775E-03</totfact>
</mgrwt>
</event>
<event>
11    1  0.4418093E-015  0.3359411E+04  0.7818608E-02  0.8304675E-01
          2   -1    0    0  501    0  0.00000000000E+00  0.00000000000E+00  0.25157084606E+04  0.25157084606E+04  0.00000000000E+00 0. -1.
         -2   -1    0    0    0  501 -0.00000000000E+00 -0.00000000000E+00 -0.24695153376E+04  0.24695153376E+04  0.00000000000E+00 0.  1.
    9900016    2    1    2    0    0 -0.13585480247E+03 -0.21470936641E+03  0.98190606117E+02  0.20743419636E+04  0.20563794756E+04 0.  0.
        -24    2    3    3    0    0  0.47399454064E+03  0.36687087648E+03 -0.64416114784E+03  0.88616826099E+03  0.10528788072E+03 0.  0.
        -15    1    3    3    0    0 -0.58964461360E+03 -0.55582222647E+03  0.72972814942E+03  0.10904688395E+04  0.00000000000E+00 0.  1.
        -15    1    1    2    0    0 -0.56797520922E+03  0.84724955349E+02 -0.62608165940E+03  0.84956012181E+03  0.00000000000E+00 0.  1.
         15    1    4    4    0    0  0.42580518421E+03  0.28379219785E+03 -0.52508319498E+03  0.73318512540E+03  0.00000000000E+00 0. -1.
         15    1    1    2    0    0 -0.58066476726E+03  0.20614322396E+03  0.46114527881E+03  0.76962430373E+03  0.00000000000E+00 0. -1.
        -16    1    4    4    0    0  0.48189356433E+02  0.83078678629E+02 -0.11907795286E+03  0.15298313558E+03  0.00000000000E+00 0.  1.
         16    1    1    2    0    0  0.12844947790E+04 -0.76158812898E+02  0.11293889739E+03  0.12916974090E+04  0.00000000000E+00 0. -1.
    9900018    1    3    3    0    0 -0.20204729509E+02 -0.25758016420E+02  0.12623604544E+02  0.97704863184E+02  0.91187600000E+02 0.  0.
<mgrwt>
<rscale>  0 0.27954726E+04</rscale>
<asrwt>0</asrwt>
<pdfrwt beam="1">  1        2 0.38703207E+00 0.33594115E+04</pdfrwt>
<pdfrwt beam="2">  1       -2 0.37992544E+00 0.33594115E+04</pdfrwt>
<totfact> 0.27011719E-02</totfact>
</mgrwt>
</event>
<event>
11    1  0.4418093E-015  0.3924406E+04  0.7818608E-02  0.8019972E-01
          2   -1    0    0  501    0  0.00000000000E+00  0.00000000000E+00  0.27282762187E+04  0.27282762187E+04  0.00000000000E+00 0. -1.
         -2   -1    0    0    0  501 -0.00000000000E+00 -0.00000000000E+00 -0.14112355761E+04  0.14112355761E+04  0.00000000000E+00 0.  1.
    9900016    2    1    2    0    0  0.80258484962E+03  0.29353733870E+02  0.11333974243E+04  0.24896687442E+04  0.20661211610E+04 0.  0.
        -24    2    3    3    0    0  0.88479846258E+03 -0.53971042519E+03 -0.11027488000E+03  0.10442818433E+04  0.64871848029E+02 0.  0.
        -15    1    3    3    0    0 -0.14073435564E+03  0.58809253587E+03  0.11564187610E+04  0.13049763754E+04  0.00000000000E+00 0.  1.
        -15    1    1    2    0    0  0.17911761950E+03  0.43798547543E+03 -0.57208646018E+02  0.47664161326E+03  0.00000000000E+00 0.  1.
         15    1    1    2    0    0 -0.16988768410E+03 -0.11429182784E+03  0.20118377659E+03  0.28705288551E+03  0.00000000000E+00 0. -1.
         15    1    4    4    0    0  0.32733020629E+03 -0.23643535686E+03 -0.46711653576E+02  0.40648335821E+03  0.00000000000E+00 0. -1.
        -16    1    4    4    0    0  0.55746825628E+03 -0.30327506834E+03 -0.63563226423E+02  0.63779848510E+03  0.00000000000E+00 0.  1.
         16    1    1    2    0    0 -0.81181478503E+03 -0.35304738147E+03  0.39668087750E+02  0.88614855185E+03  0.00000000000E+00 0. -1.
    9900018    1    3    3    0    0  0.58520742687E+02 -0.19028376801E+02  0.87253543327E+02  0.14041052548E+03  0.91187600000E+02 0.  0.
<mgrwt>
<rscale>  0 0.39244059E+04</rscale>
<asrwt>0</asrwt>
<pdfrwt beam="1">  1        2 0.41973480E+00 0.39244059E+04</pdfrwt>
<pdfrwt beam="2">  1       -2 0.21711317E+00 0.39244059E+04</pdfrwt>
<totfact> 0.20896737E-01</totfact>
</mgrwt>
</event>
