<event>
12    1  0.1560874E-010  0.2555170E+04  0.7818608E-02  0.9124763E-01
          1   -1    0    0  501    0  0.00000000000E+00  0.00000000000E+00  0.21482681836E+04  0.21482681836E+04  0.00000000000E+00 0. -1.
         -1   -1    0    0    0  501 -0.00000000000E+00 -0.00000000000E+00 -0.84117269825E+03  0.84117269825E+03  0.00000000000E+00 0.  1.
         23    2    1    2    0    0  0.42197159708E+02 -0.23184968128E+02 -0.12150396957E+01  0.11880160155E+03  0.10860111038E+03 0.  0.
    9900016    2    1    2    0    0  0.55883462243E+03 -0.12733163776E+03  0.10266833537E+04  0.21900451902E+04  0.18476227281E+04 0.  0.
        -24    2    4    4    0    0  0.60180447427E+03  0.72767046134E+03  0.39952591023E+03  0.10284719662E+04  0.80378521991E+02 0.  0.
        -15    1    4    4    0    0 -0.21393789292E+03 -0.57745028569E+03  0.52153446495E+03  0.80697983407E+03  0.00000000000E+00 0.  1.
        -15    1    3    3    0    0  0.29634780850E+02 -0.29760578987E+01 -0.53569966655E+02  0.61292890975E+02  0.00000000000E+00 0.  1.
         15    1    5    5    0    0  0.89157630228E+02  0.14657140576E+03  0.52532076567E+02  0.17942095497E+03  0.00000000000E+00 0. -1.
         15    1    3    3    0    0  0.12562378858E+02 -0.20208910229E+02  0.52354926960E+02  0.57508710577E+02  0.00000000000E+00 0. -1.
        -16    1    5    5    0    0  0.51264684404E+03  0.58109905557E+03  0.34699383366E+03  0.84905101125E+03  0.00000000000E+00 0.  1.
         16    1    1    2    0    0 -0.60103178214E+03  0.15051660589E+03  0.28162717129E+03  0.68059409004E+03  0.00000000000E+00 0. -1.
    9900018    1    4    4    0    0  0.17096804108E+03 -0.27755181341E+03  0.10562297854E+03  0.35459338994E+03  0.91187600000E+02 0.  0.
<mgrwt>
<rscale>  0 0.11864918E+04</rscale>
<asrwt>0</asrwt>
<pdfrwt beam="1">  1        1 0.33050279E+00 0.25551699E+04</pdfrwt>
<pdfrwt beam="2">  1       -1 0.12941119E+00 0.25551699E+04</pdfrwt>
<totfact> 0.10670385E+00</totfact>
</mgrwt>
</event>
<event>
12    1  0.1560874E-010  0.2710373E+04  0.7818608E-02  0.8331647E-01
         -1   -1    0    0    0  501 -0.00000000000E+00  0.00000000000E+00  0.50579206584E+03  0.50579206584E+03  0.00000000000E+00 0.  1.
          1   -1    0    0  501    0  0.00000000000E+00 -0.00000000000E+00 -0.36309998216E+04  0.36309998216E+04  0.00000000000E+00 0. -1.
         23    2    1    2    0    0 -0.73825407967E+02 -0.19511224937E+03 -0.33625741928E+02  0.23675071139E+03  0.10677653351E+03 0.  0.
    9900016    2    1    2    0    0 -0.74451963186E+02  0.32501589383E+03 -0.17809634515E+04  0.25746800360E+04  0.18291987443E+04 0.  0.
        -24    2    4    4    0    0  0.72102923320E+02  0.59866994235E+03 -0.20197850407E+04  0.21093966879E+04  0.80113948400E+02 0.  0.
        -15    1    3    3    0    0 -0.70720522445E+02 -0.57766022301E+02  0.11755763489E+02  0.92067929284E+02  0.00000000000E+00 0.  1.
        -15    1    4    4    0    0 -0.47404735641E+02 -0.23609599520E+03  0.80185002868E+02  0.25380733361E+03  0.00000000000E+00 0.  1.
         15    1    3    3    0    0 -0.31048855221E+01 -0.13734622707E+03 -0.45381505417E+02  0.14468278210E+03  0.00000000000E+00 0. -1.
         15    1    5    5    0    0  0.55087508060E+02  0.17814691373E+03 -0.67596217307E+03  0.70121025081E+03  0.00000000000E+00 0. -1.
        -16    1    5    5    0    0  0.17015415261E+02  0.42052302862E+03 -0.13438228676E+04  0.14081864371E+04  0.00000000000E+00 0.  1.
         16    1    1    2    0    0  0.14827737115E+03 -0.12990364446E+03 -0.13106185624E+04  0.13253611401E+04  0.00000000000E+00 0. -1.
    9900018    1    4    4    0    0 -0.99150150866E+02 -0.37558053316E+02  0.15863658634E+03  0.21147601449E+03  0.91187600000E+02 0.  0.
<mgrwt>
<rscale>  0 0.27103733E+04</rscale>
<asrwt>0</asrwt>
<pdfrwt beam="1">  1        1 0.55861537E+00 0.27103733E+04</pdfrwt>
<pdfrwt beam="2">  1       -1 0.77814163E-01 0.27103733E+04</pdfrwt>
<totfact> 0.28348686E-01</totfact>
</mgrwt>
</event>
<event>
12    1  0.1560874E-010  0.2167651E+04  0.7818608E-02  0.9289965E-01
          1   -1    0    0  501    0  0.00000000000E+00  0.00000000000E+00  0.19762387329E+04  0.19762387329E+04  0.00000000000E+00 0. -1.
         -1   -1    0    0    0  501 -0.00000000000E+00 -0.00000000000E+00 -0.65610396287E+03  0.65610396287E+03  0.00000000000E+00 0.  1.
         23    2    1    2    0    0 -0.63626115130E+02  0.41583694432E+02  0.27834273848E+02  0.10870398061E+03  0.72555650583E+02 0.  0.
    9900016    2    1    2    0    0 -0.21379081427E+03  0.65964849468E+02  0.10318534109E+04  0.21282154910E+04  0.18478424827E+04 0.  0.
        -24    2    4    4    0    0  0.51657924577E+03  0.59887731702E+03  0.28370062800E+03  0.84397482513E+03  0.79368136655E+02 0.  0.
        -15    1    3    3    0    0 -0.58188885522E+02  0.40856475691E+01  0.37820393827E+02  0.69519933138E+02  0.00000000000E+00 0. -1.
        -15    1    4    4    0    0 -0.28377736339E+03 -0.22561341874E+02  0.20526163008E+02  0.28541185940E+03  0.00000000000E+00 0.  1.
         15    1    5    5    0    0  0.23713020886E+03  0.27848669937E+03  0.89362966570E+02  0.37652532116E+03  0.00000000000E+00 0. -1.
         15    1    3    3    0    0 -0.54372296080E+01  0.37498046863E+02 -0.99861199789E+01  0.39184047476E+02  0.00000000000E+00 0.  1.
        -16    1    5    5    0    0  0.27944903691E+03  0.32039061765E+03  0.19433766143E+03  0.46744950396E+03  0.00000000000E+00 0.  1.
         16    1    1    2    0    0  0.27741692940E+03 -0.10754854390E+03  0.26044708525E+03  0.39542322419E+03  0.00000000000E+00 0. -1.
    9900018    1    4    4    0    0 -0.44659269665E+03 -0.51035112568E+03  0.72762661994E+03  0.99882880646E+03  0.91187600000E+02 0.  0.
<mgrwt>
<rscale>  0 0.10171197E+04</rscale>
<asrwt>0</asrwt>
<pdfrwt beam="1">  1        1 0.30403673E+00 0.21676512E+04</pdfrwt>
<pdfrwt beam="2">  1       -1 0.10093907E+00 0.21676512E+04</pdfrwt>
<totfact> 0.26293036E+00</totfact>
</mgrwt>
</event>
