<event>
11    1  0.1085402E-011  0.3104678E+04  0.7818608E-02  0.8214455E-01
          2   -1    0    0  501    0  0.00000000000E+00  0.00000000000E+00  0.16041344076E+04  0.16041344076E+04  0.00000000000E+00 0. -1.
         -2   -1    0    0    0  501 -0.00000000000E+00 -0.00000000000E+00 -0.15022156357E+04  0.15022156357E+04  0.00000000000E+00 0.  1.
    9900016    2    1    2    0    0  0.52266115918E+03 -0.29633690094E+03 -0.21709516495E+03  0.22919982781E+04  0.22011668610E+04 0.  0.
        -24    2    3    3    0    0 -0.62014966136E+03  0.13995940366E+03  0.21606077508E+03  0.67473592223E+03  0.66423407445E+02 0.  0.
        -15    1    3    3    0    0  0.77399407292E+03 -0.12769079890E+03  0.18334760370E+03  0.80559798213E+03  0.00000000000E+00 0.  1.
        -15    1    3    3    0    0  0.16219053032E+03 -0.62664252768E+02 -0.36289045254E+03  0.40239539913E+03  0.00000000000E+00 0.  1.
         15    1    3    3    0    0  0.20662621731E+03 -0.24594125292E+03 -0.25361309119E+03  0.40926897463E+03  0.00000000000E+00 0. -1.
         15    1    4    4    0    0 -0.34546013837E+03  0.11150948968E+03  0.12633110056E+03  0.38436521755E+03  0.00000000000E+00 0. -1.
        -16    1    4    4    0    0 -0.27468952299E+03  0.28449913977E+02  0.89729674517E+02  0.29037070468E+03  0.00000000000E+00 0.  1.
         16    1    1    2    0    0 -0.29990766523E+03  0.35053755544E+03  0.33028714182E+03  0.56737181943E+03  0.00000000000E+00 0. -1.
    9900018    1    1    2    0    0 -0.22275349396E+03 -0.54200654503E+02 -0.11273204969E+02  0.24697994567E+03  0.91187600000E+02 0.  0.
<mgrwt>
<rscale>  0 0.31046776E+04</rscale>
<asrwt>0</asrwt>
<pdfrwt beam="1">  1        2 0.24678991E+00 0.31046776E+04</pdfrwt>
<pdfrwt beam="2">  1       -2 0.23111010E+00 0.31046776E+04</pdfrwt>
<totfact> 0.79217824E-01</totfact>
</mgrwt>
</event>
<event>
10    1  0.1085402E-011  0.3926950E+04  0.7818608E-02  0.8019447E-01
          3   -1    0    0  501    0  0.00000000000E+00  0.00000000000E+00  0.14804722537E+04  0.14804722537E+04  0.00000000000E+00 0. -1.
         -3   -1    0    0    0  501 -0.00000000000E+00 -0.00000000000E+00 -0.26040569683E+04  0.26040569683E+04  0.00000000000E+00 0.  1.
    9900016    2    1    2    0    0  0.92376842620E+03 -0.28146131261E+03 -0.61262584530E+03  0.24795988366E+04  0.22001207668E+04 0.  0.
        -15    1    3    3    0    0 -0.23226956228E+02  0.39110728697E+02  0.35608310644E+02  0.57767572060E+02  0.00000000000E+00 0.  1.
        -15    1    3    3    0    0 -0.22304128078E+03 -0.23678215072E+03 -0.43694532001E+03  0.54473334074E+03  0.00000000000E+00 0.  1.
         15    1    3    3    0    0  0.12467890555E+04 -0.18800430112E+03  0.27657826173E+03  0.12908617668E+04  0.00000000000E+00 0. -1.
         15    1    3    3    0    0 -0.87360644340E+02 -0.57863254997E+02 -0.37263480339E+03  0.38708750323E+03  0.00000000000E+00 0. -1.
        -16    1    1    2    0    0 -0.11262625093E+04  0.42246383077E+03 -0.57639014294E+03  0.13338547616E+04  0.00000000000E+00 0.  1.
         16    1    3    3    0    0  0.10608252083E+02  0.16207766552E+03 -0.11523229428E+03  0.19914865382E+03  0.00000000000E+00 0. -1.
    9900018    1    1    2    0    0  0.20249408312E+03 -0.14100251816E+03  0.65431273717E+02  0.27107562376E+03  0.91187600000E+02 0.  0.
<mgrwt>
<rscale>  0 0.39269500E+04</rscale>
<asrwt>0</asrwt>
<pdfrwt beam="1">  1        3 0.22776497E+00 0.39269500E+04</pdfrwt>
<pdfrwt beam="2">  1       -3 0.40062414E+00 0.39269500E+04</pdfrwt>
<totfact> 0.21372485E-03</totfact>
</mgrwt>
</event>
<event>
12    1  0.1085402E-011  0.2527856E+04  0.7818608E-02  0.8393129E-01
         -2   -1    0    0    0  501 -0.00000000000E+00  0.00000000000E+00  0.13941447222E+04  0.13941447222E+04  0.00000000000E+00 0.  1.
          2   -1    0    0  501    0  0.00000000000E+00 -0.00000000000E+00 -0.11458735105E+04  0.11458735105E+04  0.00000000000E+00 0. -1.
    9900016    2    1    2    0    0 -0.12215436474E+03  0.10326570242E+03  0.18454031447E+03  0.22081415738E+04  0.21945953130E+04 0.  0.
         23    2    3    3    0    0 -0.14357518616E+03  0.43439816447E+03 -0.57510019435E+03  0.74499773026E+03  0.12233472598E+03 0.  0.
         24    2    3    3    0    0  0.60654578212E+03 -0.94739974802E+02  0.41350760132E+03  0.74337956450E+03  0.68928890302E+02 0.  0.
        -15    1    5    5    0    0  0.32315014534E+03 -0.15642984452E+02  0.21552811942E+03  0.38874553329E+03  0.00000000000E+00 0.  1.
        -15    1    4    4    0    0 -0.87641885457E+02  0.19129214827E+03 -0.17584385078E+03  0.27421678638E+03  0.00000000000E+00 0.  1.
         15    1    3    3    0    0 -0.58512496071E+03 -0.23639248724E+03  0.34613290749E+03  0.71976427900E+03  0.00000000000E+00 0. -1.
         15    1    4    4    0    0 -0.55933300699E+02  0.24310601619E+03 -0.39925634357E+03  0.47078094388E+03  0.00000000000E+00 0. -1.
        -16    1    1    2    0    0  0.64346543077E+02  0.68110954129E+02  0.87165925157E+02  0.12797452163E+03  0.00000000000E+00 0.  1.
         16    1    5    5    0    0  0.28339563679E+03 -0.79096990349E+02  0.19797948190E+03  0.35463403120E+03  0.00000000000E+00 0. -1.
    9900018    1    1    2    0    0  0.57807821664E+02 -0.17137665655E+03 -0.23435027977E+02  0.20390213728E+03  0.91187600000E+02 0.  0.
<mgrwt>
<rscale>  0 0.25278556E+04</rscale>
<asrwt>0</asrwt>
<pdfrwt beam="1">  1        2 0.17628823E+00 0.25278556E+04</pdfrwt>
<pdfrwt beam="2">  1       -2 0.21448380E+00 0.25278556E+04</pdfrwt>
<totfact> 0.19470462E+00</totfact>
</mgrwt>
</event>
<event>
12    1  0.1085402E-011  0.3362584E+04  0.7818608E-02  0.8147151E-01
         -1   -1    0    0    0  501 -0.00000000000E+00  0.00000000000E+00  0.20214613688E+04  0.20214613688E+04  0.00000000000E+00 0.  1.
          1   -1    0    0  501    0  0.00000000000E+00 -0.00000000000E+00 -0.13983656724E+04  0.13983656724E+04  0.00000000000E+00 0. -1.
    9900016    2    1    2    0    0  0.21823696413E+03  0.39186947640E+03  0.52629833528E+03  0.22985048081E+04  0.21920185574E+04 0.  0.
         23    2    3    3    0    0 -0.97690837408E+02 -0.19079603602E+03 -0.15652263574E+03  0.28618700587E+03  0.10703756236E+03 0.  0.
         24    2    3    3    0    0 -0.22247882386E+03  0.49904808188E+03 -0.47852526993E+03  0.72950890750E+03  0.68198218857E+02 0.  0.
        -15    1    4    4    0    0 -0.55645498281E+02 -0.14225909892E+02 -0.46843067831E+02  0.74115254806E+02  0.00000000000E+00 0. -1.
        -15    1    5    5    0    0 -0.10297395090E+03  0.27017409157E+03 -0.21278175754E+03  0.35898990328E+03  0.00000000000E+00 0.  1.
         15    1    3    3    0    0  0.53840662540E+03  0.83617430535E+02  0.11613462410E+04  0.12828088947E+04  0.00000000000E+00 0. -1.
         15    1    4    4    0    0 -0.42045339127E+02 -0.17657012613E+03 -0.10967956791E+03  0.21207175107E+03  0.00000000000E+00 0.  1.
        -16    1    1    2    0    0 -0.35037188234E+03 -0.67908702664E+03 -0.39503692002E+02  0.76516677095E+03  0.00000000000E+00 0.  1.
         16    1    5    5    0    0 -0.11950487297E+03  0.22887399032E+03 -0.26574351239E+03  0.37051900421E+03  0.00000000000E+00 0. -1.
    9900018    1    1    2    0    0  0.13213491821E+03  0.28721755024E+03  0.13630105303E+03  0.35615546216E+03  0.91187600000E+02 0.  0.
<mgrwt>
<rscale>  0 0.33625836E+04</rscale>
<asrwt>0</asrwt>
<pdfrwt beam="1">  1        1 0.21513318E+00 0.33625836E+04</pdfrwt>
<pdfrwt beam="2">  1       -1 0.31099406E+00 0.33625836E+04</pdfrwt>
<totfact> 0.17807272E-01</totfact>
</mgrwt>
</event>
<event>
11    1  0.1085402E-011  0.2966834E+04  0.7818608E-02  0.8253265E-01
         -2   -1    0    0    0  501 -0.00000000000E+00  0.00000000000E+00  0.57423467613E+03  0.57423467613E+03  0.00000000000E+00 0.  1.
          2   -1    0    0  501    0  0.00000000000E+00 -0.00000000000E+00 -0.38321033289E+04  0.38321033289E+04  0.00000000000E+00 0. -1.
    9900016    2    1    2    0    0 -0.27110955347E+03  0.67653166293E+02 -0.22097163073E+04  0.31214164676E+04  0.21868509927E+04 0.  0.
         23    2    3    3    0    0  0.39246347379E+03 -0.58900781974E+03 -0.12810586528E+04  0.14684409178E+04  0.11937196997E+03 0.  0.
        -15    1    4    4    0    0  0.50012504219E+02 -0.14393926378E+03 -0.21508643127E+03  0.26359426237E+03  0.00000000000E+00 0.  1.
        -15    1    3    3    0    0 -0.81242670894E+02  0.13413792828E+03 -0.24536730681E+03  0.29120176961E+03  0.00000000000E+00 0.  1.
         15    1    3    3    0    0 -0.15396088494E+03  0.26127975053E+03  0.18766154688E+03  0.35663415190E+03  0.00000000000E+00 0. -1.
         15    1    4    4    0    0  0.34245096957E+03 -0.44506855596E+03 -0.10659722215E+04  0.12048466554E+04  0.00000000000E+00 0. -1.
        -16    1    1    2    0    0 -0.55622163269E+02 -0.49695568507E+02  0.78433279354E+02  0.10823702641E+03  0.00000000000E+00 0.  1.
         16    1    3    3    0    0 -0.42836947143E+03  0.26124330723E+03 -0.87095189458E+03  0.10051396283E+04  0.00000000000E+00 0. -1.
    9900018    1    1    2    0    0  0.32673171674E+03 -0.17957597786E+02 -0.11265856248E+04  0.11766845110E+04  0.91187600000E+02 0.  0.
<mgrwt>
<rscale>  0 0.29668344E+04</rscale>
<asrwt>0</asrwt>
<pdfrwt beam="1">  1        2 0.58955438E+00 0.29668344E+04</pdfrwt>
<pdfrwt beam="2">  1       -2 0.88343794E-01 0.29668344E+04</pdfrwt>
<totfact> 0.43919260E-01</totfact>
</mgrwt>
</event>
<event>
12    1  0.1085402E-011  0.3713657E+04  0.7818608E-02  0.8064942E-01
          2   -1    0    0  501    0  0.00000000000E+00  0.00000000000E+00  0.18404560384E+04  0.18404560384E+04  0.00000000000E+00 0. -1.
         -2   -1    0    0    0  501 -0.00000000000E+00 -0.00000000000E+00 -0.18733470848E+04  0.18733470848E+04  0.00000000000E+00 0.  1.
    9900016    2    1    2    0    0  0.47915160427E+02 -0.24312920864E+03  0.54937767047E+03  0.22813662304E+04  0.22003200626E+04 0.  0.
         23    2    3    3    0    0  0.47136992112E+03 -0.27463135776E+03 -0.61945651265E+03  0.83350235963E+03  0.11570577879E+03 0.  0.
         24    2    3    3    0    0  0.14500879687E+03  0.54688889034E+02  0.66054292445E+03  0.68494287562E+03  0.93868855733E+02 0.  0.
        -15    1    4    4    0    0  0.55925189054E+02 -0.73537376289E+02 -0.14214060314E+03  0.16952676350E+03  0.00000000000E+00 0.  1.
        -15    1    5    5    0    0  0.10187333146E+03  0.69236165195E+02  0.34914483994E+03  0.37023498145E+03  0.00000000000E+00 0.  1.
         15    1    4    4    0    0  0.41544473207E+03 -0.20109398147E+03 -0.47731590951E+03  0.66397559613E+03  0.00000000000E+00 0. -1.
         15    1    3    3    0    0 -0.56846355756E+03 -0.23186739909E+02  0.50829125867E+03  0.76292099514E+03  0.00000000000E+00 0. -1.
        -16    1    1    2    0    0  0.89825951418E+02 -0.27483001494E+03 -0.79705927438E+03  0.84788190542E+03  0.00000000000E+00 0.  1.
         16    1    5    5    0    0  0.43135465415E+02 -0.14547276161E+02  0.31139808451E+03  0.31470789417E+03  0.00000000000E+00 0. -1.
    9900018    1    1    2    0    0 -0.13774111185E+03  0.51795922358E+03  0.21479055751E+03  0.58455498730E+03  0.91187600000E+02 0.  0.
<mgrwt>
<rscale>  0 0.37136575E+04</rscale>
<asrwt>0</asrwt>
<pdfrwt beam="1">  1        2 0.28314708E+00 0.37136575E+04</pdfrwt>
<pdfrwt beam="2">  1       -2 0.28820724E+00 0.37136575E+04</pdfrwt>
<totfact> 0.24828342E-01</totfact>
</mgrwt>
</event>
<event>
11    1  0.1085402E-011  0.5732284E+04  0.7818608E-02  0.7724511E-01
         -1   -1    0    0    0  501 -0.00000000000E+00  0.00000000000E+00  0.16367732779E+04  0.16367732779E+04  0.00000000000E+00 0.  1.
          1   -1    0    0  501    0  0.00000000000E+00 -0.00000000000E+00 -0.50188805934E+04  0.50188805934E+04  0.00000000000E+00 0. -1.
    9900016    2    1    2    0    0  0.29791088376E+03 -0.16239726331E+04 -0.45386310002E+03  0.27855898912E+04  0.21971530034E+04 0.  0.
        -24    2    3    3    0    0 -0.43928045385E+03 -0.54847973570E+03 -0.19603902477E+03  0.73142602429E+03  0.52491829574E+02 0.  0.
        -15    1    3    3    0    0  0.71791762278E+03  0.77185846233E+02  0.11437071359E+03  0.73105678855E+03  0.00000000000E+00 0.  1.
        -15    1    3    3    0    0 -0.21537313004E+03 -0.50156975726E+03 -0.31117813479E+03  0.62832287728E+03  0.00000000000E+00 0.  1.
         15    1    3    3    0    0  0.23464684487E+03 -0.65110898637E+03 -0.61016654045E+02  0.69478420104E+03  0.00000000000E+00 0. -1.
         15    1    4    4    0    0 -0.24949293614E+03 -0.28010901448E+03 -0.86476157048E+02  0.38494923161E+03  0.00000000000E+00 0. -1.
        -16    1    4    4    0    0 -0.18978751770E+03 -0.26837072122E+03 -0.10956286772E+03  0.34647679268E+03  0.00000000000E+00 0.  1.
         16    1    1    2    0    0 -0.75653097533E+03  0.11607829410E+04 -0.28968387813E+04  0.32111417094E+04  0.00000000000E+00 0. -1.
    9900018    1    1    2    0    0  0.45862009156E+03  0.46318969211E+03 -0.31405434116E+02  0.65892227079E+03  0.91187600000E+02 0.  0.
<mgrwt>
<rscale>  0 0.57322839E+04</rscale>
<asrwt>0</asrwt>
<pdfrwt beam="1">  1        1 0.77213547E+00 0.57322839E+04</pdfrwt>
<pdfrwt beam="2">  1       -1 0.25181128E+00 0.57322839E+04</pdfrwt>
<totfact> 0.37170513E-04</totfact>
</mgrwt>
</event>
<event>
11    1  0.1085402E-011  0.2716695E+04  0.7818608E-02  0.8329608E-01
          2   -1    0    0  501    0  0.00000000000E+00  0.00000000000E+00  0.14766861829E+04  0.14766861829E+04  0.00000000000E+00 0. -1.
         -2   -1    0    0    0  501 -0.00000000000E+00 -0.00000000000E+00 -0.12494922915E+04  0.12494922915E+04  0.00000000000E+00 0.  1.
    9900016    2    1    2    0    0  0.27104400041E+02 -0.13024834012E+03  0.79831077954E+02  0.22046526306E+04  0.21991864273E+04 0.  0.
        -24    2    3    3    0    0  0.53646274557E+03  0.27130909335E+03 -0.35306652432E+03  0.70055230537E+03  0.68677947307E+02 0.  0.
        -15    1    3    3    0    0 -0.91421599001E+03 -0.33964376501E+03  0.17435271157E+03  0.99073085726E+03  0.00000000000E+00 0.  1.
        -15    1    3    3    0    0  0.18391964895E+03  0.48923240734E+02  0.71137035243E+02  0.20317578236E+03  0.00000000000E+00 0.  1.
         15    1    4    4    0    0  0.46319501092E+03  0.25889132877E+03 -0.31437219423E+03  0.61676917462E+03  0.00000000000E+00 0. -1.
         15    1    3    3    0    0  0.22093799553E+03 -0.11083690920E+03  0.18740785546E+03  0.31019368562E+03  0.00000000000E+00 0. -1.
        -16    1    4    4    0    0  0.73267734652E+02  0.12417764587E+02 -0.38694330083E+02  0.83783130754E+02  0.00000000000E+00 0.  1.
         16    1    1    2    0    0  0.15050498714E+03  0.73595121899E+02  0.24127188364E+03  0.29373476975E+03  0.00000000000E+00 0. -1.
    9900018    1    1    2    0    0 -0.17760938718E+03  0.56653218225E+02 -0.93909070210E+02  0.22779107404E+03  0.91187600000E+02 0.  0.
<mgrwt>
<rscale>  0 0.27166951E+04</rscale>
<asrwt>0</asrwt>
<pdfrwt beam="1">  1        2 0.22718249E+00 0.27166951E+04</pdfrwt>
<pdfrwt beam="2">  1       -2 0.19222958E+00 0.27166951E+04</pdfrwt>
<totfact> 0.17170787E+00</totfact>
</mgrwt>
</event>
<event>
11    1  0.1085402E-011  0.4116265E+04  0.7818608E-02  0.7981494E-01
          2   -1    0    0  501    0  0.00000000000E+00  0.00000000000E+00  0.30054094179E+04  0.30054094179E+04  0.00000000000E+00 0. -1.
         -2   -1    0    0    0  501 -0.00000000000E+00 -0.00000000000E+00 -0.14094284320E+04  0.14094284320E+04  0.00000000000E+00 0.  1.
    9900016    2    1    2    0    0  0.72000189094E+03 -0.10697776700E+03 -0.27907725566E+03  0.23353227404E+04  0.22013634914E+04 0.  0.
        -24    2    3    3    0    0  0.83291892175E+02 -0.12942947721E+03  0.21583089513E+03  0.28046169649E+03  0.91576520094E+02 0.  0.
        -15    1    3    3    0    0 -0.48575705465E+02  0.27424835027E+03  0.28677499001E+03  0.39976449528E+03  0.00000000000E+00 0.  1.
        -15    1    3    3    0    0  0.77867645993E+03 -0.53951189452E+03 -0.92174563103E+03  0.13217507790E+04  0.00000000000E+00 0.  1.
         15    1    4    4    0    0  0.57847199616E+02 -0.12876388904E+03  0.13351573537E+03  0.19430102731E+03  0.00000000000E+00 0. -1.
         15    1    3    3    0    0 -0.93390755705E+02  0.28771525447E+03  0.14006249023E+03  0.33334576955E+03  0.00000000000E+00 0. -1.
        -16    1    4    4    0    0  0.25444692559E+02 -0.66558817684E+00  0.82315159761E+02  0.86160669180E+02  0.00000000000E+00 0.  1.
         16    1    1    2    0    0 -0.57531985638E+03  0.23638353654E+03  0.16729188927E+04  0.17848046770E+04  0.00000000000E+00 0. -1.
    9900018    1    1    2    0    0 -0.14468203455E+03 -0.12940576954E+03  0.20213934877E+03  0.29471043250E+03  0.91187600000E+02 0.  0.
<mgrwt>
<rscale>  0 0.41162650E+04</rscale>
<asrwt>0</asrwt>
<pdfrwt beam="1">  1        2 0.46237068E+00 0.41162650E+04</pdfrwt>
<pdfrwt beam="2">  1       -2 0.21683514E+00 0.41162650E+04</pdfrwt>
<totfact> 0.13968681E-01</totfact>
</mgrwt>
</event>
<event>
12    1  0.1085402E-011  0.3078442E+04  0.7818608E-02  0.8221679E-01
          2   -1    0    0  501    0  0.00000000000E+00  0.00000000000E+00  0.25149041577E+04  0.25149041577E+04  0.00000000000E+00 0. -1.
         -2   -1    0    0    0  501 -0.00000000000E+00 -0.00000000000E+00 -0.94206426875E+03  0.94206426875E+03  0.00000000000E+00 0.  1.
    9900016    2    1    2    0    0  0.13644528345E+03 -0.16122427616E+03  0.17139251708E+04  0.27928405550E+04  0.21949506354E+04 0.  0.
         23    2    3    3    0    0 -0.55920810404E+03  0.14870419965E+03  0.21899439324E+03  0.63122519992E+03  0.12514018587E+03 0.  0.
         24    2    3    3    0    0 -0.15121945560E+03 -0.16731874589E+03  0.12426233908E+04  0.12665230889E+04  0.95419898442E+02 0.  0.
        -15    1    5    5    0    0 -0.11140087670E+03 -0.12156325708E+03  0.64167483615E+03  0.66252122694E+03  0.00000000000E+00 0.  1.
        -15    1    4    4    0    0 -0.85966970166E+02  0.31882763734E+01 -0.83212136822E+01  0.86427586238E+02  0.00000000000E+00 0.  1.
         15    1    4    4    0    0 -0.47324113388E+03  0.14551592328E+03  0.22731560692E+03  0.54479761368E+03  0.00000000000E+00 0. -1.
         15    1    3    3    0    0  0.84687284309E+03 -0.14260972991E+03  0.25230738674E+03  0.89509226610E+03  0.00000000000E+00 0. -1.
        -16    1    1    2    0    0 -0.21388860642E+03  0.11005349544E+03 -0.34599597895E+03  0.42139450075E+03  0.00000000000E+00 0.  1.
         16    1    5    5    0    0 -0.39818578905E+02 -0.45755488815E+02  0.60094855463E+03  0.60400186199E+03  0.00000000000E+00 0. -1.
    9900018    1    1    2    0    0  0.77443322973E+02  0.51170780716E+02  0.20491069709E+03  0.24273337070E+03  0.91187600000E+02 0.  0.
<mgrwt>
<rscale>  0 0.30784420E+04</rscale>
<asrwt>0</asrwt>
<pdfrwt beam="1">  1        2 0.38690833E+00 0.30784420E+04</pdfrwt>
<pdfrwt beam="2">  1       -2 0.14493297E+00 0.30784420E+04</pdfrwt>
<totfact> 0.95198261E-01</totfact>
</mgrwt>
</event>
<event>
11    1  0.1085402E-011  0.3291535E+04  0.7818608E-02  0.8165053E-01
         -2   -1    0    0    0  501 -0.00000000000E+00  0.00000000000E+00  0.91503188502E+03  0.91503188502E+03  0.00000000000E+00 0.  1.
          2   -1    0    0  501    0  0.00000000000E+00 -0.00000000000E+00 -0.29600612486E+04  0.29600612486E+04  0.00000000000E+00 0. -1.
    9900016    2    1    2    0    0 -0.33547320532E+03 -0.41568616782E+03 -0.15896082181E+04  0.27592690770E+04  0.21912038451E+04 0.  0.
         24    2    3    3    0    0  0.12367822745E+03 -0.12844086300E+03  0.14297290983E+03  0.24657621493E+03  0.92548460763E+02 0.  0.
        -15    1    3    3    0    0 -0.71245438950E+03 -0.60880616549E+03 -0.47986577537E+03  0.10528567645E+04  0.00000000000E+00 0.  1.
        -15    1    4    4    0    0  0.12093134352E+03 -0.67472061961E+02  0.85530284714E+02  0.16276454956E+03  0.00000000000E+00 0.  1.
         15    1    3    3    0    0 -0.10765527793E+03  0.29701506454E+02  0.12291130771E+02  0.11235172561E+03  0.00000000000E+00 0. -1.
         15    1    3    3    0    0  0.36095823466E+03  0.29185935422E+03 -0.12650064833E+04  0.13474843719E+04  0.00000000000E+00 0. -1.
        -16    1    1    2    0    0  0.13339136875E+03  0.26674191553E+02  0.24749362585E+03  0.28241434912E+03  0.00000000000E+00 0.  1.
         16    1    4    4    0    0  0.27468839315E+01 -0.60968801038E+02  0.57442625113E+02  0.83811665365E+02  0.00000000000E+00 0. -1.
    9900018    1    1    2    0    0  0.20208183657E+03  0.38901197627E+03 -0.70291477141E+03  0.83340970753E+03  0.91187600000E+02 0.  0.
<mgrwt>
<rscale>  0 0.32915349E+04</rscale>
<asrwt>0</asrwt>
<pdfrwt beam="1">  1        2 0.45539403E+00 0.32915349E+04</pdfrwt>
<pdfrwt beam="2">  1       -2 0.14077414E+00 0.32915349E+04</pdfrwt>
<totfact> 0.54532222E-01</totfact>
</mgrwt>
</event>
<event>
12    1  0.1085402E-011  0.2868205E+04  0.7818608E-02  0.8282401E-01
          1   -1    0    0  501    0  0.00000000000E+00  0.00000000000E+00  0.16489786118E+04  0.16489786118E+04  0.00000000000E+00 0. -1.
         -1   -1    0    0    0  501 -0.00000000000E+00 -0.00000000000E+00 -0.12472268431E+04  0.12472268431E+04  0.00000000000E+00 0.  1.
    9900016    2    1    2    0    0 -0.33946012414E+03 -0.20066069180E+02  0.33978797116E+03  0.22525074659E+04  0.22006131409E+04 0.  0.
         23    2    3    3    0    0  0.53630966423E+02  0.19175774159E+03  0.65839975721E+03  0.69777482979E+03  0.11726960722E+03 0.  0.
        -24    2    3    3    0    0  0.46062131168E+03 -0.31147008012E+03 -0.40528517781E+03  0.69086544638E+03  0.62075647932E+02 0.  0.
        -15    1    3    3    0    0 -0.85371240224E+03  0.99646269349E+02  0.86673391764E+02  0.86386718978E+03  0.00000000000E+00 0.  1.
        -15    1    4    4    0    0  0.15187560970E+02  0.11945758349E+03  0.21100617658E+03  0.24294934208E+03  0.00000000000E+00 0.  1.
         15    1    5    5    0    0  0.19025946584E+03 -0.12045198787E+03 -0.12784380271E+03  0.25894281920E+03  0.00000000000E+00 0. -1.
         15    1    4    4    0    0  0.38443405453E+02  0.72300158096E+02  0.44739358062E+03  0.45482548770E+03  0.00000000000E+00 0. -1.
        -16    1    5    5    0    0  0.27036184584E+03 -0.19101809225E+03 -0.27744137510E+03  0.43192262718E+03  0.00000000000E+00 0.  1.
         16    1    1    2    0    0  0.27143371793E+03  0.25059999444E+02  0.28431827310E+03  0.39387961006E+03  0.00000000000E+00 0. -1.
    9900018    1    1    2    0    0  0.68026406209E+02 -0.49939302641E+01 -0.22235447547E+03  0.24981837890E+03  0.91187600000E+02 0.  0.
<mgrwt>
<rscale>  0 0.28682053E+04</rscale>
<asrwt>0</asrwt>
<pdfrwt beam="1">  1        1 0.25368902E+00 0.28682053E+04</pdfrwt>
<pdfrwt beam="2">  1       -1 0.19188105E+00 0.28682053E+04</pdfrwt>
<totfact> 0.76200401E-01</totfact>
</mgrwt>
</event>
<event>
11    1  0.1085402E-011  0.3841026E+04  0.7818608E-02  0.8037408E-01
          2   -1    0    0  501    0  0.00000000000E+00  0.00000000000E+00  0.34822548420E+04  0.34822548420E+04  0.00000000000E+00 0. -1.
         -2   -1    0    0    0  501 -0.00000000000E+00 -0.00000000000E+00 -0.10591903978E+04  0.10591903978E+04  0.00000000000E+00 0.  1.
    9900016    2    1    2    0    0 -0.17575707319E+03 -0.10480448406E+04  0.21141493006E+04  0.32315101862E+04  0.22008503542E+04 0.  0.
         24    2    3    3    0    0 -0.60591657857E+03 -0.17635863410E+03  0.72392407591E+03  0.96283126328E+03  0.68852784045E+02 0.  0.
        -15    1    4    4    0    0 -0.18223440185E+02 -0.15458793244E+02  0.42149050074E+02  0.48452146318E+02  0.00000000000E+00 0.  1.
        -15    1    3    3    0    0 -0.70062249157E+02 -0.26617581662E+03  0.33307624576E+03  0.43208572019E+03  0.00000000000E+00 0.  1.
         15    1    3    3    0    0 -0.29132351759E+02 -0.57304319409E+03  0.11620320467E+04  0.12959728677E+04  0.00000000000E+00 0. -1.
         15    1    3    3    0    0  0.52935410629E+03 -0.32467195755E+02 -0.10488306782E+03  0.54062033495E+03  0.00000000000E+00 0. -1.
        -16    1    1    2    0    0  0.21508306874E+03  0.99519522501E+03  0.40587627733E+02  0.10189806759E+04  0.00000000000E+00 0.  1.
         16    1    4    4    0    0 -0.58769313838E+03 -0.16089984086E+03  0.68177502583E+03  0.91437911696E+03  0.00000000000E+00 0. -1.
    9900018    1    1    2    0    0 -0.39325995542E+02  0.52849615549E+02  0.26832751583E+03  0.29095437775E+03  0.91187600000E+02 0.  0.
<mgrwt>
<rscale>  0 0.38410264E+04</rscale>
<asrwt>0</asrwt>
<pdfrwt beam="1">  1        2 0.53573151E+00 0.38410264E+04</pdfrwt>
<pdfrwt beam="2">  1       -2 0.16295237E+00 0.38410264E+04</pdfrwt>
<totfact> 0.15989682E-01</totfact>
</mgrwt>
</event>
<event>
11    1  0.1085402E-011  0.3481149E+04  0.7818608E-02  0.8118272E-01
         -1   -1    0    0    0  501 -0.00000000000E+00  0.00000000000E+00  0.10345249404E+04  0.10345249404E+04  0.00000000000E+00 0.  1.
          1   -1    0    0  501    0  0.00000000000E+00 -0.00000000000E+00 -0.29284930914E+04  0.29284930914E+04  0.00000000000E+00 0. -1.
    9900016    2    1    2    0    0  0.22092258290E+03  0.92377638585E+03 -0.14119115053E+04  0.27843831873E+04  0.22038888439E+04 0.  0.
         23    2    3    3    0    0  0.16443977990E+03 -0.27259532586E+03  0.37196192616E+03  0.50086508448E+03  0.10564802623E+03 0.  0.
        -15    1    3    3    0    0 -0.22627398896E+03  0.56410545054E+02 -0.25491563711E+03  0.34549102697E+03  0.00000000000E+00 0.  1.
        -15    1    4    4    0    0  0.11086826669E+03 -0.14930019805E+03  0.14002456393E+03  0.23278573883E+03  0.00000000000E+00 0. -1.
         15    1    3    3    0    0  0.21580876642E+03  0.84777353995E+03 -0.98853102104E+03  0.13200329459E+04  0.00000000000E+00 0. -1.
         15    1    4    4    0    0  0.53571513210E+02 -0.12329512781E+03  0.23193736223E+03  0.26807934565E+03  0.00000000000E+00 0.  1.
        -16    1    3    3    0    0  0.66948025540E+02  0.29218762671E+03 -0.54042677333E+03  0.61799412995E+03  0.00000000000E+00 0.  1.
         16    1    1    2    0    0  0.70877074387E+02 -0.41577966408E+02 -0.17908968370E+03  0.19704162447E+03  0.00000000000E+00 0. -1.
    9900018    1    1    2    0    0 -0.29179965729E+03 -0.88219841944E+03 -0.30296696191E+03  0.98159322006E+03  0.91187600000E+02 0.  0.
<mgrwt>
<rscale>  0 0.34811487E+04</rscale>
<asrwt>0</asrwt>
<pdfrwt beam="1">  1        1 0.45053738E+00 0.34811487E+04</pdfrwt>
<pdfrwt beam="2">  1       -1 0.15915769E+00 0.34811487E+04</pdfrwt>
<totfact> 0.16317218E-01</totfact>
</mgrwt>
</event>
