<event>
12    1  0.1429293E-011  0.2406026E+04  0.7818608E-02  0.9181919E-01
          2   -1    0    0  501    0  0.00000000000E+00  0.00000000000E+00  0.38784085271E+04  0.38784085271E+04  0.00000000000E+00 0. -1.
         -2   -1    0    0    0  501 -0.00000000000E+00 -0.00000000000E+00 -0.40964531266E+03  0.40964531266E+03  0.00000000000E+00 0.  1.
        -24    2    1    2    0    0 -0.67546962122E+02  0.14512388368E+02  0.17008793013E+03  0.20513572577E+03  0.91529014536E+02 0.  0.
    9900016    2    1    2    0    0  0.34159373986E+03 -0.25313105664E+03  0.23541384888E+04  0.30708952569E+04  0.19255305865E+04 0.  0.
         24    2    4    4    0    0 -0.41843175378E+03  0.81097800165E+02  0.68597522782E+03  0.81168891779E+03  0.81332037455E+02 0.  0.
        -15    1    5    5    0    0 -0.44444142407E+02 -0.11212919957E+02  0.10548314147E+03  0.11501175810E+03  0.00000000000E+00 0.  1.
        -15    1    1    2    0    0 -0.27404677774E+03  0.23861866827E+03  0.94453679556E+03  0.10120228572E+04  0.00000000000E+00 0.  1.
         15    1    4    4    0    0 -0.33418217873E+03 -0.11924528273E+03  0.18145045758E+03  0.39852407027E+03  0.00000000000E+00 0. -1.
         15    1    3    3    0    0 -0.35291027205E+02  0.44738882107E+02  0.45442400620E+02  0.72883715242E+02  0.00000000000E+00 0. -1.
        -16    1    3    3    0    0 -0.32255934917E+02 -0.30226493739E+02  0.12464552951E+03  0.13225201052E+03  0.00000000000E+00 0.  1.
         16    1    5    5    0    0 -0.37398761137E+03  0.92310720122E+02  0.58049208635E+03  0.69667715968E+03  0.00000000000E+00 0. -1.
    9900018    1    4    4    0    0  0.10942076724E+04 -0.21498357408E+03  0.14867128034E+04  0.18606822688E+04  0.91187600000E+02 0.  0.
<mgrwt>
<rscale>  0 0.11242015E+04</rscale>
<asrwt>0</asrwt>
<pdfrwt beam="1">  1        2 0.59667821E+00 0.24060261E+04</pdfrwt>
<pdfrwt beam="2">  1       -2 0.63022359E-01 0.24060261E+04</pdfrwt>
<totfact> 0.89707857E-01</totfact>
</mgrwt>
</event>
<event>
11    1  0.1429293E-011  0.2224622E+04  0.7818608E-02  0.8508249E-01
          2   -1    0    0  501    0  0.00000000000E+00  0.00000000000E+00  0.15826339135E+04  0.15826339135E+04  0.00000000000E+00 0. -1.
         -2   -1    0    0    0  501 -0.00000000000E+00 -0.00000000000E+00 -0.78175720061E+03  0.78175720061E+03  0.00000000000E+00 0.  1.
         24    2    1    2    0    0  0.71568918574E+02 -0.27473823439E+03  0.38326077544E+03  0.48564839747E+03  0.91445811440E+02 0.  0.
        -24    2    1    2    0    0 -0.49454230343E+03  0.19336501984E+03  0.29708231223E+03  0.61374702905E+03  0.80407677765E+02 0.  0.
        -15    1    3    3    0    0 -0.16667290103E+00 -0.19583893024E+02 -0.10000787875E+00  0.19584857605E+02  0.00000000000E+00 0. -1.
        -15    1    1    2    0    0  0.37078240416E+03 -0.37559698632E+02  0.35167677686E+03  0.51241279997E+03  0.00000000000E+00 0.  1.
         15    1    1    2    0    0 -0.15186414054E+03 -0.43492678637E+02  0.19112517992E+03  0.24795798974E+03  0.00000000000E+00 0.  1.
         15    1    4    4    0    0 -0.11451452103E+03  0.96307370459E+01  0.65892633519E+02  0.13246948997E+03  0.00000000000E+00 0. -1.
        -16    1    4    4    0    0 -0.38002778241E+03  0.18373428280E+03  0.23118967871E+03  0.48127753908E+03  0.00000000000E+00 0.  1.
         16    1    3    3    0    0  0.71735591475E+02 -0.25515434137E+03  0.38336078332E+03  0.46606353986E+03  0.00000000000E+00 0. -1.
    9900018    1    1    2    0    0  0.20405512125E+03  0.16242559182E+03 -0.42226833153E+03  0.50462489791E+03  0.91187600000E+02 0.  0.
<mgrwt>
<rscale>  0 0.22246217E+04</rscale>
<asrwt>0</asrwt>
<pdfrwt beam="1">  1        2 0.24348214E+00 0.22246217E+04</pdfrwt>
<pdfrwt beam="2">  1       -2 0.12027034E+00 0.22246217E+04</pdfrwt>
<totfact> 0.54941063E+00</totfact>
</mgrwt>
</event>
<event>
11    1  0.1429293E-011  0.3047119E+04  0.7818608E-02  0.8230402E-01
         -2   -1    0    0    0  501 -0.00000000000E+00  0.00000000000E+00  0.12638586309E+04  0.12638586309E+04  0.00000000000E+00 0.  1.
          2   -1    0    0  501    0  0.00000000000E+00 -0.00000000000E+00 -0.18366238931E+04  0.18366238931E+04  0.00000000000E+00 0. -1.
    9900016    2    1    2    0    0 -0.27019672340E+03  0.87127559765E+03  0.49842432399E+02  0.19828611729E+04  0.17598655421E+04 0.  0.
         24    2    3    3    0    0  0.22116573177E+02  0.49766561045E+03  0.57675404173E+03  0.76694736655E+03  0.86039733606E+02 0.  0.
        -15    1    4    4    0    0  0.23568839483E+02  0.10072083287E+03  0.16707673588E+03  0.19650651908E+03  0.00000000000E+00 0.  1.
        -15    1    1    2    0    0  0.24953309755E+02 -0.20820135988E+02 -0.39517049712E+02  0.51163883240E+02  0.00000000000E+00 0. -1.
         15    1    1    2    0    0  0.10187545691E+02 -0.61943750788E+01  0.28381336603E+01  0.12256074922E+02  0.00000000000E+00 0.  1.
         15    1    3    3    0    0  0.33566336074E+03 -0.15517024999E+02 -0.26097676386E+03  0.42546391279E+03  0.00000000000E+00 0. -1.
        -16    1    1    2    0    0  0.23505586795E+03 -0.84426108659E+03 -0.58592877856E+03  0.10542013930E+04  0.00000000000E+00 0.  1.
         16    1    4    4    0    0 -0.14522663062E+01  0.39694477758E+03  0.40967730586E+03  0.57044084747E+03  0.00000000000E+00 0. -1.
    9900018    1    3    3    0    0 -0.62797665732E+03  0.38912701220E+03 -0.26593484547E+03  0.79044989354E+03  0.91187600000E+02 0.  0.
<mgrwt>
<rscale>  0 0.30471186E+04</rscale>
<asrwt>0</asrwt>
<pdfrwt beam="1">  1        2 0.28255752E+00 0.30471186E+04</pdfrwt>
<pdfrwt beam="2">  1       -2 0.19443979E+00 0.30471186E+04</pdfrwt>
<totfact> 0.10164960E+00</totfact>
</mgrwt>
</event>
