<event>
11    1  0.3716169E-014  0.2371953E+04  0.7818608E-02  0.8450079E-01
         -2   -1    0    0    0  501 -0.00000000000E+00  0.00000000000E+00  0.69473892969E+03  0.69473892969E+03  0.00000000000E+00 0. -1.
          2   -1    0    0  501    0  0.00000000000E+00 -0.00000000000E+00 -0.20245586109E+04  0.20245586109E+04  0.00000000000E+00 0.  1.
    9900016    2    1    2    0    0 -0.58287698201E+02 -0.13659147481E+03 -0.18800107455E+03  0.70511585046E+03  0.66316609668E+03 0.  0.
         23    2    3    3    0    0 -0.14299157970E+03  0.13299137396E+03  0.15199584652E+03  0.26302132863E+03  0.89130155075E+02 0.  0.
        -15    1    1    2    0    0  0.54691266076E+03  0.18693063356E+03 -0.11574867498E+04  0.12937666313E+04  0.00000000000E+00 0.  1.
        -15    1    4    4    0    0 -0.97425415116E+02  0.82068731853E+02  0.43133715108E+02  0.13448979752E+03  0.00000000000E+00 0.  1.
         15    1    4    4    0    0 -0.45566164584E+02  0.50922642108E+02  0.10886213141E+03  0.12853153111E+03  0.00000000000E+00 0. -1.
         15    1    1    2    0    0 -0.21989925237E+03  0.12969949701E+03 -0.90202271485E+02  0.27076574839E+03  0.00000000000E+00 0. -1.
        -16    1    3    3    0    0  0.84703881499E+02 -0.26958284877E+03 -0.33999692107E+03  0.44209452183E+03  0.00000000000E+00 0.  1.
         16    1    1    2    0    0 -0.21236846344E+03 -0.18329158603E+03  0.16673173730E+03  0.32633670036E+03  0.00000000000E+00 0. -1.
    9900018    1    1    2    0    0 -0.56357246745E+02  0.32529302677E+01 -0.60861322641E+02  0.12331261007E+03  0.91187600000E+02 0.  0.
<mgrwt>
<rscale>  0 0.23719525E+04</rscale>
<asrwt>0</asrwt>
<pdfrwt beam="1">  1        2 0.31147055E+00 0.23719525E+04</pdfrwt>
<pdfrwt beam="2">  1       -2 0.10688291E+00 0.23719525E+04</pdfrwt>
<totfact> 0.41094371E+00</totfact>
</mgrwt>
</event>
<event>
11    1  0.3716169E-014  0.3452922E+04  0.7818608E-02  0.8125038E-01
          2   -1    0    0  501    0  0.00000000000E+00  0.00000000000E+00  0.26829143458E+04  0.26829143458E+04  0.00000000000E+00 0. -1.
         -2   -1    0    0    0  501 -0.00000000000E+00 -0.00000000000E+00 -0.11109812201E+04  0.11109812201E+04  0.00000000000E+00 0.  1.
    9900016    2    1    2    0    0 -0.55830129442E+03 -0.14271241223E+03  0.71235452989E+03  0.11848489774E+04  0.75123295652E+03 0.  0.
         23    2    3    3    0    0 -0.96113324657E+02  0.60445340613E+02 -0.10789978760E+03  0.18109986002E+03  0.90903161425E+02 0.  0.
        -15    1    4    4    0    0 -0.16788748117E+02  0.48184686790E+02 -0.82328174127E+02  0.96858424309E+02  0.00000000000E+00 0.  1.
        -15    1    1    2    0    0  0.13860684736E+04  0.26499859846E+03  0.20843017308E+03  0.14264828102E+04  0.00000000000E+00 0.  1.
         15    1    4    4    0    0 -0.79324576539E+02  0.12260653823E+02 -0.25571613474E+02  0.84241435713E+02  0.00000000000E+00 0. -1.
         15    1    1    2    0    0 -0.52395176401E+03  0.11967412666E+03  0.16889813973E+03  0.56335950263E+03  0.00000000000E+00 0. -1.
        -16    1    3    3    0    0 -0.36991167982E+03 -0.21898012711E+03  0.72185432756E+03  0.84015511493E+03  0.00000000000E+00 0.  1.
         16    1    1    2    0    0 -0.30381541518E+03 -0.24196031289E+03  0.48225028309E+03  0.61920427571E+03  0.00000000000E+00 0. -1.
    9900018    1    3    3    0    0 -0.92276289939E+02  0.15822374263E+02  0.98399989934E+02  0.16359400241E+03  0.91187600000E+02 0.  0.
<mgrwt>
<rscale>  0 0.34529219E+04</rscale>
<asrwt>0</asrwt>
<pdfrwt beam="1">  1        2 0.41275605E+00 0.34529219E+04</pdfrwt>
<pdfrwt beam="2">  1       -2 0.17092019E+00 0.34529219E+04</pdfrwt>
<totfact> 0.47063823E-01</totfact>
</mgrwt>
</event>
<event>
11    1  0.3716169E-014  0.2844342E+04  0.7818608E-02  0.8289633E-01
          2   -1    0    0  501    0  0.00000000000E+00  0.00000000000E+00  0.27503919294E+04  0.27503919294E+04  0.00000000000E+00 0.  1.
         -2   -1    0    0    0  501 -0.00000000000E+00 -0.00000000000E+00 -0.73537542515E+03  0.73537542515E+03  0.00000000000E+00 0. -1.
    9900016    2    1    2    0    0 -0.79277863546E+02 -0.36695675270E+03  0.81384724397E+03  0.11805598188E+04  0.76839567362E+03 0.  0.
         23    2    3    3    0    0 -0.25681985177E+02 -0.14078978969E+03 -0.98548821998E+02  0.19616319387E+03  0.91031857430E+02 0.  0.
        -15    1    4    4    0    0 -0.31413861144E+02 -0.75796848391E+02 -0.51209702246E+01  0.82208376909E+02  0.00000000000E+00 0. -1.
        -15    1    1    2    0    0 -0.32304257828E+03 -0.16917471701E+03  0.10633697999E+04  0.11241583178E+04  0.00000000000E+00 0.  1.
         15    1    4    4    0    0  0.57318759669E+01 -0.64992941297E+02 -0.93427851774E+02  0.11395481696E+03  0.00000000000E+00 0.  1.
         15    1    1    2    0    0 -0.13690339674E+03  0.39041225109E+03 -0.26596119309E+03  0.49183292089E+03  0.00000000000E+00 0. -1.
        -16    1    3    3    0    0  0.26237939798E+02 -0.15956524660E+03  0.76650804723E+03  0.78337991031E+03  0.00000000000E+00 0.  1.
         16    1    1    2    0    0  0.53922383857E+03  0.14571921862E+03  0.40376065346E+03  0.68921629699E+03  0.00000000000E+00 0. -1.
    9900018    1    3    3    0    0 -0.79833818166E+02 -0.66601716410E+02  0.14588801874E+03  0.20101671462E+03  0.91187600000E+02 0.  0.
<mgrwt>
<rscale>  0 0.28443422E+04</rscale>
<asrwt>0</asrwt>
<pdfrwt beam="1">  1        2 0.42313721E+00 0.28443422E+04</pdfrwt>
<pdfrwt beam="2">  1       -2 0.11313468E+00 0.28443422E+04</pdfrwt>
<totfact> 0.13175625E+00</totfact>
</mgrwt>
</event>
<event>
11    1  0.3716169E-014  0.3197323E+04  0.7818608E-02  0.8189525E-01
          2   -1    0    0  501    0  0.00000000000E+00  0.00000000000E+00  0.17515081330E+04  0.17515081330E+04  0.00000000000E+00 0. -1.
         -2   -1    0    0    0  501 -0.00000000000E+00 -0.00000000000E+00 -0.14591528336E+04  0.14591528336E+04  0.00000000000E+00 0.  1.
    9900016    2    1    2    0    0 -0.15857940158E+03  0.25971740588E+03  0.58669132011E+03  0.10110227865E+04  0.76508810752E+03 0.  0.
         23    2    3    3    0    0 -0.38930558379E+03  0.22371412100E+03  0.51819376963E+03  0.69181010028E+03  0.92030356140E+02 0.  0.
        -15    1    4    4    0    0 -0.99186915681E+02  0.10019024717E+03  0.13085055720E+03  0.19234863708E+03  0.00000000000E+00 0. -1.
        -15    1    1    2    0    0 -0.13031948187E+03  0.19115119604E+03  0.41633122023E+02  0.23506438257E+03  0.00000000000E+00 0.  1.
         15    1    1    2    0    0 -0.30915051948E+03 -0.10103176484E+04  0.53158472506E+02  0.10578948991E+04  0.00000000000E+00 0. -1.
         15    1    4    4    0    0 -0.29011866811E+03  0.12352387384E+03  0.38734321244E+03  0.49946146319E+03  0.00000000000E+00 0.  1.
        -16    1    1    2    0    0  0.59804940294E+03  0.55944904643E+03 -0.38912761523E+03  0.90667889842E+03  0.00000000000E+00 0.  1.
         16    1    3    3    0    0  0.19525117129E+03 -0.14157334700E+02  0.13386448747E+02  0.19622091383E+03  0.00000000000E+00 0. -1.
    9900018    1    3    3    0    0  0.35475010921E+02  0.50160619575E+02  0.55111101733E+02  0.12299177242E+03  0.91187600000E+02 0.  0.
<mgrwt>
<rscale>  0 0.31973227E+04</rscale>
<asrwt>0</asrwt>
<pdfrwt beam="1">  1        2 0.26946279E+00 0.31973227E+04</pdfrwt>
<pdfrwt beam="2">  1       -2 0.22448505E+00 0.31973227E+04</pdfrwt>
<totfact> 0.71603442E-01</totfact>
</mgrwt>
</event>
<event>
11    1  0.3716169E-014  0.3787932E+04  0.7818608E-02  0.8048750E-01
         -2   -1    0    0    0  501 -0.00000000000E+00  0.00000000000E+00  0.12031097619E+04  0.12031097619E+04  0.00000000000E+00 0.  1.
          2   -1    0    0  501    0  0.00000000000E+00 -0.00000000000E+00 -0.29815299050E+04  0.29815299050E+04  0.00000000000E+00 0. -1.
    9900016    2    1    2    0    0  0.68842786780E+03  0.23777515390E+03 -0.99767415191E+03  0.14496397127E+04  0.75870391483E+03 0.  0.
         23    2    3    3    0    0 -0.17324856801E+02 -0.59243698110E+02  0.54448070855E+02  0.12708725499E+03  0.96832905211E+02 0.  0.
        -15    1    1    2    0    0  0.30398482633E+03  0.44182078417E+03  0.27778094744E+03  0.60396575625E+03  0.00000000000E+00 0.  1.
        -15    1    4    4    0    0 -0.55617344673E+02 -0.17814704088E+02  0.26607302111E+02  0.64176329249E+02  0.00000000000E+00 0.  1.
         15    1    1    2    0    0  0.20216846544E+03 -0.15613738431E+03 -0.74789635018E+03  0.79031634288E+03  0.00000000000E+00 0. -1.
         15    1    4    4    0    0  0.38292487872E+02 -0.41428994022E+02  0.27840768744E+02  0.62910925739E+02  0.00000000000E+00 0. -1.
        -16    1    3    3    0    0  0.56822888733E+03  0.28457247713E+03 -0.85099656217E+03  0.10621020252E+04  0.00000000000E+00 0.  1.
         16    1    1    2    0    0 -0.11945811596E+04 -0.52345855376E+03 -0.31063058848E+03  0.13407178550E+04  0.00000000000E+00 0. -1.
    9900018    1    3    3    0    0  0.13752383727E+03  0.12446374882E+02 -0.20112566059E+03  0.26045043254E+03  0.91187600000E+02 0.  0.
<mgrwt>
<rscale>  0 0.37879323E+04</rscale>
<asrwt>0</asrwt>
<pdfrwt beam="1">  1        2 0.45869690E+00 0.37879323E+04</pdfrwt>
<pdfrwt beam="2">  1       -2 0.18509381E+00 0.37879323E+04</pdfrwt>
<totfact> 0.23996523E-01</totfact>
</mgrwt>
</event>
<event>
11    1  0.3716169E-014  0.2373024E+04  0.7818608E-02  0.8736071E-01
         -1   -1    0    0    0  501 -0.00000000000E+00  0.00000000000E+00  0.25729200766E+04  0.25729200766E+04  0.00000000000E+00 0.  1.
          1   -1    0    0  501    0  0.00000000000E+00 -0.00000000000E+00 -0.93402884890E+03  0.93402884890E+03  0.00000000000E+00 0. -1.
    9900016    2    1    2    0    0  0.72475127586E+03 -0.17669561629E+03  0.45614111423E+03  0.10991024490E+04  0.66593973046E+03 0.  0.
         23    2    3    3    0    0  0.11471232245E+03 -0.26977973460E+03 -0.37057289480E+02  0.30912976391E+03  0.90818203605E+02 0.  0.
        -15    1    1    2    0    0  0.24550388909E+03 -0.49191502756E+03  0.53567396371E+03  0.76759308836E+03  0.00000000000E+00 0.  1.
        -15    1    4    4    0    0  0.99145928420E+02 -0.23170946520E+03  0.25313142498E+01  0.25204285139E+03  0.00000000000E+00 0.  1.
         15    1    4    4    0    0  0.15566394035E+02 -0.38070269402E+02 -0.39588603730E+02  0.57086912518E+02  0.00000000000E+00 0. -1.
         15    1    1    2    0    0 -0.13223979161E+03 -0.23736424657E+02  0.60719562865E+02  0.14743692094E+03  0.00000000000E+00 0. -1.
        -16    1    3    3    0    0  0.61003895340E+03  0.93084118307E+02  0.49319840372E+03  0.78997268508E+03  0.00000000000E+00 0.  1.
         16    1    1    2    0    0 -0.95610197376E+03  0.74001589503E+03  0.46778784584E+03  0.12963718517E+04  0.00000000000E+00 0. -1.
    9900018    1    1    2    0    0  0.11808660042E+03 -0.47668826521E+02  0.11856874109E+03  0.19644461555E+03  0.91187600000E+02 0.  0.
<mgrwt>
<rscale>  0 0.17450657E+04</rscale>
<asrwt>0</asrwt>
<pdfrwt beam="1">  1        1 0.14369675E+00 0.23730239E+04</pdfrwt>
<pdfrwt beam="2">  1       -1 0.39583386E+00 0.23730239E+04</pdfrwt>
<totfact> 0.11497522E-01</totfact>
</mgrwt>
</event>
<event>
11    1  0.3716169E-014  0.1153169E+04  0.7818608E-02  0.9356420E-01
         -1   -1    0    0    0  501 -0.00000000000E+00  0.00000000000E+00  0.66623183125E+03  0.66623183125E+03  0.00000000000E+00 0.  1.
          1   -1    0    0  501    0  0.00000000000E+00 -0.00000000000E+00 -0.14737996025E+04  0.14737996025E+04  0.00000000000E+00 0. -1.
    9900016    2    1    2    0    0 -0.19481897494E+03 -0.23022167770E+03 -0.69654103621E+02  0.73095685753E+03  0.66218560808E+03 0.  0.
         23    2    3    3    0    0  0.22006091639E+03  0.25025740724E+02  0.12097714238E+01  0.23871884840E+03  0.89062508462E+02 0.  0.
        -15    1    4    4    0    0  0.79714901455E+02  0.52500147792E+02 -0.49276215193E+01  0.95577259252E+02  0.00000000000E+00 0. -1.
        -15    1    1    2    0    0  0.23765763744E+03 -0.73091208678E+02  0.12149509311E+03  0.27673911012E+03  0.00000000000E+00 0.  1.
         15    1    4    4    0    0  0.14034601494E+03 -0.27474407069E+02  0.61373929431E+01  0.14314158915E+03  0.00000000000E+00 0. -1.
         15    1    1    2    0    0 -0.81898111120E+02 -0.48974189151E+02 -0.23154369803E+03  0.25043613139E+03  0.00000000000E+00 0.  1.
        -16    1    1    2    0    0  0.11549868614E+03  0.42655391178E+03 -0.58900541271E+03  0.73635287897E+03  0.00000000000E+00 0.  1.
         16    1    3    3    0    0 -0.41487989133E+03 -0.25524741842E+03 -0.70863875045E+02  0.49223800913E+03  0.00000000000E+00 0. -1.
    9900018    1    1    2    0    0 -0.76439237520E+02 -0.74266836247E+02 -0.38859650041E+02  0.14554645579E+03  0.91187600000E+02 0.  0.
<mgrwt>
<rscale>  0 0.95750633E+03</rscale>
<asrwt>0</asrwt>
<pdfrwt beam="1">  1        1 0.22673840E+00 0.11531694E+04</pdfrwt>
<pdfrwt beam="2">  1       -1 0.10249721E+00 0.11531694E+04</pdfrwt>
<totfact> 0.60734518E+00</totfact>
</mgrwt>
</event>
<event>
11    1  0.3716169E-014  0.2084556E+04  0.7818608E-02  0.8568077E-01
         -2   -1    0    0    0  501 -0.00000000000E+00  0.00000000000E+00  0.22410163467E+03  0.22410163467E+03  0.00000000000E+00 0.  1.
          2   -1    0    0  501    0  0.00000000000E+00 -0.00000000000E+00 -0.48475485186E+04  0.48475485186E+04  0.00000000000E+00 0. -1.
    9900016    2    1    2    0    0  0.37689553513E+03 -0.18785804094E+03 -0.21478760792E+04  0.23142848699E+04  0.75179912179E+03 0.  0.
         23    2    3    3    0    0  0.58352010774E+02 -0.30757678643E+03 -0.15414112412E+04  0.15754027610E+04  0.89088764967E+02 0.  0.
        -15    1    4    4    0    0  0.36022720433E+02 -0.20451600944E+03 -0.12077844348E+04  0.12255071095E+04  0.00000000000E+00 0.  1.
        -15    1    1    2    0    0 -0.82705006427E+02  0.20535267695E+03 -0.22119190752E+03  0.31294680054E+03  0.00000000000E+00 0.  1.
         15    1    1    2    0    0 -0.67353660003E+02 -0.40983591689E+03 -0.15668332545E+04  0.16209467732E+04  0.00000000000E+00 0. -1.
         15    1    4    4    0    0  0.22329290341E+02 -0.10306077699E+03 -0.33362680644E+03  0.34989565149E+03  0.00000000000E+00 0. -1.
        -16    1    1    2    0    0 -0.22683686870E+03  0.39234128088E+03 -0.68754564272E+03  0.82347170959E+03  0.00000000000E+00 0.  1.
         16    1    3    3    0    0  0.28653111771E+03  0.12038816583E+03 -0.36864558165E+03  0.48217523449E+03  0.00000000000E+00 0. -1.
    9900018    1    3    3    0    0  0.32012406648E+02 -0.66942034249E+00 -0.23781925637E+03  0.25670687446E+03  0.91187600000E+02 0.  0.
<mgrwt>
<rscale>  0 0.20845561E+04</rscale>
<asrwt>0</asrwt>
<pdfrwt beam="1">  1        2 0.74577671E+00 0.20845561E+04</pdfrwt>
<pdfrwt beam="2">  1       -2 0.34477174E-01 0.20845561E+04</pdfrwt>
<totfact> 0.38951846E-01</totfact>
</mgrwt>
</event>
