<event>
11    1  0.1391214E-013  0.8284216E+03  0.7818608E-02  0.9519765E-01
         -2   -1    0    0    0  501 -0.00000000000E+00  0.00000000000E+00  0.10273506078E+03  0.10273506078E+03  0.00000000000E+00 0.  1.
          2   -1    0    0  501    0  0.00000000000E+00 -0.00000000000E+00 -0.16700293858E+04  0.16700293858E+04  0.00000000000E+00 0. -1.
         23    2    1    2    0    0  0.14492483619E+03 -0.17913934921E+03 -0.26935130156E+03  0.36555302539E+03  0.89357574592E+02 0.  0.
         23    2    1    2    0    0 -0.11771619325E+03  0.16387616352E+03 -0.36028237008E+03  0.41796148938E+03  0.64621368698E+02 0.  0.
        -15    1    3    3    0    0  0.62045692978E+02 -0.13445930880E+03 -0.12813176362E+03  0.19582319216E+03  0.00000000000E+00 0.  1.
        -15    1    4    4    0    0 -0.21279189970E+02  0.83051496484E+02 -0.15713486118E+03  0.17900201003E+03  0.00000000000E+00 0.  1.
         15    1    3    3    0    0  0.82879143214E+02 -0.44680040412E+02 -0.14121953794E+03  0.16972983323E+03  0.00000000000E+00 0. -1.
         15    1    4    4    0    0 -0.96437003284E+02  0.80824667036E+02 -0.20314750889E+03  0.23895947936E+03  0.00000000000E+00 0. -1.
        -16    1    1    2    0    0 -0.99049750926E+02  0.29712446246E+02 -0.39632582604E+03  0.40959473019E+03  0.00000000000E+00 0.  1.
         16    1    1    2    0    0  0.97093979368E+02  0.30425776212E+02 -0.29205970908E+03  0.30927632039E+03  0.00000000000E+00 0. -1.
    9900018    1    1    2    0    0 -0.25252871381E+02 -0.44875036768E+02 -0.24927511829E+03  0.27037888126E+03  0.91187600000E+02 0.  0.
<mgrwt>
<rscale>  0 0.82842156E+03</rscale>
<asrwt>0</asrwt>
<pdfrwt beam="1">  1        2 0.25692760E+00 0.82842156E+03</pdfrwt>
<pdfrwt beam="2">  1       -2 0.15805394E-01 0.82842156E+03</pdfrwt>
<totfact> 0.33025680E+02</totfact>
</mgrwt>
</event>
<event>
12    1  0.1391214E-013  0.7900730E+03  0.7818608E-02  0.1011311E+00
          1   -1    0    0  501    0  0.00000000000E+00  0.00000000000E+00  0.10431947800E+04  0.10431947800E+04  0.00000000000E+00 0. -1.
         -1   -1    0    0    0  501 -0.00000000000E+00 -0.00000000000E+00 -0.20897578847E+03  0.20897578847E+03  0.00000000000E+00 0.  1.
         23    2    1    2    0    0 -0.38025854419E+02  0.93396083444E+02  0.18225260690E+03  0.22782905631E+03  0.92310737040E+02 0.  0.
    9900016    2    1    2    0    0  0.15495646423E+03  0.38937970429E+02  0.36212361147E+03  0.68493923980E+03  0.55899962512E+03 0.  0.
         23    2    4    4    0    0 -0.54208795135E+02  0.29617939303E+02  0.27746063479E+03  0.30637622275E+03  0.11430734977E+03 0.  0.
        -15    1    3    3    0    0  0.25357355195E+02  0.19819996918E+01  0.31842272552E+02  0.40753577837E+02  0.00000000000E+00 0.  1.
        -15    1    5    5    0    0  0.31713706830E+02  0.25621841075E+02  0.60187954923E+02  0.72696821518E+02  0.00000000000E+00 0. -1.
         15    1    3    3    0    0 -0.63383209614E+02  0.91414083753E+02  0.15041033435E+03  0.18707547848E+03  0.00000000000E+00 0.  1.
         15    1    5    5    0    0 -0.85922501966E+02  0.39960982277E+01  0.21727267986E+03  0.23367940123E+03  0.00000000000E+00 0. -1.
        -16    1    4    4    0    0  0.55051731984E+02  0.42987575184E+02 -0.98142171863E+02  0.12045958124E+03  0.00000000000E+00 0.  1.
         16    1    1    2    0    0 -0.11693060981E+03 -0.13233405387E+03  0.28984277317E+03  0.33940227236E+03  0.00000000000E+00 0. -1.
    9900018    1    4    4    0    0  0.15411352738E+03 -0.33667544058E+02  0.18280514855E+03  0.25810343581E+03  0.91187600000E+02 0.  0.
<mgrwt>
<rscale>  0 0.50956756E+03</rscale>
<asrwt>0</asrwt>
<pdfrwt beam="1">  1        1 0.16049150E+00 0.79007301E+03</pdfrwt>
<pdfrwt beam="2">  1       -1 0.32150122E-01 0.79007301E+03</pdfrwt>
<totfact> 0.12828702E+02</totfact>
</mgrwt>
</event>
<event>
12    1  0.1391214E-013  0.9636480E+03  0.7818608E-02  0.9349339E-01
         -2   -1    0    0    0  501 -0.00000000000E+00  0.00000000000E+00  0.61368182135E+03  0.61368182135E+03  0.00000000000E+00 0.  1.
          2   -1    0    0  501    0  0.00000000000E+00 -0.00000000000E+00 -0.37829758751E+03  0.37829758751E+03  0.00000000000E+00 0. -1.
         23    2    1    2    0    0 -0.86364082385E+02  0.56174042473E+02  0.31180391127E+02  0.14000026916E+03  0.89518605892E+02 0.  0.
    9900016    2    1    2    0    0 -0.41047007838E+02 -0.78210575855E+01 -0.25875658809E+02  0.58456901633E+03  0.58249923548E+03 0.  0.
         23    2    4    4    0    0 -0.16712778478E+03  0.29897680119E+02 -0.40856880202E+01  0.18572741919E+03  0.75182535664E+02 0.  0.
        -15    1    5    5    0    0 -0.80703921421E+02 -0.14829026341E+02  0.22052121763E+02  0.84966575953E+02  0.00000000000E+00 0.  1.
        -15    1    3    3    0    0 -0.69247526464E+02  0.28947024417E+01  0.44644215226E+02  0.82442132292E+02  0.00000000000E+00 0.  1.
         15    1    5    5    0    0 -0.86423863362E+02  0.44726706460E+02 -0.26137809784E+02  0.10076084324E+03  0.00000000000E+00 0. -1.
         15    1    3    3    0    0 -0.17116555921E+02  0.53279340031E+02 -0.13463824099E+02  0.57558136872E+02  0.00000000000E+00 0. -1.
        -16    1    1    2    0    0  0.12741109022E+03 -0.48352984887E+02  0.23007950152E+03  0.26741012337E+03  0.00000000000E+00 0.  1.
         16    1    4    4    0    0 -0.35972594847E+02  0.13701160440E+03  0.83811375757E+01  0.14190296257E+03  0.00000000000E+00 0. -1.
    9900018    1    4    4    0    0  0.16205337179E+03 -0.17473034210E+03 -0.30171108364E+02  0.25693863457E+03  0.91187600000E+02 0.  0.
<mgrwt>
<rscale>  0 0.96364797E+03</rscale>
<asrwt>0</asrwt>
<pdfrwt beam="1">  1        2 0.58199629E-01 0.96364797E+03</pdfrwt>
<pdfrwt beam="2">  1       -2 0.94412588E-01 0.96364797E+03</pdfrwt>
<totfact> 0.80127734E+01</totfact>
</mgrwt>
</event>
<event>
12    1  0.1391214E-013  0.9883585E+03  0.7818608E-02  0.9321406E-01
         -2   -1    0    0    0  501 -0.00000000000E+00  0.00000000000E+00  0.48646523300E+03  0.48646523300E+03  0.00000000000E+00 0.  1.
          2   -1    0    0  501    0  0.00000000000E+00 -0.00000000000E+00 -0.50201554178E+03  0.50201554178E+03  0.00000000000E+00 0. -1.
         23    2    1    2    0    0  0.27527138112E+02  0.15676124259E+03  0.84511525409E+02  0.20192609004E+03  0.91104980099E+02 0.  0.
    9900016    2    1    2    0    0 -0.19680448671E+03 -0.20833886561E+03 -0.54661460533E+02  0.60386296115E+03  0.52870172278E+03 0.  0.
         23    2    4    4    0    0 -0.10406442889E+03 -0.17770883869E+03  0.10806953001E+03  0.25665510658E+03  0.10854945283E+03 0.  0.
        -15    1    5    5    0    0 -0.69901929304E+01 -0.90179155725E+02  0.56985693237E+01  0.90629005383E+02  0.00000000000E+00 0.  1.
        -15    1    3    3    0    0  0.17279323375E+02  0.11338932136E+01  0.33708291663E+02  0.37896037484E+02  0.00000000000E+00 0.  1.
         15    1    3    3    0    0  0.10247814737E+02  0.15562734938E+03  0.50803233746E+02  0.16403005255E+03  0.00000000000E+00 0. -1.
         15    1    5    5    0    0 -0.97074235961E+02 -0.87529682961E+02  0.10237096069E+03  0.16602610120E+03  0.00000000000E+00 0. -1.
        -16    1    4    4    0    0  0.56483269953E+02  0.73112582319E+02 -0.95917932332E+02  0.13317679686E+03  0.00000000000E+00 0.  1.
         16    1    1    2    0    0  0.16927734859E+03  0.51577623016E+02 -0.45400373648E+02  0.18269172360E+03  0.00000000000E+00 0. -1.
    9900018    1    4    4    0    0 -0.14922332777E+03 -0.10374260924E+03 -0.66813058215E+02  0.21403105771E+03  0.91187600000E+02 0.  0.
<mgrwt>
<rscale>  0 0.98835845E+03</rscale>
<asrwt>0</asrwt>
<pdfrwt beam="1">  1        2 0.77233160E-01 0.98835845E+03</pdfrwt>
<pdfrwt beam="2">  1       -2 0.74840805E-01 0.98835845E+03</pdfrwt>
<totfact> 0.98312559E+01</totfact>
</mgrwt>
</event>
