<event>
12    1  0.4671131E-018  0.3936343E+04  0.7818608E-02  0.8017513E-01
         -1   -1    0    0    0  501 -0.00000000000E+00  0.00000000000E+00  0.20072991096E+04  0.20072991096E+04  0.00000000000E+00 0. -1.
          1   -1    0    0  501    0  0.00000000000E+00 -0.00000000000E+00 -0.19298070454E+04  0.19298070454E+04  0.00000000000E+00 0.  1.
    9900016    2    1    2    0    0  0.11872240076E+03  0.13787980152E+03  0.23415038883E+03  0.18650028608E+04  0.18412776591E+04 0.  0.
         24    2    3    3    0    0 -0.16618612642E+03  0.19622897184E+02 -0.78169323863E+03  0.80335516039E+03  0.79575798465E+02 0.  0.
        -24    2    4    4    0    0 -0.12422227443E+03  0.16293275804E+02 -0.57887363517E+03  0.59501632289E+03  0.57035907162E+02 0.  0.
        -15    1    4    4    0    0 -0.94874297626E+01 -0.87131823697E+01 -0.48687009203E+02  0.50362245141E+02  0.00000000000E+00 0.  1.
        -15    1    4    4    0    0 -0.32476422232E+02  0.12042803750E+02 -0.15413259426E+03  0.15797659237E+03  0.00000000000E+00 0.  1.
         15    1    3    3    0    0  0.28490852719E+03  0.11825690434E+03  0.10158436275E+04  0.10616477004E+04  0.00000000000E+00 0. -1.
         15    1    5    5    0    0 -0.23415893937E+02  0.25420548651E+02 -0.10835027733E+03  0.11372902435E+03  0.00000000000E+00 0. -1.
        -16    1    5    5    0    0 -0.10080638049E+03 -0.91272728469E+01 -0.47052335784E+03  0.48128729854E+03  0.00000000000E+00 0.  1.
         16    1    1    2    0    0 -0.72591470689E+03 -0.63942976580E+02  0.70337117346E+03  0.10128039660E+04  0.00000000000E+00 0. -1.
    9900018    1    1    2    0    0  0.60719230613E+03 -0.73936824943E+02 -0.86002949806E+03  0.10592993282E+04  0.91187600000E+02 0.  0.
<mgrwt>
<rscale>  0 0.39363435E+04</rscale>
<asrwt>0</asrwt>
<pdfrwt beam="1">  1        1 0.29689339E+00 0.39363435E+04</pdfrwt>
<pdfrwt beam="2">  1       -1 0.30881525E+00 0.39363435E+04</pdfrwt>
<totfact> 0.75723970E-02</totfact>
</mgrwt>
</event>
<event>
11    1  0.4671131E-018  0.4200883E+04  0.7818608E-02  0.7965204E-01
          2   -1    0    0  501    0  0.00000000000E+00  0.00000000000E+00  0.23284613595E+04  0.23284613595E+04  0.00000000000E+00 0. -1.
         -2   -1    0    0    0  501 -0.00000000000E+00 -0.00000000000E+00 -0.18947509639E+04  0.18947509639E+04  0.00000000000E+00 0.  1.
    9900016    2    1    2    0    0  0.41590301555E+02 -0.13701498004E+04 -0.22701222798E+03  0.23062643814E+04  0.18407282843E+04 0.  0.
         24    2    3    3    0    0 -0.22935456434E+03 -0.22197118928E+03 -0.89275992431E+03  0.95166287593E+03  0.82263126107E+02 0.  0.
        -15    1    4    4    0    0 -0.14005843944E+03 -0.14420199414E+03 -0.54400919865E+03  0.57996257620E+03  0.00000000000E+00 0.  1.
        -15    1    4    4    0    0 -0.64651317347E+02 -0.23404706374E+02 -0.18080434540E+03  0.19343677114E+03  0.00000000000E+00 0.  1.
         15    1    3    3    0    0  0.27094486589E+03 -0.11481786112E+04  0.66574769633E+03  0.13546015055E+04  0.00000000000E+00 0. -1.
         15    1    4    4    0    0 -0.64741225026E+01 -0.17661670764E+02 -0.52863855196E+02  0.56110926410E+02  0.00000000000E+00 0. -1.
        -16    1    4    4    0    0 -0.18170685051E+02 -0.36702817999E+02 -0.11508252506E+03  0.12215260218E+03  0.00000000000E+00 0.  1.
         16    1    1    2    0    0  0.32871578475E+03  0.58056587433E+03  0.78623185997E+03  0.10311504930E+04  0.00000000000E+00 0. -1.
    9900018    1    1    2    0    0 -0.37030608631E+03  0.78958392610E+03 -0.12550923633E+03  0.88579744903E+03  0.91187600000E+02 0.  0.
<mgrwt>
<rscale>  0 0.42008830E+04</rscale>
<asrwt>0</asrwt>
<pdfrwt beam="1">  1        2 0.35822483E+00 0.42008830E+04</pdfrwt>
<pdfrwt beam="2">  1       -2 0.29150015E+00 0.42008830E+04</pdfrwt>
<totfact> 0.12146597E-01</totfact>
</mgrwt>
</event>
<event>
11    1  0.4671131E-018  0.3660735E+04  0.7818608E-02  0.8076719E-01
         -2   -1    0    0    0  501 -0.00000000000E+00  0.00000000000E+00  0.89016579398E+03  0.89016579398E+03  0.00000000000E+00 0.  1.
          2   -1    0    0  501    0  0.00000000000E+00 -0.00000000000E+00 -0.37636199711E+04  0.37636199711E+04  0.00000000000E+00 0. -1.
    9900016    2    1    2    0    0  0.45870053487E+03 -0.17567892412E+03 -0.25246356350E+04  0.31636839675E+04  0.18422382830E+04 0.  0.
        -24    2    3    3    0    0 -0.51334160817E+02 -0.13570598096E+03  0.27320613906E+03  0.31945264426E+03  0.79731349954E+02 0.  0.
        -15    1    3    3    0    0  0.51003469569E+03 -0.39972943164E+02 -0.27978417741E+04  0.28442313232E+04  0.00000000000E+00 0.  1.
        -15    1    4    4    0    0 -0.20546614687E+02 -0.32685298078E+02  0.13392196506E+03  0.13937569663E+03  0.00000000000E+00 0.  1.
         15    1    4    4    0    0  0.45111037872E+01 -0.24897444006E+02  0.50125927910E+02  0.56150168515E+02  0.00000000000E+00 0. -1.
         15    1    4    4    0    0 -0.18701941621E+02 -0.36532082013E+02  0.37911382360E+02  0.55871536125E+02  0.00000000000E+00 0. -1.
        -16    1    1    2    0    0 -0.74355105380E+03  0.29409250430E+03  0.22641244552E+03  0.83103620028E+03  0.00000000000E+00 0.  1.
         16    1    4    4    0    0 -0.16596708296E+02 -0.41591156861E+02  0.51246863734E+02  0.68055242986E+02  0.00000000000E+00 0. -1.
    9900018    1    1    2    0    0  0.28485051893E+03 -0.11841358018E+03 -0.57523098758E+03  0.65906559732E+03  0.91187600000E+02 0.  0.
<mgrwt>
<rscale>  0 0.36607353E+04</rscale>
<asrwt>0</asrwt>
<pdfrwt beam="1">  1        2 0.57901846E+00 0.36607353E+04</pdfrwt>
<pdfrwt beam="2">  1       -2 0.13694858E+00 0.36607353E+04</pdfrwt>
<totfact> 0.16099780E-01</totfact>
</mgrwt>
</event>
<event>
11    1  0.4671131E-018  0.3038324E+04  0.7818608E-02  0.8232871E-01
          1   -1    0    0  501    0  0.00000000000E+00  0.00000000000E+00  0.11922367578E+04  0.11922367578E+04  0.00000000000E+00 0. -1.
         -1   -1    0    0    0  501 -0.00000000000E+00 -0.00000000000E+00 -0.19357335125E+04  0.19357335125E+04  0.00000000000E+00 0.  1.
    9900016    2    1    2    0    0  0.31490123488E+03  0.51075072893E+03  0.35325524609E+02  0.19434330381E+04  0.18481490703E+04 0.  0.
        -24    2    3    3    0    0  0.24851019335E+03  0.52354890084E+02  0.91318025801E+03  0.95087903530E+03  0.75989508760E+02 0.  0.
        -15    1    4    4    0    0  0.84284701588E+01  0.69473328247E+01  0.63606655455E+02  0.64537672415E+02  0.00000000000E+00 0. -1.
        -15    1    3    3    0    0  0.66391041531E+02  0.45839583884E+03 -0.87785473340E+03  0.99255400277E+03  0.00000000000E+00 0.  1.
         15    1    4    4    0    0  0.10250195671E+03  0.35900325418E+02  0.30622132695E+03  0.32491073478E+03  0.00000000000E+00 0. -1.
         15    1    4    4    0    0  0.11071926881E+03  0.72856230797E+01  0.47858140761E+03  0.49127589041E+03  0.00000000000E+00 0.  1.
        -16    1    1    2    0    0 -0.26998101518E+03 -0.61369533612E+03 -0.79384309173E+03  0.10390854481E+04  0.00000000000E+00 0.  1.
         16    1    4    4    0    0  0.26860497670E+02  0.22216087622E+01  0.64770867998E+02  0.70154737700E+02  0.00000000000E+00 0. -1.
    9900018    1    1    2    0    0 -0.44920219699E+02  0.10294460719E+03  0.15020812427E+02  0.14545178406E+03  0.91187600000E+02 0.  0.
<mgrwt>
<rscale>  0 0.30383236E+04</rscale>
<asrwt>0</asrwt>
<pdfrwt beam="1">  1        1 0.18342104E+00 0.30383236E+04</pdfrwt>
<pdfrwt beam="2">  1       -1 0.29780515E+00 0.30383236E+04</pdfrwt>
<totfact> 0.31336583E-01</totfact>
</mgrwt>
</event>
<event>
11    1  0.4671131E-018  0.3441482E+04  0.7818608E-02  0.8127800E-01
          2   -1    0    0  501    0  0.00000000000E+00  0.00000000000E+00  0.29285932689E+04  0.29285932689E+04  0.00000000000E+00 0.  1.
         -2   -1    0    0    0  501 -0.00000000000E+00 -0.00000000000E+00 -0.10110482086E+04  0.10110482086E+04  0.00000000000E+00 0. -1.
    9900016    2    1    2    0    0 -0.92832391117E+03  0.14912428984E+03  0.10098839321E+04  0.23031271937E+04  0.18440460884E+04 0.  0.
        -24    2    3    3    0    0  0.36004697111E+03  0.20589191121E+03 -0.25762720817E+03  0.49489419324E+03  0.80766228124E+02 0.  0.
        -15    1    4    4    0    0  0.11730726232E+02  0.56720395771E+01 -0.21168987953E+02  0.24857755768E+02  0.00000000000E+00 0.  1.
        -15    1    3    3    0    0 -0.12883708823E+04 -0.56767621372E+02  0.12675111403E+04  0.18082330005E+04  0.00000000000E+00 0.  1.
         15    1    4    4    0    0  0.25945116459E+02  0.12084039676E+02 -0.42047683409E+01  0.28928414401E+02  0.00000000000E+00 0. -1.
         15    1    4    4    0    0  0.29174723605E+03  0.17917218649E+03 -0.21979975168E+03  0.40685507615E+03  0.00000000000E+00 0. -1.
        -16    1    1    2    0    0  0.66476542676E+03  0.67100163952E+02  0.10593106207E+04  0.12524194568E+04  0.00000000000E+00 0.  1.
         16    1    4    4    0    0  0.30623892370E+02  0.89636454713E+01 -0.12453700201E+02  0.34252946920E+02  0.00000000000E+00 0. -1.
    9900018    1    1    2    0    0  0.26355848442E+03 -0.21622445379E+03 -0.15164949257E+03  0.38409482698E+03  0.91187600000E+02 0.  0.
<mgrwt>
<rscale>  0 0.34414816E+04</rscale>
<asrwt>0</asrwt>
<pdfrwt beam="1">  1        2 0.45055281E+00 0.34414816E+04</pdfrwt>
<pdfrwt beam="2">  1       -2 0.15554588E+00 0.34414816E+04</pdfrwt>
<totfact> 0.43284141E-01</totfact>
</mgrwt>
</event>
<event>
11    1  0.4671131E-018  0.2479068E+04  0.7818608E-02  0.8410481E-01
          1   -1    0    0  501    0  0.00000000000E+00  0.00000000000E+00  0.10256109318E+04  0.10256109318E+04  0.00000000000E+00 0. -1.
         -1   -1    0    0    0  501 -0.00000000000E+00 -0.00000000000E+00 -0.14980776920E+04  0.14980776920E+04  0.00000000000E+00 0.  1.
    9900016    2    1    2    0    0  0.34202604149E+03 -0.25903016562E+03 -0.44987415665E+03  0.19434677473E+04  0.18413586528E+04 0.  0.
        -24    2    3    3    0    0 -0.32486559432E+03 -0.20886600012E+03  0.58857442316E+03  0.70830121998E+03  0.78154374500E+02 0.  0.
        -15    1    4    4    0    0 -0.18186777367E+03 -0.12345847916E+03  0.35166654592E+03  0.41471344649E+03  0.00000000000E+00 0. -1.
        -15    1    3    3    0    0  0.66689163580E+03 -0.50164165501E+02 -0.10384485798E+04  0.12351665274E+04  0.00000000000E+00 0.  1.
         15    1    4    4    0    0 -0.58089655361E+01 -0.10984321151E+02  0.28549983816E+02  0.31136810493E+02  0.00000000000E+00 0. -1.
         15    1    4    4    0    0 -0.16201455519E+02  0.21515857801E+01  0.23547973137E+02  0.28663976018E+02  0.00000000000E+00 0.  1.
        -16    1    1    2    0    0 -0.35617956756E+03  0.21868495690E+03 -0.12533983997E+03  0.43634512740E+03  0.00000000000E+00 0.  1.
         16    1    4    4    0    0 -0.12098739959E+03 -0.76574785587E+02  0.18480992028E+03  0.23378698698E+03  0.00000000000E+00 0. -1.
    9900018    1    1    2    0    0  0.14153526076E+02  0.40345208723E+02  0.10274723645E+03  0.14387574903E+03  0.91187600000E+02 0.  0.
<mgrwt>
<rscale>  0 0.24790683E+04</rscale>
<asrwt>0</asrwt>
<pdfrwt beam="1">  1        1 0.15778630E+00 0.24790683E+04</pdfrwt>
<pdfrwt beam="2">  1       -1 0.23047349E+00 0.24790683E+04</pdfrwt>
<totfact> 0.12052968E+00</totfact>
</mgrwt>
</event>
<event>
12    1  0.4671131E-018  0.3248620E+04  0.7818608E-02  0.8176093E-01
          2   -1    0    0  501    0  0.00000000000E+00  0.00000000000E+00  0.34690602431E+04  0.34690602431E+04  0.00000000000E+00 0. -1.
         -2   -1    0    0    0  501 -0.00000000000E+00 -0.00000000000E+00 -0.76054703957E+03  0.76054703957E+03  0.00000000000E+00 0.  1.
    9900016    2    1    2    0    0 -0.54505297590E+02  0.52630252777E+03  0.23389001748E+04  0.30121805919E+04  0.18228583907E+04 0.  0.
        -24    2    3    3    0    0  0.11173412923E+03 -0.26243593446E+02 -0.28935397213E+03  0.32133265422E+03  0.79722717280E+02 0.  0.
         24    2    4    4    0    0  0.62239483371E+02 -0.24515650155E+02 -0.21251801208E+03  0.22808369708E+03  0.48821071476E+02 0.  0.
        -15    1    5    5    0    0  0.57677238885E+02 -0.79235723789E+00 -0.16471457579E+03  0.17452272973E+03  0.00000000000E+00 0.  1.
        -15    1    3    3    0    0 -0.16623942682E+03  0.55254612121E+03  0.26282541469E+04  0.26908479377E+04  0.00000000000E+00 0.  1.
         15    1    4    4    0    0  0.12136250159E+02  0.30424655051E+01 -0.82010637189E+01  0.14960033770E+02  0.00000000000E+00 0. -1.
         15    1    4    4    0    0  0.37358395697E+02 -0.47704087961E+01 -0.68634896328E+02  0.78288923374E+02  0.00000000000E+00 0. -1.
        -16    1    1    2    0    0 -0.24235595908E+03 -0.50571949977E+03 -0.17730414900E+03  0.58815421839E+03  0.00000000000E+00 0.  1.
         16    1    5    5    0    0  0.45622444864E+01 -0.23723292917E+02 -0.47803436291E+02  0.53560967344E+02  0.00000000000E+00 0. -1.
    9900018    1    1    2    0    0  0.29686125667E+03 -0.20583027998E+02  0.54691717771E+03  0.62927247232E+03  0.91187600000E+02 0.  0.
<mgrwt>
<rscale>  0 0.32486203E+04</rscale>
<asrwt>0</asrwt>
<pdfrwt beam="1">  1        2 0.53370157E+00 0.32486203E+04</pdfrwt>
<pdfrwt beam="2">  1       -2 0.11700724E+00 0.32486203E+04</pdfrwt>
<totfact> 0.40448747E-01</totfact>
</mgrwt>
</event>
<event>
11    1  0.4671131E-018  0.5100402E+04  0.7818608E-02  0.7813203E-01
         -2   -1    0    0    0  501 -0.00000000000E+00  0.00000000000E+00  0.22290090718E+04  0.22290090718E+04  0.00000000000E+00 0.  1.
          2   -1    0    0  501    0  0.00000000000E+00 -0.00000000000E+00 -0.29176757261E+04  0.29176757261E+04  0.00000000000E+00 0. -1.
    9900016    2    1    2    0    0 -0.32704220948E+03  0.15733270786E+04 -0.11929143428E+04  0.27129402611E+04  0.18315800633E+04 0.  0.
        -24    2    3    3    0    0 -0.11097362586E+03 -0.41405068377E+03 -0.17659562416E+03  0.47033915059E+03  0.79245111727E+02 0.  0.
        -15    1    4    4    0    0 -0.67670821711E+01 -0.17341370092E+02  0.14559349482E+01  0.18671803993E+02  0.00000000000E+00 0.  1.
        -15    1    3    3    0    0 -0.21606858362E+03  0.19873777624E+04 -0.10163187186E+04  0.22426011105E+04  0.00000000000E+00 0.  1.
         15    1    4    4    0    0 -0.66853471561E+02 -0.23512628473E+03 -0.77725384767E+02  0.25650534471E+03  0.00000000000E+00 0. -1.
         15    1    4    4    0    0  0.90124206327E+00 -0.34218737462E+02 -0.24301665597E+02  0.41979818741E+02  0.00000000000E+00 0. -1.
        -16    1    1    2    0    0 -0.25958611499E+02  0.37833618980E+03  0.18807583834E+03  0.42330207062E+03  0.00000000000E+00 0.  1.
         16    1    4    4    0    0 -0.38254314190E+02 -0.12736429149E+03 -0.76024508747E+02  0.15318218314E+03  0.00000000000E+00 0. -1.
    9900018    1    1    2    0    0  0.35300082098E+03 -0.19516632684E+04  0.31617185012E+03  0.20104424662E+04  0.91187600000E+02 0.  0.
<mgrwt>
<rscale>  0 0.51004022E+04</rscale>
<asrwt>0</asrwt>
<pdfrwt beam="1">  1        2 0.44887319E+00 0.51004022E+04</pdfrwt>
<pdfrwt beam="2">  1       -2 0.34292447E+00 0.51004022E+04</pdfrwt>
<totfact> 0.24385782E-02</totfact>
</mgrwt>
</event>
<event>
11    1  0.4671131E-018  0.4095664E+04  0.7818608E-02  0.7985521E-01
         -1   -1    0    0    0  501 -0.00000000000E+00  0.00000000000E+00  0.17734318678E+04  0.17734318678E+04  0.00000000000E+00 0.  1.
          1   -1    0    0  501    0  0.00000000000E+00 -0.00000000000E+00 -0.23646901368E+04  0.23646901368E+04  0.00000000000E+00 0. -1.
    9900016    2    1    2    0    0 -0.16814831120E+02 -0.17540012165E+03  0.37331958022E+03  0.18914979762E+04  0.18459006322E+04 0.  0.
        -24    2    3    3    0    0 -0.20919648705E+03 -0.15631037424E+03 -0.72590540595E+03  0.77540179301E+03  0.78186820669E+02 0.  0.
        -15    1    4    4    0    0 -0.84427562031E+02 -0.32845339633E+02 -0.28975382929E+03  0.30358542646E+03  0.00000000000E+00 0.  1.
        -15    1    3    3    0    0  0.19238165593E+03 -0.19089747414E+02  0.10992249862E+04  0.11160961832E+04  0.00000000000E+00 0.  1.
         15    1    4    4    0    0 -0.24219303434E+02 -0.19591335177E+02 -0.44640464901E+02  0.54434972026E+02  0.00000000000E+00 0. -1.
         15    1    4    4    0    0 -0.78562385306E+02 -0.78202959170E+02 -0.30201372956E+03  0.32171422730E+03  0.00000000000E+00 0. -1.
        -16    1    1    2    0    0 -0.19701124712E+03 -0.26646520993E+03  0.55539666183E+03  0.64674770318E+03  0.00000000000E+00 0.  1.
         16    1    4    4    0    0 -0.21987236282E+02 -0.25670740260E+02 -0.89497382199E+02  0.95667167227E+02  0.00000000000E+00 0. -1.
    9900018    1    1    2    0    0  0.21382607824E+03  0.44186533158E+03 -0.15199745111E+04  0.15998763251E+04  0.91187600000E+02 0.  0.
<mgrwt>
<rscale>  0 0.40956645E+04</rscale>
<asrwt>0</asrwt>
<pdfrwt beam="1">  1        1 0.36379848E+00 0.40956645E+04</pdfrwt>
<pdfrwt beam="2">  1       -1 0.27283567E+00 0.40956645E+04</pdfrwt>
<totfact> 0.64624964E-02</totfact>
</mgrwt>
</event>
<event>
11    1  0.4671131E-018  0.2757653E+04  0.7818608E-02  0.8316537E-01
         -2   -1    0    0    0  501 -0.00000000000E+00  0.00000000000E+00  0.78532100094E+03  0.78532100094E+03  0.00000000000E+00 0.  1.
          2   -1    0    0  501    0  0.00000000000E+00 -0.00000000000E+00 -0.24208734841E+04  0.24208734841E+04  0.00000000000E+00 0. -1.
    9900016    2    1    2    0    0  0.29203402758E+03 -0.26138391153E+03 -0.89964175705E+03  0.20864179788E+04  0.18412439460E+04 0.  0.
        -24    2    3    3    0    0 -0.81498763491E+02  0.14646713084E+03  0.52574214993E+03  0.55750055100E+03  0.79419061201E+02 0.  0.
        -15    1    4    4    0    0 -0.17813557855E+02  0.34189750070E+02  0.94669499073E+02  0.10221827580E+03  0.00000000000E+00 0.  1.
        -15    1    3    3    0    0  0.37353279107E+03 -0.40785104237E+03 -0.14253839070E+04  0.15289174278E+04  0.00000000000E+00 0.  1.
         15    1    4    4    0    0 -0.22596797980E+02  0.74775745913E+02  0.30911828866E+03  0.31883560630E+03  0.00000000000E+00 0. -1.
         15    1    4    4    0    0 -0.34613750532E+02  0.37182763358E+02  0.85762753533E+02  0.99679082612E+02  0.00000000000E+00 0. -1.
        -16    1    1    2    0    0 -0.35623035502E+03 -0.12186528237E+03 -0.13823338376E+03  0.40107316199E+03  0.00000000000E+00 0.  1.
         16    1    4    4    0    0 -0.64746571234E+01  0.31887149914E+00  0.36191608662E+02  0.36767586288E+02  0.00000000000E+00 0. -1.
    9900018    1    1    2    0    0  0.64196327443E+02  0.38324919390E+03 -0.59767734236E+03  0.71870334426E+03  0.91187600000E+02 0.  0.
<mgrwt>
<rscale>  0 0.27576532E+04</rscale>
<asrwt>0</asrwt>
<pdfrwt beam="1">  1        2 0.37244207E+00 0.27576532E+04</pdfrwt>
<pdfrwt beam="2">  1       -2 0.12081862E+00 0.27576532E+04</pdfrwt>
<totfact> 0.17626664E+00</totfact>
</mgrwt>
</event>
<event>
11    1  0.4671131E-018  0.2930161E+04  0.7818608E-02  0.8263960E-01
          3   -1    0    0  501    0  0.00000000000E+00  0.00000000000E+00  0.90681890054E+03  0.90681890054E+03  0.00000000000E+00 0. -1.
         -3   -1    0    0    0  501 -0.00000000000E+00 -0.00000000000E+00 -0.23670232069E+04  0.23670232069E+04  0.00000000000E+00 0.  1.
    9900016    2    1    2    0    0 -0.18560083315E+02 -0.17015820504E+02 -0.53961044978E+03  0.19023623325E+04  0.18240529027E+04 0.  0.
        -24    2    3    3    0    0  0.19691649456E+03 -0.11464430563E+03  0.64794954617E+03  0.69147000832E+03  0.79829414223E+02 0.  0.
        -15    1    4    4    0    0  0.32363450080E+02 -0.15020341030E+01  0.13282096656E+03  0.13671524482E+03  0.00000000000E+00 0.  1.
        -15    1    3    3    0    0 -0.21547657787E+03  0.97628485123E+02 -0.11875599960E+04  0.12108923242E+04  0.00000000000E+00 0.  1.
         15    1    4    4    0    0  0.11499415183E+03 -0.77393092981E+02  0.38781675047E+03  0.41184363264E+03  0.00000000000E+00 0. -1.
         15    1    4    4    0    0  0.65313749175E+01 -0.79670048540E+01  0.79114050043E+01  0.12989316910E+02  0.00000000000E+00 0. -1.
        -16    1    1    2    0    0  0.16266218380E+02 -0.21038298572E+03 -0.10659236866E+04  0.10866088976E+04  0.00000000000E+00 0.  1.
         16    1    4    4    0    0  0.43027517733E+02 -0.27782173689E+02  0.11940042413E+03  0.12992181395E+03  0.00000000000E+00 0. -1.
    9900018    1    1    2    0    0  0.22938649354E+01  0.22739880623E+03  0.14532983005E+03  0.28487087739E+03  0.91187600000E+02 0.  0.
<mgrwt>
<rscale>  0 0.29301613E+04</rscale>
<asrwt>0</asrwt>
<pdfrwt beam="1">  1        3 0.13951060E+00 0.29301613E+04</pdfrwt>
<pdfrwt beam="2">  1       -3 0.36415741E+00 0.29301613E+04</pdfrwt>
<totfact> 0.14542082E-02</totfact>
</mgrwt>
</event>
<event>
11    1  0.4671131E-018  0.4760352E+04  0.7818608E-02  0.7866577E-01
         -2   -1    0    0    0  501 -0.00000000000E+00  0.00000000000E+00  0.20278810901E+04  0.20278810901E+04  0.00000000000E+00 0.  1.
          2   -1    0    0  501    0  0.00000000000E+00 -0.00000000000E+00 -0.27936738840E+04  0.27936738840E+04  0.00000000000E+00 0. -1.
    9900016    2    1    2    0    0 -0.13115688755E+04 -0.17338358314E+03  0.83597133994E+02  0.22666002734E+04  0.18385357045E+04 0.  0.
         24    2    3    3    0    0 -0.32572283232E+03 -0.11456312625E+03 -0.84170792361E+03  0.91325563268E+03  0.79646397082E+02 0.  0.
        -15    1    4    4    0    0 -0.96573568810E+01 -0.71128687096E+01 -0.16240578951E+02  0.20189448924E+02  0.00000000000E+00 0.  1.
        -15    1    4    4    0    0 -0.80156916077E+02 -0.76386322298E+01 -0.21359115522E+03  0.22826445515E+03  0.00000000000E+00 0.  1.
         15    1    4    4    0    0 -0.35356354227E+02 -0.36967077892E+01 -0.59131113696E+02  0.68994391364E+02  0.00000000000E+00 0. -1.
         15    1    3    3    0    0 -0.98584604321E+03 -0.58820456887E+02  0.92530505760E+03  0.13533446408E+04  0.00000000000E+00 0. -1.
        -16    1    4    4    0    0 -0.20055220513E+03 -0.96114917526E+02 -0.55274507574E+03  0.59580733724E+03  0.00000000000E+00 0.  1.
         16    1    1    2    0    0  0.10420192048E+04 -0.82626630558E+03 -0.70632338273E+03  0.15057930641E+04  0.00000000000E+00 0. -1.
    9900018    1    1    2    0    0  0.26954967077E+03  0.99964988872E+03 -0.14306654510E+03  0.10491616366E+04  0.91187600000E+02 0.  0.
<mgrwt>
<rscale>  0 0.47603523E+04</rscale>
<asrwt>0</asrwt>
<pdfrwt beam="1">  1        2 0.42979598E+00 0.47603523E+04</pdfrwt>
<pdfrwt beam="2">  1       -2 0.31198171E+00 0.47603523E+04</pdfrwt>
<totfact> 0.46435997E-02</totfact>
</mgrwt>
</event>
<event>
11    1  0.4671131E-018  0.3193599E+04  0.7818608E-02  0.8190510E-01
         -1   -1    0    0    0  501 -0.00000000000E+00  0.00000000000E+00  0.13902187447E+04  0.13902187447E+04  0.00000000000E+00 0.  1.
          1   -1    0    0  501    0  0.00000000000E+00 -0.00000000000E+00 -0.18340767720E+04  0.18340767720E+04  0.00000000000E+00 0. -1.
    9900016    2    1    2    0    0  0.39288985667E+03  0.75947339936E+03 -0.12904493442E+03  0.20818861751E+04  0.18937885751E+04 0.  0.
        -24    2    3    3    0    0  0.19610072732E+03  0.10856608513E+03 -0.97094223344E+03  0.99966745635E+03  0.79775387885E+02 0.  0.
        -15    1    3    3    0    0  0.19678912935E+03  0.65090731424E+03  0.84189729902E+03  0.10822187188E+04  0.00000000000E+00 0.  1.
        -15    1    4    4    0    0  0.75553745758E+02  0.26212914013E+02 -0.25797830910E+03  0.27008941728E+03  0.00000000000E+00 0.  1.
         15    1    4    4    0    0  0.10814080615E+03  0.76048240457E+02 -0.60450676842E+03  0.61879415148E+03  0.00000000000E+00 0. -1.
         15    1    4    4    0    0  0.97531374772E+01 -0.49224148284E+01 -0.58568514126E+02  0.59578726953E+02  0.00000000000E+00 0. -1.
        -16    1    1    2    0    0 -0.52209427480E+03 -0.77704245806E+03 -0.29785788954E+03  0.98239337119E+03  0.00000000000E+00 0.  1.
         16    1    4    4    0    0  0.26530379405E+01  0.11227345484E+02 -0.49888641787E+02  0.51205160641E+02  0.00000000000E+00 0. -1.
    9900018    1    1    2    0    0  0.12920441812E+03  0.17569058697E+02 -0.16955203328E+02  0.16001597045E+03  0.91187600000E+02 0.  0.
<mgrwt>
<rscale>  0 0.31935985E+04</rscale>
<asrwt>0</asrwt>
<pdfrwt beam="1">  1        1 0.28216566E+00 0.31935985E+04</pdfrwt>
<pdfrwt beam="2">  1       -1 0.21387981E+00 0.31935985E+04</pdfrwt>
<totfact> 0.39126437E-01</totfact>
</mgrwt>
</event>
<event>
11    1  0.4671131E-018  0.3824456E+04  0.7818608E-02  0.8040927E-01
          2   -1    0    0  501    0  0.00000000000E+00  0.00000000000E+00  0.20081846759E+04  0.20081846759E+04  0.00000000000E+00 0.  1.
         -2   -1    0    0    0  501 -0.00000000000E+00 -0.00000000000E+00 -0.18208561822E+04  0.18208561822E+04  0.00000000000E+00 0. -1.
    9900016    2    1    2    0    0 -0.38264715833E+03 -0.29637342692E+03  0.41405522256E+03  0.19538592877E+04  0.18471243414E+04 0.  0.
         24    2    3    3    0    0 -0.29673482994E+03  0.11902356422E+03  0.10994487177E+04  0.11478196909E+04  0.80525720671E+02 0.  0.
        -15    1    4    4    0    0 -0.48776919164E+02  0.22794369461E+01  0.15588571034E+03  0.16335463986E+03  0.00000000000E+00 0.  1.
        -15    1    4    4    0    0 -0.15620864314E+03  0.87138416923E+02  0.61352392530E+03  0.63906638999E+03  0.00000000000E+00 0.  1.
         15    1    3    3    0    0 -0.85912328389E+02 -0.41539699114E+03 -0.68539349515E+03  0.80603959680E+03  0.00000000000E+00 0. -1.
         15    1    4    4    0    0 -0.25259603575E+02  0.14015547041E+02  0.15179823936E+03  0.15452245340E+03  0.00000000000E+00 0. -1.
        -16    1    4    4    0    0 -0.66489664059E+02  0.15590163309E+02  0.17824084271E+03  0.19087620760E+03  0.00000000000E+00 0.  1.
         16    1    1    2    0    0 -0.46860919903E+03 -0.21139240593E+03 -0.61957827391E+03  0.80508295734E+03  0.00000000000E+00 0. -1.
    9900018    1    1    2    0    0  0.85125635736E+03  0.50776583286E+03  0.39285154507E+03  0.10700986131E+04  0.91187600000E+02 0.  0.
<mgrwt>
<rscale>  0 0.38244558E+04</rscale>
<asrwt>0</asrwt>
<pdfrwt beam="1">  1        2 0.30895149E+00 0.38244558E+04</pdfrwt>
<pdfrwt beam="2">  1       -2 0.28013172E+00 0.38244558E+04</pdfrwt>
<totfact> 0.22239951E-01</totfact>
</mgrwt>
</event>
<event>
11    1  0.4671131E-018  0.2999100E+04  0.7818608E-02  0.8243988E-01
          1   -1    0    0  501    0  0.00000000000E+00  0.00000000000E+00  0.16045699354E+04  0.16045699354E+04  0.00000000000E+00 0. -1.
         -1   -1    0    0    0  501 -0.00000000000E+00 -0.00000000000E+00 -0.14014039126E+04  0.14014039126E+04  0.00000000000E+00 0.  1.
    9900016    2    1    2    0    0  0.14221987220E+03 -0.53664085639E+03 -0.17599571881E+03  0.19163840725E+04  0.18257446479E+04 0.  0.
        -24    2    3    3    0    0  0.17734364736E+03 -0.26283256780E+03  0.82005468961E+03  0.88278788703E+03  0.79328630200E+02 0.  0.
        -15    1    3    3    0    0 -0.35123775156E+02 -0.27380828859E+03 -0.99605040843E+03  0.10335961855E+04  0.00000000000E+00 0.  1.
        -15    1    4    4    0    0  0.15060395048E+02 -0.41492260659E+01  0.39270551520E+02  0.42263551586E+02  0.00000000000E+00 0.  1.
         15    1    4    4    0    0  0.81097306572E+02 -0.11381599449E+03  0.32000664567E+03  0.34919207752E+03  0.00000000000E+00 0. -1.
         15    1    4    4    0    0  0.15264590590E+02 -0.15314931160E+02  0.10121604316E+03  0.10349996249E+03  0.00000000000E+00 0. -1.
        -16    1    1    2    0    0  0.19689591938E+03  0.50614655543E+03 -0.36830917738E+02  0.54434258986E+03  0.00000000000E+00 0.  1.
         16    1    4    4    0    0  0.65921355145E+02 -0.12955241608E+03  0.35956144927E+03  0.38783229543E+03  0.00000000000E+00 0. -1.
    9900018    1    1    2    0    0 -0.33911579158E+03  0.30494300968E+02  0.41599265928E+03  0.54524718564E+03  0.91187600000E+02 0.  0.
<mgrwt>
<rscale>  0 0.29991003E+04</rscale>
<asrwt>0</asrwt>
<pdfrwt beam="1">  1        1 0.24685691E+00 0.29991003E+04</pdfrwt>
<pdfrwt beam="2">  1       -1 0.21560060E+00 0.29991003E+04</pdfrwt>
<totfact> 0.55551507E-01</totfact>
</mgrwt>
</event>
<event>
12    1  0.4671131E-018  0.2651422E+04  0.7818608E-02  0.8350941E-01
         -2   -1    0    0    0  501 -0.00000000000E+00  0.00000000000E+00  0.54070316608E+03  0.54070316608E+03  0.00000000000E+00 0.  1.
          2   -1    0    0  501    0  0.00000000000E+00 -0.00000000000E+00 -0.32504149682E+04  0.32504149682E+04  0.00000000000E+00 0. -1.
    9900016    2    1    2    0    0 -0.12610428719E+03  0.60259153585E+03 -0.20897959408E+04  0.28659541234E+04  0.18621028739E+04 0.  0.
         24    2    3    3    0    0 -0.26826123556E+03  0.39722815307E+01  0.29282803869E+03  0.40517159803E+03  0.80224024328E+02 0.  0.
        -24    2    4    4    0    0 -0.23069420779E+03  0.17711554235E+01  0.26325132501E+03  0.35507181740E+03  0.59596819460E+02 0.  0.
        -15    1    4    4    0    0 -0.17271871132E+02 -0.63562796784E+01  0.13955593663E+02  0.23097151734E+02  0.00000000000E+00 0.  1.
        -15    1    4    4    0    0 -0.20295156634E+02  0.85574057856E+01  0.15621120016E+02  0.27002628893E+02  0.00000000000E+00 0.  1.
         15    1    5    5    0    0 -0.16516436233E+03  0.51489469677E+01  0.22486336051E+03  0.27905072861E+03  0.00000000000E+00 0. -1.
         15    1    3    3    0    0  0.14215694837E+03  0.59861925432E+03 -0.23826239795E+04  0.24607825254E+04  0.00000000000E+00 0. -1.
        -16    1    5    5    0    0 -0.65529845460E+02 -0.33777915442E+01  0.38387964506E+02  0.76021088789E+02  0.00000000000E+00 0.  1.
         16    1    1    2    0    0  0.10802749214E+03 -0.56844741199E+03 -0.57726689469E+03  0.81733681366E+03  0.00000000000E+00 0. -1.
    9900018    1    1    2    0    0  0.18076795050E+02 -0.34144123867E+02 -0.42648966679E+02  0.10782719725E+03  0.91187600000E+02 0.  0.
<mgrwt>
<rscale>  0 0.26514220E+04</rscale>
<asrwt>0</asrwt>
<pdfrwt beam="1">  1        2 0.50006384E+00 0.26514220E+04</pdfrwt>
<pdfrwt beam="2">  1       -2 0.83185102E-01 0.26514220E+04</pdfrwt>
<totfact> 0.13394309E+00</totfact>
</mgrwt>
</event>
<event>
11    1  0.4671131E-018  0.2849077E+04  0.7818608E-02  0.8288192E-01
         -2   -1    0    0    0  501 -0.00000000000E+00  0.00000000000E+00  0.14711964319E+04  0.14711964319E+04  0.00000000000E+00 0.  1.
          2   -1    0    0  501    0  0.00000000000E+00 -0.00000000000E+00 -0.13793601437E+04  0.13793601437E+04  0.00000000000E+00 0. -1.
    9900016    2    1    2    0    0 -0.48381138149E+03  0.23611282727E+03  0.50599540844E+03  0.19831797634E+04  0.18404205771E+04 0.  0.
         24    2    3    3    0    0 -0.36901095263E+03  0.84208318227E+02  0.12012083235E+04  0.12623641729E+04  0.86033392715E+02 0.  0.
        -15    1    4    4    0    0 -0.16672257057E+02 -0.18278948747E+01  0.53151565787E+02  0.55735036563E+02  0.00000000000E+00 0.  1.
        -15    1    4    4    0    0 -0.41190540073E+02  0.22365101276E+01  0.20418567150E+03  0.20831094790E+03  0.00000000000E+00 0.  1.
         15    1    4    4    0    0 -0.76232097410E+02  0.31481334497E+02  0.29254962697E+03  0.30395343613E+03  0.00000000000E+00 0. -1.
         15    1    3    3    0    0 -0.11480042887E+03  0.15190450904E+03 -0.69521291502E+03  0.72081559052E+03  0.00000000000E+00 0. -1.
        -16    1    4    4    0    0 -0.23491605809E+03  0.52318368477E+02  0.65132145920E+03  0.69436475230E+03  0.00000000000E+00 0.  1.
         16    1    1    2    0    0  0.11205635140E+03  0.10750584699E+03 -0.30394768242E+03  0.34131851206E+03  0.00000000000E+00 0. -1.
    9900018    1    1    2    0    0  0.37175503009E+03 -0.34361867426E+03 -0.11021143784E+03  0.52605830012E+03  0.91187600000E+02 0.  0.
<mgrwt>
<rscale>  0 0.28490768E+04</rscale>
<asrwt>0</asrwt>
<pdfrwt beam="1">  1        2 0.21220925E+00 0.28490768E+04</pdfrwt>
<pdfrwt beam="2">  1       -2 0.22633791E+00 0.28490768E+04</pdfrwt>
<totfact> 0.11617964E+00</totfact>
</mgrwt>
</event>
<event>
11    1  0.4671131E-018  0.4733836E+04  0.7818608E-02  0.7870931E-01
          1   -1    0    0  501    0  0.00000000000E+00  0.00000000000E+00  0.32269545908E+04  0.32269545908E+04  0.00000000000E+00 0. -1.
         -1   -1    0    0    0  501 -0.00000000000E+00 -0.00000000000E+00 -0.17360955545E+04  0.17360955545E+04  0.00000000000E+00 0.  1.
    9900016    2    1    2    0    0 -0.66313623247E+03 -0.76784249524E+03  0.69714120916E+03  0.22210134199E+04  0.18486651902E+04 0.  0.
        -24    2    3    3    0    0 -0.27861486396E+03  0.47791044163E+02  0.11675551048E+04  0.12039568892E+04  0.80106441578E+02 0.  0.
        -15    1    3    3    0    0 -0.38452136850E+03 -0.81563353941E+03 -0.47041389563E+03  0.10170565307E+04  0.00000000000E+00 0.  1.
        -15    1    4    4    0    0 -0.14102951414E+03  0.20793999963E+02  0.48925034424E+03  0.50959553926E+03  0.00000000000E+00 0.  1.
         15    1    4    4    0    0 -0.21487263224E+02  0.76743584630E+01  0.49488177992E+02  0.54494752221E+02  0.00000000000E+00 0. -1.
         15    1    4    4    0    0 -0.78626296982E+02  0.72864566671E+01  0.40834860638E+03  0.41591317767E+03  0.00000000000E+00 0. -1.
        -16    1    1    2    0    0  0.84385984450E+03  0.14577245102E+04  0.18110971428E+02  0.16844548650E+04  0.00000000000E+00 0.  1.
         16    1    4    4    0    0 -0.37471789620E+02  0.12036229070E+02  0.22046797617E+03  0.22395342003E+03  0.00000000000E+00 0. -1.
    9900018    1    1    2    0    0 -0.18072361203E+03 -0.68988201498E+03  0.77560685576E+03  0.10575818605E+04  0.91187600000E+02 0.  0.
<mgrwt>
<rscale>  0 0.47338363E+04</rscale>
<asrwt>0</asrwt>
<pdfrwt beam="1">  1        1 0.49645455E+00 0.47338363E+04</pdfrwt>
<pdfrwt beam="2">  1       -1 0.26709162E+00 0.47338363E+04</pdfrwt>
<totfact> 0.16133551E-02</totfact>
</mgrwt>
</event>
<event>
11    1  0.4671131E-018  0.2948883E+04  0.7818608E-02  0.8258480E-01
          1   -1    0    0  501    0  0.00000000000E+00  0.00000000000E+00  0.20278926869E+04  0.20278926869E+04  0.00000000000E+00 0.  1.
         -1   -1    0    0    0  501 -0.00000000000E+00 -0.00000000000E+00 -0.10720379022E+04  0.10720379022E+04  0.00000000000E+00 0. -1.
    9900016    2    1    2    0    0  0.71689745240E+03  0.18199963806E+03  0.24207878505E+03  0.20052467766E+04  0.18480656566E+04 0.  0.
        -24    2    3    3    0    0 -0.12322054368E+02 -0.25786566963E+03 -0.69098978193E+03  0.74197343771E+03  0.80069762951E+02 0.  0.
        -15    1    3    3    0    0  0.72921950676E+03  0.43986530770E+03  0.93306856699E+03  0.12632733389E+04  0.00000000000E+00 0.  1.
        -15    1    4    4    0    0 -0.98865132377E+01 -0.73673352428E+01 -0.17855110438E+02  0.21698519335E+02  0.00000000000E+00 0.  1.
         15    1    4    4    0    0  0.57340868675E+01 -0.13472225394E+03 -0.29098564184E+03  0.32071109930E+03  0.00000000000E+00 0. -1.
         15    1    4    4    0    0 -0.78770938339E+01 -0.34950876282E+02 -0.11373386477E+03  0.11924346672E+03  0.00000000000E+00 0. -1.
        -16    1    1    2    0    0 -0.69092640739E+03 -0.18904853755E+03  0.69440347151E+03  0.99765466532E+03  0.00000000000E+00 0.  1.
         16    1    4    4    0    0 -0.29253416411E+00 -0.80825204174E+02 -0.26841516488E+03  0.28032035235E+03  0.00000000000E+00 0. -1.
    9900018    1    1    2    0    0 -0.25971045003E+02  0.70488994906E+01  0.19372528192E+02  0.97029147192E+02  0.91187600000E+02 0.  0.
<mgrwt>
<rscale>  0 0.29488831E+04</rscale>
<asrwt>0</asrwt>
<pdfrwt beam="1">  1        1 0.31198349E+00 0.29488831E+04</pdfrwt>
<pdfrwt beam="2">  1       -1 0.16492891E+00 0.29488831E+04</pdfrwt>
<totfact> 0.65426202E-01</totfact>
</mgrwt>
</event>
<event>
11    1  0.4671131E-018  0.3452164E+04  0.7818608E-02  0.8125221E-01
          3   -1    0    0  501    0  0.00000000000E+00  0.00000000000E+00  0.12716109872E+04  0.12716109872E+04  0.00000000000E+00 0. -1.
         -3   -1    0    0    0  501 -0.00000000000E+00 -0.00000000000E+00 -0.23429801256E+04  0.23429801256E+04  0.00000000000E+00 0.  1.
    9900016    2    1    2    0    0 -0.63230541399E+03  0.64638758623E+02 -0.43132216239E+03  0.19957887497E+04  0.18420492991E+04 0.  0.
         24    2    3    3    0    0  0.31577120109E+03 -0.17645963149E+01  0.54399615947E+03  0.63398681753E+03  0.79327788636E+02 0.  0.
        -15    1    4    4    0    0  0.24799754886E+02 -0.63484672480E+01  0.51498891796E+02  0.57510579331E+02  0.00000000000E+00 0.  1.
        -15    1    4    4    0    0  0.43577605453E+02 -0.49483339221E+01  0.38430721346E+02  0.58313069280E+02  0.00000000000E+00 0.  1.
         15    1    4    4    0    0  0.11566676953E+03  0.19297609774E+02  0.20134416102E+03  0.23300358472E+03  0.00000000000E+00 0. -1.
         15    1    3    3    0    0 -0.94807661508E+03  0.66403354937E+02 -0.97531832185E+03  0.13618019322E+04  0.00000000000E+00 0. -1.
        -16    1    4    4    0    0  0.13172707122E+03 -0.97654049184E+01  0.25272238531E+03  0.28515958420E+03  0.00000000000E+00 0.  1.
         16    1    1    2    0    0  0.72397566971E+02  0.27769590467E+03  0.33425854239E+03  0.44055101445E+03  0.00000000000E+00 0. -1.
    9900018    1    1    2    0    0  0.55990784702E+03 -0.34233466330E+03 -0.97430551844E+03  0.11782513486E+04  0.91187600000E+02 0.  0.
<mgrwt>
<rscale>  0 0.34521641E+04</rscale>
<asrwt>0</asrwt>
<pdfrwt beam="1">  1        3 0.19563246E+00 0.34521641E+04</pdfrwt>
<pdfrwt beam="2">  1       -3 0.36045848E+00 0.34521641E+04</pdfrwt>
<totfact> 0.58597086E-03</totfact>
</mgrwt>
</event>
<event>
12    1  0.4671131E-018  0.4198858E+04  0.7818608E-02  0.7965590E-01
         -2   -1    0    0    0  501 -0.00000000000E+00  0.00000000000E+00  0.12540889273E+04  0.12540889273E+04  0.00000000000E+00 0.  1.
          2   -1    0    0  501    0  0.00000000000E+00 -0.00000000000E+00 -0.35145849771E+04  0.35145849771E+04  0.00000000000E+00 0. -1.
    9900016    2    1    2    0    0 -0.54199884704E+03 -0.25708614929E+03 -0.11772239012E+03  0.19496131133E+04  0.18512905477E+04 0.  0.
         24    2    3    3    0    0 -0.73166920621E+02 -0.25365005065E+03 -0.95277276448E+03  0.99194703905E+03  0.80568238669E+02 0.  0.
        -24    2    4    4    0    0 -0.50239883790E+02 -0.18675396044E+03 -0.67085768602E+03  0.69988804882E+03  0.48909695583E+02 0.  0.
        -15    1    4    4    0    0  0.16275321047E+01 -0.29819680310E+02 -0.14703195899E+03  0.15003419330E+03  0.00000000000E+00 0. -1.
        -15    1    4    4    0    0 -0.24554568936E+02 -0.37076409907E+02 -0.13488311947E+03  0.14202479694E+03  0.00000000000E+00 0.  1.
         15    1    5    5    0    0 -0.28547722424E+02 -0.15854067227E+03 -0.49805048889E+03  0.52345430240E+03  0.00000000000E+00 0.  1.
         15    1    3    3    0    0 -0.46883192642E+03 -0.34360986375E+01  0.83505037436E+03  0.95766607422E+03  0.00000000000E+00 0. -1.
        -16    1    5    5    0    0 -0.21692161366E+02 -0.28213288166E+02 -0.17280719713E+03  0.17643374642E+03  0.00000000000E+00 0.  1.
         16    1    1    2    0    0  0.85945102463E+03  0.68924646296E+03 -0.77463718672E+03  0.13467663203E+04  0.00000000000E+00 0. -1.
    9900018    1    1    2    0    0 -0.31745217759E+03 -0.43216031367E+03 -0.13681364729E+04  0.14722944708E+04  0.91187600000E+02 0.  0.
<mgrwt>
<rscale>  0 0.41988580E+04</rscale>
<asrwt>0</asrwt>
<pdfrwt beam="1">  1        2 0.54070538E+00 0.41988580E+04</pdfrwt>
<pdfrwt beam="2">  1       -2 0.19293676E+00 0.41988580E+04</pdfrwt>
<totfact> 0.91144373E-02</totfact>
</mgrwt>
</event>
