<event>
12    1  0.2086845E-012  0.2212672E+04  0.7818608E-02  0.9116824E-01
          2   -1    0    0  501    0  0.00000000000E+00  0.00000000000E+00  0.10158216293E+04  0.10158216293E+04  0.00000000000E+00 0. -1.
         -2   -1    0    0    0  501 -0.00000000000E+00 -0.00000000000E+00 -0.14342098575E+04  0.14342098575E+04  0.00000000000E+00 0.  1.
         23    2    1    2    0    0 -0.13896505651E+03  0.11176561444E+03 -0.10344384855E+03  0.21505781844E+03  0.61207809688E+02 0.  0.
    9900016    2    1    2    0    0  0.26773864564E+03  0.15853673610E+03 -0.97828238920E+02  0.77416863019E+03  0.70210314383E+03 0.  0.
         23    2    4    4    0    0  0.79628888537E+02  0.20279892964E+03 -0.37270676209E+03  0.43815877171E+03  0.74863963041E+02 0.  0.
        -15    1    3    3    0    0 -0.62687380513E+02  0.88474825430E+02 -0.66126898252E+02  0.12700499629E+03  0.00000000000E+00 0. -1.
        -15    1    5    5    0    0  0.22873901612E+02  0.71389414018E+02 -0.20152234257E+03  0.21501376319E+03  0.00000000000E+00 0. -1.
         15    1    5    5    0    0  0.56754986925E+02  0.13140951562E+03 -0.17118441952E+03  0.22314500851E+03  0.00000000000E+00 0.  1.
         15    1    3    3    0    0 -0.76277676002E+02  0.23290789005E+02 -0.37316950295E+02  0.88052822147E+02  0.00000000000E+00 0.  1.
        -16    1    4    4    0    0  0.18810975711E+03 -0.44262193537E+02  0.27487852317E+03  0.33600985848E+03  0.00000000000E+00 0.  1.
         16    1    1    2    0    0 -0.18960275859E+03  0.66004821215E+01  0.57980576764E+03  0.61005532586E+03  0.00000000000E+00 0. -1.
    9900018    1    1    2    0    0  0.60829169459E+02 -0.27690283266E+03 -0.79692190833E+03  0.85074971229E+03  0.91187600000E+02 0.  0.
<mgrwt>
<rscale>  0 0.11954779E+04</rscale>
<asrwt>0</asrwt>
<pdfrwt beam="1">  1        2 0.15628025E+00 0.22126720E+04</pdfrwt>
<pdfrwt beam="2">  1       -2 0.22064767E+00 0.22126720E+04</pdfrwt>
<totfact> 0.21847169E+00</totfact>
</mgrwt>
</event>
<event>
12    1  0.2086845E-012  0.1111745E+04  0.7818608E-02  0.9833491E-01
          1   -1    0    0  501    0  0.00000000000E+00  0.00000000000E+00  0.40394309883E+04  0.40394309883E+04  0.00000000000E+00 0. -1.
         -1   -1    0    0    0  501 -0.00000000000E+00 -0.00000000000E+00 -0.93855679057E+02  0.93855679057E+02  0.00000000000E+00 0.  1.
         23    2    1    2    0    0 -0.99881298048E+02  0.13322417642E+02  0.34291539972E+03  0.36299011541E+03  0.63380533310E+02 0.  0.
    9900016    2    1    2    0    0  0.19742861917E+03 -0.19904064764E+03  0.28563866716E+04  0.29575463009E+04  0.71382075156E+03 0.  0.
         23    2    4    4    0    0  0.23191707458E+03 -0.29064482734E+03  0.67404589440E+03  0.77301155707E+03  0.70349516461E+02 0.  0.
        -15    1    5    5    0    0  0.22010961674E+02 -0.40376207053E+02  0.13613258810E+03  0.14368995119E+03  0.00000000000E+00 0. -1.
        -15    1    3    3    0    0 -0.32900626448E+02  0.35294563916E+02  0.12689584938E+03  0.13575976596E+03  0.00000000000E+00 0.  1.
         15    1    3    3    0    0 -0.66980671599E+02 -0.21972146274E+02  0.21601955035E+03  0.22723034945E+03  0.00000000000E+00 0. -1.
         15    1    5    5    0    0  0.20990611290E+03 -0.25026862029E+03  0.53791330630E+03  0.62932160588E+03  0.00000000000E+00 0.  1.
        -16    1    4    4    0    0 -0.34488455409E+02  0.91604179702E+02  0.21823407772E+04  0.21845347438E+04  0.00000000000E+00 0.  1.
         16    1    1    2    0    0  0.54966116841E+02 -0.52858334348E+01  0.79845747066E+02  0.97080159457E+02  0.00000000000E+00 0. -1.
    9900018    1    1    2    0    0 -0.15251343796E+03  0.19100406344E+03  0.66642749092E+03  0.71567009163E+03  0.91187600000E+02 0.  0.
<mgrwt>
<rscale>  0 0.63595807E+03</rscale>
<asrwt>0</asrwt>
<pdfrwt beam="1">  1        1 0.62145079E+00 0.11117453E+04</pdfrwt>
<pdfrwt beam="2">  1       -1 0.14439338E-01 0.11117453E+04</pdfrwt>
<totfact> 0.32128059E+00</totfact>
</mgrwt>
</event>
<event>
11    1  0.2086845E-012  0.1818192E+04  0.7818608E-02  0.9307067E-01
         -1   -1    0    0    0  501 -0.00000000000E+00  0.00000000000E+00  0.44110123655E+03  0.44110123655E+03  0.00000000000E+00 0. -1.
          1   -1    0    0  501    0  0.00000000000E+00 -0.00000000000E+00 -0.22499132080E+04  0.22499132080E+04  0.00000000000E+00 0.  1.
    9900016    2    1    2    0    0 -0.11675405767E+03 -0.89179804512E+02  0.31444092926E+02  0.73521521524E+03  0.71970003072E+03 0.  0.
         23    2    3    3    0    0  0.28034144490E+02  0.10805752382E+03 -0.29151603345E+03  0.33003694533E+03  0.10714684229E+03 0.  0.
        -15    1    4    4    0    0 -0.12736340191E+02  0.92453469928E+02 -0.11449413410E+03  0.14771176394E+03  0.00000000000E+00 0. -1.
        -15    1    1    2    0    0  0.39421162749E+02 -0.71878038243E+02 -0.13231543749E+03  0.15565299693E+03  0.00000000000E+00 0.  1.
         15    1    4    4    0    0  0.40770484681E+02  0.15604053892E+02 -0.17702189936E+03  0.18232518140E+03  0.00000000000E+00 0. -1.
         15    1    1    2    0    0  0.20764302617E+02 -0.80385298204E+02 -0.88236621206E+02  0.12115549411E+03  0.00000000000E+00 0.  1.
        -16    1    1    2    0    0  0.24939528997E+02  0.13033072960E+03 -0.14342748354E+03  0.19539580911E+03  0.00000000000E+00 0.  1.
         16    1    3    3    0    0 -0.14478820216E+03 -0.19723732833E+03  0.32296012638E+03  0.40517826991E+03  0.00000000000E+00 0. -1.
    9900018    1    1    2    0    0  0.31629063308E+02  0.11111241136E+03 -0.14762765221E+04  0.14835949291E+04  0.91187600000E+02 0.  0.
<mgrwt>
<rscale>  0 0.10013483E+04</rscale>
<asrwt>0</asrwt>
<pdfrwt beam="1">  1        1 0.34614049E+00 0.18181916E+04</pdfrwt>
<pdfrwt beam="2">  1       -1 0.67861729E-01 0.18181916E+04</pdfrwt>
<totfact> 0.41587954E+00</totfact>
</mgrwt>
</event>
<event>
11    1  0.2086845E-012  0.2104219E+04  0.7818608E-02  0.8955349E-01
         -2   -1    0    0    0  501 -0.00000000000E+00  0.00000000000E+00  0.20582966150E+04  0.20582966150E+04  0.00000000000E+00 0.  1.
          2   -1    0    0  501    0  0.00000000000E+00 -0.00000000000E+00 -0.77298671871E+03  0.77298671871E+03  0.00000000000E+00 0. -1.
    9900016    2    1    2    0    0 -0.41092859775E+03  0.32104526435E+03  0.71098715422E+03  0.11321612218E+04  0.71017879747E+03 0.  0.
         23    2    3    3    0    0  0.13418773233E+03  0.22695979729E+03  0.41881426979E+03  0.50656639854E+03  0.10810655141E+03 0.  0.
        -15    1    4    4    0    0  0.10504211871E+03  0.22055235948E+03  0.31545248421E+03  0.39898303194E+03  0.00000000000E+00 0. -1.
        -15    1    1    2    0    0  0.14842803613E+02  0.31627971977E+03  0.24383070258E+03  0.39963305854E+03  0.00000000000E+00 0.  1.
         15    1    1    2    0    0  0.81329063652E+02  0.44088142455E+02  0.55523409898E+02  0.10789360475E+03  0.00000000000E+00 0. -1.
         15    1    4    4    0    0  0.29145613623E+02  0.64074378046E+01  0.10336178558E+03  0.10758336661E+03  0.00000000000E+00 0.  1.
        -16    1    3    3    0    0 -0.54511633008E+03  0.94085467061E+02  0.29217288443E+03  0.62559482321E+03  0.00000000000E+00 0.  1.
         16    1    1    2    0    0 -0.30177864819E+02 -0.70825843730E+03 -0.46737398147E+02  0.71044007623E+03  0.00000000000E+00 0. -1.
    9900018    1    1    2    0    0  0.34493459530E+03  0.26845310728E+02  0.32170602775E+03  0.48115537244E+03  0.91187600000E+02 0.  0.
<mgrwt>
<rscale>  0 0.13978876E+04</rscale>
<asrwt>0</asrwt>
<pdfrwt beam="1">  1        2 0.11892103E+00 0.21042187E+04</pdfrwt>
<pdfrwt beam="2">  1       -2 0.31666102E+00 0.21042187E+04</pdfrwt>
<totfact> 0.82523347E-01</totfact>
</mgrwt>
</event>
<event>
11    1  0.2086845E-012  0.1586909E+04  0.7818608E-02  0.9502876E-01
          2   -1    0    0  501    0  0.00000000000E+00  0.00000000000E+00  0.44993082420E+03  0.44993082420E+03  0.00000000000E+00 0.  1.
         -2   -1    0    0    0  501 -0.00000000000E+00 -0.00000000000E+00 -0.16285905425E+04  0.16285905425E+04  0.00000000000E+00 0. -1.
         23    2    1    2    0    0 -0.68926159063E+01  0.65249807681E+02 -0.91930089157E+02  0.15517461281E+03  0.10640946204E+03 0.  0.
    9900016    2    1    2    0    0 -0.32566257989E+03  0.61408649295E+02 -0.18027496668E+03  0.81063224783E+03  0.71749455710E+03 0.  0.
        -15    1    3    3    0    0 -0.25030087177E+02 -0.16570223464E+02 -0.56918456298E+02  0.64348956767E+02  0.00000000000E+00 0. -1.
        -15    1    4    4    0    0 -0.42425240336E+03  0.90106585698E+01 -0.14567092337E+02  0.42459803804E+03  0.00000000000E+00 0. -1.
         15    1    4    4    0    0 -0.85834097281E+02  0.40804220143E+02  0.45526061882E+02  0.10538073329E+03  0.00000000000E+00 0.  1.
         15    1    3    3    0    0  0.18137471270E+02  0.81820031144E+02 -0.35011632859E+02  0.90825656045E+02  0.00000000000E+00 0.  1.
        -16    1    1    2    0    0  0.99793135894E+02 -0.75738207903E+02 -0.83971551962E+03  0.84900948169E+03  0.00000000000E+00 0.  1.
         16    1    4    4    0    0  0.18442392075E+03  0.11593770582E+02 -0.21123393622E+03  0.28065347651E+03  0.00000000000E+00 0. -1.
    9900018    1    1    2    0    0  0.23276205990E+03 -0.50920249073E+02 -0.66739142843E+02  0.26370502437E+03  0.91187600000E+02 0.  0.
<mgrwt>
<rscale>  0 0.84072138E+03</rscale>
<asrwt>0</asrwt>
<pdfrwt beam="1">  1        2 0.69220129E-01 0.15869094E+04</pdfrwt>
<pdfrwt beam="2">  1       -2 0.25055238E+00 0.15869094E+04</pdfrwt>
<totfact> 0.42469516E+00</totfact>
</mgrwt>
</event>
<event>
12    1  0.2086845E-012  0.1542700E+04  0.7818608E-02  0.9525880E-01
         -2   -1    0    0    0  501 -0.00000000000E+00  0.00000000000E+00  0.99308504954E+03  0.99308504954E+03  0.00000000000E+00 0.  1.
          2   -1    0    0  501    0  0.00000000000E+00 -0.00000000000E+00 -0.70142324242E+03  0.70142324242E+03  0.00000000000E+00 0. -1.
         23    2    1    2    0    0  0.56368583465E+02 -0.83761628185E+02  0.37122677602E+02  0.13095047430E+03  0.74676006652E+02 0.  0.
    9900016    2    1    2    0    0  0.30217057090E+03  0.23743912323E+03 -0.41458044348E+02  0.80502099521E+03  0.70615553678E+03 0.  0.
         23    2    4    4    0    0  0.12504504246E+03  0.19756296898E+03  0.31333213655E+03  0.40647409337E+03  0.11125093898E+03 0.  0.
        -15    1    5    5    0    0  0.10842024728E+03  0.96857363339E+02  0.12271766812E+03  0.19025226654E+03  0.00000000000E+00 0. -1.
        -15    1    3    3    0    0  0.68968318016E+02 -0.83529041748E+02  0.20753733871E+02  0.11029255267E+03  0.00000000000E+00 0. -1.
         15    1    5    5    0    0  0.16624795185E+02  0.10070560564E+03  0.19061446843E+03  0.21622182683E+03  0.00000000000E+00 0.  1.
         15    1    3    3    0    0 -0.12599734551E+02 -0.23258643779E+00  0.16368943732E+02  0.20657921631E+02  0.00000000000E+00 0.  1.
        -16    1    4    4    0    0  0.17712552844E+03  0.39876154252E+02 -0.35479018090E+03  0.39854690184E+03  0.00000000000E+00 0.  1.
         16    1    1    2    0    0 -0.31427021858E+03  0.16549915769E+03  0.21062930132E+03  0.41294121138E+03  0.00000000000E+00 0. -1.
    9900018    1    1    2    0    0 -0.44268935783E+02 -0.31917665274E+03  0.85367872548E+02  0.34559561106E+03  0.91187600000E+02 0.  0.
<mgrwt>
<rscale>  0 0.82402391E+03</rscale>
<asrwt>0</asrwt>
<pdfrwt beam="1">  1        2 0.10791127E+00 0.15426999E+04</pdfrwt>
<pdfrwt beam="2">  1       -2 0.15278232E+00 0.15426999E+04</pdfrwt>
<totfact> 0.11184077E+01</totfact>
</mgrwt>
</event>
<event>
12    1  0.2086845E-012  0.2027963E+04  0.7818608E-02  0.9237788E-01
          1   -1    0    0  501    0  0.00000000000E+00  0.00000000000E+00  0.33101037889E+04  0.33101037889E+04  0.00000000000E+00 0. -1.
         -1   -1    0    0    0  501 -0.00000000000E+00 -0.00000000000E+00 -0.40836317487E+03  0.40836317487E+03  0.00000000000E+00 0.  1.
         23    2    1    2    0    0  0.13631561880E+03  0.22058457440E+02 -0.25283111817E+02  0.15755416549E+03  0.71523114080E+02 0.  0.
    9900016    2    1    2    0    0  0.13947500208E+03  0.18120247342E+03  0.95900184961E+03  0.12171874150E+04  0.71384385059E+03 0.  0.
         23    2    4    4    0    0 -0.28885104515E+03  0.64782124597E+02  0.40452938165E+03  0.50693631987E+03  0.75556348751E+02 0.  0.
        -15    1    5    5    0    0 -0.22218946439E+03  0.51525402264E+02  0.35829975741E+03  0.42473726152E+03  0.00000000000E+00 0. -1.
        -15    1    3    3    0    0  0.13273150100E+03  0.88855182247E+00 -0.14490418647E+02  0.13352308083E+03  0.00000000000E+00 0.  1.
         15    1    3    3    0    0  0.35841178023E+01  0.21169905617E+02 -0.10792693170E+02  0.24031084664E+02  0.00000000000E+00 0. -1.
         15    1    5    5    0    0 -0.66661580761E+02  0.13256722333E+02  0.46229624238E+02  0.82199058351E+02  0.00000000000E+00 0.  1.
        -16    1    4    4    0    0  0.42832604723E+03  0.11642034882E+03  0.55447246796E+03  0.71025109510E+03  0.00000000000E+00 0.  1.
         16    1    1    2    0    0 -0.22781873424E+03  0.90428365464E+02  0.20142176400E+04  0.20290764811E+04  0.00000000000E+00 0. -1.
    9900018    1    1    2    0    0 -0.47971886635E+02 -0.29368929632E+03 -0.46195763741E+02  0.31464890221E+03  0.91187600000E+02 0.  0.
<mgrwt>
<rscale>  0 0.10671762E+04</rscale>
<asrwt>0</asrwt>
<pdfrwt beam="1">  1        1 0.50924672E+00 0.20279625E+04</pdfrwt>
<pdfrwt beam="2">  1       -1 0.62825106E-01 0.20279625E+04</pdfrwt>
<totfact> 0.83194403E-01</totfact>
</mgrwt>
</event>
<event>
12    1  0.2086845E-012  0.1951495E+04  0.7818608E-02  0.9325378E-01
          2   -1    0    0  501    0  0.00000000000E+00  0.00000000000E+00  0.99641594888E+03  0.99641594888E+03  0.00000000000E+00 0.  1.
         -2   -1    0    0    0  501 -0.00000000000E+00 -0.00000000000E+00 -0.11024308837E+04  0.11024308837E+04  0.00000000000E+00 0. -1.
         23    2    1    2    0    0  0.88780200389E+02  0.64693189839E+02  0.60473261213E+02  0.14026260646E+03  0.62844654965E+02 0.  0.
    9900016    2    1    2    0    0 -0.12398489511E+03  0.70386245707E+03  0.25825117870E+03  0.10404962712E+04  0.71073497622E+03 0.  0.
         23    2    4    4    0    0  0.12498888740E+03  0.18452719750E+03 -0.19668123445E+03  0.30656128993E+03  0.74992052337E+02 0.  0.
        -15    1    5    5    0    0  0.77670061923E+02  0.16585366283E+03 -0.16586225199E+03  0.24708371583E+03  0.00000000000E+00 0.  1.
        -15    1    3    3    0    0  0.78700896112E+02  0.59854914332E+02  0.23492125639E+02  0.10162835129E+03  0.00000000000E+00 0.  1.
         15    1    3    3    0    0  0.10079304276E+02  0.48382755068E+01  0.36981135574E+02  0.38634255175E+02  0.00000000000E+00 0. -1.
         15    1    5    5    0    0  0.47318825480E+02  0.18673534663E+02 -0.30818982456E+02  0.59477574104E+02  0.00000000000E+00 0. -1.
        -16    1    4    4    0    0 -0.24897378252E+03  0.51933525958E+03  0.45493241314E+03  0.73393498128E+03  0.00000000000E+00 0.  1.
         16    1    1    2    0    0 -0.66249753643E+02 -0.44957823830E+03 -0.16031340943E+03  0.48188174011E+03  0.00000000000E+00 0. -1.
    9900018    1    1    2    0    0  0.10145444837E+03 -0.31897740861E+03 -0.26442596526E+03  0.43620621476E+03  0.91187600000E+02 0.  0.
<mgrwt>
<rscale>  0 0.98479734E+03</rscale>
<asrwt>0</asrwt>
<pdfrwt beam="1">  1        2 0.15329476E+00 0.19514953E+04</pdfrwt>
<pdfrwt beam="2">  1       -2 0.16960475E+00 0.19514953E+04</pdfrwt>
<totfact> 0.50415315E+00</totfact>
</mgrwt>
</event>
<event>
11    1  0.2176455E-012  0.2261765E+04  0.7818608E-02  0.8988958E-01
          1   -1    0    0  501    0  0.00000000000E+00  0.00000000000E+00  0.11629537204E+04  0.11629537204E+04  0.00000000000E+00 0. -1.
         -1   -1    0    0    0  501 -0.00000000000E+00 -0.00000000000E+00 -0.14190623975E+04  0.14190623975E+04  0.00000000000E+00 0.  1.
         23    2    1    2    0    0  0.53615189819E+02  0.26363679129E+03 -0.12909121867E+03  0.31668754644E+03  0.10605429285E+03 0.  0.
    9900016    2    1    2    0    0 -0.95350269267E+02 -0.50776944094E+03 -0.18098637734E+03  0.89379954985E+03  0.70654093124E+03 0.  0.
        -15    1    3    3    0    0  0.55584567428E+02  0.20879504885E+03 -0.52306029849E+02  0.22230820345E+03  0.00000000000E+00 0.  1.
        -15    1    4    4    0    0 -0.22734990176E+03 -0.28217146529E+03 -0.96635830884E+02  0.37502959545E+03  0.00000000000E+00 0.  1.
         15    1    4    4    0    0 -0.14007896074E+03 -0.14098974179E+03  0.48213806895E+02  0.20451110900E+03  0.00000000000E+00 0. -1.
         15    1    3    3    0    0 -0.19693776090E+01  0.54841742441E+02 -0.76785188821E+02  0.94379342996E+02  0.00000000000E+00 0. -1.
        -16    1    4    4    0    0  0.27207859323E+03 -0.84608233866E+02 -0.13256435335E+03  0.31425884540E+03  0.00000000000E+00 0.  1.
         16    1    1    2    0    0  0.43114660288E+03  0.23174255599E+03  0.54865903496E+03  0.73526780296E+03  0.00000000000E+00 0. -1.
    9900018    1    1    2    0    0 -0.38941152343E+03  0.12390093657E+02 -0.49469011609E+03  0.63626121865E+03  0.91187600000E+02 0.  0.
<mgrwt>
<rscale>  0 0.13524728E+04</rscale>
<asrwt>0</asrwt>
<pdfrwt beam="1">  1        1 0.17891596E+00 0.22617648E+04</pdfrwt>
<pdfrwt beam="2">  1       -1 0.21831729E+00 0.22617648E+04</pdfrwt>
<totfact> 0.11544929E+00</totfact>
</mgrwt>
</event>
<event>
12    1  0.2086845E-012  0.1184547E+04  0.7818608E-02  0.9497815E-01
         -1   -1    0    0    0  501 -0.00000000000E+00  0.00000000000E+00  0.45638155794E+03  0.45638155794E+03  0.00000000000E+00 0. -1.
          1   -1    0    0  501    0  0.00000000000E+00 -0.00000000000E+00 -0.16878266135E+04  0.16878266135E+04  0.00000000000E+00 0.  1.
         23    2    1    2    0    0  0.16009020808E+03  0.23811832763E+03 -0.84426674720E+03  0.89799087322E+03  0.10616993586E+03 0.  0.
    9900016    2    1    2    0    0 -0.60593045835E+02 -0.18185964090E+02 -0.17404512722E+03  0.71156406590E+03  0.68704400665E+03 0.  0.
         23    2    4    4    0    0  0.19056305462E+03  0.15077261372E+03  0.11902989137E+03  0.29023360850E+03  0.10497987251E+03 0.  0.
        -15    1    5    5    0    0  0.36705990761E+02 -0.13868478738E+02  0.20833480392E+02  0.44426325141E+02  0.00000000000E+00 0. -1.
        -15    1    3    3    0    0  0.28000079015E+02  0.11439194113E+03 -0.43162456172E+03  0.44740281951E+03  0.00000000000E+00 0. -1.
         15    1    5    5    0    0  0.15385706386E+03  0.16464109246E+03  0.98196410978E+02  0.24580728336E+03  0.00000000000E+00 0.  1.
         15    1    3    3    0    0  0.13209012907E+03  0.12372638650E+03 -0.41264218548E+03  0.45058805371E+03  0.00000000000E+00 0.  1.
        -16    1    1    2    0    0  0.60841591898E+02 -0.23910750656E+03  0.69879290368E+01  0.24682570804E+03  0.00000000000E+00 0.  1.
         16    1    4    4    0    0 -0.25115610045E+03 -0.16895857781E+03 -0.29307501859E+03  0.42133045740E+03  0.00000000000E+00 0. -1.
    9900018    1    1    2    0    0 -0.16033875415E+03  0.19175143017E+02 -0.22012111017E+03  0.28782752427E+03  0.91187600000E+02 0.  0.
<mgrwt>
<rscale>  0 0.84445073E+03</rscale>
<asrwt>0</asrwt>
<pdfrwt beam="1">  1        1 0.25966563E+00 0.11845465E+04</pdfrwt>
<pdfrwt beam="2">  1       -1 0.70212547E-01 0.11845465E+04</pdfrwt>
<totfact> 0.98502680E+00</totfact>
</mgrwt>
</event>
<event>
12    1  0.2086845E-012  0.2206520E+04  0.7818608E-02  0.9097136E-01
          2   -1    0    0  501    0  0.00000000000E+00  0.00000000000E+00  0.33967531357E+04  0.33967531357E+04  0.00000000000E+00 0. -1.
         -2   -1    0    0    0  501 -0.00000000000E+00 -0.00000000000E+00 -0.47693904566E+03  0.47693904566E+03  0.00000000000E+00 0.  1.
         23    2    1    2    0    0 -0.16952403360E+03 -0.34634207646E+02 -0.10857347226E+02  0.20523692225E+03  0.10984710263E+03 0.  0.
    9900016    2    1    2    0    0  0.33107623722E+03 -0.50083743923E+02  0.76541786200E+03  0.10962668919E+04  0.70980049210E+03 0.  0.
         23    2    4    4    0    0  0.46961263661E+02  0.30907106173E+03  0.37695159602E+03  0.49575083682E+03  0.77110991297E+02 0.  0.
        -15    1    3    3    0    0 -0.51690806418E+02 -0.64621081564E+02 -0.12164606313E+02  0.83640906842E+02  0.00000000000E+00 0.  1.
        -15    1    5    5    0    0  0.61882191297E+02  0.26748936653E+03  0.34652920017E+03  0.44211135857E+03  0.00000000000E+00 0. -1.
         15    1    3    3    0    0 -0.11783322718E+03  0.29986873918E+02  0.13072590865E+01  0.12159601540E+03  0.00000000000E+00 0. -1.
         15    1    5    5    0    0 -0.14920927635E+02  0.41581695202E+02  0.30422395846E+02  0.53639478244E+02  0.00000000000E+00 0.  1.
        -16    1    1    2    0    0 -0.60248228008E+03 -0.34114126076E+03  0.71609539107E+03  0.99606970977E+03  0.00000000000E+00 0.  1.
         16    1    4    4    0    0  0.28411497356E+03 -0.35915480566E+03  0.38846626598E+03  0.60051605510E+03  0.00000000000E+00 0. -1.
    9900018    1    1    2    0    0  0.44093007646E+03  0.42585921233E+03  0.14491581842E+04  0.15761186574E+04  0.91187600000E+02 0.  0.
<mgrwt>
<rscale>  0 0.12181270E+04</rscale>
<asrwt>0</asrwt>
<pdfrwt beam="1">  1        2 0.52257739E+00 0.22065196E+04</pdfrwt>
<pdfrwt beam="2">  1       -2 0.73375240E-01 0.22065196E+04</pdfrwt>
<totfact> 0.14603470E+00</totfact>
</mgrwt>
</event>
<event>
11    1  0.2086845E-012  0.1304200E+04  0.7818608E-02  0.9365957E-01
         -1   -1    0    0    0  501 -0.00000000000E+00  0.00000000000E+00  0.13617749375E+04  0.13617749375E+04  0.00000000000E+00 0.  1.
          1   -1    0    0  501    0  0.00000000000E+00 -0.00000000000E+00 -0.60045260216E+03  0.60045260216E+03  0.00000000000E+00 0. -1.
    9900016    2    1    2    0    0  0.41420887408E+02  0.37635177788E+03  0.12622829614E+03  0.82015947315E+03  0.71649956596E+03 0.  0.
         23    2    3    3    0    0  0.21370683873E+03  0.52094401657E+03  0.15155989582E+03  0.59381669227E+03  0.11222557947E+03 0.  0.
        -15    1    4    4    0    0  0.16199334493E+03  0.47900724595E+03  0.14913616414E+03  0.52719197730E+03  0.00000000000E+00 0. -1.
        -15    1    1    2    0    0 -0.16853869911E+02 -0.10570580112E+03  0.68453373605E+02  0.12705759985E+03  0.00000000000E+00 0.  1.
         15    1    4    4    0    0  0.51713493795E+02  0.41936770621E+02  0.24237316795E+01  0.66624714978E+02  0.00000000000E+00 0.  1.
         15    1    1    2    0    0 -0.10097200967E+03 -0.21186224757E+03  0.45145452562E+03  0.50881445280E+03  0.00000000000E+00 0. -1.
        -16    1    1    2    0    0 -0.39186696452E+02  0.19419237047E+03  0.23633357940E+02  0.19951142708E+03  0.00000000000E+00 0.  1.
         16    1    3    3    0    0 -0.17228595132E+03 -0.14459223869E+03 -0.25331599677E+02  0.22634278087E+03  0.00000000000E+00 0. -1.
    9900018    1    1    2    0    0  0.11559168862E+03 -0.25297609966E+03  0.91552782026E+02  0.30668458678E+03  0.91187600000E+02 0.  0.
<mgrwt>
<rscale>  0 0.94930997E+03</rscale>
<asrwt>0</asrwt>
<pdfrwt beam="1">  1        1 0.92377324E-01 0.13042001E+04</pdfrwt>
<pdfrwt beam="2">  1       -1 0.20950384E+00 0.13042001E+04</pdfrwt>
<totfact> 0.43273460E+00</totfact>
</mgrwt>
</event>
<event>
12    1  0.2086845E-012  0.2011459E+04  0.7818608E-02  0.9400343E-01
         -1   -1    0    0    0  501 -0.00000000000E+00  0.00000000000E+00  0.35651158180E+03  0.35651158180E+03  0.00000000000E+00 0.  1.
          1   -1    0    0  501    0  0.00000000000E+00 -0.00000000000E+00 -0.30919891464E+04  0.30919891464E+04  0.00000000000E+00 0. -1.
         23    2    1    2    0    0 -0.50382303807E+02  0.41248046070E+02 -0.10632361662E+03  0.13815039317E+03  0.59506653756E+02 0.  0.
    9900016    2    1    2    0    0  0.40239050116E+03 -0.49845397797E+03 -0.23274558058E+04  0.25154322245E+04  0.70708858323E+03 0.  0.
         23    2    4    4    0    0 -0.17382547653E+03 -0.89391005586E+02 -0.39608405865E+03  0.45884422638E+03  0.12429559282E+03 0.  0.
        -15    1    5    5    0    0 -0.70493049571E+02 -0.10263842098E+03 -0.17889031846E+03  0.21795793525E+03  0.00000000000E+00 0.  1.
        -15    1    3    3    0    0 -0.39419223000E+02  0.29527183383E+02 -0.24952925205E+02  0.55212119836E+02  0.00000000000E+00 0. -1.
         15    1    3    3    0    0 -0.10963080807E+02  0.11720862687E+02 -0.81370691414E+02  0.82938273337E+02  0.00000000000E+00 0. -1.
         15    1    5    5    0    0 -0.10333242696E+03  0.13247415396E+02 -0.21719374019E+03  0.24088629113E+03  0.00000000000E+00 0.  1.
        -16    1    1    2    0    0  0.20223383349E+02  0.32768911605E+03 -0.10208347964E+03  0.34381707175E+03  0.00000000000E+00 0.  1.
         16    1    4    4    0    0  0.57621597769E+03 -0.40906297239E+03 -0.19313717472E+04  0.20565879982E+04  0.00000000000E+00 0. -1.
    9900018    1    1    2    0    0 -0.37223158070E+03  0.12951681585E+03 -0.19961466250E+03  0.45110103872E+03  0.91187600000E+02 0.  0.
<mgrwt>
<rscale>  0 0.92047420E+03</rscale>
<asrwt>0</asrwt>
<pdfrwt beam="1">  1        1 0.47569065E+00 0.20114594E+04</pdfrwt>
<pdfrwt beam="2">  1       -1 0.54847935E-01 0.20114594E+04</pdfrwt>
<totfact> 0.15932182E+00</totfact>
</mgrwt>
</event>
