<event>
11    1  0.1864620E-017  0.3085958E+04  0.7818608E-02  0.8219602E-01
         -2   -1    0    0    0  501 -0.00000000000E+00  0.00000000000E+00  0.11956761190E+04  0.11956761190E+04  0.00000000000E+00 0.  1.
          2   -1    0    0  501    0  0.00000000000E+00 -0.00000000000E+00 -0.19911609459E+04  0.19911609459E+04  0.00000000000E+00 0. -1.
    9900016    2    1    2    0    0  0.39614671633E+03 -0.64366260152E+03 -0.62390700075E+03  0.24118062811E+04  0.22037050226E+04 0.  0.
         24    2    3    3    0    0 -0.16794347914E+03 -0.43227905508E+02  0.37610210745E+03  0.42230773649E+03  0.82567336631E+02 0.  0.
        -15    1    4    4    0    0 -0.33160408988E+02 -0.36501803294E+00  0.21276988722E+02  0.39401220939E+02  0.00000000000E+00 0.  1.
        -15    1    4    4    0    0 -0.10980701989E+02  0.29322199341E+01  0.35389853810E+02  0.37170088547E+02  0.00000000000E+00 0. -1.
         15    1    4    4    0    0 -0.11131927603E+02 -0.16533443434E+01  0.26346964754E+02  0.28649885016E+02  0.00000000000E+00 0.  1.
         15    1    3    3    0    0 -0.85862076839E+02  0.20901012256E+03 -0.91663794613E+03  0.94407767258E+03  0.00000000000E+00 0. -1.
        -16    1    1    2    0    0 -0.39614671633E+03  0.64366260152E+03 -0.17157782608E+03  0.77503078381E+03  0.00000000000E+00 0.  1.
         16    1    4    4    0    0 -0.11267044056E+03 -0.44141763066E+02  0.29308830016E+03  0.31708654199E+03  0.00000000000E+00 0. -1.
    9900018    1    3    3    0    0  0.64995227231E+03 -0.80944481857E+03 -0.83371162071E+02  0.10454208720E+04  0.91187600000E+02 0.  0.
<mgrwt>
<rscale>  0 0.30859576E+04</rscale>
<asrwt>0</asrwt>
<pdfrwt beam="1">  1        2 0.30633245E+00 0.30859576E+04</pdfrwt>
<pdfrwt beam="2">  1       -2 0.18395017E+00 0.30859576E+04</pdfrwt>
<totfact> 0.97845402E-01</totfact>
</mgrwt>
</event>
<event>
11    1  0.1864620E-017  0.3126136E+04  0.7818608E-02  0.8208602E-01
         -2   -1    0    0    0  501 -0.00000000000E+00  0.00000000000E+00  0.99539956977E+03  0.99539956977E+03  0.00000000000E+00 0.  1.
          2   -1    0    0  501    0  0.00000000000E+00 -0.00000000000E+00 -0.24544732199E+04  0.24544732199E+04  0.00000000000E+00 0. -1.
    9900016    2    1    2    0    0  0.66748275979E+03 -0.40288430204E+03 -0.11885048918E+04  0.26246113472E+04  0.22063979357E+04 0.  0.
         24    2    3    3    0    0 -0.14207154883E+03  0.54345305787E+02  0.36223324429E+03  0.39952198242E+03  0.72575160460E+02 0.  0.
        -15    1    4    4    0    0 -0.73737672604E+02 -0.16645640545E+01  0.11159746687E+03  0.13376849310E+03  0.00000000000E+00 0.  1.
        -15    1    3    3    0    0 -0.94048255301E+01  0.62726795620E+01  0.47145814625E+02  0.48482214149E+02  0.00000000000E+00 0. -1.
         15    1    3    3    0    0 -0.80236057959E+01  0.92063900485E+01  0.16585543280E+02  0.20596507315E+02  0.00000000000E+00 0.  1.
         15    1    3    3    0    0 -0.32440391994E+02 -0.47461767181E+03 -0.24108925876E+03  0.53332761425E+03  0.00000000000E+00 0. -1.
        -16    1    1    2    0    0 -0.66748275979E+03  0.40288430204E+03 -0.27056875835E+03  0.82526144248E+03  0.00000000000E+00 0.  1.
         16    1    4    4    0    0 -0.68333876226E+02  0.56009869841E+02  0.25063577742E+03  0.26575348932E+03  0.00000000000E+00 0. -1.
    9900018    1    3    3    0    0  0.85942313194E+03  0.19089943701E+01 -0.13733802352E+04  0.16226830291E+04  0.91187600000E+02 0.  0.
<mgrwt>
<rscale>  0 0.31261360E+04</rscale>
<asrwt>0</asrwt>
<pdfrwt beam="1">  1        2 0.37761126E+00 0.31261360E+04</pdfrwt>
<pdfrwt beam="2">  1       -2 0.15313840E+00 0.31261360E+04</pdfrwt>
<totfact> 0.88837135E-01</totfact>
</mgrwt>
</event>
<event>
11    1  0.1864620E-017  0.2986604E+04  0.7818608E-02  0.8247567E-01
         -1   -1    0    0    0  501 -0.00000000000E+00  0.00000000000E+00  0.19780562136E+04  0.19780562136E+04  0.00000000000E+00 0.  1.
          1   -1    0    0  501    0  0.00000000000E+00 -0.00000000000E+00 -0.11273443202E+04  0.11273443202E+04  0.00000000000E+00 0. -1.
    9900016    2    1    2    0    0 -0.13223911003E+03  0.62667876792E+03  0.90121316366E+03  0.24629335395E+04  0.22008277973E+04 0.  0.
         24    2    3    3    0    0  0.17354769781E+03 -0.21946879431E+03  0.27754164551E+03  0.40332200661E+03  0.85755005260E+02 0.  0.
        -15    1    4    4    0    0  0.16806973099E+02 -0.12350482233E+02  0.27510967807E+02  0.34523355947E+02  0.00000000000E+00 0. -1.
        -15    1    4    4    0    0  0.80802001583E+01 -0.59696451458E+02  0.67487498897E+02  0.90462801519E+02  0.00000000000E+00 0.  1.
         15    1    3    3    0    0  0.52746498911E+03  0.94132443547E+03  0.14244205644E+03  0.10883936544E+04  0.00000000000E+00 0. -1.
         15    1    4    4    0    0  0.15931663767E+02 -0.23875635802E+02  0.22309478530E+02  0.36353496773E+02  0.00000000000E+00 0.  1.
        -16    1    1    2    0    0  0.13223911003E+03 -0.62667876792E+03 -0.50501270272E+02  0.64246699424E+03  0.00000000000E+00 0.  1.
         16    1    4    4    0    0  0.13272886079E+03 -0.12354622482E+03  0.16023370028E+03  0.24198235237E+03  0.00000000000E+00 0. -1.
    9900018    1    3    3    0    0 -0.83325179695E+03 -0.95176873238E+02  0.48122946171E+03  0.97121787850E+03  0.91187600000E+02 0.  0.
<mgrwt>
<rscale>  0 0.29866037E+04</rscale>
<asrwt>0</asrwt>
<pdfrwt beam="1">  1        1 0.17343759E+00 0.29866037E+04</pdfrwt>
<pdfrwt beam="2">  1       -1 0.30431634E+00 0.29866037E+04</pdfrwt>
<totfact> 0.31898847E-01</totfact>
</mgrwt>
</event>
