<event>
11    1  0.1892507E-012  0.2694124E+04  0.7818608E-02  0.8336914E-01
          2   -1    0    0  501    0  0.00000000000E+00  0.00000000000E+00  0.27805387345E+04  0.27805387345E+04  0.00000000000E+00 0. -1.
         -2   -1    0    0    0  501 -0.00000000000E+00 -0.00000000000E+00 -0.65259866007E+03  0.65259866007E+03  0.00000000000E+00 0.  1.
    9900016    2    1    2    0    0 -0.39379554344E+03  0.21919412185E+02  0.10201179139E+04  0.13134035153E+04  0.72720894170E+03 0.  0.
         23    2    3    3    0    0 -0.19019304489E+03 -0.10976269859E+03  0.46024787878E+02  0.24917950064E+03  0.10840155955E+03 0.  0.
        -15    1    4    4    0    0 -0.89374526195E+02 -0.11260051455E+03  0.32845874926E+02  0.14746366776E+03  0.00000000000E+00 0.  1.
        -15    1    1    2    0    0  0.65879935726E+03  0.71881930712E+03  0.39877677502E+03  0.10534423125E+04  0.00000000000E+00 0.  1.
         15    1    4    4    0    0 -0.10081851870E+03  0.28378159646E+01  0.13178912953E+02  0.10171583288E+03  0.00000000000E+00 0. -1.
         15    1    1    2    0    0 -0.13307899078E+03 -0.24436608134E+03  0.30459111852E+03  0.41255369224E+03  0.00000000000E+00 0. -1.
        -16    1    3    3    0    0  0.74448185488E+02  0.42863255646E+02  0.44411754323E+03  0.45234962497E+03  0.00000000000E+00 0.  1.
         16    1    1    2    0    0 -0.13192482304E+03 -0.49637263797E+03  0.40445426700E+03  0.65373787465E+03  0.00000000000E+00 0. -1.
    9900018    1    3    3    0    0 -0.27805068404E+03  0.88818855126E+02  0.52997558282E+03  0.61187438964E+03  0.91187600000E+02 0.  0.
<mgrwt>
<rscale>  0 0.26941239E+04</rscale>
<asrwt>0</asrwt>
<pdfrwt beam="1">  1        2 0.42777519E+00 0.26941239E+04</pdfrwt>
<pdfrwt beam="2">  1       -2 0.10039980E+00 0.26941239E+04</pdfrwt>
<totfact> 0.17057757E+00</totfact>
</mgrwt>
</event>
<event>
11    1  0.1892507E-012  0.1631691E+04  0.7818608E-02  0.8801312E-01
         -1   -1    0    0    0  501 -0.00000000000E+00  0.00000000000E+00  0.27334541593E+03  0.27334541593E+03  0.00000000000E+00 0.  1.
          1   -1    0    0  501    0  0.00000000000E+00 -0.00000000000E+00 -0.24350293110E+04  0.24350293110E+04  0.00000000000E+00 0. -1.
    9900016    2    1    2    0    0 -0.17146828261E+03  0.22748840083E+03 -0.15473723453E+04  0.17288785085E+04  0.71659429085E+03 0.  0.
         23    2    3    3    0    0  0.10470554492E+03  0.23687013468E+03 -0.76618513624E+03  0.81086728459E+03  0.58269875468E+02 0.  0.
        -15    1    1    2    0    0 -0.88595469586E+02 -0.26648184156E+03 -0.34727925671E+03  0.44661461155E+03  0.00000000000E+00 0.  1.
        -15    1    4    4    0    0  0.41174409512E+02  0.16253617045E+03 -0.48400381441E+03  0.51222361432E+03  0.00000000000E+00 0.  1.
         15    1    1    2    0    0 -0.30500835188E+02 -0.68786272871E+02 -0.20290323694E+03  0.21640604392E+03  0.00000000000E+00 0. -1.
         15    1    4    4    0    0  0.63531135405E+02  0.74333964225E+02 -0.28218132183E+03  0.29864367027E+03  0.00000000000E+00 0. -1.
        -16    1    3    3    0    0  0.15100221822E+02  0.68768490849E+02  0.54587420508E+01  0.70618127259E+02  0.00000000000E+00 0.  1.
         16    1    1    2    0    0  0.29056458739E+03  0.10777971360E+03 -0.64129056089E+02  0.31647556295E+03  0.00000000000E+00 0. -1.
    9900018    1    3    3    0    0 -0.29127404935E+03 -0.78150224698E+02 -0.78664595115E+03  0.84739309668E+03  0.91187600000E+02 0.  0.
<mgrwt>
<rscale>  0 0.16316913E+04</rscale>
<asrwt>0</asrwt>
<pdfrwt beam="1">  1        1 0.37461991E+00 0.16316913E+04</pdfrwt>
<pdfrwt beam="2">  1       -1 0.42053140E-01 0.16316913E+04</pdfrwt>
<totfact> 0.80009948E+00</totfact>
</mgrwt>
</event>
<event>
11    1  0.1892507E-012  0.1492604E+04  0.7818608E-02  0.9475793E-01
         -2   -1    0    0    0  501 -0.00000000000E+00  0.00000000000E+00  0.41400094089E+03  0.41400094089E+03  0.00000000000E+00 0.  1.
          2   -1    0    0  501    0  0.00000000000E+00 -0.00000000000E+00 -0.19470563456E+04  0.19470563456E+04  0.00000000000E+00 0. -1.
    9900016    2    1    2    0    0 -0.65203443638E+03 -0.20677449801E+02 -0.11617858994E+04  0.15078805016E+04  0.70596081192E+03 0.  0.
         23    2    3    3    0    0 -0.12252297264E+03  0.20910200083E+03 -0.57385920694E+03  0.63311013007E+03  0.11304212412E+03 0.  0.
        -15    1    1    2    0    0  0.72506642601E+02 -0.44248936779E+02  0.29852793403E+02  0.90035386939E+02  0.00000000000E+00 0.  1.
        -15    1    4    4    0    0 -0.54921325083E+02  0.16067868193E+03 -0.47201760917E+03  0.50163195088E+03  0.00000000000E+00 0. -1.
         15    1    1    2    0    0  0.59935716363E+02  0.53314488955E+02  0.32235170446E+02  0.86451321808E+02  0.00000000000E+00 0. -1.
         15    1    4    4    0    0 -0.67601647559E+02  0.48423318900E+02 -0.10184159777E+03  0.13147817919E+03  0.00000000000E+00 0.  1.
        -16    1    3    3    0    0 -0.45053384843E+03 -0.22189965341E+03 -0.55701275638E+03  0.74998894360E+03  0.00000000000E+00 0.  1.
         16    1    1    2    0    0  0.51959207741E+03  0.11611897624E+02 -0.43335746920E+03  0.67669007617E+03  0.00000000000E+00 0. -1.
    9900018    1    3    3    0    0 -0.78977615303E+02 -0.78797972277E+01 -0.30913936088E+02  0.12478142795E+03  0.91187600000E+02 0.  0.
<mgrwt>
<rscale>  0 0.86092262E+03</rscale>
<asrwt>0</asrwt>
<pdfrwt beam="1">  1        2 0.29954713E+00 0.14926038E+04</pdfrwt>
<pdfrwt beam="2">  1       -2 0.63692453E-01 0.14926038E+04</pdfrwt>
<totfact> 0.15690048E+01</totfact>
</mgrwt>
</event>
<event>
11    1  0.1892507E-012  0.2640990E+04  0.7818608E-02  0.8874159E-01
         -3   -1    0    0    0  501 -0.00000000000E+00  0.00000000000E+00  0.19343085742E+04  0.19343085742E+04  0.00000000000E+00 0.  1.
          3   -1    0    0  501    0  0.00000000000E+00 -0.00000000000E+00 -0.11556046760E+04  0.11556046760E+04  0.00000000000E+00 0. -1.
    9900016    2    1    2    0    0  0.80286505793E+03 -0.81289208588E+02 -0.48273795179E+03  0.11841299796E+04  0.71967189878E+03 0.  0.
         23    2    3    3    0    0  0.41693244420E+03 -0.20427011036E+03 -0.32742033812E+03  0.58041699863E+03  0.11883128154E+03 0.  0.
        -15    1    1    2    0    0 -0.90838549310E+02  0.12833753297E+03 -0.88057114574E+02  0.18021159740E+03  0.00000000000E+00 0.  1.
        -15    1    4    4    0    0  0.24740971737E+03 -0.57192951553E+02 -0.19134616750E+03  0.31795590540E+03  0.00000000000E+00 0. -1.
         15    1    1    2    0    0  0.11757364525E+03  0.38374372386E+02 -0.16838119440E+02  0.12481857546E+03  0.00000000000E+00 0. -1.
         15    1    4    4    0    0  0.16952272682E+03 -0.14707715881E+03 -0.13607417062E+03  0.26246109323E+03  0.00000000000E+00 0.  1.
        -16    1    1    2    0    0 -0.82960015387E+03 -0.85422696772E+02  0.13663370840E+04  0.16007530976E+04  0.00000000000E+00 0.  1.
         16    1    3    3    0    0  0.39737075555E+03  0.18617918783E+03 -0.35869040574E+02  0.44028717381E+03  0.00000000000E+00 0. -1.
    9900018    1    3    3    0    0 -0.11438141816E+02 -0.63198286063E+02 -0.11944857309E+03  0.16342580719E+03  0.91187600000E+02 0.  0.
<mgrwt>
<rscale>  0 0.15155787E+04</rscale>
<asrwt>0</asrwt>
<pdfrwt beam="1">  1        3 0.17778533E+00 0.26409896E+04</pdfrwt>
<pdfrwt beam="2">  1       -3 0.29758594E+00 0.26409896E+04</pdfrwt>
<totfact> 0.18171337E-02</totfact>
</mgrwt>
</event>
<event>
11    1  0.1892507E-012  0.2003397E+04  0.7818608E-02  0.8944612E-01
          1   -1    0    0  501    0  0.00000000000E+00  0.00000000000E+00  0.66332398660E+03  0.66332398660E+03  0.00000000000E+00 0. -1.
         -1   -1    0    0    0  501 -0.00000000000E+00 -0.00000000000E+00 -0.23539029164E+04  0.23539029164E+04  0.00000000000E+00 0.  1.
    9900016    2    1    2    0    0  0.39777504546E+03  0.48546997658E+03 -0.68248599941E+03  0.11717093902E+04  0.71638653725E+03 0.  0.
         23    2    3    3    0    0  0.49717371242E+02 -0.18103302030E+02 -0.39282439020E+03  0.40361011452E+03  0.76095837297E+02 0.  0.
        -15    1    1    2    0    0  0.26586619910E+03  0.20004073654E+03 -0.10278136095E+03  0.34823144640E+03  0.00000000000E+00 0.  1.
        -15    1    4    4    0    0 -0.84884135511E+01 -0.30463968020E+02 -0.10321882860E+03  0.10795477336E+03  0.00000000000E+00 0. -1.
         15    1    4    4    0    0  0.58205784794E+02  0.12360665989E+02 -0.28960556160E+03  0.29565534116E+03  0.00000000000E+00 0.  1.
         15    1    1    2    0    0  0.10209242936E+03  0.33467686937E+02 -0.21509342484E+03  0.24043321653E+03  0.00000000000E+00 0. -1.
        -16    1    3    3    0    0  0.51990554123E+02  0.36973852568E+03 -0.13709990656E+03  0.39775115270E+03  0.00000000000E+00 0.  1.
         16    1    1    2    0    0 -0.76573367393E+03 -0.71897840006E+03 -0.69021814465E+03  0.12568528499E+04  0.00000000000E+00 0. -1.
    9900018    1    3    3    0    0  0.29606712010E+03  0.13383475293E+03 -0.15256170264E+03  0.37034812299E+03  0.91187600000E+02 0.  0.
<mgrwt>
<rscale>  0 0.14127899E+04</rscale>
<asrwt>0</asrwt>
<pdfrwt beam="1">  1        1 0.10204984E+00 0.20033966E+04</pdfrwt>
<pdfrwt beam="2">  1       -1 0.36213891E+00 0.20033966E+04</pdfrwt>
<totfact> 0.35008219E-01</totfact>
</mgrwt>
</event>
<event>
11    1  0.1892507E-012  0.1374043E+04  0.7818608E-02  0.9102566E-01
         -1   -1    0    0    0  501 -0.00000000000E+00  0.00000000000E+00  0.46972714498E+03  0.46972714498E+03  0.00000000000E+00 0.  1.
          1   -1    0    0  501    0  0.00000000000E+00 -0.00000000000E+00 -0.26407436924E+04  0.26407436924E+04  0.00000000000E+00 0. -1.
    9900016    2    1    2    0    0 -0.20800700761E+03 -0.37493139998E+03 -0.10376214775E+04  0.13330016234E+04  0.71860596128E+03 0.  0.
         23    2    3    3    0    0 -0.26125756927E+03 -0.46716709758E+03 -0.44978807696E+03  0.70829091318E+03  0.11342878359E+03 0.  0.
        -15    1    4    4    0    0 -0.23868272899E+01 -0.29175952154E+02 -0.10575369093E+00  0.29273611196E+02  0.00000000000E+00 0.  1.
        -15    1    1    2    0    0  0.18197041554E+03 -0.21997678391E+03 -0.46558587047E+03  0.54614395572E+03  0.00000000000E+00 0.  1.
         15    1    4    4    0    0 -0.25887074198E+03 -0.43799114543E+03 -0.44968232327E+03  0.67901730198E+03  0.00000000000E+00 0. -1.
         15    1    1    2    0    0  0.40647453873E+03  0.22257545479E+03 -0.14592924627E+03  0.48585669556E+03  0.00000000000E+00 0. -1.
        -16    1    3    3    0    0  0.36727485085E+02  0.38434377623E+02 -0.43394367884E+03  0.43718786116E+03  0.00000000000E+00 0.  1.
         16    1    1    2    0    0 -0.38043794665E+03  0.37233272909E+03 -0.52187995318E+03  0.74546856267E+03  0.00000000000E+00 0. -1.
    9900018    1    3    3    0    0  0.16523076572E+02  0.53801319981E+02 -0.15388972170E+03  0.18752284909E+03  0.91187600000E+02 0.  0.
<mgrwt>
<rscale>  0 0.12118275E+04</rscale>
<asrwt>0</asrwt>
<pdfrwt beam="1">  1        1 0.40626826E+00 0.13740428E+04</pdfrwt>
<pdfrwt beam="2">  1       -1 0.72265715E-01 0.13740428E+04</pdfrwt>
<totfact> 0.20344280E+00</totfact>
</mgrwt>
</event>
<event>
11    1  0.1892507E-012  0.1345216E+04  0.7818608E-02  0.8994457E-01
         -1   -1    0    0    0  501 -0.00000000000E+00  0.00000000000E+00  0.73825976480E+03  0.73825976480E+03  0.00000000000E+00 0.  1.
          1   -1    0    0  501    0  0.00000000000E+00 -0.00000000000E+00 -0.61279479019E+03  0.61279479019E+03  0.00000000000E+00 0. -1.
    9900016    2    1    2    0    0  0.30904138884E+03 -0.77009417034E+02  0.26208732844E+03  0.81210783725E+03  0.69956582340E+03 0.  0.
         23    2    3    3    0    0 -0.18440134269E+02  0.22084343234E+02  0.22580718710E+03  0.23909774073E+03  0.73151125137E+02 0.  0.
        -15    1    4    4    0    0 -0.41109062263E+02 -0.53073893804E+01  0.14512815852E+03  0.15093146053E+03  0.00000000000E+00 0. -1.
        -15    1    1    2    0    0  0.54659904509E+01  0.32813205746E+02  0.11050123684E+03  0.11539976978E+03  0.00000000000E+00 0.  1.
         15    1    4    4    0    0  0.22668927994E+02  0.27391732615E+02  0.80679028582E+02  0.88166280204E+02  0.00000000000E+00 0.  1.
         15    1    1    2    0    0 -0.25432266050E+02  0.47368798573E+02 -0.51774134310E+02  0.74640231901E+02  0.00000000000E+00 0. -1.
        -16    1    3    3    0    0 -0.91268355855E+02 -0.40241165110E+02 -0.76802323957E+02  0.12588828824E+03  0.00000000000E+00 0.  1.
         16    1    1    2    0    0 -0.28907511325E+03 -0.31725872857E+01 -0.19534945635E+03  0.34890671605E+03  0.00000000000E+00 0. -1.
    9900018    1    3    3    0    0  0.41874987897E+03 -0.58852595158E+02  0.11308246530E+03  0.44712180828E+03  0.91187600000E+02 0.  0.
<mgrwt>
<rscale>  0 0.13452163E+04</rscale>
<asrwt>0</asrwt>
<pdfrwt beam="1">  1        1 0.94276123E-01 0.13452163E+04</pdfrwt>
<pdfrwt beam="2">  1       -1 0.11357842E+00 0.13452163E+04</pdfrwt>
<totfact> 0.23009706E+01</totfact>
</mgrwt>
</event>
<event>
12    1  0.1892507E-012  0.1695932E+04  0.7818608E-02  0.8763688E-01
          2   -1    0    0  501    0  0.00000000000E+00  0.00000000000E+00  0.17155262671E+04  0.17155262671E+04  0.00000000000E+00 0.  1.
         -2   -1    0    0    0  501 -0.00000000000E+00 -0.00000000000E+00 -0.41914020927E+03  0.41914020927E+03  0.00000000000E+00 0. -1.
    9900016    2    1    2    0    0 -0.40375215228E+03  0.16683530995E+03  0.24567258638E+03  0.99675232311E+03  0.86157434549E+03 0.  0.
    9900016    2    3    3    0    0 -0.41313197635E+03  0.16809590959E+03  0.28776982050E+03  0.87258469652E+03  0.69257369162E+03 0.  0.
         23    2    4    4    0    0 -0.33371448603E+03 -0.19217248702E+03  0.35929423919E+02  0.40203705469E+03  0.10975995121E+03 0.  0.
        -15    1    3    3    0    0  0.37302299739E+02  0.29122390961E+01  0.29214663349E+02  0.47470404011E+02  0.00000000000E+00 0.  1.
        -15    1    5    5    0    0 -0.73382988029E+02 -0.29702145183E+02  0.52049626189E+02  0.94744097162E+02  0.00000000000E+00 0.  1.
         15    1    5    5    0    0 -0.26033149800E+03 -0.16247034183E+03 -0.16120202271E+02  0.30729295753E+03  0.00000000000E+00 0. -1.
         15    1    3    3    0    0 -0.27922475670E+02 -0.41728387404E+01 -0.71311897464E+02  0.76697222574E+02  0.00000000000E+00 0. -1.
        -16    1    1    2    0    0  0.40375215228E+03 -0.16683530995E+03  0.10507134715E+04  0.11379141533E+04  0.00000000000E+00 0.  1.
         16    1    4    4    0    0  0.17977886080E+02  0.12730197452E+03  0.92120965095E+02  0.15816216145E+03  0.00000000000E+00 0. -1.
    9900018    1    4    4    0    0 -0.97395376394E+02  0.23296642209E+03  0.15971943148E+03  0.31238548038E+03  0.91187600000E+02 0.  0.
<mgrwt>
<rscale>  0 0.16959316E+04</rscale>
<asrwt>0</asrwt>
<pdfrwt beam="1">  1        2 0.26392712E+00 0.16959316E+04</pdfrwt>
<pdfrwt beam="2">  1       -2 0.64483110E-01 0.16959316E+04</pdfrwt>
<totfact> 0.20321415E+01</totfact>
</mgrwt>
</event>
<event>
10    1  0.1892507E-012  0.1138466E+04  0.7818608E-02  0.9390393E-01
          2   -1    0    0  501    0  0.00000000000E+00  0.00000000000E+00  0.75526639487E+03  0.75526639487E+03  0.00000000000E+00 0. -1.
         -2   -1    0    0    0  501 -0.00000000000E+00 -0.00000000000E+00 -0.89346869489E+03  0.89346869489E+03  0.00000000000E+00 0.  1.
    9900016    2    1    2    0    0 -0.36872742407E+03 -0.80576425352E+02 -0.14932213868E+03  0.81075341218E+03  0.70183439690E+03 0.  0.
        -15    1    3    3    0    0 -0.58845132650E+02 -0.93003842471E+02  0.82239228779E+02  0.13738906471E+03  0.00000000000E+00 0. -1.
        -15    1    1    2    0    0  0.14882047588E+03 -0.28706345665E+03  0.68697887120E+02  0.33056370321E+03  0.00000000000E+00 0.  1.
         15    1    3    3    0    0  0.40342950320E+02 -0.85598406976E+02 -0.28529176369E+02  0.98835999624E+02  0.00000000000E+00 0. -1.
         15    1    1    2    0    0  0.19933130480E+02  0.61058776618E+02  0.91830851496E+02  0.11206430823E+03  0.00000000000E+00 0.  1.
        -16    1    1    2    0    0  0.19997381771E+03  0.30658110538E+03 -0.14940889996E+03  0.39535366615E+03  0.00000000000E+00 0.  1.
         16    1    3    3    0    0 -0.12718672297E+03  0.11872731651E+03 -0.27213597277E+03  0.32300251681E+03  0.00000000000E+00 0. -1.
    9900018    1    3    3    0    0 -0.22303851877E+03 -0.20701492420E+02  0.69103781680E+02  0.25152583104E+03  0.91187600000E+02 0.  0.
<mgrwt>
<rscale>  0 0.92870531E+03</rscale>
<asrwt>0</asrwt>
<pdfrwt beam="1">  1        2 0.11619483E+00 0.11384658E+04</pdfrwt>
<pdfrwt beam="2">  1       -2 0.13745672E+00 0.11384658E+04</pdfrwt>
<totfact> 0.13754942E+01</totfact>
</mgrwt>
</event>
