<event>
12    1  0.1872524E-011  0.5054245E+04  0.7818608E-02  0.8343783E-01
          2   -1    0    0  501    0  0.00000000000E+00  0.00000000000E+00  0.20579043411E+04  0.20579043411E+04  0.00000000000E+00 0. -1.
         -2   -1    0    0    0  501 -0.00000000000E+00 -0.00000000000E+00 -0.37255482400E+04  0.37255482400E+04  0.00000000000E+00 0.  1.
         24    2    1    2    0    0  0.64580077597E+02  0.38567177990E+03 -0.42126507530E+03  0.57779658509E+03  0.58917924633E+02 0.  0.
    9900016    2    1    2    0    0  0.71654715599E+03 -0.26141894611E+03 -0.28133870448E+04  0.34503459702E+04  0.18460663470E+04 0.  0.
        -24    2    4    4    0    0  0.68299092048E+03  0.21256277910E+03 -0.11190337770E+04  0.13306750525E+04  0.82461922813E+02 0.  0.
        -15    1    4    4    0    0  0.36691600026E+03 -0.61952924280E+03 -0.52347983030E+03  0.89021063050E+03  0.00000000000E+00 0.  1.
        -15    1    3    3    0    0  0.45894282242E+02  0.14536712977E+03 -0.13550721521E+03  0.20396100837E+03  0.00000000000E+00 0.  1.
         15    1    5    5    0    0  0.29524143224E+03  0.66642004367E+02 -0.41246929225E+03  0.51160490332E+03  0.00000000000E+00 0. -1.
         15    1    1    2    0    0 -0.78112723359E+03 -0.12425283379E+03  0.15670082211E+04  0.17553100259E+04  0.00000000000E+00 0. -1.
        -16    1    5    5    0    0  0.38774948823E+03  0.14592077473E+03 -0.70656448474E+03  0.81907014914E+03  0.00000000000E+00 0.  1.
         16    1    3    3    0    0  0.18685795355E+02  0.24030465012E+03 -0.28575786009E+03  0.37383557672E+03  0.00000000000E+00 0. -1.
    9900018    1    4    4    0    0 -0.33335976475E+03  0.14554751759E+03 -0.11708734376E+04  0.12294602872E+04  0.91187600000E+02 0.  0.
<mgrwt>
<rscale>  0 0.26731082E+04</rscale>
<asrwt>0</asrwt>
<pdfrwt beam="1">  1        2 0.31660067E+00 0.50542452E+04</pdfrwt>
<pdfrwt beam="2">  1       -2 0.57316126E+00 0.50542452E+04</pdfrwt>
<totfact> 0.29482736E-03</totfact>
</mgrwt>
</event>
<event>
12    1  0.1872524E-011  0.2367149E+04  0.7818608E-02  0.9132111E-01
         -1   -1    0    0    0  501 -0.00000000000E+00  0.00000000000E+00  0.51089626975E+03  0.51089626975E+03  0.00000000000E+00 0.  1.
          1   -1    0    0  501    0  0.00000000000E+00 -0.00000000000E+00 -0.33574665911E+04  0.33574665911E+04  0.00000000000E+00 0. -1.
         24    2    1    2    0    0 -0.27912957786E+02  0.12917832304E+03  0.24424361007E+02  0.14734074161E+03  0.60386855947E+02 0.  0.
    9900016    2    1    2    0    0 -0.42457531035E+03 -0.10226716235E+03 -0.22102235809E+04  0.29197179998E+04  0.18571327777E+04 0.  0.
        -24    2    4    4    0    0  0.32963073360E+03 -0.47120547869E+03 -0.18415918420E+04  0.19309248802E+04  0.79494381880E+02 0.  0.
        -15    1    4    4    0    0 -0.37621394282E+03 -0.62666512569E+01 -0.17290758893E+03  0.41409326968E+03  0.00000000000E+00 0.  1.
        -15    1    3    3    0    0 -0.35746153455E+02  0.94416084699E+02 -0.50705630127E+01  0.10108360473E+03  0.00000000000E+00 0.  1.
         15    1    1    2    0    0  0.45248826814E+03 -0.26911160693E+02 -0.66077110142E+03  0.80130411945E+03  0.00000000000E+00 0. -1.
         15    1    5    5    0    0  0.28101732127E+03 -0.37621600404E+03 -0.14013061484E+04  0.14778931416E+04  0.00000000000E+00 0. -1.
        -16    1    5    5    0    0  0.48613412331E+02 -0.94989474653E+02 -0.44028569360E+03  0.45303173856E+03  0.00000000000E+00 0.  1.
         16    1    3    3    0    0  0.78331956687E+01  0.34762238339E+02  0.29494924020E+02  0.46257136873E+02  0.00000000000E+00 0. -1.
    9900018    1    4    4    0    0 -0.37799210114E+03  0.37520496760E+03 -0.19572415003E+03  0.57469984995E+03  0.91187600000E+02 0.  0.
<mgrwt>
<rscale>  0 0.11782496E+04</rscale>
<asrwt>0</asrwt>
<pdfrwt beam="1">  1        1 0.51653333E+00 0.23671492E+04</pdfrwt>
<pdfrwt beam="2">  1       -1 0.78599424E-01 0.23671492E+04</pdfrwt>
<totfact> 0.46737487E-01</totfact>
</mgrwt>
</event>
<event>
12    1  0.1872524E-011  0.3234509E+04  0.7818608E-02  0.8522920E-01
          2   -1    0    0  501    0  0.00000000000E+00  0.00000000000E+00  0.39723480297E+04  0.39723480297E+04  0.00000000000E+00 0.  1.
         -2   -1    0    0    0  501 -0.00000000000E+00 -0.00000000000E+00 -0.97641597601E+03  0.97641597601E+03  0.00000000000E+00 0. -1.
        -24    2    1    2    0    0  0.59909144775E+03 -0.31162234124E+03  0.31824031290E+03  0.74970647503E+03  0.69020689853E+02 0.  0.
    9900016    2    1    2    0    0  0.29023295492E+03 -0.10639722345E+03  0.70368999475E+03  0.19939903791E+04  0.18399082819E+04 0.  0.
         24    2    4    4    0    0  0.83009207953E+02 -0.39750543188E+03  0.67132878330E+03  0.78893278036E+03  0.82652886507E+02 0.  0.
        -15    1    5    5    0    0  0.44633089050E+02 -0.28471946949E+03  0.53652284760E+03  0.60902713810E+03  0.00000000000E+00 0.  1.
        -15    1    1    2    0    0 -0.88932440267E+03  0.41801956469E+03  0.19740017460E+04  0.22050671516E+04  0.00000000000E+00 0.  1.
         15    1    4    4    0    0  0.23490969533E+03  0.61109918509E+03  0.35158567335E+03  0.74312668145E+03  0.00000000000E+00 0. -1.
         15    1    3    3    0    0  0.58529830476E+02 -0.31296682417E+02  0.97079946697E+01  0.67078077986E+02  0.00000000000E+00 0. -1.
        -16    1    3    3    0    0  0.54056161727E+03 -0.28032565882E+03  0.30853231823E+03  0.68262839704E+03  0.00000000000E+00 0.  1.
         16    1    5    5    0    0  0.38376118903E+02 -0.11278596240E+03  0.13480593571E+03  0.17990564226E+03  0.00000000000E+00 0. -1.
    9900018    1    4    4    0    0 -0.27685948362E+02 -0.31999097666E+03 -0.31922446190E+03  0.46193091729E+03  0.91187600000E+02 0.  0.
<mgrwt>
<rscale>  0 0.21892399E+04</rscale>
<asrwt>0</asrwt>
<pdfrwt beam="1">  1        2 0.61113046E+00 0.32345094E+04</pdfrwt>
<pdfrwt beam="2">  1       -2 0.15021785E+00 0.32345094E+04</pdfrwt>
<totfact> 0.88280776E-02</totfact>
</mgrwt>
</event>
<event>
12    1  0.1872524E-011  0.2175506E+04  0.7818608E-02  0.9375603E-01
         -1   -1    0    0    0  501 -0.00000000000E+00  0.00000000000E+00  0.18317332596E+04  0.18317332596E+04  0.00000000000E+00 0.  1.
          1   -1    0    0  501    0  0.00000000000E+00 -0.00000000000E+00 -0.82792311424E+03  0.82792311424E+03  0.00000000000E+00 0. -1.
        -24    2    1    2    0    0 -0.35743584528E+02 -0.95035969677E+01 -0.17100234813E+03  0.18720641983E+03  0.66607194564E+02 0.  0.
    9900016    2    1    2    0    0  0.11399234147E+03  0.23900233762E+03  0.73571149683E+03  0.19708502878E+04  0.18091056019E+04 0.  0.
         24    2    4    4    0    0  0.49517585013E+02  0.65961133923E+03  0.55378410206E+03  0.86637392269E+03  0.79923914703E+02 0.  0.
        -15    1    1    2    0    0 -0.78248756945E+02 -0.22949874065E+03  0.43910099664E+03  0.50159966624E+03  0.00000000000E+00 0.  1.
        -15    1    5    5    0    0  0.35623357313E+01  0.38356857873E+03  0.28027564170E+03  0.47507050020E+03  0.00000000000E+00 0.  1.
         15    1    4    4    0    0  0.40849497523E+03 -0.52531641741E+03  0.27810804055E+03  0.72122781796E+03  0.00000000000E+00 0. -1.
         15    1    3    3    0    0  0.68187422452E+01 -0.24354894478E+02 -0.30349739324E+02  0.39506490706E+02  0.00000000000E+00 0. -1.
        -16    1    3    3    0    0 -0.42562326773E+02  0.14851297510E+02 -0.14065260881E+03  0.14769992912E+03  0.00000000000E+00 0.  1.
         16    1    5    5    0    0  0.45955249282E+02  0.27604276050E+03  0.27350846036E+03  0.39130342249E+03  0.00000000000E+00 0. -1.
    9900018    1    4    4    0    0 -0.34402021877E+03  0.10470741579E+03 -0.96180645774E+02  0.38324854711E+03  0.91187600000E+02 0.  0.
<mgrwt>
<rscale>  0 0.94110958E+03</rscale>
<asrwt>0</asrwt>
<pdfrwt beam="1">  1        1 0.12737279E+00 0.21755055E+04</pdfrwt>
<pdfrwt beam="2">  1       -1 0.28180512E+00 0.21755055E+04</pdfrwt>
<totfact> 0.82136622E-01</totfact>
</mgrwt>
</event>
<event>
12    1  0.1872524E-011  0.3589332E+04  0.7818608E-02  0.8517576E-01
          2   -1    0    0  501    0  0.00000000000E+00  0.00000000000E+00  0.16193894396E+04  0.16193894396E+04  0.00000000000E+00 0. -1.
         -2   -1    0    0    0  501 -0.00000000000E+00 -0.00000000000E+00 -0.27307656052E+04  0.27307656052E+04  0.00000000000E+00 0.  1.
        -24    2    1    2    0    0 -0.45839167907E+03 -0.20912571025E+03 -0.49245568160E+03  0.70785293421E+03  0.68459360217E+02 0.  0.
    9900016    2    1    2    0    0 -0.70318841822E+02 -0.39469001594E+03 -0.15327545865E+04  0.24260698084E+04  0.18373222756E+04 0.  0.
         24    2    4    4    0    0  0.78525348551E+03  0.12569581623E+03 -0.40235975490E+03  0.89471408228E+03  0.78723833346E+02 0.  0.
        -15    1    5    5    0    0  0.27066269479E+03  0.52855386104E+02 -0.18066798395E+03  0.32968607283E+03  0.00000000000E+00 0.  1.
        -15    1    1    2    0    0  0.52871052089E+03  0.60381572619E+03  0.91383410253E+03  0.12162323023E+04  0.00000000000E+00 0.  1.
         15    1    3    3    0    0 -0.37320301524E+03 -0.19738993998E+03 -0.39997944968E+03  0.58157272903E+03  0.00000000000E+00 0. -1.
         15    1    4    4    0    0 -0.16817679350E+03 -0.22115697424E+03 -0.29997739145E+03  0.40887684760E+03  0.00000000000E+00 0. -1.
        -16    1    3    3    0    0 -0.85188663834E+02 -0.11735770267E+02 -0.92476231920E+02  0.12628020518E+03  0.00000000000E+00 0.  1.
         16    1    5    5    0    0  0.51459079072E+03  0.72840430124E+02 -0.22169177094E+03  0.56502800945E+03  0.00000000000E+00 0. -1.
    9900018    1    4    4    0    0 -0.68739553384E+03 -0.29922885793E+03 -0.83041744018E+03  0.11224788785E+04  0.91187600000E+02 0.  0.
<mgrwt>
<rscale>  0 0.22020483E+04</rscale>
<asrwt>0</asrwt>
<pdfrwt beam="1">  1        2 0.24913684E+00 0.35893317E+04</pdfrwt>
<pdfrwt beam="2">  1       -2 0.42011778E+00 0.35893317E+04</pdfrwt>
<totfact> 0.47531823E-02</totfact>
</mgrwt>
</event>
<event>
11    1  0.1872524E-011  0.2838541E+04  0.7818608E-02  0.8291402E-01
          2   -1    0    0  501    0  0.00000000000E+00  0.00000000000E+00  0.25793961228E+04  0.25793961228E+04  0.00000000000E+00 0. -1.
         -2   -1    0    0    0  501 -0.00000000000E+00 -0.00000000000E+00 -0.78093012823E+03  0.78093012823E+03  0.00000000000E+00 0.  1.
    9900016    2    1    2    0    0 -0.11957394869E+01  0.22374761744E+03  0.45433373735E+03  0.19053897170E+04  0.18368523083E+04 0.  0.
         24    2    3    3    0    0  0.52266066826E+03  0.35422891647E+03 -0.25428499962E+03  0.68508143723E+03  0.77610664155E+02 0.  0.
        -15    1    1    2    0    0 -0.87509959132E+02 -0.60534290186E+02  0.62354636512E+03  0.63256024431E+03  0.00000000000E+00 0.  1.
        -15    1    4    4    0    0  0.29995458208E+03  0.23051132014E+03 -0.18474979796E+03  0.42099965305E+03  0.00000000000E+00 0.  1.
         15    1    3    3    0    0 -0.49435056953E+03  0.10507875991E+03  0.80320248748E+03  0.94897748513E+03  0.00000000000E+00 0. -1.
         15    1    1    2    0    0  0.90496596067E+02 -0.26821053849E+03  0.44434109380E+03  0.52684488656E+03  0.00000000000E+00 0. -1.
        -16    1    1    2    0    0 -0.17908974478E+01  0.10499721124E+03  0.27624479828E+03  0.29553140317E+03  0.00000000000E+00 0.  1.
         16    1    4    4    0    0  0.22270608617E+03  0.12371759634E+03 -0.69535201660E+02  0.26408178417E+03  0.00000000000E+00 0. -1.
    9900018    1    3    3    0    0 -0.29505838210E+02 -0.23556005894E+03 -0.94583750503E+02  0.27133079462E+03  0.91187600000E+02 0.  0.
<mgrwt>
<rscale>  0 0.28385406E+04</rscale>
<asrwt>0</asrwt>
<pdfrwt beam="1">  1        2 0.39683017E+00 0.28385406E+04</pdfrwt>
<pdfrwt beam="2">  1       -2 0.12014310E+00 0.28385406E+04</pdfrwt>
<totfact> 0.14366306E+00</totfact>
</mgrwt>
</event>
