<event>
12    1  0.3798733E-012  0.3272423E+04  0.7818608E-02  0.9005861E-01
         -2   -1    0    0    0  501 -0.00000000000E+00  0.00000000000E+00  0.95097649932E+03  0.95097649932E+03  0.00000000000E+00 0.  1.
          2   -1    0    0  501    0  0.00000000000E+00 -0.00000000000E+00 -0.29846093389E+04  0.29846093389E+04  0.00000000000E+00 0. -1.
         23    2    1    2    0    0 -0.16565866799E+02 -0.39642664465E+01 -0.14966491277E+02  0.90619447245E+02  0.87736793916E+02 0.  0.
    9900016    2    1    2    0    0  0.18397714966E+02 -0.41483492470E+02 -0.15580361809E+04  0.26566890735E+04  0.21513857712E+04 0.  0.
        -24    2    4    4    0    0 -0.50752774380E+03  0.85081218511E+03 -0.32590352617E+03  0.10470493489E+04  0.92916336629E+02 0.  0.
        -15    1    4    4    0    0  0.52592545877E+03 -0.89229567758E+03 -0.12321326547E+04  0.16096397246E+04  0.00000000000E+00 0.  1.
        -15    1    3    3    0    0  0.53250845109E+00 -0.34766327144E+02  0.20717775745E+02  0.40474773627E+02  0.00000000000E+00 0.  1.
         15    1    5    5    0    0 -0.12030929428E+03  0.18926366700E+03 -0.34087734177E+02  0.22684143263E+03  0.00000000000E+00 0. -1.
         15    1    3    3    0    0 -0.17098375251E+02  0.30802060698E+02 -0.35684267021E+02  0.50144673618E+02  0.00000000000E+00 0. -1.
        -16    1    5    5    0    0 -0.38721844952E+03  0.66154851811E+03 -0.29181579199E+03  0.82020791627E+03  0.00000000000E+00 0.  1.
         16    1    1    2    0    0 -0.34453269561E+03  0.31669382709E+03 -0.56110736220E+03  0.73064302527E+03  0.00000000000E+00 0. -1.
    9900018    1    1    2    0    0  0.34270084744E+03 -0.27124606818E+03  0.10047719471E+03  0.45763429219E+03  0.91187600000E+02 0.  0.
<mgrwt>
<rscale>  0 0.13303199E+04</rscale>
<asrwt>0</asrwt>
<pdfrwt beam="1">  1        2 0.45917066E+00 0.32724231E+04</pdfrwt>
<pdfrwt beam="2">  1       -2 0.14630408E+00 0.32724231E+04</pdfrwt>
<totfact> 0.47505341E-01</totfact>
</mgrwt>
</event>
<event>
11    1  0.3798733E-012  0.4946177E+04  0.7818608E-02  0.8642651E-01
          2   -1    0    0  501    0  0.00000000000E+00  0.00000000000E+00  0.28538959831E+04  0.28538959831E+04  0.00000000000E+00 0.  1.
         -2   -1    0    0    0  501 -0.00000000000E+00 -0.00000000000E+00 -0.22437239183E+04  0.22437239183E+04  0.00000000000E+00 0. -1.
         23    2    1    2    0    0 -0.65737799891E+02 -0.19218532610E+02  0.31516150068E+02  0.11770890806E+03  0.90395292976E+02 0.  0.
    9900016    2    1    2    0    0 -0.59002358208E+03  0.15052609496E+03 -0.66519261396E+02  0.22357419774E+04  0.21501933505E+04 0.  0.
        -15    1    3    3    0    0 -0.77598463154E+02 -0.27522557860E+02 -0.75540160734E+00  0.82338225063E+02  0.00000000000E+00 0. -1.
        -15    1    4    4    0    0 -0.12869637345E+04  0.10804146268E+03  0.43788779364E+03  0.13637061015E+04  0.00000000000E+00 0.  1.
         15    1    3    3    0    0  0.11860663262E+02  0.83040252501E+01  0.32271551675E+02  0.35370683001E+02  0.00000000000E+00 0.  1.
         15    1    4    4    0    0  0.27271280406E+03  0.69666542019E+02 -0.15218650976E+03  0.31997880294E+03  0.00000000000E+00 0. -1.
        -16    1    4    4    0    0  0.42422734833E+03 -0.27181909741E+02 -0.35222054527E+03  0.55205707295E+03  0.00000000000E+00 0.  1.
         16    1    1    2    0    0 -0.88800415886E+03  0.25000756402E+03 -0.19570428961E+03  0.94305638070E+03  0.00000000000E+00 0. -1.
    9900018    1    1    2    0    0  0.15437655408E+04 -0.38131512637E+03  0.84087946571E+03  0.18011126353E+04  0.91187600000E+02 0.  0.
<mgrwt>
<rscale>  0 0.19247146E+04</rscale>
<asrwt>0</asrwt>
<pdfrwt beam="1">  1        2 0.43906092E+00 0.49461774E+04</pdfrwt>
<pdfrwt beam="2">  1       -2 0.34518829E+00 0.49461774E+04</pdfrwt>
<totfact> 0.26034283E-02</totfact>
</mgrwt>
</event>
<event>
12    1  0.3798733E-012  0.3190112E+04  0.7818608E-02  0.8975945E-01
          2   -1    0    0  501    0  0.00000000000E+00  0.00000000000E+00  0.21267549467E+04  0.21267549467E+04  0.00000000000E+00 0. -1.
         -2   -1    0    0    0  501 -0.00000000000E+00 -0.00000000000E+00 -0.12790881051E+04  0.12790881051E+04  0.00000000000E+00 0.  1.
         23    2    1    2    0    0 -0.58093689268E+02 -0.39498675776E+01  0.23141910574E+02  0.11089895995E+03  0.91501656306E+02 0.  0.
    9900016    2    1    2    0    0  0.51050127819E+02 -0.21019413745E+03  0.55983019902E+03  0.22322135066E+04  0.21500185107E+04 0.  0.
        -24    2    4    4    0    0  0.10879059300E+04 -0.65010312890E+02  0.13391614629E+03  0.11019254558E+04  0.92414947083E+02 0.  0.
        -15    1    3    3    0    0 -0.31136235763E+02  0.23314301175E+02  0.50539433928E+02  0.63775043697E+02  0.00000000000E+00 0. -1.
        -15    1    4    4    0    0 -0.10368558022E+04 -0.14518382456E+03  0.42591405273E+03  0.11302880508E+04  0.00000000000E+00 0.  1.
         15    1    5    5    0    0  0.37321705761E+03 -0.60201914533E+02  0.68906122555E+02  0.38426982230E+03  0.00000000000E+00 0. -1.
         15    1    3    3    0    0 -0.26957453505E+02 -0.27264168752E+02 -0.27397523354E+02  0.47123916255E+02  0.00000000000E+00 0.  1.
        -16    1    5    5    0    0  0.71468887242E+03 -0.48083983564E+01  0.65010023737E+02  0.71765563346E+03  0.00000000000E+00 0.  1.
         16    1    1    2    0    0  0.22754430654E+03 -0.20284179641E+03  0.45358756460E+03  0.54650058058E+03  0.00000000000E+00 0. -1.
    9900018    1    1    2    0    0 -0.22050074509E+03  0.41698580144E+03 -0.18889283253E+03  0.51623000471E+03  0.91187600000E+02 0.  0.
<mgrwt>
<rscale>  0 0.13698385E+04</rscale>
<asrwt>0</asrwt>
<pdfrwt beam="1">  1        2 0.32719307E+00 0.31901121E+04</pdfrwt>
<pdfrwt beam="2">  1       -2 0.19678279E+00 0.31901121E+04</pdfrwt>
<totfact> 0.66549856E-01</totfact>
</mgrwt>
</event>
<event>
11    1  0.3798733E-012  0.3822878E+04  0.7818608E-02  0.8886327E-01
         -2   -1    0    0    0  501 -0.00000000000E+00  0.00000000000E+00  0.17671819302E+04  0.17671819302E+04  0.00000000000E+00 0.  1.
          2   -1    0    0  501    0  0.00000000000E+00 -0.00000000000E+00 -0.21658981963E+04  0.21658981963E+04  0.00000000000E+00 0. -1.
         23    2    1    2    0    0 -0.16023132505E+02  0.75778986763E+01 -0.10076285429E+02  0.90498001950E+02  0.88171375771E+02 0.  0.
    9900016    2    1    2    0    0 -0.59069078522E+02  0.28720660717E+03 -0.10907609606E+03  0.21781442083E+04  0.21555597431E+04 0.  0.
        -15    1    4    4    0    0 -0.88567760164E+03  0.65449987400E+03 -0.46954252396E+03  0.11971904948E+04  0.00000000000E+00 0.  1.
        -15    1    3    3    0    0  0.23249086988E+02 -0.67040756414E+01 -0.34466963102E+02  0.42112186140E+02  0.00000000000E+00 0.  1.
         15    1    3    3    0    0 -0.39272219493E+02  0.14281974318E+02  0.24390677673E+02  0.48385815811E+02  0.00000000000E+00 0. -1.
         15    1    4    4    0    0  0.10059590495E+03 -0.38962558668E+02  0.37410935703E+01  0.10794263686E+03  0.00000000000E+00 0. -1.
        -16    1    4    4    0    0  0.72601261816E+03 -0.32833070817E+03  0.35672533433E+03  0.87301107657E+03  0.00000000000E+00 0.  1.
         16    1    1    2    0    0 -0.30865536623E+03  0.59037586340E+03 -0.18119337934E+03  0.69039324729E+03  0.00000000000E+00 0. -1.
    9900018    1    1    2    0    0  0.38374757726E+03 -0.88516036925E+03 -0.98370505274E+02  0.97404466891E+03  0.91187600000E+02 0.  0.
<mgrwt>
<rscale>  0 0.14971847E+04</rscale>
<asrwt>0</asrwt>
<pdfrwt beam="1">  1        2 0.33321511E+00 0.38228780E+04</pdfrwt>
<pdfrwt beam="2">  1       -2 0.27187414E+00 0.38228780E+04</pdfrwt>
<totfact> 0.20321041E-01</totfact>
</mgrwt>
</event>
<event>
12    1  0.3798733E-012  0.3423866E+04  0.7818608E-02  0.8954093E-01
         -2   -1    0    0    0  501 -0.00000000000E+00  0.00000000000E+00  0.70375868363E+03  0.70375868363E+03  0.00000000000E+00 0.  1.
          2   -1    0    0  501    0  0.00000000000E+00 -0.00000000000E+00 -0.44003218247E+04  0.44003218247E+04  0.00000000000E+00 0. -1.
         23    2    1    2    0    0 -0.12170117411E+02 -0.33771868974E+02 -0.95973824204E+02  0.13546860595E+03  0.88612173964E+02 0.  0.
    9900016    2    1    2    0    0  0.69918354840E+02  0.50227483474E+03 -0.19492700770E+04  0.29486074671E+04  0.21534770897E+04 0.  0.
        -24    2    4    4    0    0  0.59845515347E+03  0.65860436792E+03  0.32288535331E+02  0.89182245049E+03  0.48953544520E+02 0.  0.
        -15    1    4    4    0    0 -0.52853679863E+03 -0.15632953318E+03 -0.19815586124E+04  0.20567850166E+04  0.00000000000E+00 0.  1.
        -15    1    3    3    0    0 -0.22417470819E+02 -0.46932236044E+02 -0.16949785556E+02  0.54703500879E+02  0.00000000000E+00 0.  1.
         15    1    5    5    0    0  0.37666571511E+03  0.44816855137E+03  0.26503591892E+02  0.58603289308E+03  0.00000000000E+00 0. -1.
         15    1    3    3    0    0  0.10247353409E+02  0.13160367071E+02 -0.79024038648E+02  0.80765105073E+02  0.00000000000E+00 0. -1.
        -16    1    5    5    0    0  0.22178943836E+03  0.21043581655E+03  0.57849434385E+01  0.30578955741E+03  0.00000000000E+00 0.  1.
         16    1    1    2    0    0  0.49867548894E+03 -0.25893121352E+03 -0.79597455899E+03  0.97431930862E+03  0.00000000000E+00 0. -1.
    9900018    1    1    2    0    0 -0.55642372637E+03 -0.20957175225E+03 -0.85534468086E+03  0.10456851266E+04  0.91187600000E+02 0.  0.
<mgrwt>
<rscale>  0 0.13996210E+04</rscale>
<asrwt>0</asrwt>
<pdfrwt beam="1">  1        2 0.67697259E+00 0.34238664E+04</pdfrwt>
<pdfrwt beam="2">  1       -2 0.10827057E+00 0.34238664E+04</pdfrwt>
<totfact> 0.86002962E-02</totfact>
</mgrwt>
</event>
<event>
12    1  0.3798733E-012  0.4007501E+04  0.7818608E-02  0.8003035E-01
         -1   -1    0    0    0  501 -0.00000000000E+00  0.00000000000E+00  0.17497142134E+04  0.17497142134E+04  0.00000000000E+00 0.  1.
          1   -1    0    0  501    0  0.00000000000E+00 -0.00000000000E+00 -0.22946697835E+04  0.22946697835E+04  0.00000000000E+00 0. -1.
    9900016    2    1    2    0    0 -0.16508326219E+03 -0.62132339731E+03  0.20664329350E+03  0.23449134451E+04  0.22455784036E+04 0.  0.
         23    2    3    3    0    0  0.63554200489E+01 -0.23132157902E+02  0.24537562591E+02  0.97249246429E+02  0.90993603401E+02 0.  0.
        -24    2    3    3    0    0  0.46668770725E+03  0.33875831162E+03  0.77506688926E+03  0.96833520056E+03  0.66255324571E+02 0.  0.
        -15    1    4    4    0    0  0.31402554579E+02 -0.48185585409E+02  0.22515855834E+02  0.61765158781E+02  0.00000000000E+00 0. -1.
        -15    1    3    3    0    0 -0.63812638948E+03 -0.93694955104E+03 -0.59296115834E+03  0.12793289981E+04  0.00000000000E+00 0.  1.
         15    1    5    5    0    0  0.82994899138E+02  0.56767246199E+02  0.96511797878E+02  0.13937431849E+03  0.00000000000E+00 0. -1.
         15    1    4    4    0    0 -0.25047134530E+02  0.25053427508E+02  0.20217067567E+01  0.35484087648E+02  0.00000000000E+00 0.  1.
        -16    1    5    5    0    0  0.38369280811E+03  0.28199106543E+03  0.67855509138E+03  0.82896088207E+03  0.00000000000E+00 0.  1.
         16    1    1    2    0    0 -0.10773140207E+03  0.11444162129E+03 -0.10381790963E+04  0.10500089408E+04  0.00000000000E+00 0. -1.
    9900018    1    1    2    0    0  0.27281466426E+03  0.50688177602E+03  0.28658023278E+03  0.64946161096E+03  0.91187600000E+02 0.  0.
<mgrwt>
<rscale>  0 0.40075011E+04</rscale>
<asrwt>0</asrwt>
<pdfrwt beam="1">  1        1 0.35302612E+00 0.40075011E+04</pdfrwt>
<pdfrwt beam="2">  1       -1 0.26918680E+00 0.40075011E+04</pdfrwt>
<totfact> 0.76783629E-02</totfact>
</mgrwt>
</event>
<event>
12    1  0.3798733E-012  0.3976046E+04  0.7818608E-02  0.8009396E-01
         -2   -1    0    0    0  501 -0.00000000000E+00  0.00000000000E+00  0.15858883524E+04  0.15858883524E+04  0.00000000000E+00 0.  1.
          2   -1    0    0  501    0  0.00000000000E+00 -0.00000000000E+00 -0.24921269344E+04  0.24921269344E+04  0.00000000000E+00 0. -1.
    9900016    2    1    2    0    0  0.11794879872E+03 -0.35029115383E+03  0.18281467202E+03  0.22829897511E+04  0.22454409784E+04 0.  0.
         23    2    3    3    0    0 -0.92387905429E+01 -0.14575177979E+02 -0.94823043191E+00  0.94447950136E+02  0.92853244855E+02 0.  0.
         24    2    3    3    0    0  0.99140013460E+03  0.35422020772E+03  0.22909623990E+03  0.10817760749E+04  0.96995910179E+02 0.  0.
        -15    1    5    5    0    0  0.60475411190E+03  0.25951164757E+03  0.11900831293E+03  0.66875766136E+03  0.00000000000E+00 0.  1.
        -15    1    4    4    0    0 -0.14385308012E+02 -0.49224649376E+01  0.44852286547E+02  0.47359216169E+02  0.00000000000E+00 0.  1.
         15    1    3    3    0    0 -0.86421254534E+03 -0.68993618358E+03 -0.45333337440E+02  0.11067657261E+04  0.00000000000E+00 0. -1.
         15    1    4    4    0    0  0.51465174690E+01 -0.96527130412E+01 -0.45800516979E+02  0.47088733967E+02  0.00000000000E+00 0. -1.
        -16    1    1    2    0    0  0.25979828880E+03  0.70347884687E+03 -0.22328723880E+03  0.78245436280E+03  0.00000000000E+00 0.  1.
         16    1    5    5    0    0  0.38664602270E+03  0.94708560154E+02  0.11008792697E+03  0.41301841351E+03  0.00000000000E+00 0. -1.
    9900018    1    1    2    0    0 -0.37774708752E+03 -0.35318769304E+03 -0.86576601525E+03  0.10125711729E+04  0.91187600000E+02 0.  0.
<mgrwt>
<rscale>  0 0.39760458E+04</rscale>
<asrwt>0</asrwt>
<pdfrwt beam="1">  1        2 0.38340414E+00 0.39760458E+04</pdfrwt>
<pdfrwt beam="2">  1       -2 0.24398283E+00 0.39760458E+04</pdfrwt>
<totfact> 0.19461634E-01</totfact>
</mgrwt>
</event>
