<event>
11    1  0.8071548E-009  0.4641249E+04  0.7818608E-02  0.7886364E-01
          2   -1    0    0  501    0  0.00000000000E+00  0.00000000000E+00  0.20191961017E+04  0.20191961017E+04  0.00000000000E+00 0. -1.
         -2   -1    0    0    0  501 -0.00000000000E+00 -0.00000000000E+00 -0.26670502639E+04  0.26670502639E+04  0.00000000000E+00 0.  1.
    9900016    2    1    2    0    0 -0.12938371317E+04  0.71919790668E+03 -0.85631564186E+02  0.26534360688E+04  0.22004840500E+04 0.  0.
         24    2    3    3    0    0 -0.53387892794E+03 -0.40444490082E+03 -0.27896826708E+03  0.73043133953E+03  0.84286773760E+02 0.  0.
        -15    1    3    3    0    0 -0.50276487305E+03  0.30473552798E+03  0.35323863338E+03  0.68586718226E+03  0.00000000000E+00 0.  1.
        -15    1    4    4    0    0 -0.15447129276E+03 -0.72247096200E+02 -0.62051854285E+02  0.18147026153E+03  0.00000000000E+00 0.  1.
         15    1    3    3    0    0  0.28219735948E+01 -0.97965597021E+02  0.19655030960E+03  0.21962979292E+03  0.00000000000E+00 0. -1.
         15    1    3    3    0    0 -0.26001530430E+03  0.91687287655E+03 -0.35645224008E+03  0.10175077541E+04  0.00000000000E+00 0. -1.
        -16    1    1    2    0    0  0.27548067618E+02 -0.12872726638E+03 -0.61767648200E+03  0.63154876420E+03  0.00000000000E+00 0.  1.
         16    1    4    4    0    0 -0.37940763518E+03 -0.33219780462E+03 -0.21691641280E+03  0.54896107801E+03  0.00000000000E+00 0. -1.
    9900018    1    1    2    0    0  0.12662890641E+04 -0.59047064030E+03  0.55453883962E+02  0.14012615325E+04  0.91187600000E+02 0.  0.
<mgrwt>
<rscale>  0 0.46412488E+04</rscale>
<asrwt>0</asrwt>
<pdfrwt beam="1">  1        2 0.31064555E+00 0.46412488E+04</pdfrwt>
<pdfrwt beam="2">  1       -2 0.41031543E+00 0.46412488E+04</pdfrwt>
<totfact> 0.31030718E-02</totfact>
</mgrwt>
</event>
<event>
11    1  0.8071548E-009  0.3126919E+04  0.7818608E-02  0.8208389E-01
          2   -1    0    0  501    0  0.00000000000E+00  0.00000000000E+00  0.18117716642E+04  0.18117716642E+04  0.00000000000E+00 0.  1.
         -2   -1    0    0    0  501 -0.00000000000E+00 -0.00000000000E+00 -0.13491798710E+04  0.13491798710E+04  0.00000000000E+00 0. -1.
    9900016    2    1    2    0    0  0.48973862670E+03 -0.11570962511E+03  0.44089766683E+03  0.23019083906E+04  0.22025346413E+04 0.  0.
        -24    2    3    3    0    0 -0.29607030302E+03  0.49714359288E+02  0.11410593639E+03  0.33168551791E+03  0.82861186461E+02 0.  0.
        -15    1    3    3    0    0  0.18656980894E+03 -0.50653580419E+03 -0.32758719155E+03  0.63142709999E+03  0.00000000000E+00 0.  1.
        -15    1    3    3    0    0  0.38758388282E+03  0.58794723449E+03  0.71995524996E+03  0.10070942253E+04  0.00000000000E+00 0.  1.
         15    1    3    3    0    0  0.21165523797E+03 -0.24683541470E+03 -0.65576327971E+02  0.33170154733E+03  0.00000000000E+00 0. -1.
         15    1    4    4    0    0 -0.24301768223E+03  0.49229707752E+02  0.58362294094E+02  0.25472988708E+03  0.00000000000E+00 0. -1.
        -16    1    4    4    0    0 -0.53052620796E+02  0.48465153572E+00  0.55743642292E+02  0.76955630830E+02  0.00000000000E+00 0.  1.
         16    1    1    2    0    0 -0.11633069538E+03 -0.27117437841E+03 -0.76675803098E+02  0.30487301122E+03  0.00000000000E+00 0. -1.
    9900018    1    1    2    0    0 -0.37340793132E+03  0.38688400351E+03  0.98369929490E+02  0.55417013342E+03  0.91187600000E+02 0.  0.
<mgrwt>
<rscale>  0 0.31269192E+04</rscale>
<asrwt>0</asrwt>
<pdfrwt beam="1">  1        2 0.27873410E+00 0.31269192E+04</pdfrwt>
<pdfrwt beam="2">  1       -2 0.20756613E+00 0.31269192E+04</pdfrwt>
<totfact> 0.85497329E-01</totfact>
</mgrwt>
</event>
<event>
11    1  0.8071548E-009  0.4402908E+04  0.7818608E-02  0.7927859E-01
         -1   -1    0    0    0  501 -0.00000000000E+00  0.00000000000E+00  0.14441144779E+04  0.14441144779E+04  0.00000000000E+00 0.  1.
          1   -1    0    0  501    0  0.00000000000E+00 -0.00000000000E+00 -0.33559660268E+04  0.33559660268E+04  0.00000000000E+00 0. -1.
    9900016    2    1    2    0    0  0.92201280849E+03  0.11138736253E+04 -0.17670361466E+04  0.31674969102E+04  0.21954038036E+04 0.  0.
         24    2    3    3    0    0  0.40867081490E+03 -0.23487785222E+02 -0.75542080456E+03  0.86318085575E+03  0.82807528420E+02 0.  0.
        -15    1    4    4    0    0  0.21204557361E+03 -0.40167569754E+02 -0.45729567025E+03  0.50566400799E+03  0.00000000000E+00 0.  1.
        -15    1    3    3    0    0  0.40825177115E+03  0.10201452178E+04 -0.50284121853E+03  0.12083935887E+04  0.00000000000E+00 0.  1.
         15    1    3    3    0    0 -0.17064980042E+03  0.43395062918E+03 -0.48873959975E+03  0.67550048062E+03  0.00000000000E+00 0. -1.
         15    1    3    3    0    0  0.27574002287E+03 -0.31673443649E+03 -0.20034523713E+02  0.42042198517E+03  0.00000000000E+00 0. -1.
        -16    1    1    2    0    0 -0.10185684250E+04 -0.90483015487E+03 -0.20487370545E+03  0.13777418048E+04  0.00000000000E+00 0.  1.
         16    1    4    4    0    0  0.19662524128E+03  0.16679784531E+02 -0.29812513432E+03  0.35751684776E+03  0.00000000000E+00 0. -1.
    9900018    1    1    2    0    0  0.96555616497E+02 -0.20904347045E+03  0.60058303059E+02  0.25484178969E+03  0.91187600000E+02 0.  0.
<mgrwt>
<rscale>  0 0.44029077E+04</rscale>
<asrwt>0</asrwt>
<pdfrwt beam="1">  1        1 0.51630246E+00 0.44029077E+04</pdfrwt>
<pdfrwt beam="2">  1       -1 0.22217146E+00 0.44029077E+04</pdfrwt>
<totfact> 0.26054925E-02</totfact>
</mgrwt>
</event>
<event>
11    1  0.8071548E-009  0.4044875E+04  0.7818608E-02  0.7995554E-01
         -1   -1    0    0    0  501 -0.00000000000E+00  0.00000000000E+00  0.15026278851E+04  0.15026278851E+04  0.00000000000E+00 0.  1.
          1   -1    0    0  501    0  0.00000000000E+00 -0.00000000000E+00 -0.27220673865E+04  0.27220673865E+04  0.00000000000E+00 0. -1.
    9900016    2    1    2    0    0 -0.53983616189E+03  0.85566831397E+03 -0.11483678308E+04  0.26751977326E+04  0.21941610898E+04 0.  0.
        -24    2    3    3    0    0 -0.24069762407E+03  0.64542035030E+03 -0.11011586491E+04  0.13013814636E+04  0.80873780717E+02 0.  0.
        -15    1    3    3    0    0  0.32527493838E+03 -0.14221885127E+03 -0.24631187338E+03  0.43208740569E+03  0.00000000000E+00 0.  1.
        -15    1    3    3    0    0 -0.33566115702E+03  0.49527613259E+03  0.12978078496E+03  0.61221720981E+03  0.00000000000E+00 0.  1.
         15    1    4    4    0    0 -0.19881879046E+03  0.42578176605E+03 -0.75433003866E+03  0.88872539683E+03  0.00000000000E+00 0. -1.
         15    1    3    3    0    0 -0.28875231917E+03 -0.14280931765E+03  0.69321906701E+02  0.32951165348E+03  0.00000000000E+00 0. -1.
        -16    1    4    4    0    0 -0.41878833612E+02  0.21963858425E+03 -0.34682861045E+03  0.41265606674E+03  0.00000000000E+00 0.  1.
         16    1    1    2    0    0 -0.10724096260E+03 -0.51192117632E+03 -0.47615561438E+03  0.70731045795E+03  0.00000000000E+00 0. -1.
    9900018    1    1    2    0    0  0.64707712449E+03 -0.34374713766E+03  0.40508394385E+03  0.84218708114E+03  0.91187600000E+02 0.  0.
<mgrwt>
<rscale>  0 0.40448755E+04</rscale>
<asrwt>0</asrwt>
<pdfrwt beam="1">  1        1 0.41877960E+00 0.40448755E+04</pdfrwt>
<pdfrwt beam="2">  1       -1 0.23117352E+00 0.40448755E+04</pdfrwt>
<totfact> 0.68438773E-02</totfact>
</mgrwt>
</event>
<event>
11    1  0.8071548E-009  0.3129869E+04  0.7818608E-02  0.8207588E-01
         -2   -1    0    0    0  501 -0.00000000000E+00  0.00000000000E+00  0.12019279390E+04  0.12019279390E+04  0.00000000000E+00 0. -1.
          2   -1    0    0  501    0  0.00000000000E+00 -0.00000000000E+00 -0.20375757740E+04  0.20375757740E+04  0.00000000000E+00 0.  1.
    9900016    2    1    2    0    0 -0.26251699980E+03 -0.14288641110E+03 -0.66004034361E+03  0.23218287318E+04  0.22058793491E+04 0.  0.
         24    2    3    3    0    0 -0.47237708030E+03 -0.51667659156E+03  0.15382562592E+03  0.72116520902E+03  0.79511818289E+02 0.  0.
        -15    1    3    3    0    0 -0.58770747222E+01  0.64375797011E+02 -0.33027522289E+03  0.33654198268E+03  0.00000000000E+00 0.  1.
        -15    1    4    4    0    0 -0.30560023156E+03 -0.27714776890E+03  0.82955507755E+02  0.42081350217E+03  0.00000000000E+00 0.  1.
         15    1    3    3    0    0 -0.35962961088E+03  0.43486958935E+03 -0.33695330722E+03  0.65725379269E+03  0.00000000000E+00 0. -1.
         15    1    3    3    0    0  0.57536676610E+03 -0.12545520589E+03 -0.14663743942E+03  0.60686774742E+03  0.00000000000E+00 0. -1.
        -16    1    1    2    0    0 -0.16604922294E+03 -0.19060467365E+03 -0.25765994520E+03  0.36095863117E+03  0.00000000000E+00 0.  1.
         16    1    4    4    0    0 -0.16677684873E+03 -0.23952882266E+03  0.70870118161E+02  0.30035170685E+03  0.00000000000E+00 0. -1.
    9900018    1    1    2    0    0  0.42856622275E+03  0.33349108475E+03  0.82052453784E+02  0.55671635009E+03  0.91187600000E+02 0.  0.
<mgrwt>
<rscale>  0 0.31298685E+04</rscale>
<asrwt>0</asrwt>
<pdfrwt beam="1">  1        2 0.31347319E+00 0.31298685E+04</pdfrwt>
<pdfrwt beam="2">  1       -2 0.18491199E+00 0.31298685E+04</pdfrwt>
<totfact> 0.90480212E-01</totfact>
</mgrwt>
</event>
<event>
11    1  0.8071548E-009  0.3492963E+04  0.7818608E-02  0.8115460E-01
          2   -1    0    0  501    0  0.00000000000E+00  0.00000000000E+00  0.33593387865E+04  0.33593387865E+04  0.00000000000E+00 0. -1.
         -2   -1    0    0    0  501 -0.00000000000E+00 -0.00000000000E+00 -0.90797533999E+03  0.90797533999E+03  0.00000000000E+00 0.  1.
    9900016    2    1    2    0    0 -0.22015721845E+03  0.23400867536E+03  0.14530791443E+04  0.26541469196E+04  0.21976868772E+04 0.  0.
         24    2    3    3    0    0 -0.79516588935E+02 -0.29090309698E+03 -0.13324688482E+03  0.34020775764E+03  0.83899262801E+02 0.  0.
        -15    1    4    4    0    0  0.13180282511E+02 -0.99146210635E+02 -0.44494218254E+02  0.10946883752E+03  0.00000000000E+00 0.  1.
        -15    1    3    3    0    0  0.32294278261E+03  0.60831162692E+03  0.10713865447E+04  0.12736578051E+04  0.00000000000E+00 0.  1.
         15    1    3    3    0    0 -0.21166315268E+03 -0.25016508256E+02 -0.19241325803E+03  0.28714104157E+03  0.00000000000E+00 0. -1.
         15    1    3    3    0    0 -0.25192025945E+03 -0.58383346328E+02  0.70735274248E+03  0.75314031530E+03  0.00000000000E+00 0. -1.
        -16    1    1    2    0    0  0.32411523155E+03  0.26771878487E+03 -0.68758615983E+02  0.42597156990E+03  0.00000000000E+00 0.  1.
         16    1    4    4    0    0 -0.92696871445E+02 -0.19175688634E+03 -0.88752666567E+02  0.23073892012E+03  0.00000000000E+00 0. -1.
    9900018    1    1    2    0    0 -0.10395801310E+03 -0.50172746023E+03  0.10670429181E+04  0.11871956369E+04  0.91187600000E+02 0.  0.
<mgrwt>
<rscale>  0 0.34929625E+04</rscale>
<asrwt>0</asrwt>
<pdfrwt beam="1">  1        2 0.51682135E+00 0.34929625E+04</pdfrwt>
<pdfrwt beam="2">  1       -2 0.13968852E+00 0.34929625E+04</pdfrwt>
<totfact> 0.30139112E-01</totfact>
</mgrwt>
</event>
<event>
11    1  0.8071548E-009  0.3669633E+04  0.7818608E-02  0.8074725E-01
          1   -1    0    0  501    0  0.00000000000E+00  0.00000000000E+00  0.15065667966E+04  0.15065667966E+04  0.00000000000E+00 0. -1.
         -1   -1    0    0    0  501 -0.00000000000E+00 -0.00000000000E+00 -0.22345850192E+04  0.22345850192E+04  0.00000000000E+00 0.  1.
    9900016    2    1    2    0    0 -0.58008294615E+03  0.61853302747E+03 -0.29738744247E+03  0.23712265266E+04  0.21943556272E+04 0.  0.
        -24    2    3    3    0    0 -0.46716250464E+03  0.96693804925E+02  0.29362547203E+03  0.56562182691E+03  0.78240881896E+02 0.  0.
        -15    1    3    3    0    0  0.30044227324E+03 -0.17749104224E+03 -0.11531989341E+03  0.36751504383E+03  0.00000000000E+00 0.  1.
        -15    1    3    3    0    0 -0.19762319942E+03 -0.15961600571E+03 -0.49045760803E+03  0.55234125639E+03  0.00000000000E+00 0.  1.
         15    1    3    3    0    0 -0.21573951533E+03  0.85894627049E+03  0.14764586937E+02  0.88574839943E+03  0.00000000000E+00 0. -1.
         15    1    4    4    0    0 -0.17952048942E+03  0.54166713283E+02  0.75551758211E+02  0.20216257596E+03  0.00000000000E+00 0. -1.
        -16    1    4    4    0    0 -0.28764201522E+03  0.42527091642E+02  0.21807371382E+03  0.36345925095E+03  0.00000000000E+00 0.  1.
         16    1    1    2    0    0  0.63526307792E+02 -0.73079302248E+03 -0.10139041029E+03  0.74052282125E+03  0.00000000000E+00 0. -1.
    9900018    1    1    2    0    0  0.51655663836E+03  0.11225999501E+03 -0.32924036982E+03  0.62940246792E+03  0.91187600000E+02 0.  0.
<mgrwt>
<rscale>  0 0.36696330E+04</rscale>
<asrwt>0</asrwt>
<pdfrwt beam="1">  1        1 0.23177951E+00 0.36696330E+04</pdfrwt>
<pdfrwt beam="2">  1       -1 0.34378231E+00 0.36696330E+04</pdfrwt>
<totfact> 0.88913521E-02</totfact>
</mgrwt>
</event>
<event>
11    1  0.8071548E-009  0.3679095E+04  0.7818608E-02  0.8072610E-01
         -2   -1    0    0    0  501 -0.00000000000E+00  0.00000000000E+00  0.11438279338E+04  0.11438279338E+04  0.00000000000E+00 0.  1.
          2   -1    0    0  501    0  0.00000000000E+00 -0.00000000000E+00 -0.29584305158E+04  0.29584305158E+04  0.00000000000E+00 0. -1.
    9900016    2    1    2    0    0  0.21392244683E+03 -0.62410670007E+02 -0.11158794269E+04  0.24855008213E+04  0.22097215961E+04 0.  0.
         24    2    3    3    0    0 -0.36940215004E+03  0.58631597559E+02  0.40177408527E+03  0.55507822429E+03  0.82424552153E+02 0.  0.
        -15    1    4    4    0    0 -0.62287886022E+02  0.16687564723E+02  0.11976930592E+03  0.13602552041E+03  0.00000000000E+00 0.  1.
        -15    1    3    3    0    0  0.44311243967E+03  0.96866447729E+01 -0.19374315431E+03  0.48371362925E+03  0.00000000000E+00 0.  1.
         15    1    3    3    0    0  0.34189722952E+03 -0.12361055201E+03 -0.66891122586E+03  0.76132484014E+03  0.00000000000E+00 0. -1.
         15    1    3    3    0    0 -0.20168507231E+03 -0.71183603238E+01 -0.65499913203E+03  0.68538412763E+03  0.00000000000E+00 0. -1.
        -16    1    1    2    0    0 -0.23078591865E+03  0.66209599633E+03 -0.13261981346E+02  0.70129104426E+03  0.00000000000E+00 0.  1.
         16    1    4    4    0    0 -0.30711426402E+03  0.41944032836E+02  0.28200477935E+03  0.41905270389E+03  0.00000000000E+00 0. -1.
    9900018    1    1    2    0    0  0.16863471822E+02 -0.59968532632E+03 -0.68546117378E+03  0.91546658401E+03  0.91187600000E+02 0.  0.
<mgrwt>
<rscale>  0 0.36790952E+04</rscale>
<asrwt>0</asrwt>
<pdfrwt beam="1">  1        2 0.45514316E+00 0.36790952E+04</pdfrwt>
<pdfrwt beam="2">  1       -2 0.17597353E+00 0.36790952E+04</pdfrwt>
<totfact> 0.28933775E-01</totfact>
</mgrwt>
</event>
<event>
11    1  0.8071548E-009  0.3265088E+04  0.7818608E-02  0.8171836E-01
         -1   -1    0    0    0  501 -0.00000000000E+00  0.00000000000E+00  0.86709698206E+03  0.86709698206E+03  0.00000000000E+00 0.  1.
          1   -1    0    0  501    0  0.00000000000E+00 -0.00000000000E+00 -0.30737042849E+04  0.30737042849E+04  0.00000000000E+00 0. -1.
    9900016    2    1    2    0    0  0.80715409225E+02  0.11732930233E+03 -0.10371984257E+04  0.24532360893E+04  0.22186269612E+04 0.  0.
        -24    2    3    3    0    0 -0.54024285796E+03  0.23351462158E+03 -0.11252745239E+04  0.12726638239E+04  0.83898930606E+02 0.  0.
        -15    1    3    3    0    0  0.22178052924E+03  0.35012470029E+03  0.97123702541E+01  0.41456994469E+03  0.00000000000E+00 0.  1.
        -15    1    3    3    0    0  0.20089260989E+03 -0.48555156841E+03  0.16209805363E+03  0.54990357817E+03  0.00000000000E+00 0.  1.
         15    1    3    3    0    0  0.19828512805E+03  0.19241548876E+02 -0.83734325721E+02  0.21609874251E+03  0.00000000000E+00 0. -1.
         15    1    4    4    0    0 -0.14632559364E+03  0.10517756285E+03 -0.34078827070E+03  0.38549986320E+03  0.00000000000E+00 0. -1.
        -16    1    4    4    0    0 -0.39391726432E+03  0.12833705872E+03 -0.78448625319E+03  0.88716396073E+03  0.00000000000E+00 0.  1.
         16    1    1    2    0    0  0.18018217192E+03 -0.44341819567E+03 -0.74281130293E+03  0.88365940446E+03  0.00000000000E+00 0. -1.
    9900018    1    1    2    0    0 -0.26089758114E+03  0.32608889334E+03 -0.42659757416E+03  0.60390577318E+03  0.91187600000E+02 0.  0.
<mgrwt>
<rscale>  0 0.32650879E+04</rscale>
<asrwt>0</asrwt>
<pdfrwt beam="1">  1        1 0.47287759E+00 0.32650879E+04</pdfrwt>
<pdfrwt beam="2">  1       -1 0.13339953E+00 0.32650879E+04</pdfrwt>
<totfact> 0.20835666E-01</totfact>
</mgrwt>
</event>
<event>
11    1  0.8071548E-009  0.4986607E+04  0.7818608E-02  0.7830577E-01
         -2   -1    0    0    0  501 -0.00000000000E+00  0.00000000000E+00  0.16516986696E+04  0.16516986696E+04  0.00000000000E+00 0.  1.
          2   -1    0    0  501    0  0.00000000000E+00 -0.00000000000E+00 -0.37637383411E+04  0.37637383411E+04  0.00000000000E+00 0. -1.
    9900016    2    1    2    0    0  0.16546722854E+03  0.11492055292E+04 -0.47148882686E+03  0.25348135644E+04  0.22033895117E+04 0.  0.
        -24    2    3    3    0    0 -0.27794529109E+03  0.98522370852E+03 -0.49384247021E+03  0.11393487071E+04  0.79471694868E+02 0.  0.
        -15    1    3    3    0    0  0.53987044471E+03  0.50433796441E+03 -0.17107046477E+03  0.75834160069E+03  0.00000000000E+00 0.  1.
        -15    1    3    3    0    0 -0.53017465141E+02 -0.36629115840E+03 -0.63281760084E+02  0.37547922112E+03  0.00000000000E+00 0.  1.
         15    1    4    4    0    0 -0.17179285377E+03  0.69912694196E+03 -0.31670700383E+03  0.78650784603E+03  0.00000000000E+00 0. -1.
         15    1    3    3    0    0 -0.43440459938E+02  0.25935014637E+02  0.25670586820E+03  0.26164403550E+03  0.00000000000E+00 0. -1.
        -16    1    4    4    0    0 -0.10615243732E+03  0.28609676656E+03 -0.17713546638E+03  0.35284086106E+03  0.00000000000E+00 0.  1.
         16    1    1    2    0    0  0.22249309294E+03 -0.14974205064E+04 -0.17766754555E+04  0.23341694505E+04  0.00000000000E+00 0. -1.
    9900018    1    1    2    0    0 -0.38796032148E+03  0.34821497725E+03  0.13612461086E+03  0.54645399578E+03  0.91187600000E+02 0.  0.
<mgrwt>
<rscale>  0 0.49866067E+04</rscale>
<asrwt>0</asrwt>
<pdfrwt beam="1">  1        2 0.57903667E+00 0.49866067E+04</pdfrwt>
<pdfrwt beam="2">  1       -2 0.25410749E+00 0.49866067E+04</pdfrwt>
<totfact> 0.23043652E-02</totfact>
</mgrwt>
</event>
<event>
11    1  0.8071548E-009  0.4927225E+04  0.7818608E-02  0.7839832E-01
          2   -1    0    0  501    0  0.00000000000E+00  0.00000000000E+00  0.25910718348E+04  0.25910718348E+04  0.00000000000E+00 0. -1.
         -2   -1    0    0    0  501 -0.00000000000E+00 -0.00000000000E+00 -0.23424233887E+04  0.23424233887E+04  0.00000000000E+00 0.  1.
    9900016    2    1    2    0    0 -0.39388683194E+03  0.52177178715E+03  0.65973660913E+03  0.23863201890E+04  0.21981535471E+04 0.  0.
        -24    2    3    3    0    0  0.25419016838E+03 -0.53668145698E+03 -0.59548936872E+02  0.60191913786E+03  0.78236466407E+02 0.  0.
        -15    1    3    3    0    0  0.97764598025E+02 -0.25833545495E+02  0.10102799974E+03  0.14294035620E+03  0.00000000000E+00 0. -1.
        -15    1    3    3    0    0 -0.84531727974E+03  0.11299027535E+04  0.57125702529E+03  0.15223587372E+04  0.00000000000E+00 0.  1.
         15    1    4    4    0    0  0.82532672623E+02 -0.26464832605E+03 -0.22589419735E+02  0.27813784427E+03  0.00000000000E+00 0. -1.
         15    1    3    3    0    0  0.99475681392E+02 -0.45615963891E+02  0.47000520978E+02  0.11910195768E+03  0.00000000000E+00 0.  1.
        -16    1    4    4    0    0  0.17165749576E+03 -0.27203313093E+03 -0.36959517136E+02  0.32378129359E+03  0.00000000000E+00 0.  1.
         16    1    1    2    0    0  0.98001868863E+03 -0.85108897049E+03  0.51731512951E+03  0.13972845125E+04  0.00000000000E+00 0. -1.
    9900018    1    1    2    0    0 -0.58613185669E+03  0.32931718334E+03 -0.92840329248E+03  0.11498905220E+04  0.91187600000E+02 0.  0.
<mgrwt>
<rscale>  0 0.49272253E+04</rscale>
<asrwt>0</asrwt>
<pdfrwt beam="1">  1        2 0.39862644E+00 0.49272253E+04</pdfrwt>
<pdfrwt beam="2">  1       -2 0.36037283E+00 0.49272253E+04</pdfrwt>
<totfact> 0.30168220E-02</totfact>
</mgrwt>
</event>
<event>
11    1  0.8071548E-009  0.4447429E+04  0.7818608E-02  0.7919906E-01
          1   -1    0    0  501    0  0.00000000000E+00  0.00000000000E+00  0.24447280035E+04  0.24447280035E+04  0.00000000000E+00 0. -1.
         -1   -1    0    0    0  501 -0.00000000000E+00 -0.00000000000E+00 -0.20226813211E+04  0.20226813211E+04  0.00000000000E+00 0.  1.
    9900016    2    1    2    0    0 -0.43104783624E+01 -0.26358306996E+03  0.22877288781E+03  0.22145439628E+04  0.21868638079E+04 0.  0.
         24    2    3    3    0    0  0.42237251873E+03 -0.24355805524E+03 -0.27465183024E+03  0.56532560914E+03  0.80251764099E+02 0.  0.
        -15    1    4    4    0    0  0.95843656254E+02 -0.36011377903E+02 -0.26783699603E+02  0.10583096119E+03  0.00000000000E+00 0.  1.
        -15    1    3    3    0    0 -0.33237729870E+03 -0.58376837320E+03  0.19127824866E+03  0.69846084404E+03  0.00000000000E+00 0.  1.
         15    1    3    3    0    0  0.47696557505E+02  0.59869213673E+03 -0.59902238417E+01  0.60061894656E+03  0.00000000000E+00 0. -1.
         15    1    3    3    0    0 -0.14200225590E+03 -0.34948778249E+02  0.31813669323E+03  0.35013856309E+03  0.00000000000E+00 0. -1.
        -16    1    1    2    0    0 -0.64863835053E+03  0.79275854819E+03 -0.51820695789E+03  0.11479269475E+04  0.00000000000E+00 0.  1.
         16    1    4    4    0    0  0.32652886248E+03 -0.20754667734E+03 -0.24786813064E+03  0.45949464795E+03  0.00000000000E+00 0. -1.
    9900018    1    1    2    0    0  0.65294882889E+03 -0.52917547823E+03  0.71148075243E+03  0.11049384143E+04  0.91187600000E+02 0.  0.
<mgrwt>
<rscale>  0 0.44474288E+04</rscale>
<asrwt>0</asrwt>
<pdfrwt beam="1">  1        1 0.37611200E+00 0.44474288E+04</pdfrwt>
<pdfrwt beam="2">  1       -1 0.31118174E+00 0.44474288E+04</pdfrwt>
<totfact> 0.31196885E-02</totfact>
</mgrwt>
</event>
<event>
11    1  0.8071548E-009  0.3244640E+04  0.7818608E-02  0.8177126E-01
         -1   -1    0    0    0  501 -0.00000000000E+00  0.00000000000E+00  0.11330199229E+04  0.11330199229E+04  0.00000000000E+00 0.  1.
          1   -1    0    0  501    0  0.00000000000E+00 -0.00000000000E+00 -0.23229269804E+04  0.23229269804E+04  0.00000000000E+00 0. -1.
    9900016    2    1    2    0    0  0.47509492913E+03 -0.16453163574E+02 -0.14258053283E+04  0.26723955706E+04  0.22097039063E+04 0.  0.
         24    2    3    3    0    0 -0.49327457963E+01  0.19211803355E+03  0.28980557111E+03  0.35653874526E+03  0.78733328597E+02 0.  0.
        -15    1    3    3    0    0 -0.79342846266E+02  0.90702828136E+02  0.70856616669E+02  0.13979610299E+03  0.00000000000E+00 0.  1.
        -15    1    4    4    0    0 -0.36987790288E+02  0.14934047100E+03  0.22421128209E+03  0.27192162827E+03  0.00000000000E+00 0.  1.
         15    1    3    3    0    0  0.33259254751E+03  0.34231022302E+03 -0.36752921680E+03  0.60238842673E+03  0.00000000000E+00 0. -1.
         15    1    3    3    0    0  0.22677797368E+03 -0.64158424828E+03 -0.14189382993E+04  0.15736722956E+04  0.00000000000E+00 0. -1.
        -16    1    1    2    0    0 -0.29922894409E+03  0.28690292244E+02  0.41754762727E+03  0.51449695324E+03  0.00000000000E+00 0.  1.
         16    1    4    4    0    0  0.32055044491E+02  0.42777562553E+02  0.65594289021E+02  0.84617116989E+02  0.00000000000E+00 0. -1.
    9900018    1    1    2    0    0 -0.17586598504E+03 -0.12237128670E+02 -0.18164935643E+03  0.26905437944E+03  0.91187600000E+02 0.  0.
<mgrwt>
<rscale>  0 0.32446402E+04</rscale>
<asrwt>0</asrwt>
<pdfrwt beam="1">  1        1 0.35737338E+00 0.32446402E+04</pdfrwt>
<pdfrwt beam="2">  1       -1 0.17431076E+00 0.32446402E+04</pdfrwt>
<totfact> 0.34228230E-01</totfact>
</mgrwt>
</event>
<event>
11    1  0.8071548E-009  0.3312840E+04  0.7818608E-02  0.8159636E-01
         -2   -1    0    0    0  501 -0.00000000000E+00  0.00000000000E+00  0.16745139856E+04  0.16745139856E+04  0.00000000000E+00 0.  1.
          2   -1    0    0  501    0  0.00000000000E+00 -0.00000000000E+00 -0.16385210797E+04  0.16385210797E+04  0.00000000000E+00 0. -1.
    9900016    2    1    2    0    0 -0.66512628581E+03  0.37746557872E+03  0.13768722463E+02  0.23331497686E+04  0.22042062122E+04 0.  0.
        -24    2    3    3    0    0  0.47696545506E+03  0.74328737975E+03 -0.10085561390E+03  0.89237842233E+03  0.78709717191E+02 0.  0.
        -15    1    3    3    0    0 -0.54240908925E+02  0.22685394141E+02  0.14189438961E+03  0.15359271178E+03  0.00000000000E+00 0.  1.
        -15    1    3    3    0    0 -0.23364086260E+03 -0.32583254422E+03  0.11909515798E+03  0.41825656744E+03  0.00000000000E+00 0.  1.
         15    1    3    3    0    0 -0.85420996934E+03 -0.62674650939E+02 -0.14636521123E+03  0.86892206708E+03  0.00000000000E+00 0. -1.
         15    1    4    4    0    0  0.23880944700E+03  0.43126128172E+03 -0.78856513838E+02  0.49923400812E+03  0.00000000000E+00 0. -1.
        -16    1    4    4    0    0  0.23815600806E+03  0.31202609803E+03 -0.21999100058E+02  0.39314441422E+03  0.00000000000E+00 0.  1.
         16    1    1    2    0    0  0.54307893524E+03 -0.51325424382E+03 -0.80224961074E+02  0.75153223023E+03  0.00000000000E+00 0. -1.
    9900018    1    1    2    0    0  0.12204735057E+03  0.13578866510E+03  0.10244914456E+03  0.22835306646E+03  0.91187600000E+02 0.  0.
<mgrwt>
<rscale>  0 0.33128395E+04</rscale>
<asrwt>0</asrwt>
<pdfrwt beam="1">  1        2 0.25208017E+00 0.33128395E+04</pdfrwt>
<pdfrwt beam="2">  1       -2 0.25761754E+00 0.33128395E+04</pdfrwt>
<totfact> 0.51089351E-01</totfact>
</mgrwt>
</event>
<event>
11    1  0.8071548E-009  0.4599218E+04  0.7818608E-02  0.7893493E-01
         -2   -1    0    0    0  501 -0.00000000000E+00  0.00000000000E+00  0.18796764995E+04  0.18796764995E+04  0.00000000000E+00 0. -1.
          2   -1    0    0  501    0  0.00000000000E+00 -0.00000000000E+00 -0.28133568797E+04  0.28133568797E+04  0.00000000000E+00 0.  1.
    9900016    2    1    2    0    0  0.86631903876E+03  0.70212992117E+03 -0.39534692621E+03  0.25069489663E+04  0.22102033446E+04 0.  0.
        -24    2    3    3    0    0 -0.21164944218E+03 -0.64462293085E+02 -0.31645132061E+03  0.39529144285E+03  0.84634584379E+02 0.  0.
        -15    1    3    3    0    0  0.14057001698E+04  0.50516217047E+03  0.22854506896E+03  0.15110971624E+04  0.00000000000E+00 0.  1.
        -15    1    3    3    0    0 -0.17864070904E+03  0.16553238934E+03 -0.34209880392E+03  0.41993459787E+03  0.00000000000E+00 0.  1.
         15    1    3    3    0    0 -0.14909097977E+03  0.95897654440E+02  0.34658129353E+02  0.18062576313E+03  0.00000000000E+00 0. -1.
         15    1    4    4    0    0 -0.63855244396E+02 -0.51386079130E+02 -0.15939593985E+03  0.17923472601E+03  0.00000000000E+00 0. -1.
        -16    1    4    4    0    0 -0.14779419778E+03 -0.13076213955E+02 -0.15705538075E+03  0.21605671684E+03  0.00000000000E+00 0.  1.
         16    1    1    2    0    0 -0.27840930433E+03 -0.10160772414E+04  0.31488202835E+03  0.10995796438E+04  0.00000000000E+00 0. -1.
    9900018    1    1    2    0    0 -0.58790973443E+03  0.31394732026E+03 -0.85321548232E+03  0.10865047692E+04  0.91187600000E+02 0.  0.
<mgrwt>
<rscale>  0 0.45992177E+04</rscale>
<asrwt>0</asrwt>
<pdfrwt beam="1">  1        2 0.43282413E+00 0.45992177E+04</pdfrwt>
<pdfrwt beam="2">  1       -2 0.28918100E+00 0.45992177E+04</pdfrwt>
<totfact> 0.63133038E-02</totfact>
</mgrwt>
</event>
<event>
11    1  0.8071548E-009  0.3865529E+04  0.7818608E-02  0.8032237E-01
         -1   -1    0    0    0  501 -0.00000000000E+00  0.00000000000E+00  0.18488089658E+04  0.18488089658E+04  0.00000000000E+00 0.  1.
          1   -1    0    0  501    0  0.00000000000E+00 -0.00000000000E+00 -0.20205327195E+04  0.20205327195E+04  0.00000000000E+00 0. -1.
    9900016    2    1    2    0    0  0.91607403833E+03  0.18387547845E+02  0.16308870020E+03  0.23913945847E+04  0.22028709426E+04 0.  0.
         24    2    3    3    0    0 -0.16816454010E+02  0.38075100565E+03  0.25915812722E+03  0.46742610215E+03  0.77910876233E+02 0.  0.
        -15    1    3    3    0    0  0.58524960144E+03 -0.15065423534E+03  0.28617788026E+03  0.66866402158E+03  0.00000000000E+00 0.  1.
        -15    1    4    4    0    0 -0.15262758406E+02  0.29990486018E+03  0.23977109039E+03  0.38427340884E+03  0.00000000000E+00 0.  1.
         15    1    3    3    0    0  0.23398540126E+03 -0.65962289294E+03 -0.83076924605E+02  0.70480728167E+03  0.00000000000E+00 0. -1.
         15    1    3    3    0    0  0.11365548964E+03  0.44791367048E+03 -0.29917038268E+03  0.55049717928E+03  0.00000000000E+00 0. -1.
        -16    1    1    2    0    0 -0.76186407733E+03 -0.31932804730E+03  0.18938976106E+03  0.84751150772E+03  0.00000000000E+00 0.  1.
         16    1    4    4    0    0 -0.15536956038E+01  0.80846145471E+02  0.19387036829E+02  0.83152693309E+02  0.00000000000E+00 0. -1.
    9900018    1    1    2    0    0 -0.15420996099E+03  0.30094049945E+03 -0.52420221493E+03  0.63043559292E+03  0.91187600000E+02 0.  0.
<mgrwt>
<rscale>  0 0.38655292E+04</rscale>
<asrwt>0</asrwt>
<pdfrwt beam="1">  1        1 0.31085119E+00 0.38655292E+04</pdfrwt>
<pdfrwt beam="2">  1       -1 0.28443215E+00 0.38655292E+04</pdfrwt>
<totfact> 0.95144298E-02</totfact>
</mgrwt>
</event>
<event>
11    1  0.8071548E-009  0.3564490E+04  0.7818608E-02  0.8098674E-01
         -2   -1    0    0    0  501 -0.00000000000E+00  0.00000000000E+00  0.11115797255E+04  0.11115797255E+04  0.00000000000E+00 0.  1.
          2   -1    0    0  501    0  0.00000000000E+00 -0.00000000000E+00 -0.28575522448E+04  0.28575522448E+04  0.00000000000E+00 0. -1.
    9900016    2    1    2    0    0  0.23448441958E+03  0.78650130634E+02 -0.67747979874E+03  0.23086749214E+04  0.21931329711E+04 0.  0.
         24    2    3    3    0    0  0.37344670047E+03  0.32621174913E+03 -0.45351504345E+03  0.67668616522E+03  0.79697730147E+02 0.  0.
        -15    1    4    4    0    0  0.23989213206E+03  0.23782351716E+03 -0.26510256684E+03  0.42940380911E+03  0.00000000000E+00 0.  1.
        -15    1    3    3    0    0  0.28204496676E+03  0.20828595032E+03  0.11857105868E+03  0.37012362303E+03  0.00000000000E+00 0.  1.
         15    1    3    3    0    0 -0.73649482817E+03 -0.36402595304E+03 -0.51885403180E+02  0.82318383212E+03  0.00000000000E+00 0. -1.
         15    1    3    3    0    0  0.31548758052E+03 -0.91821615780E+02 -0.29065041079E+03  0.43868130103E+03  0.00000000000E+00 0. -1.
        -16    1    1    2    0    0 -0.40600442907E+03  0.39619166840E+02  0.13958929125E+03  0.43115478084E+03  0.00000000000E+00 0.  1.
         16    1    4    4    0    0  0.13355456842E+03  0.88388231978E+02 -0.18841247661E+03  0.24728235610E+03  0.00000000000E+00 0. -1.
    9900018    1    1    2    0    0  0.17152000949E+03 -0.11826929747E+03 -0.12080820118E+04  0.12293022680E+04  0.91187600000E+02 0.  0.
<mgrwt>
<rscale>  0 0.35644899E+04</rscale>
<asrwt>0</asrwt>
<pdfrwt beam="1">  1        2 0.43962342E+00 0.35644899E+04</pdfrwt>
<pdfrwt beam="2">  1       -2 0.17101227E+00 0.35644899E+04</pdfrwt>
<totfact> 0.36536313E-01</totfact>
</mgrwt>
</event>
<event>
11    1  0.8071548E-009  0.3832619E+04  0.7818608E-02  0.8039191E-01
          2   -1    0    0  501    0  0.00000000000E+00  0.00000000000E+00  0.24594601916E+04  0.24594601916E+04  0.00000000000E+00 0. -1.
         -2   -1    0    0    0  501 -0.00000000000E+00 -0.00000000000E+00 -0.14931089386E+04  0.14931089386E+04  0.00000000000E+00 0.  1.
    9900016    2    1    2    0    0  0.81123406723E+02  0.54262117605E+03  0.83688058837E+03  0.24223566652E+04  0.22059972680E+04 0.  0.
         24    2    3    3    0    0  0.95363605428E+02 -0.34817244772E+03 -0.27610429855E+03  0.46152186682E+03  0.80315498390E+02 0.  0.
        -15    1    4    4    0    0  0.10959566299E+02 -0.19176993358E+03 -0.14126897696E+03  0.23843813321E+03  0.00000000000E+00 0.  1.
        -15    1    3    3    0    0 -0.44358002675E+03  0.16642205694E+03  0.33213492735E+03  0.57859584438E+03  0.00000000000E+00 0.  1.
         15    1    3    3    0    0 -0.55078164409E+02  0.64593243196E+03  0.40863645476E+03  0.76631981771E+03  0.00000000000E+00 0. -1.
         15    1    3    3    0    0  0.48441799246E+03  0.78439134868E+02  0.37221350481E+03  0.61591913630E+03  0.00000000000E+00 0. -1.
        -16    1    1    2    0    0  0.20523163816E+03  0.14698587043E+03 -0.49296623275E+03  0.55384165430E+03  0.00000000000E+00 0.  1.
         16    1    4    4    0    0  0.84404039129E+02 -0.15640251414E+03 -0.13483532159E+03  0.22308373360E+03  0.00000000000E+00 0. -1.
    9900018    1    1    2    0    0 -0.28635504488E+03 -0.68960704648E+03  0.62243689743E+03  0.97637081069E+03  0.91187600000E+02 0.  0.
<mgrwt>
<rscale>  0 0.38326189E+04</rscale>
<asrwt>0</asrwt>
<pdfrwt beam="1">  1        2 0.37837849E+00 0.38326189E+04</pdfrwt>
<pdfrwt beam="2">  1       -2 0.22970907E+00 0.38326189E+04</pdfrwt>
<totfact> 0.25227520E-01</totfact>
</mgrwt>
</event>
<event>
11    1  0.8071548E-009  0.3041884E+04  0.7818608E-02  0.8231871E-01
          1   -1    0    0  501    0  0.00000000000E+00  0.00000000000E+00  0.15614701056E+04  0.15614701056E+04  0.00000000000E+00 0. -1.
         -1   -1    0    0    0  501 -0.00000000000E+00 -0.00000000000E+00 -0.14814658616E+04  0.14814658616E+04  0.00000000000E+00 0.  1.
    9900016    2    1    2    0    0  0.50378831559E+02 -0.13748526177E+02  0.44270954183E+03  0.22105138160E+04  0.21650987376E+04 0.  0.
         24    2    3    3    0    0  0.40956879341E+03 -0.79008957105E+02 -0.60954183121E+03  0.74283848859E+03  0.79238654114E+02 0.  0.
        -15    1    3    3    0    0 -0.30307320914E+03 -0.17147607940E+02  0.69418996505E+03  0.75765897219E+03  0.00000000000E+00 0.  1.
        -15    1    4    4    0    0  0.50472769363E+02 -0.35438168378E+02 -0.10954604342E+03  0.12571276727E+03  0.00000000000E+00 0.  1.
         15    1    3    3    0    0  0.12375210855E+03  0.30361580105E+03  0.18380498265E+03  0.37587419526E+03  0.00000000000E+00 0. -1.
         15    1    3    3    0    0 -0.17986886125E+03 -0.22120776218E+03  0.17425642534E+03  0.33414215997E+03  0.00000000000E+00 0. -1.
        -16    1    1    2    0    0 -0.38992691601E+03 -0.12204382081E+01 -0.24882408512E+03  0.46255585029E+03  0.00000000000E+00 0.  1.
         16    1    4    4    0    0  0.35909602404E+03 -0.43570788728E+02 -0.49999578779E+03  0.61712572132E+03  0.00000000000E+00 0. -1.
    9900018    1    1    2    0    0  0.33954808445E+03  0.14968964385E+02 -0.11388121272E+03  0.36986630092E+03  0.91187600000E+02 0.  0.
<mgrwt>
<rscale>  0 0.30418841E+04</rscale>
<asrwt>0</asrwt>
<pdfrwt beam="1">  1        1 0.24022617E+00 0.30418841E+04</pdfrwt>
<pdfrwt beam="2">  1       -1 0.22791782E+00 0.30418841E+04</pdfrwt>
<totfact> 0.49018118E-01</totfact>
</mgrwt>
</event>
<event>
11    1  0.8071548E-009  0.4303556E+04  0.7818608E-02  0.7945961E-01
          2   -1    0    0  501    0  0.00000000000E+00  0.00000000000E+00  0.35650366227E+04  0.35650366227E+04  0.00000000000E+00 0. -1.
         -2   -1    0    0    0  501 -0.00000000000E+00 -0.00000000000E+00 -0.12987660443E+04  0.12987660443E+04  0.00000000000E+00 0.  1.
    9900016    2    1    2    0    0 -0.75785565512E+03 -0.58474525820E+03  0.92153976464E+03  0.25696702285E+04  0.21994766047E+04 0.  0.
         24    2    3    3    0    0 -0.11675833552E+04 -0.65208546723E+03  0.51232234179E+03  0.14343482510E+04  0.80089796232E+02 0.  0.
        -15    1    3    3    0    0 -0.17375948074E+03  0.16433194975E+03  0.27614839051E+03  0.36531531646E+03  0.00000000000E+00 0.  1.
        -15    1    4    4    0    0 -0.16265207040E+03 -0.72160196922E+02  0.91872433732E+02  0.20025816864E+03  0.00000000000E+00 0.  1.
         15    1    3    3    0    0  0.63628435527E+03 -0.19314424803E+02  0.18469730761E+03  0.66283023709E+03  0.00000000000E+00 0. -1.
         15    1    3    3    0    0 -0.52797174445E+02 -0.77677315906E+02 -0.51628275268E+02  0.10717642391E+03  0.00000000000E+00 0. -1.
        -16    1    1    2    0    0  0.10451946547E+04  0.93043051847E+03  0.98552357474E+03  0.17115459481E+04  0.00000000000E+00 0.  1.
         16    1    4    4    0    0 -0.10049312848E+04 -0.57992527031E+03  0.42044990806E+03  0.12340900824E+04  0.00000000000E+00 0. -1.
    9900018    1    1    2    0    0 -0.28733899962E+03 -0.34568526027E+03  0.35920723897E+03  0.58258649040E+03  0.91187600000E+02 0.  0.
<mgrwt>
<rscale>  0 0.43035560E+04</rscale>
<asrwt>0</asrwt>
<pdfrwt beam="1">  1        2 0.54846717E+00 0.43035560E+04</pdfrwt>
<pdfrwt beam="2">  1       -2 0.19981016E+00 0.43035560E+04</pdfrwt>
<totfact> 0.74937357E-02</totfact>
</mgrwt>
</event>
<event>
11    1  0.8071548E-009  0.4234479E+04  0.7818608E-02  0.7958846E-01
         -1   -1    0    0    0  501 -0.00000000000E+00  0.00000000000E+00  0.24913303313E+04  0.24913303313E+04  0.00000000000E+00 0.  1.
          1   -1    0    0  501    0  0.00000000000E+00 -0.00000000000E+00 -0.17993210206E+04  0.17993210206E+04  0.00000000000E+00 0. -1.
    9900016    2    1    2    0    0 -0.19387731527E+03  0.11409029368E+04  0.73444936303E+03  0.25842857775E+04  0.21908603762E+04 0.  0.
        -24    2    3    3    0    0 -0.47849283077E+03  0.15905385447E+04  0.81715911050E+03  0.18526997512E+04  0.77324672282E+02 0.  0.
        -15    1    3    3    0    0  0.31597668823E+03 -0.52358305174E+03  0.43032742529E+01  0.61155457462E+03  0.00000000000E+00 0.  1.
        -15    1    3    3    0    0 -0.18468728331E+02  0.63083024388E+02 -0.71465719463E+02  0.97097430195E+02  0.00000000000E+00 0. -1.
         15    1    4    4    0    0 -0.98400847890E+02  0.41316991120E+03  0.23450333576E+03  0.48516380416E+03  0.00000000000E+00 0. -1.
         15    1    3    3    0    0 -0.12892444396E+02  0.10864419509E+02 -0.15547302251E+02  0.22934021476E+02  0.00000000000E+00 0.  1.
        -16    1    4    4    0    0 -0.38009198288E+03  0.11773686335E+04  0.58265577474E+03  0.13675359470E+04  0.00000000000E+00 0.  1.
         16    1    1    2    0    0 -0.12142967793E+03 -0.65637614926E+03 -0.60037723159E+03  0.89779041887E+03  0.00000000000E+00 0. -1.
    9900018    1    1    2    0    0  0.31530699320E+03 -0.48452678756E+03  0.55793717931E+03  0.80857515561E+03  0.91187600000E+02 0.  0.
<mgrwt>
<rscale>  0 0.42344790E+04</rscale>
<asrwt>0</asrwt>
<pdfrwt beam="1">  1        1 0.27681862E+00 0.42344790E+04</pdfrwt>
<pdfrwt beam="2">  1       -1 0.38328159E+00 0.42344790E+04</pdfrwt>
<totfact> 0.29098490E-02</totfact>
</mgrwt>
</event>
<event>
11    1  0.8071548E-009  0.3870572E+04  0.7818608E-02  0.8031178E-01
          2   -1    0    0  501    0  0.00000000000E+00  0.00000000000E+00  0.29110895058E+04  0.29110895058E+04  0.00000000000E+00 0. -1.
         -2   -1    0    0    0  501 -0.00000000000E+00 -0.00000000000E+00 -0.12865742491E+04  0.12865742491E+04  0.00000000000E+00 0.  1.
    9900016    2    1    2    0    0  0.22957240302E+03  0.99880735469E+03  0.48160344858E+03  0.24716111037E+04  0.21969524224E+04 0.  0.
        -24    2    3    3    0    0 -0.18686239714E+03  0.36544691924E+03 -0.36307862039E+03  0.55387536913E+03  0.80516046185E+02 0.  0.
        -15    1    3    3    0    0  0.56862080386E+03  0.52715553401E+03  0.16653364963E+03  0.79306748267E+03  0.00000000000E+00 0.  1.
        -15    1    3    3    0    0 -0.14947889607E+03 -0.28665904250E+03  0.65580304913E+03  0.73116002781E+03  0.00000000000E+00 0.  1.
         15    1    3    3    0    0 -0.27071076248E+01  0.39286394395E+03  0.22345370219E+02  0.39350822412E+03  0.00000000000E+00 0. -1.
         15    1    4    4    0    0 -0.10989820525E+03  0.13029712279E+03 -0.15995768108E+03  0.23375503302E+03  0.00000000000E+00 0. -1.
        -16    1    4    4    0    0 -0.76964191890E+02  0.23514979645E+03 -0.20312093932E+03  0.32012033611E+03  0.00000000000E+00 0.  1.
         16    1    1    2    0    0  0.26015667033E+03 -0.16286641553E+03  0.38641119936E+03  0.49347804147E+03  0.00000000000E+00 0. -1.
    9900018    1    1    2    0    0 -0.48972907335E+03 -0.83594093916E+03  0.75650060869E+03  0.12325746097E+04  0.91187600000E+02 0.  0.
<mgrwt>
<rscale>  0 0.38705725E+04</rscale>
<asrwt>0</asrwt>
<pdfrwt beam="1">  1        2 0.44785992E+00 0.38705725E+04</pdfrwt>
<pdfrwt beam="2">  1       -2 0.19793450E+00 0.38705725E+04</pdfrwt>
<totfact> 0.21625767E-01</totfact>
</mgrwt>
</event>
