<event>
12    1  0.8881361E-013  0.1453603E+04  0.7818608E-02  0.8915907E-01
          1   -1    0    0  501    0  0.00000000000E+00  0.00000000000E+00  0.83029034482E+03  0.83029034482E+03  0.00000000000E+00 0. -1.
         -1   -1    0    0    0  501 -0.00000000000E+00 -0.00000000000E+00 -0.63621127238E+03  0.63621127238E+03  0.00000000000E+00 0.  1.
    9900016    2    1    2    0    0 -0.11508665511E+03 -0.20340287989E+03 -0.87612436867E+02  0.65845668573E+03  0.60932060375E+03 0.  0.
         23    2    3    3    0    0  0.47197658821E+02 -0.26044541033E+03  0.68671706814E+02  0.29051793280E+03  0.98109302316E+02 0.  0.
         23    2    3    3    0    0 -0.42702588113E+02 -0.46962195903E+02 -0.15647875827E+03  0.20945591436E+03  0.12392424861E+03 0.  0.
        -15    1    4    4    0    0  0.22593587974E+01 -0.20627511720E+02 -0.21982055416E+02  0.30229285506E+02  0.00000000000E+00 0. -1.
        -15    1    5    5    0    0  0.16730827024E+02  0.17921459755E+02 -0.10433291438E+03  0.10717488659E+03  0.00000000000E+00 0.  1.
         15    1    4    4    0    0  0.44938300023E+02 -0.23981789861E+03  0.90653762230E+02  0.26028864729E+03  0.00000000000E+00 0.  1.
         15    1    5    5    0    0 -0.59433415137E+02 -0.64883655658E+02 -0.52145843893E+02  0.10228102777E+03  0.00000000000E+00 0. -1.
        -16    1    1    2    0    0  0.41527950545E+03  0.10181328749E+03  0.15998524446E+03  0.45652852222E+03  0.00000000000E+00 0.  1.
         16    1    3    3    0    0 -0.11958172581E+03  0.10400472634E+03  0.19461458811E+00  0.15848283858E+03  0.00000000000E+00 0. -1.
    9900018    1    1    2    0    0 -0.30019285034E+03  0.10158959241E+03  0.12170626484E+03  0.35151640925E+03  0.91187600000E+02 0.  0.
<mgrwt>
<rscale>  0 0.14536025E+04</rscale>
<asrwt>0</asrwt>
<pdfrwt beam="1">  1        1 0.12773698E+00 0.14536025E+04</pdfrwt>
<pdfrwt beam="2">  1       -1 0.97878657E-01 0.14536025E+04</pdfrwt>
<totfact> 0.20236756E+01</totfact>
</mgrwt>
</event>
<event>
11    1  0.8881361E-013  0.1475182E+04  0.7818608E-02  0.8901126E-01
          2   -1    0    0  501    0  0.00000000000E+00  0.00000000000E+00  0.24740669177E+03  0.24740669177E+03  0.00000000000E+00 0.  1.
         -2   -1    0    0    0  501 -0.00000000000E+00 -0.00000000000E+00 -0.21989734484E+04  0.21989734484E+04  0.00000000000E+00 0. -1.
    9900016    2    1    2    0    0  0.31688657712E+03  0.24872561667E+03 -0.89179291619E+03  0.11268814156E+04  0.55882518226E+03 0.  0.
         23    2    3    3    0    0  0.43533590662E+02  0.19754422100E+03 -0.19715166389E+03  0.29726111689E+03  0.92609396266E+02 0.  0.
        -15    1    3    3    0    0  0.30820866904E+03  0.33849139201E+02 -0.44885012397E+03  0.54553165049E+03  0.00000000000E+00 0.  1.
        -15    1    4    4    0    0  0.72278472367E+02  0.13993379866E+03 -0.14958149438E+03  0.21721019552E+03  0.00000000000E+00 0. -1.
         15    1    3    3    0    0  0.48350508257E+02 -0.14301522358E+02 -0.62318051173E+02  0.80161366583E+02  0.00000000000E+00 0. -1.
         15    1    4    4    0    0 -0.28744881705E+02  0.57610422332E+02 -0.47570169506E+02  0.80050921372E+02  0.00000000000E+00 0.  1.
        -16    1    1    2    0    0 -0.32332381308E+03  0.11367912171E+03 -0.23958758424E+03  0.41816676259E+03  0.00000000000E+00 0.  1.
         16    1    3    3    0    0 -0.83206190841E+02  0.31633778830E+02 -0.18347307716E+03  0.20392728165E+03  0.00000000000E+00 0. -1.
    9900018    1    1    2    0    0  0.64372359623E+01 -0.36240473838E+03 -0.82018625618E+03  0.90133196195E+03  0.91187600000E+02 0.  0.
<mgrwt>
<rscale>  0 0.14751824E+04</rscale>
<asrwt>0</asrwt>
<pdfrwt beam="1">  1        2 0.38062568E-01 0.14751824E+04</pdfrwt>
<pdfrwt beam="2">  1       -2 0.33830361E+00 0.14751824E+04</pdfrwt>
<totfact> 0.24453107E+00</totfact>
</mgrwt>
</event>
<event>
12    1  0.8881361E-013  0.1590004E+04  0.7818608E-02  0.8826713E-01
         -2   -1    0    0    0  501 -0.00000000000E+00  0.00000000000E+00  0.46346382681E+03  0.46346382681E+03  0.00000000000E+00 0.  1.
          2   -1    0    0  501    0  0.00000000000E+00 -0.00000000000E+00 -0.13637056291E+04  0.13637056291E+04  0.00000000000E+00 0. -1.
    9900016    2    1    2    0    0 -0.47942265320E+03 -0.36424716264E+03 -0.48458935669E+03  0.10955349629E+04  0.77643282670E+03 0.  0.
         23    2    3    3    0    0  0.41297820266E+02 -0.22270142339E+02 -0.96691396893E+02  0.14103753252E+03  0.91328473922E+02 0.  0.
         23    2    3    3    0    0  0.55327570518E+02 -0.11723611340E+03 -0.57603166863E+02  0.18143684438E+03  0.11311833326E+03 0.  0.
        -15    1    5    5    0    0  0.12565527438E+02 -0.26960818620E+02 -0.74416145014E+02  0.80140756542E+02  0.00000000000E+00 0. -1.
        -15    1    4    4    0    0  0.40715137925E+02  0.24623018500E+02 -0.21032133858E+02  0.52022746476E+02  0.00000000000E+00 0.  1.
         15    1    5    5    0    0  0.42762043079E+02 -0.90275294783E+02  0.16812978151E+02  0.10129608784E+03  0.00000000000E+00 0.  1.
         15    1    4    4    0    0  0.58268234100E+00 -0.46893160839E+02 -0.75659263035E+02  0.89014786048E+02  0.00000000000E+00 0. -1.
        -16    1    3    3    0    0 -0.21682744364E+03  0.47519497403E+02 -0.19022620743E+03  0.29233243567E+03  0.00000000000E+00 0.  1.
         16    1    1    2    0    0  0.47942265320E+03  0.36424716264E+03 -0.41565244564E+03  0.73163449308E+03  0.00000000000E+00 0. -1.
    9900018    1    3    3    0    0 -0.35922060034E+03 -0.27226040431E+03 -0.14006858551E+03  0.48072815031E+03  0.91187600000E+02 0.  0.
<mgrwt>
<rscale>  0 0.15900041E+04</rscale>
<asrwt>0</asrwt>
<pdfrwt beam="1">  1        2 0.20980086E+00 0.15900041E+04</pdfrwt>
<pdfrwt beam="2">  1       -2 0.71302128E-01 0.15900041E+04</pdfrwt>
<totfact> 0.26013018E+01</totfact>
</mgrwt>
</event>
