<event>
12    1  0.1141052E-015  0.2687739E+04  0.7818608E-02  0.8338994E-01
          2   -1    0    0  501    0  0.00000000000E+00  0.00000000000E+00  0.15914817432E+04  0.15914817432E+04  0.00000000000E+00 0. -1.
         -2   -1    0    0    0  501 -0.00000000000E+00 -0.00000000000E+00 -0.11347825034E+04  0.11347825034E+04  0.00000000000E+00 0.  1.
         24    2    1    2    0    0  0.30838972348E+03  0.18610218588E+03  0.53878765773E+03  0.65508691580E+03  0.95438367509E+02 0.  0.
    9900016    2    1    2    0    0 -0.40685796377E+03 -0.20764065057E+03 -0.13191376296E+03  0.19587386149E+04  0.19001599086E+04 0.  0.
        -24    2    4    4    0    0  0.74585894429E+03 -0.47376438922E+02 -0.34528613748E+02  0.75108298234E+03  0.66206717554E+02 0.  0.
        -15    1    4    4    0    0 -0.10644462868E+04 -0.13632744316E+03 -0.10509918517E+03  0.10782749686E+04  0.00000000000E+00 0.  1.
        -15    1    3    3    0    0  0.46175510369E+02  0.74542362280E+01  0.12632040326E+03  0.13470184733E+03  0.00000000000E+00 0.  1.
         15    1    5    5    0    0  0.30612332763E+03  0.23325566499E+01 -0.38389041896E+02  0.30852982202E+03  0.00000000000E+00 0. -1.
         15    1    1    2    0    0  0.98468240292E+02  0.21538464695E+02  0.49825345018E+02  0.11243871581E+03  0.00000000000E+00 0. -1.
        -16    1    5    5    0    0  0.43973561666E+03 -0.49708995572E+02  0.38604281482E+01  0.44255316032E+03  0.00000000000E+00 0.  1.
         16    1    3    3    0    0  0.26221421311E+03  0.17864794965E+03  0.41246725447E+03  0.52038506846E+03  0.00000000000E+00 0. -1.
    9900018    1    4    4    0    0 -0.88270621269E+02 -0.23936768490E+02  0.77140359606E+01  0.12938066397E+03  0.91187600000E+02 0.  0.
<mgrwt>
<rscale>  0 0.26877393E+04</rscale>
<asrwt>0</asrwt>
<pdfrwt beam="1">  1        2 0.24484335E+00 0.26877393E+04</pdfrwt>
<pdfrwt beam="2">  1       -2 0.17458192E+00 0.26877393E+04</pdfrwt>
<totfact> 0.19589674E+00</totfact>
</mgrwt>
</event>
<event>
11    1  0.1141052E-015  0.2074058E+04  0.7818608E-02  0.9099398E-01
          1   -1    0    0  501    0  0.00000000000E+00  0.00000000000E+00  0.25838153140E+04  0.25838153140E+04  0.00000000000E+00 0.  1.
         -1   -1    0    0    0  501 -0.00000000000E+00 -0.00000000000E+00 -0.12568883189E+04  0.12568883189E+04  0.00000000000E+00 0. -1.
    9900016    2    1    2    0    0 -0.82316588726E+02 -0.16981271006E+03  0.21692762622E+04  0.28834649549E+04  0.18902376219E+04 0.  0.
        -24    2    3    3    0    0 -0.30054718650E+03 -0.48905191188E+03 -0.67889711394E+02  0.58127239827E+03  0.61385700711E+02 0.  0.
        -15    1    3    3    0    0  0.22205772918E+03  0.35009630162E+03  0.20520059170E+04  0.20934673007E+04  0.00000000000E+00 0.  1.
        -15    1    1    2    0    0 -0.19163793374E+00  0.10918425596E+02 -0.39836643379E+02  0.41306257375E+02  0.00000000000E+00 0.  1.
         15    1    1    2    0    0  0.65686506318E+02 -0.74196539756E+02 -0.22437517473E+02  0.10160357186E+03  0.00000000000E+00 0. -1.
         15    1    4    4    0    0 -0.13681174812E+03 -0.24971119516E+03 -0.61042171633E+02  0.29120316298E+03  0.00000000000E+00 0. -1.
        -16    1    4    4    0    0 -0.16373543838E+03 -0.23934071672E+03 -0.68475397615E+01  0.29006923529E+03  0.00000000000E+00 0.  1.
         16    1    1    2    0    0  0.16821720342E+02  0.23309082422E+03 -0.78007510620E+03  0.81432884876E+03  0.00000000000E+00 0. -1.
    9900018    1    3    3    0    0 -0.38271313979E+01 -0.30857099799E+02  0.18516005654E+03  0.20872525596E+03  0.91187600000E+02 0.  0.
<mgrwt>
<rscale>  0 0.12154982E+04</rscale>
<asrwt>0</asrwt>
<pdfrwt beam="1">  1        1 0.39751005E+00 0.20740582E+04</pdfrwt>
<pdfrwt beam="2">  1       -1 0.19336743E+00 0.20740582E+04</pdfrwt>
<totfact> 0.17674603E-01</totfact>
</mgrwt>
</event>
<event>
12    1  0.1141052E-015  0.2468756E+04  0.7818608E-02  0.8414202E-01
          2   -1    0    0  501    0  0.00000000000E+00  0.00000000000E+00  0.18071131089E+04  0.18071131089E+04  0.00000000000E+00 0. -1.
         -2   -1    0    0    0  501 -0.00000000000E+00 -0.00000000000E+00 -0.84316192016E+03  0.84316192016E+03  0.00000000000E+00 0.  1.
         24    2    1    2    0    0 -0.25598938681E+02 -0.65865866561E+02  0.55582715304E+03  0.56776568767E+03  0.91762922779E+02 0.  0.
    9900016    2    1    2    0    0 -0.80651827166E+02  0.24822254759E+02  0.28078335592E+03  0.19116601329E+04  0.18890432259E+04 0.  0.
        -24    2    4    4    0    0  0.50190556381E+03 -0.11121459262E+03  0.83945393495E+03  0.98859172825E+03  0.91393739752E+02 0.  0.
        -15    1    3    3    0    0 -0.60248224655E+02 -0.36842964513E+02  0.33926750175E+03  0.34653959420E+03  0.00000000000E+00 0.  1.
        -15    1    4    4    0    0 -0.56611493651E+03  0.14156109437E+03 -0.58530178164E+03  0.82650096211E+03  0.00000000000E+00 0.  1.
         15    1    5    5    0    0  0.16436086025E+03 -0.18768820126E+02  0.34732671647E+03  0.38471107206E+03  0.00000000000E+00 0. -1.
         15    1    1    2    0    0  0.10625076585E+03  0.41043611803E+02  0.12734067976E+03  0.17084920847E+03  0.00000000000E+00 0. -1.
        -16    1    5    5    0    0  0.33754470355E+03 -0.92445772497E+02  0.49212721848E+03  0.60388065619E+03  0.00000000000E+00 0.  1.
         16    1    3    3    0    0  0.34649285975E+02 -0.29022902048E+02  0.21655965129E+03  0.22122609346E+03  0.00000000000E+00 0. -1.
    9900018    1    4    4    0    0 -0.16442454459E+02 -0.55242469835E+01  0.26631202608E+02  0.96567442544E+02  0.91187600000E+02 0.  0.
<mgrwt>
<rscale>  0 0.24687559E+04</rscale>
<asrwt>0</asrwt>
<pdfrwt beam="1">  1        2 0.27801740E+00 0.24687559E+04</pdfrwt>
<pdfrwt beam="2">  1       -2 0.12971722E+00 0.24687559E+04</pdfrwt>
<totfact> 0.33392951E+00</totfact>
</mgrwt>
</event>
<event>
12    1  0.1167417E-015  0.2570439E+04  0.7818608E-02  0.9153022E-01
          1   -1    0    0  501    0  0.00000000000E+00  0.00000000000E+00  0.35707498940E+04  0.35707498940E+04  0.00000000000E+00 0. -1.
         -1   -1    0    0    0  501 -0.00000000000E+00 -0.00000000000E+00 -0.56001433477E+03  0.56001433477E+03  0.00000000000E+00 0.  1.
         24    2    1    2    0    0  0.37395509231E+02  0.19431834829E+02  0.59213802896E+03  0.60134939122E+03  0.96008461419E+02 0.  0.
    9900016    2    1    2    0    0 -0.54584105139E+01  0.27903616915E+03  0.11612453185E+04  0.22367285987E+04  0.18911830045E+04 0.  0.
        -24    2    4    4    0    0 -0.11871272426E+02 -0.48143070883E+03  0.12732201087E+04  0.13657759796E+04  0.11107711993E+03 0.  0.
        -15    1    3    3    0    0  0.66162090513E+01  0.56376037844E+02  0.32236899434E+03  0.32732827616E+03  0.00000000000E+00 0.  1.
        -15    1    4    4    0    0 -0.17724067718E+02  0.76420444552E+03 -0.12844016280E+03  0.77512544310E+03  0.00000000000E+00 0.  1.
         15    1    1    2    0    0 -0.31937098717E+02 -0.29846800398E+03  0.12573522117E+04  0.12926862388E+04  0.00000000000E+00 0. -1.
         15    1    5    5    0    0  0.44361113907E+02 -0.15600903995E+03  0.47542973404E+03  0.50233471011E+03  0.00000000000E+00 0. -1.
        -16    1    5    5    0    0 -0.56232386333E+02 -0.32542166889E+03  0.79779037469E+03  0.86344126946E+03  0.00000000000E+00 0.  1.
         16    1    3    3    0    0  0.30779300180E+02 -0.36944203016E+02  0.26976903462E+03  0.27402111505E+03  0.00000000000E+00 0. -1.
    9900018    1    4    4    0    0  0.24136929630E+02 -0.37375675300E+01  0.16465372612E+02  0.95827176062E+02  0.91187600000E+02 0.  0.
<mgrwt>
<rscale>  0 0.11551761E+04</rscale>
<asrwt>0</asrwt>
<pdfrwt beam="1">  1        1 0.54934612E+00 0.25704387E+04</pdfrwt>
<pdfrwt beam="2">  1       -1 0.86156054E-01 0.25704387E+04</pdfrwt>
<totfact> 0.25623167E-01</totfact>
</mgrwt>
</event>
<event>
11    1  0.1141052E-015  0.3713393E+04  0.7818608E-02  0.8345745E-01
          1   -1    0    0  501    0  0.00000000000E+00  0.00000000000E+00  0.32003241498E+04  0.32003241498E+04  0.00000000000E+00 0. -1.
         -1   -1    0    0    0  501 -0.00000000000E+00 -0.00000000000E+00 -0.19769419952E+04  0.19769419952E+04  0.00000000000E+00 0.  1.
    9900016    2    1    2    0    0  0.30354225518E+03 -0.46659451278E+03  0.22437151684E+04  0.29861728208E+04  0.18902703561E+04 0.  0.
         24    2    3    3    0    0  0.70704192997E+03 -0.41800891555E+03  0.19615229039E+03  0.84712216329E+03  0.67085723567E+02 0.  0.
        -15    1    4    4    0    0  0.55444144093E+02 -0.17240190451E+02  0.30342948162E+01  0.58141931736E+02  0.00000000000E+00 0.  1.
        -15    1    1    2    0    0  0.51675960199E+03  0.79578880094E+03 -0.54837547610E+03  0.10959178640E+04  0.00000000000E+00 0.  1.
         15    1    1    2    0    0 -0.10241108305E+03 -0.24224152639E+03 -0.15811524584E+03  0.30687036026E+03  0.00000000000E+00 0. -1.
         15    1    3    3    0    0 -0.46448153066E+03 -0.60795626244E+01  0.18641080304E+04  0.19211139483E+04  0.00000000000E+00 0. -1.
        -16    1    1    2    0    0 -0.71789077412E+03 -0.86952761764E+02 -0.31384229182E+03  0.78830509987E+03  0.00000000000E+00 0.  1.
         16    1    4    4    0    0  0.65159778588E+03 -0.40076872510E+03  0.19311799557E+03  0.78898023156E+03  0.00000000000E+00 0. -1.
    9900018    1    3    3    0    0  0.60981855874E+02 -0.42506034606E+02  0.18345484755E+03  0.21793670918E+03  0.91187600000E+02 0.  0.
<mgrwt>
<rscale>  0 0.26671440E+04</rscale>
<asrwt>0</asrwt>
<pdfrwt beam="1">  1        1 0.49235756E+00 0.37133930E+04</pdfrwt>
<pdfrwt beam="2">  1       -1 0.30414492E+00 0.37133930E+04</pdfrwt>
<totfact> 0.10144965E-02</totfact>
</mgrwt>
</event>
<event>
11    1  0.1141052E-015  0.2419133E+04  0.7818608E-02  0.8432375E-01
          1   -1    0    0  501    0  0.00000000000E+00  0.00000000000E+00  0.15559815107E+04  0.15559815107E+04  0.00000000000E+00 0. -1.
         -1   -1    0    0    0  501 -0.00000000000E+00 -0.00000000000E+00 -0.94027510034E+03  0.94027510034E+03  0.00000000000E+00 0.  1.
         24    2    1    2    0    0  0.17921954815E+03  0.16212401300E+03 -0.33721216745E+02  0.26096935404E+03  0.92542105315E+02 0.  0.
    9900016    2    1    2    0    0 -0.30626340533E+03 -0.11846585048E+03  0.50627037352E+03  0.18895097100E+04  0.17905601978E+04 0.  0.
        -15    1    4    4    0    0 -0.93719803557E+03  0.14472889533E+03  0.70010627426E+03  0.11787431469E+04  0.00000000000E+00 0.  1.
        -15    1    3    3    0    0  0.15964943766E+02  0.66964719259E+02  0.96527109193E+00  0.68848273785E+02  0.00000000000E+00 0.  1.
         15    1    4    4    0    0  0.10330178519E+03 -0.45673883212E+02 -0.37854226831E+02  0.11912306628E+03  0.00000000000E+00 0. -1.
         15    1    1    2    0    0  0.17220447734E+03  0.40100362154E+01  0.15636039254E+03  0.23263498181E+03  0.00000000000E+00 0. -1.
        -16    1    4    4    0    0  0.52763284505E+03 -0.21752086260E+03 -0.15598167390E+03  0.59164349691E+03  0.00000000000E+00 0.  1.
         16    1    3    3    0    0  0.16325460439E+03  0.95159293745E+02 -0.34686487837E+02  0.19212108025E+03  0.00000000000E+00 0. -1.
    9900018    1    1    2    0    0 -0.45160620157E+02 -0.47668198738E+02 -0.13203138930E+02  0.11314256518E+03  0.91187600000E+02 0.  0.
<mgrwt>
<rscale>  0 0.24191326E+04</rscale>
<asrwt>0</asrwt>
<pdfrwt beam="1">  1        1 0.23938177E+00 0.24191326E+04</pdfrwt>
<pdfrwt beam="2">  1       -1 0.14465771E+00 0.24191326E+04</pdfrwt>
<totfact> 0.20582374E+00</totfact>
</mgrwt>
</event>
