<event>
12    1  0.1247378E-016  0.2594527E+04  0.7818608E-02  0.8370063E-01
          2   -1    0    0  501    0  0.00000000000E+00  0.00000000000E+00  0.54370191493E+03  0.54370191493E+03  0.00000000000E+00 0. -1.
         -2   -1    0    0    0  501 -0.00000000000E+00 -0.00000000000E+00 -0.30952489263E+04  0.30952489263E+04  0.00000000000E+00 0.  1.
    9900016    2    1    2    0    0  0.48388910597E+03  0.10861582352E+03 -0.23745775555E+04  0.31123919629E+04  0.19499792563E+04 0.  0.
        -24    2    3    3    0    0  0.11442704752E+03 -0.39126578400E+03 -0.16382747523E+03  0.44675761020E+03  0.81058359846E+02 0.  0.
        -24    2    4    4    0    0  0.90353463691E+02 -0.33054405752E+03 -0.13886743623E+03  0.37295431714E+03  0.48863436920E+02 0.  0.
        -15    1    4    4    0    0  0.98098564186E+01 -0.25269960267E+02  0.17759442898E+01  0.27165385198E+02  0.00000000000E+00 0. -1.
        -15    1    3    3    0    0  0.50689649051E+03 -0.34697863453E+03 -0.75387205468E+03  0.97245118115E+03  0.00000000000E+00 0.  1.
         15    1    4    4    0    0  0.14263727410E+02 -0.35451766211E+02 -0.26735983290E+02  0.46637907860E+02  0.00000000000E+00 0.  1.
         15    1    5    5    0    0  0.16261626894E+02 -0.16695506751E+02 -0.52359109274E+01  0.23887134992E+02  0.00000000000E+00 0. -1.
        -16    1    5    5    0    0  0.74091836798E+02 -0.31384855077E+03 -0.13363152530E+03  0.34906718215E+03  0.00000000000E+00 0.  1.
         16    1    1    2    0    0 -0.48388910597E+03 -0.10861582352E+03 -0.17696945588E+03  0.52655887829E+03  0.00000000000E+00 0. -1.
    9900018    1    3    3    0    0 -0.13743443206E+03  0.84686024205E+03 -0.14568780256E+04  0.16931831716E+04  0.91187600000E+02 0.  0.
<mgrwt>
<rscale>  0 0.25945271E+04</rscale>
<asrwt>0</asrwt>
<pdfrwt beam="1">  1        2 0.83646449E-01 0.25945271E+04</pdfrwt>
<pdfrwt beam="2">  1       -2 0.47619214E+00 0.25945271E+04</pdfrwt>
<totfact> 0.11515033E-01</totfact>
</mgrwt>
</event>
<event>
11    1  0.1247378E-016  0.2447870E+04  0.7818608E-02  0.8421796E-01
         -2   -1    0    0    0  501 -0.00000000000E+00  0.00000000000E+00  0.53500277836E+03  0.53500277836E+03  0.00000000000E+00 0.  1.
          2   -1    0    0  501    0  0.00000000000E+00 -0.00000000000E+00 -0.28000162274E+04  0.28000162274E+04  0.00000000000E+00 0. -1.
    9900016    2    1    2    0    0  0.44340191066E+03  0.39925733278E+02 -0.19174850080E+04  0.27702399907E+04  0.19491745769E+04 0.  0.
         24    2    3    3    0    0  0.22896682022E+03 -0.14180458545E+03 -0.69253668633E+02  0.28937647184E+03  0.80052024444E+02 0.  0.
        -15    1    4    4    0    0  0.49552128589E+02 -0.45952595635E+02  0.63056918596E+00  0.67582927658E+02  0.00000000000E+00 0.  1.
        -15    1    4    4    0    0  0.57477432512E+01 -0.16449266762E+02 -0.11087340493E+02  0.20652942858E+02  0.00000000000E+00 0.  1.
         15    1    3    3    0    0  0.19933174131E+03  0.55523490988E+03  0.31314627427E+01  0.58993961920E+03  0.00000000000E+00 0. -1.
         15    1    4    4    0    0  0.86264109553E+02 -0.26810833898E+02 -0.28863287413E+02  0.94833574073E+02  0.00000000000E+00 0. -1.
        -16    1    1    2    0    0 -0.44340191066E+03 -0.39925733278E+02 -0.34752844100E+03  0.56477901506E+03  0.00000000000E+00 0.  1.
         16    1    4    4    0    0  0.87402838828E+02 -0.52591889151E+02 -0.29933609913E+02  0.10630702725E+03  0.00000000000E+00 0. -1.
    9900018    1    3    3    0    0  0.15103349121E+02 -0.37350459115E+03 -0.18513628021E+04  0.18909238996E+04  0.91187600000E+02 0.  0.
<mgrwt>
<rscale>  0 0.24478697E+04</rscale>
<asrwt>0</asrwt>
<pdfrwt beam="1">  1        2 0.43077173E+00 0.24478697E+04</pdfrwt>
<pdfrwt beam="2">  1       -2 0.82308120E-01 0.24478697E+04</pdfrwt>
<totfact> 0.26850226E+00</totfact>
</mgrwt>
</event>
<event>
10    1  0.1247378E-016  0.1655439E+04  0.7818608E-02  0.8787195E-01
          1   -1    0    0  501    0  0.00000000000E+00  0.00000000000E+00  0.17585450728E+04  0.17585450728E+04  0.00000000000E+00 0. -1.
         -1   -1    0    0    0  501 -0.00000000000E+00 -0.00000000000E+00 -0.38959469037E+03  0.38959469037E+03  0.00000000000E+00 0.  1.
        -24    2    1    2    0    0  0.17492129732E+02  0.30260448951E+02 -0.89113157080E+02  0.12425106994E+03  0.79218080281E+02 0.  0.
        -15    1    3    3    0    0  0.22987962445E+02  0.21591614475E+02 -0.41705835570E+02  0.52287866218E+02  0.00000000000E+00 0. -1.
        -15    1    1    2    0    0  0.27865894731E+03 -0.38008344346E+03  0.98414153021E+03  0.10911685408E+04  0.00000000000E+00 0.  1.
         15    1    3    3    0    0  0.29309534682E+00  0.17042104288E+02 -0.36720028611E+02  0.40483079485E+02  0.00000000000E+00 0.  1.
         15    1    3    3    0    0 -0.14586333591E+02 -0.35680018595E+01  0.21748728032E+01  0.15173062862E+02  0.00000000000E+00 0. -1.
        -16    1    3    3    0    0  0.87974055318E+01 -0.48052679520E+01 -0.12862165702E+02  0.16307061376E+02  0.00000000000E+00 0.  1.
         16    1    1    2    0    0 -0.10478085848E+02 -0.84690133300E+01  0.46522102589E+03  0.46541606913E+03  0.00000000000E+00 0. -1.
    9900018    1    1    2    0    0 -0.28567299119E+03  0.35829200783E+03  0.87009834019E+01  0.46730408331E+03  0.91187600000E+02 0.  0.
<mgrwt>
<rscale>  0 0.16554393E+04</rscale>
<asrwt>0</asrwt>
<pdfrwt beam="1">  1        1 0.27054539E+00 0.16554393E+04</pdfrwt>
<pdfrwt beam="2">  1       -1 0.59937646E-01 0.16554393E+04</pdfrwt>
<totfact> 0.11720114E+01</totfact>
</mgrwt>
</event>
<event>
10    1  0.1247378E-016  0.1983699E+04  0.7818608E-02  0.8614280E-01
          1   -1    0    0  501    0  0.00000000000E+00  0.00000000000E+00  0.14841509808E+04  0.14841509808E+04  0.00000000000E+00 0. -1.
         -1   -1    0    0    0  501 -0.00000000000E+00 -0.00000000000E+00 -0.66284707759E+03  0.66284707759E+03  0.00000000000E+00 0.  1.
         24    2    1    2    0    0  0.27457360283E+02 -0.48521013487E+02  0.45463823410E+03  0.46488986972E+03  0.79488814816E+02 0.  0.
        -15    1    3    3    0    0  0.16666632112E+02 -0.83667457227E+01  0.68947309133E+02  0.71424859094E+02  0.00000000000E+00 0. -1.
        -15    1    3    3    0    0  0.14357989353E+01 -0.15084123261E+02  0.64551338794E+02  0.66305864245E+02  0.00000000000E+00 0.  1.
         15    1    3    3    0    0  0.85691354794E+01 -0.11370390091E+02  0.14887701972E+02  0.20599988439E+02  0.00000000000E+00 0.  1.
         15    1    1    2    0    0 -0.73528608524E+02  0.52829525465E+03 -0.74608108128E+01  0.53343977734E+03  0.00000000000E+00 0. -1.
        -16    1    1    2    0    0  0.14864344991E+03 -0.19185444039E+03 -0.31008128449E+03  0.39376821163E+03  0.00000000000E+00 0.  1.
         16    1    3    3    0    0  0.78579375649E+00 -0.13699754413E+02  0.30625188420E+03  0.30655915794E+03  0.00000000000E+00 0. -1.
    9900018    1    1    2    0    0 -0.10257220167E+03 -0.28791980077E+03  0.68420776439E+03  0.75490019968E+03  0.91187600000E+02 0.  0.
<mgrwt>
<rscale>  0 0.19836987E+04</rscale>
<asrwt>0</asrwt>
<pdfrwt beam="1">  1        1 0.22833092E+00 0.19836987E+04</pdfrwt>
<pdfrwt beam="2">  1       -1 0.10197647E+00 0.19836987E+04</pdfrwt>
<totfact> 0.56787384E+00</totfact>
</mgrwt>
</event>
<event>
10    1  0.1247378E-016  0.1944097E+04  0.7818608E-02  0.8633213E-01
          2   -1    0    0  501    0  0.00000000000E+00  0.00000000000E+00  0.14127452899E+04  0.14127452899E+04  0.00000000000E+00 0. -1.
         -2   -1    0    0    0  501 -0.00000000000E+00 -0.00000000000E+00 -0.66882405485E+03  0.66882405485E+03  0.00000000000E+00 0.  1.
        -24    2    1    2    0    0 -0.21744157412E+03  0.38662192675E+02 -0.21309447078E+03  0.31620752809E+03  0.76173118918E+02 0.  0.
        -15    1    3    3    0    0 -0.42664136503E+02  0.82272863363E+01 -0.21530998939E+02  0.48492274636E+02  0.00000000000E+00 0. -1.
        -15    1    1    2    0    0  0.14433323837E+03  0.26431972107E+03  0.35992251216E+03  0.46929863989E+03  0.00000000000E+00 0.  1.
         15    1    3    3    0    0 -0.34063389153E+02  0.19601101222E-01 -0.32041445486E+02  0.46765041362E+02  0.00000000000E+00 0.  1.
         15    1    3    3    0    0 -0.18568845598E+02 -0.72702120152E+01 -0.52871732478E+01  0.20630371071E+02  0.00000000000E+00 0. -1.
        -16    1    3    3    0    0 -0.12214520287E+03  0.37685517253E+02 -0.15423485311E+03  0.20031984103E+03  0.00000000000E+00 0.  1.
         16    1    1    2    0    0 -0.24600339217E+03  0.29425862359E+03  0.46046366284E+03  0.59927672348E+03  0.00000000000E+00 0. -1.
    9900018    1    1    2    0    0  0.31911172792E+03 -0.59724053734E+03  0.13662953080E+03  0.69678645324E+03  0.91187600000E+02 0.  0.
<mgrwt>
<rscale>  0 0.19440967E+04</rscale>
<asrwt>0</asrwt>
<pdfrwt beam="1">  1        2 0.21734543E+00 0.19440967E+04</pdfrwt>
<pdfrwt beam="2">  1       -2 0.10289601E+00 0.19440967E+04</pdfrwt>
<totfact> 0.10248713E+01</totfact>
</mgrwt>
</event>
<event>
11    1  0.1247378E-016  0.3007246E+04  0.7818608E-02  0.8241665E-01
         -1   -1    0    0    0  501 -0.00000000000E+00  0.00000000000E+00  0.12571897288E+04  0.12571897288E+04  0.00000000000E+00 0.  1.
          1   -1    0    0  501    0  0.00000000000E+00 -0.00000000000E+00 -0.17983617920E+04  0.17983617920E+04  0.00000000000E+00 0. -1.
         24    2    1    2    0    0  0.28734778964E+02 -0.11124338480E+03  0.55269370006E+02  0.15044479584E+03  0.79863352994E+02 0.  0.
         24    2    3    3    0    0  0.31974479269E+02 -0.68582829441E+02  0.38120887791E+02  0.99397674010E+02  0.51968487509E+02 0.  0.
        -15    1    4    4    0    0  0.36025522498E+02 -0.72599511764E+02  0.24560507190E+02  0.84686161166E+02  0.00000000000E+00 0.  1.
        -15    1    3    3    0    0 -0.33863625476E+01 -0.17949964689E+02  0.18886734555E+02  0.26275034268E+02  0.00000000000E+00 0.  1.
         15    1    3    3    0    0  0.14666224230E+00 -0.24710590672E+02 -0.17382523398E+01  0.24772087566E+02  0.00000000000E+00 0. -1.
         15    1    1    2    0    0  0.30819548215E+03  0.25033803662E+03  0.80752607882E+03  0.89986218710E+03  0.00000000000E+00 0. -1.
        -16    1    1    2    0    0 -0.59576458081E+03 -0.15830208655E+03 -0.44301105895E+02  0.61802716311E+03  0.00000000000E+00 0.  1.
         16    1    4    4    0    0 -0.40510432290E+01  0.40166823228E+01  0.13560380601E+02  0.14711512844E+02  0.00000000000E+00 0. -1.
    9900018    1    1    2    0    0  0.25883431969E+03  0.19207434736E+02 -0.13596664061E+04  0.13872173747E+04  0.91187600000E+02 0.  0.
<mgrwt>
<rscale>  0 0.30072459E+04</rscale>
<asrwt>0</asrwt>
<pdfrwt beam="1">  1        1 0.27667104E+00 0.30072459E+04</pdfrwt>
<pdfrwt beam="2">  1       -1 0.19341381E+00 0.30072459E+04</pdfrwt>
<totfact> 0.58097807E-01</totfact>
</mgrwt>
</event>
<event>
10    1  0.1247378E-016  0.5980536E+04  0.7818608E-02  0.7692820E-01
          2   -1    0    0  501    0  0.00000000000E+00  0.00000000000E+00  0.25739342012E+04  0.25739342012E+04  0.00000000000E+00 0.  1.
         -2   -1    0    0    0  501 -0.00000000000E+00 -0.00000000000E+00 -0.34739432265E+04  0.34739432265E+04  0.00000000000E+00 0. -1.
         24    2    1    2    0    0 -0.11163564606E+03  0.13881114303E+03  0.14834283990E+03  0.24582291410E+03  0.81806210325E+02 0.  0.
        -15    1    3    3    0    0 -0.29787269635E+02  0.14034938069E+01  0.11746767015E+02  0.32050550112E+02  0.00000000000E+00 0.  1.
        -15    1    3    3    0    0 -0.21375147418E+02  0.16635231809E+02  0.31783200553E+02  0.41758827832E+02  0.00000000000E+00 0.  1.
         15    1    3    3    0    0 -0.35511232407E+02  0.74656580535E+02  0.52440858469E+02  0.97901462099E+02  0.00000000000E+00 0. -1.
         15    1    1    2    0    0 -0.11959033066E+03 -0.18959799224E+03 -0.47242682011E+03  0.52291141335E+03  0.00000000000E+00 0. -1.
        -16    1    1    2    0    0  0.20621211356E+04  0.17158193571E+04  0.18346469889E+03  0.26888731728E+04  0.00000000000E+00 0.  1.
         16    1    3    3    0    0 -0.24961996597E+02  0.46115836880E+02  0.52372013859E+02  0.74112074056E+02  0.00000000000E+00 0. -1.
    9900018    1    1    2    0    0 -0.18308951588E+04 -0.16650325079E+04 -0.75938974398E+03  0.25902699274E+04  0.91187600000E+02 0.  0.
<mgrwt>
<rscale>  0 0.59805355E+04</rscale>
<asrwt>0</asrwt>
<pdfrwt beam="1">  1        2 0.39598988E+00 0.59805355E+04</pdfrwt>
<pdfrwt beam="2">  1       -2 0.53445280E+00 0.59805355E+04</pdfrwt>
<totfact> 0.22324369E-03</totfact>
</mgrwt>
</event>
<event>
11    1  0.1247378E-016  0.3000574E+04  0.7818608E-02  0.8243567E-01
         -2   -1    0    0    0  501 -0.00000000000E+00  0.00000000000E+00  0.78172302193E+03  0.78172302193E+03  0.00000000000E+00 0.  1.
          2   -1    0    0  501    0  0.00000000000E+00 -0.00000000000E+00 -0.28793593605E+04  0.28793593605E+04  0.00000000000E+00 0. -1.
    9900016    2    1    2    0    0  0.66440525667E+01 -0.35420325191E+03 -0.48171937527E+03  0.20067874512E+04  0.19156299828E+04 0.  0.
        -24    2    3    3    0    0 -0.12651480387E+03  0.13721978371E+03 -0.65019425105E+03  0.68110711455E+03  0.79492595589E+02 0.  0.
        -15    1    3    3    0    0  0.40474191578E+03  0.85170412691E+02 -0.31551588784E+03  0.52021177713E+03  0.00000000000E+00 0.  1.
        -15    1    4    4    0    0 -0.50773120266E+02  0.67387649087E+02 -0.23976957666E+03  0.25418193265E+03  0.00000000000E+00 0. -1.
         15    1    4    4    0    0 -0.61977909443E+02  0.55255169658E+02 -0.38313205004E+03  0.39202622719E+03  0.00000000000E+00 0.  1.
         15    1    4    4    0    0 -0.14244670205E+02  0.10787033602E+02 -0.23434413142E+02  0.29469347507E+02  0.00000000000E+00 0. -1.
        -16    1    4    4    0    0  0.48089604662E+00  0.37899313655E+01 -0.38582112016E+01  0.54296072086E+01  0.00000000000E+00 0.  1.
         16    1    1    2    0    0 -0.66440525667E+01  0.35420325191E+03 -0.16159169633E+04  0.16542949312E+04  0.00000000000E+00 0. -1.
    9900018    1    3    3    0    0 -0.27158305935E+03 -0.57659344831E+03  0.48399076362E+03  0.80546855955E+03  0.91187600000E+02 0.  0.
<mgrwt>
<rscale>  0 0.30005743E+04</rscale>
<asrwt>0</asrwt>
<pdfrwt beam="1">  1        2 0.44297836E+00 0.30005743E+04</pdfrwt>
<pdfrwt beam="2">  1       -2 0.12026508E+00 0.30005743E+04</pdfrwt>
<totfact> 0.93462690E-01</totfact>
</mgrwt>
</event>
<event>
10    1  0.1247378E-016  0.2066572E+04  0.7818608E-02  0.8576113E-01
          2   -1    0    0  501    0  0.00000000000E+00  0.00000000000E+00  0.87365431821E+03  0.87365431821E+03  0.00000000000E+00 0. -1.
         -2   -1    0    0    0  501 -0.00000000000E+00 -0.00000000000E+00 -0.12220854391E+04  0.12220854391E+04  0.00000000000E+00 0.  1.
         24    2    1    2    0    0 -0.76506338142E+02  0.20262035910E+03 -0.59266175580E+02  0.23808126815E+03  0.79132679587E+02 0.  0.
        -15    1    3    3    0    0 -0.30385111813E+02  0.52437486450E+02 -0.37999980972E+02  0.71532814561E+02  0.00000000000E+00 0.  1.
        -15    1    3    3    0    0 -0.41882792458E+01  0.38405505057E+02 -0.18183486417E+01  0.38675973077E+02  0.00000000000E+00 0.  1.
         15    1    1    2    0    0 -0.68272869571E+03  0.17165356869E+03 -0.24205082349E+03  0.74442731058E+03  0.00000000000E+00 0. -1.
         15    1    3    3    0    0  0.72041654697E+01  0.29108851955E+02 -0.79152275588E+01  0.31014127258E+02  0.00000000000E+00 0. -1.
        -16    1    1    2    0    0  0.17406511029E+03  0.21318452259E+03 -0.46110806897E+02  0.27905646347E+03  0.00000000000E+00 0.  1.
         16    1    3    3    0    0 -0.49137112553E+02  0.82668515636E+02 -0.11532618407E+02  0.96858353253E+02  0.00000000000E+00 0. -1.
    9900018    1    1    2    0    0  0.58516992356E+03 -0.58745845038E+03 -0.10033149717E+01  0.83417471515E+03  0.91187600000E+02 0.  0.
<mgrwt>
<rscale>  0 0.20665723E+04</rscale>
<asrwt>0</asrwt>
<pdfrwt beam="1">  1        2 0.13440836E+00 0.20665723E+04</pdfrwt>
<pdfrwt beam="2">  1       -2 0.18801314E+00 0.20665723E+04</pdfrwt>
<totfact> 0.45125474E+00</totfact>
</mgrwt>
</event>
<event>
10    1  0.1247378E-016  0.1093887E+04  0.7818608E-02  0.9211171E-01
         -2   -1    0    0    0  501 -0.00000000000E+00  0.00000000000E+00  0.53507384703E+03  0.53507384703E+03  0.00000000000E+00 0.  1.
          2   -1    0    0  501    0  0.00000000000E+00 -0.00000000000E+00 -0.55907611838E+03  0.55907611838E+03  0.00000000000E+00 0. -1.
        -24    2    1    2    0    0  0.22612272191E+03  0.14210741117E+03 -0.21188671407E+03  0.34999119910E+03  0.79195064071E+02 0.  0.
        -15    1    1    2    0    0 -0.34299454462E+02 -0.30281432251E+02 -0.15175432204E+03  0.15850170968E+03  0.00000000000E+00 0.  1.
        -15    1    3    3    0    0  0.21049023049E+02  0.18722879830E+02 -0.63137395011E+01  0.28869896206E+02  0.00000000000E+00 0.  1.
         15    1    3    3    0    0  0.63538191531E+02  0.46494107966E+02 -0.83544841626E+02  0.11479784153E+03  0.00000000000E+00 0. -1.
         15    1    3    3    0    0  0.36252484994E+02  0.57767747175E+00 -0.29284637510E+02  0.46606505701E+02  0.00000000000E+00 0. -1.
        -16    1    3    3    0    0  0.10528302234E+03  0.76312745902E+02 -0.92743495431E+02  0.15971695566E+03  0.00000000000E+00 0.  1.
         16    1    1    2    0    0 -0.58053223084E+02  0.63627248520E+02 -0.70360927663E+02  0.11121719114E+03  0.00000000000E+00 0. -1.
    9900018    1    1    2    0    0 -0.13377004437E+03 -0.17545322744E+03  0.40999969242E+03  0.47443986549E+03  0.91187600000E+02 0.  0.
<mgrwt>
<rscale>  0 0.10938867E+04</rscale>
<asrwt>0</asrwt>
<pdfrwt beam="1">  1        2 0.86011711E-01 0.10938867E+04</pdfrwt>
<pdfrwt beam="2">  1       -2 0.82319053E-01 0.10938867E+04</pdfrwt>
<totfact> 0.69534913E+01</totfact>
</mgrwt>
</event>
<event>
10    1  0.1247378E-016  0.1745301E+04  0.7818608E-02  0.8735941E-01
         -1   -1    0    0    0  501 -0.00000000000E+00  0.00000000000E+00  0.14424824189E+04  0.14424824189E+04  0.00000000000E+00 0.  1.
          1   -1    0    0  501    0  0.00000000000E+00 -0.00000000000E+00 -0.52792270802E+03  0.52792270802E+03  0.00000000000E+00 0. -1.
         24    2    1    2    0    0  0.22565411767E+03  0.15741553270E+03 -0.82764448249E+02  0.29851601987E+03  0.81008823399E+02 0.  0.
        -15    1    3    3    0    0  0.50383013943E+02  0.26104527384E+02 -0.46204721677E+01  0.56931917296E+02  0.00000000000E+00 0.  1.
        -15    1    3    3    0    0  0.51331862922E+02  0.37102667523E+02 -0.35049154227E+02  0.72387922337E+02  0.00000000000E+00 0.  1.
         15    1    1    2    0    0  0.23761428803E+03  0.57623861129E+02  0.45066819836E+03  0.51272105892E+03  0.00000000000E+00 0. -1.
         15    1    3    3    0    0  0.97288125945E+01  0.12223412167E+02  0.10405558286E+02  0.18770648437E+02  0.00000000000E+00 0. -1.
        -16    1    1    2    0    0  0.26302948495E+02 -0.31029521427E+03  0.57225897063E+03  0.65150233657E+03  0.00000000000E+00 0.  1.
         16    1    3    3    0    0  0.11421042822E+03  0.81984925622E+02 -0.53500380141E+02  0.15042553180E+03  0.00000000000E+00 0. -1.
    9900018    1    1    2    0    0 -0.48957135420E+03  0.95255820448E+02 -0.25603009851E+02  0.50766571155E+03  0.91187600000E+02 0.  0.
<mgrwt>
<rscale>  0 0.17453014E+04</rscale>
<asrwt>0</asrwt>
<pdfrwt beam="1">  1        1 0.81218879E-01 0.17453014E+04</pdfrwt>
<pdfrwt beam="2">  1       -1 0.22192037E+00 0.17453014E+04</pdfrwt>
<totfact> 0.41615714E+00</totfact>
</mgrwt>
</event>
