<event>
13    1  0.1739844E-012  0.3817182E+04  0.7818608E-02  0.8042478E-01
         -2   -1    0    0    0  501 -0.00000000000E+00  0.00000000000E+00  0.10463914987E+04  0.10463914987E+04  0.00000000000E+00 0.  1.
          2   -1    0    0  501    0  0.00000000000E+00 -0.00000000000E+00 -0.34812198455E+04  0.34812198455E+04  0.00000000000E+00 0. -1.
    9900016    2    1    2    0    0  0.44402382759E+03 -0.18481013843E+03 -0.82469772964E+03  0.19962664599E+04  0.17531803920E+04 0.  0.
         24    2    3    3    0    0  0.22249877621E+03 -0.24176985100E+03  0.52656294009E+03  0.62578364172E+03  0.79864072711E+02 0.  0.
    9900016    2    1    2    0    0 -0.43141783645E+03  0.16511704810E+03 -0.15538938449E+04  0.24216886864E+04  0.17990567037E+04 0.  0.
        -24    2    5    5    0    0 -0.11080956914E+04  0.13817936753E+03 -0.65776090439E+03  0.12984465908E+04  0.79652639202E+02 0.  0.
        -15    1    5    5    0    0  0.67667785499E+03  0.26937680570E+02 -0.89613294053E+03  0.11232420955E+04  0.00000000000E+00 0.  1.
        -15    1    4    4    0    0  0.84199144919E+02 -0.15035062765E+03  0.27263576271E+03  0.32252917132E+03  0.00000000000E+00 0.  1.
         15    1    3    3    0    0  0.22152505138E+03  0.56959712566E+02 -0.13512606697E+04  0.13704828181E+04  0.00000000000E+00 0. -1.
         15    1    6    6    0    0 -0.32113823918E+03  0.24380107858E+02 -0.22796871854E+03  0.39458065710E+03  0.00000000000E+00 0. -1.
        -16    1    6    6    0    0 -0.78695745226E+03  0.11379925967E+03 -0.42979218585E+03  0.90386593374E+03  0.00000000000E+00 0.  1.
         16    1    4    4    0    0  0.13829963129E+03 -0.91419223343E+02  0.25392717737E+03  0.30325447041E+03  0.00000000000E+00 0. -1.
    9900018    1    1    2    0    0 -0.12605991144E+02  0.19693090335E+02 -0.56236772263E+02  0.10965619804E+03  0.91187600000E+02 0.  0.
<mgrwt>
<rscale>  0 0.38171816E+04</rscale>
<asrwt>0</asrwt>
<pdfrwt beam="1">  1        2 0.53557228E+00 0.38171816E+04</pdfrwt>
<pdfrwt beam="2">  1       -2 0.16098331E+00 0.38171816E+04</pdfrwt>
<totfact> 0.16590875E-01</totfact>
</mgrwt>
</event>
<event>
13    1  0.1739844E-012  0.4354691E+04  0.7818608E-02  0.7936582E-01
          2   -1    0    0  501    0  0.00000000000E+00  0.00000000000E+00  0.18331055987E+04  0.18331055987E+04  0.00000000000E+00 0. -1.
         -2   -1    0    0    0  501 -0.00000000000E+00 -0.00000000000E+00 -0.25862303702E+04  0.25862303702E+04  0.00000000000E+00 0.  1.
    9900016    2    1    2    0    0 -0.51893658012E+03  0.45330940217E+03 -0.11067108968E+04  0.23695295191E+04  0.19786552364E+04 0.  0.
         24    2    3    3    0    0  0.22091669784E+03  0.55163453865E+02 -0.14440681145E+04  0.14641495097E+04  0.80955997907E+02 0.  0.
    9900016    2    1    2    0    0  0.51789112412E+03 -0.41353477287E+03  0.32013259194E+03  0.19448424969E+04  0.18001958884E+04 0.  0.
        -24    2    5    5    0    0 -0.59873833595E+03 -0.51572702136E+03  0.83824722027E+02  0.79891666331E+03  0.82336476713E+02 0.  0.
        -15    1    5    5    0    0  0.11166294601E+04  0.10219224849E+03  0.23630786991E+03  0.11459258336E+04  0.00000000000E+00 0.  1.
        -15    1    4    4    0    0  0.68091703900E+02  0.38288914458E+02 -0.30930531684E+03  0.31901771132E+03  0.00000000000E+00 0.  1.
         15    1    3    3    0    0 -0.73985327796E+03  0.39814594831E+03  0.33735721769E+03  0.90538000938E+03  0.00000000000E+00 0. -1.
         15    1    6    6    0    0 -0.29988840412E+02 -0.28389959793E+02  0.23489791984E+02  0.47508848584E+02  0.00000000000E+00 0. -1.
        -16    1    6    6    0    0 -0.56874949553E+03 -0.48733706157E+03  0.60334930043E+02  0.75140781473E+03  0.00000000000E+00 0.  1.
         16    1    4    4    0    0  0.15282499394E+03  0.16874539408E+02 -0.11347627976E+04  0.11451317984E+04  0.00000000000E+00 0. -1.
    9900018    1    1    2    0    0  0.10454559971E+01 -0.39774629301E+02  0.33453533388E+02  0.10496395288E+03  0.91187600000E+02 0.  0.
<mgrwt>
<rscale>  0 0.43546910E+04</rscale>
<asrwt>0</asrwt>
<pdfrwt beam="1">  1        2 0.28201625E+00 0.43546910E+04</pdfrwt>
<pdfrwt beam="2">  1       -2 0.39788159E+00 0.43546910E+04</pdfrwt>
<totfact> 0.48587855E-02</totfact>
</mgrwt>
</event>
<event>
13    1  0.1739844E-012  0.5855305E+04  0.7818608E-02  0.7708606E-01
          2   -1    0    0  501    0  0.00000000000E+00  0.00000000000E+00  0.27794154046E+04  0.27794154046E+04  0.00000000000E+00 0. -1.
         -2   -1    0    0    0  501 -0.00000000000E+00 -0.00000000000E+00 -0.30837955934E+04  0.30837955934E+04  0.00000000000E+00 0.  1.
    9900016    2    1    2    0    0 -0.10077947671E+04  0.19624657420E+04  0.44933335669E+03  0.28581965534E+04  0.17608137298E+04 0.  0.
         24    2    3    3    0    0 -0.12447166934E+02  0.14852328119E+03  0.74868296932E+03  0.76757121944E+03  0.80157915048E+02 0.  0.
    9900016    2    1    2    0    0  0.96492106388E+03 -0.18038144785E+04 -0.71712494921E+03  0.28135404735E+04  0.17935781195E+04 0.  0.
        -24    2    5    5    0    0  0.11463819473E+04 -0.31793775318E+03 -0.10726653705E+03  0.11971602652E+04  0.80066262526E+02 0.  0.
        -15    1    4    4    0    0 -0.44773708931E+02  0.93229620365E+02  0.40686773075E+03  0.41980685732E+03  0.00000000000E+00 0.  1.
        -15    1    5    5    0    0 -0.18146088346E+03 -0.14858767253E+04 -0.60985841216E+03  0.16163802083E+04  0.00000000000E+00 0.  1.
         15    1    3    3    0    0 -0.99534760021E+03  0.18139424608E+04 -0.29934961263E+03  0.20906253340E+04  0.00000000000E+00 0. -1.
         15    1    6    6    0    0  0.92032275331E+03 -0.28673909627E+03 -0.78404122693E+02  0.96714036523E+03  0.00000000000E+00 0. -1.
        -16    1    6    6    0    0  0.22605919403E+03 -0.31198656906E+02 -0.28862414357E+02  0.23001989993E+03  0.00000000000E+00 0.  1.
         16    1    4    4    0    0  0.32326541997E+02  0.55293660821E+02  0.34181523857E+03  0.34776436212E+03  0.00000000000E+00 0. -1.
    9900018    1    1    2    0    0  0.42873703258E+02 -0.15865126355E+03 -0.36588596326E+02  0.19147397116E+03  0.91187600000E+02 0.  0.
<mgrwt>
<rscale>  0 0.58553049E+04</rscale>
<asrwt>0</asrwt>
<pdfrwt beam="1">  1        2 0.42760237E+00 0.58553049E+04</pdfrwt>
<pdfrwt beam="2">  1       -2 0.47443009E+00 0.58553049E+04</pdfrwt>
<totfact> 0.39142401E-03</totfact>
</mgrwt>
</event>
<event>
13    1  0.1739844E-012  0.4495618E+04  0.7818608E-02  0.7911404E-01
         -2   -1    0    0    0  501 -0.00000000000E+00  0.00000000000E+00  0.32450476153E+04  0.32450476153E+04  0.00000000000E+00 0.  1.
          2   -1    0    0  501    0  0.00000000000E+00 -0.00000000000E+00 -0.15570324084E+04  0.15570324084E+04  0.00000000000E+00 0. -1.
    9900016    2    1    2    0    0  0.12042671352E+04 -0.22370867249E+03  0.34288554869E+03  0.21691216613E+04  0.17570467777E+04 0.  0.
        -24    2    3    3    0    0  0.77712301109E+03  0.59121525242E+03 -0.32497207892E+03  0.10322017358E+04  0.79861895238E+02 0.  0.
    9900016    2    1    2    0    0 -0.11514803885E+04  0.18515925963E+03  0.12057203642E+04  0.24540096896E+04  0.17911479346E+04 0.  0.
         24    2    5    5    0    0  0.43236893158E+03  0.10864637079E+03 -0.13763682416E+02  0.45361617062E+03  0.82651463509E+02 0.  0.
        -15    1    3    3    0    0  0.42714412416E+03 -0.81492392491E+03  0.66785762761E+03  0.11369199255E+04  0.00000000000E+00 0.  1.
        -15    1    6    6    0    0  0.86656798943E+02  0.45322643146E+02 -0.28443916726E+02  0.10184595811E+03  0.00000000000E+00 0.  1.
         15    1    5    5    0    0 -0.15838493201E+04  0.76512888849E+02  0.12194840466E+04  0.20003935190E+04  0.00000000000E+00 0. -1.
         15    1    4    4    0    0  0.63990741489E+02  0.78029421901E+02 -0.27039029331E+02  0.10447255518E+03  0.00000000000E+00 0. -1.
        -16    1    4    4    0    0  0.71313226960E+03  0.51318583052E+03 -0.29793304959E+03  0.92772918065E+03  0.00000000000E+00 0.  1.
         16    1    6    6    0    0  0.34571213263E+03  0.63323727640E+02  0.14680234309E+02  0.35177021251E+03  0.00000000000E+00 0. -1.
    9900018    1    1    2    0    0 -0.52786746741E+02  0.38549412856E+02  0.13940929400E+03  0.17894867283E+03  0.91187600000E+02 0.  0.
<mgrwt>
<rscale>  0 0.44956176E+04</rscale>
<asrwt>0</asrwt>
<pdfrwt beam="1">  1        2 0.23954345E+00 0.44956176E+04</pdfrwt>
<pdfrwt beam="2">  1       -2 0.49923809E+00 0.44956176E+04</pdfrwt>
<totfact> 0.14958506E-02</totfact>
</mgrwt>
</event>
<event>
13    1  0.1739844E-012  0.4530436E+04  0.7818608E-02  0.7905330E-01
         -2   -1    0    0    0  501 -0.00000000000E+00  0.00000000000E+00  0.21802555481E+04  0.21802555481E+04  0.00000000000E+00 0.  1.
          2   -1    0    0  501    0  0.00000000000E+00 -0.00000000000E+00 -0.23534916446E+04  0.23534916446E+04  0.00000000000E+00 0. -1.
    9900016    2    1    2    0    0  0.31196383371E+03 -0.98242414170E+03  0.80411903907E+03  0.21633171776E+04  0.17236168815E+04 0.  0.
        -24    2    3    3    0    0  0.78023230084E+03  0.10604590832E+02  0.71537774430E+03  0.10618379729E+04  0.82823083042E+02 0.  0.
    9900016    2    1    2    0    0 -0.32412722053E+03  0.88852600153E+03 -0.93117624326E+03  0.22311013491E+04  0.17933731132E+04 0.  0.
         24    2    5    5    0    0  0.40111571699E+03  0.59496944643E+03  0.29227360112E+03  0.77886779650E+03  0.79553289815E+02 0.  0.
        -15    1    3    3    0    0 -0.46826846713E+03 -0.99302873253E+03  0.88741294768E+02  0.11014792047E+04  0.00000000000E+00 0.  1.
        -15    1    6    6    0    0  0.14643180809E+03  0.24889190519E+03  0.80255137968E+02  0.29971710338E+03  0.00000000000E+00 0.  1.
         15    1    4    4    0    0  0.34084149095E+03  0.24889715966E+02  0.36163644962E+03  0.49756742419E+03  0.00000000000E+00 0. -1.
         15    1    5    5    0    0 -0.72524293752E+03  0.29355655510E+03 -0.12234498444E+04  0.14522335526E+04  0.00000000000E+00 0. -1.
        -16    1    4    4    0    0  0.43939080989E+03 -0.14285125133E+02  0.35374129468E+03  0.56427054874E+03  0.00000000000E+00 0.  1.
         16    1    6    6    0    0  0.25468390889E+03  0.34607754124E+03  0.21201846316E+03  0.47915069312E+03  0.00000000000E+00 0. -1.
    9900018    1    1    2    0    0  0.12163386821E+02  0.93898140167E+02 -0.46178892290E+02  0.13932866608E+03  0.91187600000E+02 0.  0.
<mgrwt>
<rscale>  0 0.45304363E+04</rscale>
<asrwt>0</asrwt>
<pdfrwt beam="1">  1        2 0.36207564E+00 0.45304363E+04</pdfrwt>
<pdfrwt beam="2">  1       -2 0.33542393E+00 0.45304363E+04</pdfrwt>
<totfact> 0.61354693E-02</totfact>
</mgrwt>
</event>
<event>
12    1  0.1739844E-012  0.3582593E+04  0.7818608E-02  0.8094491E-01
          2   -1    0    0  501    0  0.00000000000E+00  0.00000000000E+00  0.11477586702E+04  0.11477586702E+04  0.00000000000E+00 0.  1.
         -2   -1    0    0    0  501 -0.00000000000E+00 -0.00000000000E+00 -0.27956606057E+04  0.27956606057E+04  0.00000000000E+00 0. -1.
         24    2    1    2    0    0  0.43733551196E+03 -0.70614886994E+03 -0.59379387610E+01  0.83453792529E+03  0.80682793038E+02 0.  0.
    9900016    2    1    2    0    0 -0.13633487210E+03  0.72367135015E+02 -0.97463075962E+03  0.20382451593E+04  0.17834556378E+04 0.  0.
        -24    2    4    4    0    0  0.25095083894E+03  0.60789780700E+03 -0.11738960006E+04  0.13479626382E+04  0.80345420571E+02 0.  0.
        -15    1    3    3    0    0  0.34794543134E+03 -0.61089452313E+03  0.87194037231E+01  0.70308901967E+03  0.00000000000E+00 0.  1.
        -15    1    4    4    0    0 -0.38728571104E+03 -0.53553067198E+03  0.19926524093E+03  0.69028252104E+03  0.00000000000E+00 0.  1.
         15    1    1    2    0    0 -0.27438034104E+03  0.67003477062E+03 -0.51915423477E+03  0.89092776636E+03  0.00000000000E+00 0. -1.
         15    1    5    5    0    0  0.82438159554E+02  0.19083681890E+03 -0.44996223162E+03  0.49566193266E+03  0.00000000000E+00 0. -1.
        -16    1    5    5    0    0  0.16851267939E+03  0.41706098809E+03 -0.72393376893E+03  0.85230070556E+03  0.00000000000E+00 0.  1.
         16    1    3    3    0    0  0.89390080626E+02 -0.95254346807E+02 -0.14657342484E+02  0.13144890562E+03  0.00000000000E+00 0. -1.
    9900018    1    1    2    0    0 -0.26620298829E+02 -0.36253035696E+02 -0.14817900233E+03  0.17970842504E+03  0.91187600000E+02 0.  0.
<mgrwt>
<rscale>  0 0.35825933E+04</rscale>
<asrwt>0</asrwt>
<pdfrwt beam="1">  1        2 0.17657826E+00 0.35825933E+04</pdfrwt>
<pdfrwt beam="2">  1       -2 0.43010163E+00 0.35825933E+04</pdfrwt>
<totfact> 0.78073240E-02</totfact>
</mgrwt>
</event>
<event>
13    1  0.1739844E-012  0.4277928E+04  0.7818608E-02  0.7950712E-01
         -1   -1    0    0    0  501 -0.00000000000E+00  0.00000000000E+00  0.16533807523E+04  0.16533807523E+04  0.00000000000E+00 0.  1.
          1   -1    0    0  501    0  0.00000000000E+00 -0.00000000000E+00 -0.27671592570E+04  0.27671592570E+04  0.00000000000E+00 0. -1.
    9900016    2    1    2    0    0 -0.26084242536E+03 -0.15408848609E+03 -0.14909660440E+04  0.24610923609E+04  0.19344802485E+04 0.  0.
         24    2    3    3    0    0  0.67818709399E+03 -0.56743980723E+03 -0.43474409596E+03  0.98859768977E+03  0.79983085474E+02 0.  0.
    9900016    2    1    2    0    0  0.26084242536E+03  0.15408848609E+03  0.37718753930E+03  0.19594476485E+04  0.18987845098E+04 0.  0.
        -24    2    5    5    0    0  0.32470145621E+03 -0.44164202369E+02 -0.71603850013E+03  0.79131526668E+03  0.78020543313E+02 0.  0.
        -15    1    4    4    0    0  0.22249651891E+03 -0.13865567272E+03 -0.12970406573E+03  0.29249485666E+03  0.00000000000E+00 0.  1.
        -15    1    5    5    0    0 -0.71389677680E+02  0.22764140592E+03  0.10194062857E+04  0.10469509402E+04  0.00000000000E+00 0.  1.
         15    1    3    3    0    0 -0.93902951935E+03  0.41335132114E+03 -0.10562219480E+04  0.14724946711E+04  0.00000000000E+00 0. -1.
         15    1    6    6    0    0  0.13246209212E+03 -0.32335807497E+02 -0.21566352493E+03  0.25515204542E+03  0.00000000000E+00 0. -1.
        -16    1    6    6    0    0  0.19223936410E+03 -0.11828394872E+02 -0.50037497520E+03  0.53616322127E+03  0.00000000000E+00 0.  1.
         16    1    4    4    0    0  0.45569057508E+03 -0.42878413451E+03 -0.30504003023E+03  0.69610283311E+03  0.00000000000E+00 0. -1.
    9900018    1    5    5    0    0  0.75306468303E+01 -0.29388717466E+02  0.73819753724E+02  0.12118144161E+03  0.91187600000E+02 0.  0.
<mgrwt>
<rscale>  0 0.42779284E+04</rscale>
<asrwt>0</asrwt>
<pdfrwt beam="1">  1        1 0.42571681E+00 0.42779284E+04</pdfrwt>
<pdfrwt beam="2">  1       -1 0.25436627E+00 0.42779284E+04</pdfrwt>
<totfact> 0.43931422E-02</totfact>
</mgrwt>
</event>
