<event>
12    1  0.5454820E-011  0.3875555E+04  0.7818608E-02  0.8437326E-01
         -1   -1    0    0    0  501 -0.00000000000E+00  0.00000000000E+00  0.24627851091E+04  0.24627851091E+04  0.00000000000E+00 0.  1.
          1   -1    0    0  501    0  0.00000000000E+00 -0.00000000000E+00 -0.21172005129E+04  0.21172005129E+04  0.00000000000E+00 0. -1.
        -24    2    1    2    0    0  0.35031839982E+03 -0.44448911620E+03  0.40541124773E+03  0.70396915441E+03  0.10450232005E+03 0.  0.
    9900016    2    1    2    0    0  0.58913281191E+03  0.17456906605E+03  0.84775319099E+01  0.22796565863E+04  0.21952700184E+04 0.  0.
         23    2    4    4    0    0 -0.14358460527E+03 -0.22421830697E+03  0.96831127677E+03  0.10079699110E+04  0.86522971751E+02 0.  0.
        -15    1    5    5    0    0 -0.10124939257E+03 -0.11075142913E+03  0.40800130668E+03  0.43472104251E+03  0.00000000000E+00 0. -1.
        -15    1    1    2    0    0 -0.27416138061E+03  0.59495586143E+03 -0.41313892187E+03  0.77448092838E+03  0.00000000000E+00 0.  1.
         15    1    5    5    0    0 -0.42335212707E+02 -0.11346687783E+03  0.56030997010E+03  0.57324886846E+03  0.00000000000E+00 0.  1.
         15    1    3    3    0    0  0.13806528672E+03 -0.11354092722E+03  0.91218543515E+02  0.20068479821E+03  0.00000000000E+00 0. -1.
        -16    1    3    3    0    0  0.21225311310E+03 -0.33094818898E+03  0.31419270422E+03  0.50328435619E+03  0.00000000000E+00 0.  1.
         16    1    4    4    0    0  0.73271741719E+03  0.39878737302E+03 -0.95983374486E+03  0.12716866753E+04  0.00000000000E+00 0. -1.
    9900018    1    1    2    0    0 -0.66528983113E+03 -0.32503581128E+03  0.34483473851E+03  0.82187895294E+03  0.91187600000E+02 0.  0.
<mgrwt>
<rscale>  0 0.24058253E+04</rscale>
<asrwt>0</asrwt>
<pdfrwt beam="1">  1        1 0.32572316E+00 0.38755547E+04</pdfrwt>
<pdfrwt beam="2">  1       -1 0.37889002E+00 0.38755547E+04</pdfrwt>
<totfact> 0.19075293E-02</totfact>
</mgrwt>
</event>
<event>
12    1  0.5454820E-011  0.5343176E+04  0.7818608E-02  0.7777645E-01
         -2   -1    0    0    0  501 -0.00000000000E+00  0.00000000000E+00  0.22470332116E+04  0.22470332116E+04  0.00000000000E+00 0.  1.
          2   -1    0    0  501    0  0.00000000000E+00 -0.00000000000E+00 -0.31763579263E+04  0.31763579263E+04  0.00000000000E+00 0. -1.
    9900016    2    1    2    0    0 -0.12116318434E+03 -0.58907952033E+03 -0.47922368036E+03  0.22709277111E+04  0.21367644078E+04 0.  0.
    9900016    2    1    2    0    0  0.49043378105E+03  0.10658606313E+04 -0.28211784435E+03  0.25198383152E+04  0.22121054400E+04 0.  0.
         23    2    4    4    0    0 -0.49998712909E+03 -0.85584291110E+02 -0.76826342417E+03  0.92512940343E+03  0.91235541424E+02 0.  0.
        -15    1    3    3    0    0 -0.18349976318E+03 -0.34553854576E+03 -0.13281329292E+04  0.13845599038E+04  0.00000000000E+00 0.  1.
        -15    1    5    5    0    0 -0.42474931493E+03 -0.10274224726E+03 -0.62880667174E+03  0.76574524505E+03  0.00000000000E+00 0.  1.
         15    1    3    3    0    0  0.36522906761E+01 -0.88202563409E+02  0.26584776009E+03  0.28012151464E+03  0.00000000000E+00 0. -1.
         15    1    5    5    0    0 -0.75237814166E+02  0.17157956152E+02 -0.13945675244E+03  0.15938415837E+03  0.00000000000E+00 0. -1.
        -16    1    3    3    0    0  0.58684288170E+02 -0.15533841116E+03  0.58306148873E+03  0.60624629261E+03  0.00000000000E+00 0.  1.
         16    1    4    4    0    0  0.99042091014E+03  0.11514449224E+04  0.48614557982E+03  0.15947089118E+04  0.00000000000E+00 0. -1.
    9900018    1    1    2    0    0 -0.36927059671E+03 -0.47678111098E+03 -0.16798319003E+03  0.63262511166E+03  0.91187600000E+02 0.  0.
<mgrwt>
<rscale>  0 0.53431757E+04</rscale>
<asrwt>0</asrwt>
<pdfrwt beam="1">  1        2 0.48867045E+00 0.53431757E+04</pdfrwt>
<pdfrwt beam="2">  1       -2 0.34569742E+00 0.53431757E+04</pdfrwt>
<totfact> 0.15751678E-02</totfact>
</mgrwt>
</event>
<event>
13    1  0.5454820E-011  0.5052766E+04  0.7818608E-02  0.7820419E-01
         -2   -1    0    0    0  501 -0.00000000000E+00  0.00000000000E+00  0.14410784874E+04  0.14410784874E+04  0.00000000000E+00 0.  1.
          2   -1    0    0  501    0  0.00000000000E+00 -0.00000000000E+00 -0.44290512246E+04  0.44290512246E+04  0.00000000000E+00 0. -1.
    9900016    2    1    2    0    0  0.41127317085E+03  0.48094848665E+02 -0.95934751625E+03  0.23725462665E+04  0.21300632372E+04 0.  0.
        -24    2    3    3    0    0  0.58610328906E+03  0.10075793775E+04 -0.70220645004E+03  0.13639345180E+04  0.92142300386E+02 0.  0.
    9900016    2    1    2    0    0 -0.20278535969E+03 -0.26241121872E+03 -0.22109492712E+04  0.31357051350E+04  0.21987197330E+04 0.  0.
         23    2    5    5    0    0  0.25672149158E+03  0.14836769025E+03  0.36945760755E+03  0.48270956052E+03  0.92686030743E+02 0.  0.
        -15    1    6    6    0    0  0.15066519420E+03  0.52954294023E+02  0.24992690784E+03  0.29659335337E+03  0.00000000000E+00 0.  1.
        -15    1    3    3    0    0 -0.17483011821E+03 -0.95948452884E+03 -0.25714106621E+03  0.10086117485E+04  0.00000000000E+00 0.  1.
         15    1    6    6    0    0  0.10605629737E+03  0.95413396225E+02  0.11953069971E+03  0.18611620715E+03  0.00000000000E+00 0. -1.
         15    1    4    4    0    0  0.37870014853E+03  0.73217949925E+03 -0.50665268354E+03  0.96757302741E+03  0.00000000000E+00 0. -1.
        -16    1    4    4    0    0  0.20740314052E+03  0.27539987826E+03 -0.19555376650E+03  0.39636149060E+03  0.00000000000E+00 0.  1.
         16    1    5    5    0    0 -0.45950685126E+03 -0.41077890897E+03 -0.25804068788E+04  0.26529955745E+04  0.00000000000E+00 0. -1.
    9900018    1    1    2    0    0 -0.20848781116E+03  0.21431637006E+03  0.18232405024E+03  0.36187831044E+03  0.91187600000E+02 0.  0.
<mgrwt>
<rscale>  0 0.50527658E+04</rscale>
<asrwt>0</asrwt>
<pdfrwt beam="1">  1        2 0.68139249E+00 0.50527658E+04</pdfrwt>
<pdfrwt beam="2">  1       -2 0.22170438E+00 0.50527658E+04</pdfrwt>
<totfact> 0.99808222E-03</totfact>
</mgrwt>
</event>
