<event>
12    1  0.2593213E-013  0.3553606E+04  0.7818608E-02  0.8816622E-01
         -1   -1    0    0    0  501 -0.00000000000E+00  0.00000000000E+00  0.16765499285E+04  0.16765499285E+04  0.00000000000E+00 0.  1.
          1   -1    0    0  501    0  0.00000000000E+00 -0.00000000000E+00 -0.20451298535E+04  0.20451298535E+04  0.00000000000E+00 0. -1.
         23    2    1    2    0    0 -0.74422521363E+02  0.11564704692E+03 -0.34900042946E+02  0.15244192227E+03  0.55745632292E+02 0.  0.
    9900016    2    1    2    0    0  0.10376789343E+03 -0.27278987018E+02 -0.72188105112E+03  0.23297313835E+04  0.22124701463E+04 0.  0.
        -24    2    4    4    0    0 -0.51994883619E+03 -0.57501315469E+03  0.44649832445E+03  0.89650228718E+03  0.58040303736E+02 0.  0.
        -15    1    3    3    0    0 -0.55639682728E+02  0.62309395417E+02  0.42821684608E+01  0.83645514034E+02  0.00000000000E+00 0. -1.
        -15    1    4    4    0    0  0.62371672962E+03  0.54773416768E+03 -0.11683793756E+04  0.14332290963E+04  0.00000000000E+00 0.  1.
         15    1    3    3    0    0 -0.18782838635E+02  0.53337651503E+02 -0.39182211407E+02  0.68796408233E+02  0.00000000000E+00 0.  1.
         15    1    5    5    0    0 -0.24833941749E+03 -0.23192796651E+03  0.19187729757E+03  0.39023063084E+03  0.00000000000E+00 0. -1.
        -16    1    5    5    0    0 -0.27160941870E+03 -0.34308518818E+03  0.25462102688E+03  0.50627165634E+03  0.00000000000E+00 0.  1.
         16    1    1    2    0    0  0.39345466742E+03  0.32342849138E+03  0.39131918525E+03  0.64229531299E+03  0.00000000000E+00 0. -1.
    9900018    1    1    2    0    0 -0.42280003948E+03 -0.41179655128E+03 -0.31180161355E+01  0.59721116320E+03  0.91187600000E+02 0.  0.
<mgrwt>
<rscale>  0 0.16064064E+04</rscale>
<asrwt>0</asrwt>
<pdfrwt beam="1">  1        1 0.31463536E+00 0.35536061E+04</pdfrwt>
<pdfrwt beam="2">  1       -1 0.25793076E+00 0.35536061E+04</pdfrwt>
<totfact> 0.13885984E-01</totfact>
</mgrwt>
</event>
<event>
10    1  0.2593213E-013  0.3125666E+04  0.7818608E-02  0.8757424E-01
          2   -1    0    0  501    0  0.00000000000E+00  0.00000000000E+00  0.13427115917E+04  0.13427115917E+04  0.00000000000E+00 0. -1.
         -2   -1    0    0    0  501 -0.00000000000E+00 -0.00000000000E+00 -0.21730123408E+04  0.21730123408E+04  0.00000000000E+00 0.  1.
    9900016    2    1    2    0    0  0.25178251882E+03  0.33791819007E+03 -0.11986100566E+04  0.25504176321E+04  0.22114205594E+04 0.  0.
        -15    1    1    2    0    0 -0.10783653874E+03  0.47807934879E+01 -0.61743077475E+02  0.12435345870E+03  0.00000000000E+00 0.  1.
        -15    1    3    3    0    0  0.63104811516E+03 -0.59164635125E+03  0.14065567779E+03  0.87638527389E+03  0.00000000000E+00 0.  1.
         15    1    1    2    0    0 -0.10333399699E+03  0.86217925188E+02  0.74743968381E+02  0.15394189283E+03  0.00000000000E+00 0. -1.
         15    1    3    3    0    0 -0.32120373283E+03  0.79377111242E+03 -0.11582951656E+04  0.14404485786E+04  0.00000000000E+00 0. -1.
        -16    1    3    3    0    0 -0.58061863510E+02  0.13579342891E+03 -0.18097056882E+03  0.23358377963E+03  0.00000000000E+00 0.  1.
         16    1    1    2    0    0 -0.90984711737E+02 -0.45940570363E+03  0.33689577330E+03  0.57691470805E+03  0.00000000000E+00 0. -1.
    9900018    1    1    2    0    0  0.50372728648E+02  0.30488794885E+02  0.18412643419E+02  0.11009624079E+03  0.91187600000E+02 0.  0.
<mgrwt>
<rscale>  0 0.17069263E+04</rscale>
<asrwt>0</asrwt>
<pdfrwt beam="1">  1        2 0.20657102E+00 0.31256657E+04</pdfrwt>
<pdfrwt beam="2">  1       -2 0.33430959E+00 0.31256657E+04</pdfrwt>
<totfact> 0.25551029E-01</totfact>
</mgrwt>
</event>
<event>
10    1  0.2593213E-013  0.3046300E+04  0.7818608E-02  0.8767723E-01
          2   -1    0    0  501    0  0.00000000000E+00  0.00000000000E+00  0.25337329253E+04  0.25337329253E+04  0.00000000000E+00 0. -1.
         -2   -1    0    0    0  501 -0.00000000000E+00 -0.00000000000E+00 -0.10994360138E+04  0.10994360138E+04  0.00000000000E+00 0.  1.
    9900016    2    1    2    0    0 -0.11590116822E+03  0.24873132501E+03  0.13292219846E+04  0.25997829049E+04  0.22173722546E+04 0.  0.
        -15    1    1    2    0    0  0.13893035804E+03  0.16706183976E+03  0.12071915411E+03  0.24856471362E+03  0.00000000000E+00 0.  1.
        -15    1    3    3    0    0 -0.37182597288E+03  0.39668299316E+03  0.18885805081E+04  0.19652858028E+04  0.00000000000E+00 0.  1.
         15    1    1    2    0    0 -0.63749516582E+02 -0.27909581585E+02  0.54363733340E+02  0.88308329796E+02  0.00000000000E+00 0. -1.
         15    1    3    3    0    0  0.17151589906E+03 -0.81341353331E+02 -0.31945298927E+03  0.37159700180E+03  0.00000000000E+00 0. -1.
        -16    1    3    3    0    0  0.84408905612E+02 -0.66610314818E+02 -0.23990553421E+03  0.26290010029E+03  0.00000000000E+00 0.  1.
         16    1    1    2    0    0  0.34146154246E+02 -0.46339007423E+03  0.11324183382E+03  0.47824683341E+03  0.00000000000E+00 0. -1.
    9900018    1    1    2    0    0  0.65741725171E+01  0.75506491045E+02 -0.18324979441E+03  0.21826615743E+03  0.91187600000E+02 0.  0.
<mgrwt>
<rscale>  0 0.16888950E+04</rscale>
<asrwt>0</asrwt>
<pdfrwt beam="1">  1        2 0.38980507E+00 0.30463005E+04</pdfrwt>
<pdfrwt beam="2">  1       -2 0.16914400E+00 0.30463005E+04</pdfrwt>
<totfact> 0.60712844E-01</totfact>
</mgrwt>
</event>
<event>
11    1  0.2593213E-013  0.3094245E+04  0.7818608E-02  0.8777394E-01
          1   -1    0    0  501    0  0.00000000000E+00  0.00000000000E+00  0.19740681114E+04  0.19740681114E+04  0.00000000000E+00 0. -1.
         -1   -1    0    0    0  501 -0.00000000000E+00 -0.00000000000E+00 -0.14892407051E+04  0.14892407051E+04  0.00000000000E+00 0.  1.
         23    2    1    2    0    0  0.23798844572E+03 -0.16818050706E+02  0.24446414611E+03  0.35974192373E+03  0.11282812515E+03 0.  0.
    9900016    2    1    2    0    0 -0.24397368316E+02 -0.12325500102E+03 -0.32425108182E+03  0.22224544666E+04  0.21950804234E+04 0.  0.
        -15    1    3    3    0    0  0.10249461837E+03  0.48481133886E+02  0.99602629736E+02  0.15091802738E+03  0.00000000000E+00 0.  1.
        -15    1    4    4    0    0  0.83145367114E+03 -0.67366909064E+03  0.17223116053E+03  0.10838859827E+04  0.00000000000E+00 0.  1.
         15    1    3    3    0    0  0.13549382735E+03 -0.65299184591E+02  0.14486151638E+03  0.20882389634E+03  0.00000000000E+00 0. -1.
         15    1    4    4    0    0 -0.63036710465E+03  0.34157948976E+03 -0.36045970862E+03  0.80247768567E+03  0.00000000000E+00 0. -1.
        -16    1    4    4    0    0 -0.22548393480E+03  0.20883459986E+03 -0.13602253373E+03  0.33609079820E+03  0.00000000000E+00 0.  1.
         16    1    1    2    0    0 -0.18664451878E+03  0.22461716179E+03  0.66024147190E+03  0.72194726053E+03  0.00000000000E+00 0. -1.
    9900018    1    1    2    0    0 -0.26946558632E+02 -0.84544110061E+02 -0.95627129905E+02  0.15916516558E+03  0.91187600000E+02 0.  0.
<mgrwt>
<rscale>  0 0.16721775E+04</rscale>
<asrwt>0</asrwt>
<pdfrwt beam="1">  1        1 0.30370279E+00 0.30942451E+04</pdfrwt>
<pdfrwt beam="2">  1       -1 0.22911395E+00 0.30942451E+04</pdfrwt>
<totfact> 0.24786072E-01</totfact>
</mgrwt>
</event>
<event>
12    1  0.2593213E-013  0.3820499E+04  0.7818608E-02  0.8491951E-01
         -1   -1    0    0    0  501 -0.00000000000E+00  0.00000000000E+00  0.22216165674E+04  0.22216165674E+04  0.00000000000E+00 0.  1.
          1   -1    0    0  501    0  0.00000000000E+00 -0.00000000000E+00 -0.24847544256E+04  0.24847544256E+04  0.00000000000E+00 0. -1.
         23    2    1    2    0    0  0.45677153262E+03  0.47777861040E+02  0.62591754179E+03  0.78379144872E+03  0.10785781818E+03 0.  0.
    9900016    2    1    2    0    0  0.60885735336E+03  0.37145891726E+03 -0.55316972075E+03  0.23772886577E+04  0.21992761578E+04 0.  0.
        -24    2    4    4    0    0  0.76134395791E+03  0.10284764345E+04 -0.95007250208E+03  0.15946929764E+04  0.54767975319E+02 0.  0.
        -15    1    3    3    0    0  0.32059056708E+03  0.40729127836E+02  0.35226771687E+03  0.47804781968E+03  0.00000000000E+00 0.  1.
        -15    1    4    4    0    0 -0.15248660455E+03 -0.65701751726E+03  0.39690278133E+03  0.78259568130E+03  0.00000000000E+00 0.  1.
         15    1    5    5    0    0  0.62889075281E+03  0.88073391282E+03 -0.79416936240E+03  0.13423489786E+04  0.00000000000E+00 0. -1.
         15    1    3    3    0    0  0.13618096554E+03  0.70487332042E+01  0.27364982492E+03  0.30574362904E+03  0.00000000000E+00 0. -1.
        -16    1    5    5    0    0  0.13245320510E+03  0.14774252170E+03 -0.15590313968E+03  0.25234399780E+03  0.00000000000E+00 0.  1.
         16    1    1    2    0    0 -0.25978672307E+03 -0.55913208394E+03  0.82585525150E+02  0.62204356579E+03  0.00000000000E+00 0. -1.
    9900018    1    1    2    0    0 -0.80584216292E+03  0.13989530565E+03 -0.41847120444E+03  0.92324732083E+03  0.91187600000E+02 0.  0.
<mgrwt>
<rscale>  0 0.22647487E+04</rscale>
<asrwt>0</asrwt>
<pdfrwt beam="1">  1        1 0.38226991E+00 0.38204988E+04</pdfrwt>
<pdfrwt beam="2">  1       -1 0.34178716E+00 0.38204988E+04</pdfrwt>
<totfact> 0.18863411E-02</totfact>
</mgrwt>
</event>
<event>
12    1  0.2593213E-013  0.3595558E+04  0.7818608E-02  0.8707613E-01
          2   -1    0    0  501    0  0.00000000000E+00  0.00000000000E+00  0.26454132241E+04  0.26454132241E+04  0.00000000000E+00 0. -1.
         -2   -1    0    0    0  501 -0.00000000000E+00 -0.00000000000E+00 -0.13850596300E+04  0.13850596300E+04  0.00000000000E+00 0.  1.
         23    2    1    2    0    0  0.16860122348E+03 -0.99147676671E+02  0.13891599995E+03  0.26408764964E+03  0.11039926314E+03 0.  0.
    9900016    2    1    2    0    0  0.75680511854E+02  0.39551821458E+03  0.65380429968E+03  0.23280492023E+04  0.21977695121E+04 0.  0.
        -24    2    4    4    0    0  0.13698796677E+03  0.10484268936E+04 -0.35969207544E+03  0.11208941793E+04  0.95187802876E+02 0.  0.
        -15    1    4    4    0    0 -0.61307454917E+02 -0.65290867903E+03  0.10134963751E+04  0.12071550230E+04  0.00000000000E+00 0.  1.
        -15    1    3    3    0    0  0.10977054953E+03 -0.25426483898E+02  0.23616705542E+02  0.11512527267E+03  0.00000000000E+00 0.  1.
         15    1    5    5    0    0  0.27704367645E+02  0.41062500304E+03 -0.18083022209E+03  0.44953308481E+03  0.00000000000E+00 0. -1.
         15    1    3    3    0    0  0.58830673955E+02 -0.73721192772E+02  0.11529929441E+03  0.14896237697E+03  0.00000000000E+00 0. -1.
        -16    1    5    5    0    0  0.10928359913E+03  0.63780189056E+03 -0.17886185334E+03  0.67136109451E+03  0.00000000000E+00 0.  1.
         16    1    1    2    0    0 -0.21631665667E+03 -0.64214458127E+03  0.72842681890E+03  0.99486088962E+03  0.00000000000E+00 0. -1.
    9900018    1    1    2    0    0 -0.27965078670E+02  0.34577404336E+03 -0.26079352446E+03  0.44347511259E+03  0.91187600000E+02 0.  0.
<mgrwt>
<rscale>  0 0.17975317E+04</rscale>
<asrwt>0</asrwt>
<pdfrwt beam="1">  1        2 0.40698665E+00 0.35955577E+04</pdfrwt>
<pdfrwt beam="2">  1       -2 0.21308610E+00 0.35955577E+04</pdfrwt>
<totfact> 0.25300845E-01</totfact>
</mgrwt>
</event>
<event>
12    1  0.2593213E-013  0.5370517E+04  0.7818608E-02  0.8272333E-01
          2   -1    0    0  501    0  0.00000000000E+00  0.00000000000E+00  0.47374168625E+04  0.47374168625E+04  0.00000000000E+00 0. -1.
         -2   -1    0    0    0  501 -0.00000000000E+00 -0.00000000000E+00 -0.19146822199E+04  0.19146822199E+04  0.00000000000E+00 0.  1.
         23    2    1    2    0    0  0.27159876628E+03  0.35314172779E+03  0.78356206931E+03  0.90747716250E+03  0.10521556090E+03 0.  0.
    9900016    2    1    2    0    0  0.20815922563E+03  0.17460891582E+04  0.11147248915E+04  0.30284944889E+04  0.21993202755E+04 0.  0.
        -24    2    4    4    0    0  0.14667713952E+03 -0.24307463186E+03  0.99342816936E+03  0.10346876965E+04  0.55494520505E+02 0.  0.
        -15    1    4    4    0    0  0.61482086110E+02  0.19891637901E+04  0.12129672218E+03  0.19938067924E+04  0.00000000000E+00 0.  1.
        -15    1    3    3    0    0  0.12123837977E+03  0.79096133278E+02  0.26631574581E+03  0.30311552170E+03  0.00000000000E+00 0.  1.
         15    1    5    5    0    0  0.53958569335E+02 -0.91437940511E+02  0.47219783589E+03  0.48398679774E+03  0.00000000000E+00 0. -1.
         15    1    3    3    0    0  0.15036038651E+03  0.27404559451E+03  0.51724632350E+03  0.60436164080E+03  0.00000000000E+00 0. -1.
        -16    1    5    5    0    0  0.92718570181E+02 -0.15163669135E+03  0.52123033346E+03  0.55070089880E+03  0.00000000000E+00 0.  1.
         16    1    1    2    0    0  0.92409572790E+00 -0.18772463838E+04  0.31468103857E+03  0.19034387291E+04  0.00000000000E+00 0. -1.
    9900018    1    1    2    0    0 -0.48068208763E+03 -0.22198450220E+03  0.60976664319E+03  0.81268870186E+03  0.91187600000E+02 0.  0.
<mgrwt>
<rscale>  0 0.29018291E+04</rscale>
<asrwt>0</asrwt>
<pdfrwt beam="1">  1        2 0.72883336E+00 0.53705173E+04</pdfrwt>
<pdfrwt beam="2">  1       -2 0.29456650E+00 0.53705173E+04</pdfrwt>
<totfact> 0.16341863E-03</totfact>
</mgrwt>
</event>
<event>
12    1  0.2593213E-013  0.4041344E+04  0.7818608E-02  0.8702147E-01
          1   -1    0    0  501    0  0.00000000000E+00  0.00000000000E+00  0.23372367739E+04  0.23372367739E+04  0.00000000000E+00 0. -1.
         -1   -1    0    0    0  501 -0.00000000000E+00 -0.00000000000E+00 -0.19610977915E+04  0.19610977915E+04  0.00000000000E+00 0.  1.
         23    2    1    2    0    0  0.11770120274E+03  0.88032453471E+02  0.19435083255E+03  0.25290375821E+03  0.67710994772E+02 0.  0.
    9900016    2    1    2    0    0  0.35332796204E+03 -0.84423403606E+02 -0.15104198913E+03  0.22388359385E+04  0.22039974404E+04 0.  0.
        -24    2    4    4    0    0 -0.60751399670E+03 -0.49861851978E+03  0.56584341354E+03  0.97049073928E+03  0.63085829791E+02 0.  0.
        -15    1    3    3    0    0  0.95656602089E+02  0.35370595172E+02  0.14598260707E+03  0.17807915682E+03  0.00000000000E+00 0.  1.
        -15    1    4    4    0    0  0.96084195874E+03  0.41419511617E+03 -0.71688540267E+03  0.12683451993E+04  0.00000000000E+00 0.  1.
         15    1    3    3    0    0  0.22044600654E+02  0.52661858299E+02  0.48368225479E+02  0.74824601392E+02  0.00000000000E+00 0. -1.
         15    1    5    5    0    0 -0.21703960207E+03 -0.21284526641E+03  0.20003842266E+03  0.36390200170E+03  0.00000000000E+00 0. -1.
        -16    1    5    5    0    0 -0.39047439463E+03 -0.28577325337E+03  0.36580499088E+03  0.60658873758E+03  0.00000000000E+00 0.  1.
         16    1    1    2    0    0 -0.10202685729E+04  0.36109204124E+03  0.35967151949E+03  0.11404819267E+04  0.00000000000E+00 0. -1.
    9900018    1    1    2    0    0  0.54923940816E+03 -0.36470109111E+03 -0.26841380446E+02  0.66611294195E+03  0.91187600000E+02 0.  0.
<mgrwt>
<rscale>  0 0.18078288E+04</rscale>
<asrwt>0</asrwt>
<pdfrwt beam="1">  1        1 0.35957489E+00 0.40413443E+04</pdfrwt>
<pdfrwt beam="2">  1       -1 0.30170735E+00 0.40413443E+04</pdfrwt>
<totfact> 0.43693018E-02</totfact>
</mgrwt>
</event>
<event>
11    1  0.2593213E-013  0.3565019E+04  0.7818608E-02  0.8756211E-01
          2   -1    0    0  501    0  0.00000000000E+00  0.00000000000E+00  0.18075329871E+04  0.18075329871E+04  0.00000000000E+00 0. -1.
         -2   -1    0    0    0  501 -0.00000000000E+00 -0.00000000000E+00 -0.23154636938E+04  0.23154636938E+04  0.00000000000E+00 0.  1.
    9900016    2    1    2    0    0  0.50135490398E+03 -0.51593095737E+03  0.32356787518E+03  0.23381939365E+04  0.22011163582E+04 0.  0.
        -24    2    3    3    0    0 -0.56149932515E+03  0.54481077780E+03  0.28900061139E+03  0.83618626783E+03  0.59881928674E+02 0.  0.
        -15    1    3    3    0    0  0.10628542291E+04 -0.10607417352E+04  0.34567263797E+02  0.15020076687E+04  0.00000000000E+00 0.  1.
        -15    1    1    2    0    0  0.58803349745E+01 -0.12969753863E+03 -0.51046855439E+03  0.52672020551E+03  0.00000000000E+00 0.  1.
         15    1    4    4    0    0 -0.19163515844E+03  0.15939171284E+03  0.70404401928E+02  0.25901067909E+03  0.00000000000E+00 0. -1.
         15    1    1    2    0    0 -0.26236044781E+02  0.83098350796E+01 -0.14732257999E+02  0.31215746516E+02  0.00000000000E+00 0. -1.
        -16    1    4    4    0    0 -0.36986416671E+03  0.38541906497E+03  0.21859620946E+03  0.57717558874E+03  0.00000000000E+00 0.  1.
         16    1    1    2    0    0 -0.58800601912E+03  0.75670757319E+03 -0.37635962487E+03  0.10295649552E+04  0.00000000000E+00 0. -1.
    9900018    1    1    2    0    0  0.10700682495E+03 -0.11938891226E+03  0.70061855295E+02  0.19730183709E+03  0.91187600000E+02 0.  0.
<mgrwt>
<rscale>  0 0.17090649E+04</rscale>
<asrwt>0</asrwt>
<pdfrwt beam="1">  1        2 0.27808200E+00 0.35650189E+04</pdfrwt>
<pdfrwt beam="2">  1       -2 0.35622518E+00 0.35650189E+04</pdfrwt>
<totfact> 0.97422878E-02</totfact>
</mgrwt>
</event>
