<event>
11    1  0.2385724E-019  0.2534269E+04  0.7818608E-02  0.8390878E-01
          1   -1    0    0  501    0  0.00000000000E+00  0.00000000000E+00  0.13250177488E+04  0.13250177488E+04  0.00000000000E+00 0. -1.
         -1   -1    0    0    0  501 -0.00000000000E+00 -0.00000000000E+00 -0.12117795199E+04  0.12117795199E+04  0.00000000000E+00 0.  1.
    9900016    2    1    2    0    0 -0.44271200519E+03  0.15763353005E+03 -0.10756708010E+03  0.18662491774E+04  0.18029068379E+04 0.  0.
        -24    2    3    3    0    0  0.94333664139E+02 -0.11855013299E+03  0.77663561908E+03  0.79549716131E+03  0.81852761723E+02 0.  0.
        -15    1    3    3    0    0 -0.53704566933E+03  0.27618366304E+03 -0.88420269918E+03  0.10707520161E+04  0.00000000000E+00 0.  1.
        -15    1    4    4    0    0  0.75439020812E+01 -0.44760438896E+02  0.16328360024E+03  0.16947548925E+03  0.00000000000E+00 0.  1.
         15    1    4    4    0    0  0.33699468595E+02 -0.40616065958E+02  0.19350651898E+03  0.20057440486E+03  0.00000000000E+00 0. -1.
         15    1    4    4    0    0  0.42951447893E+02 -0.13549582840E+02  0.23409893100E+03  0.23839196204E+03  0.00000000000E+00 0. -1.
        -16    1    4    4    0    0  0.10138845569E+02 -0.19624045297E+02  0.18574656886E+03  0.18705530515E+03  0.00000000000E+00 0.  1.
         16    1    1    2    0    0  0.48713203732E+03 -0.18025945106E+03  0.22609518310E+03  0.56648929672E+03  0.00000000000E+00 0. -1.
    9900018    1    1    2    0    0 -0.44420032127E+02  0.22625921012E+02 -0.52898740766E+01  0.10405879452E+03  0.91187600000E+02 0.  0.
<mgrwt>
<rscale>  0 0.25342686E+04</rscale>
<asrwt>0</asrwt>
<pdfrwt beam="1">  1        1 0.20384888E+00 0.25342686E+04</pdfrwt>
<pdfrwt beam="2">  1       -1 0.18642762E+00 0.25342686E+04</pdfrwt>
<totfact> 0.14399731E+00</totfact>
</mgrwt>
</event>
<event>
11    1  0.2385724E-019  0.3629347E+04  0.7818608E-02  0.8083802E-01
          2   -1    0    0  501    0  0.00000000000E+00  0.00000000000E+00  0.23057352364E+04  0.23057352364E+04  0.00000000000E+00 0. -1.
         -2   -1    0    0    0  501 -0.00000000000E+00 -0.00000000000E+00 -0.14281952773E+04  0.14281952773E+04  0.00000000000E+00 0.  1.
    9900016    2    1    2    0    0  0.11118689448E+04  0.21519328284E+03  0.83370178561E+02  0.21318201478E+04  0.18042022770E+04 0.  0.
         24    2    3    3    0    0  0.37937619804E+03 -0.14394800225E+03  0.89183218777E+03  0.98328242220E+03  0.82657992265E+02 0.  0.
        -15    1    4    4    0    0  0.10631958067E+02  0.25329468750E+01  0.24189994217E+02  0.26544494202E+02  0.00000000000E+00 0.  1.
        -15    1    4    4    0    0  0.23851622652E+03 -0.83274213809E+02  0.47808332063E+03  0.54072936526E+03  0.00000000000E+00 0.  1.
         15    1    4    4    0    0  0.10941845844E+02 -0.93277888844E+01  0.52322519678E+02  0.54262120318E+02  0.00000000000E+00 0. -1.
         15    1    3    3    0    0  0.73249274680E+03  0.35914128509E+03 -0.80846200921E+03  0.11485377256E+04  0.00000000000E+00 0. -1.
        -16    1    1    2    0    0 -0.12060385458E+04 -0.25741166342E+03  0.78958193630E+03  0.14643187401E+04  0.00000000000E+00 0.  1.
         16    1    4    4    0    0  0.11928616760E+03 -0.53878946429E+02  0.33723635325E+03  0.36174644242E+03  0.00000000000E+00 0. -1.
    9900018    1    1    2    0    0  0.94169601009E+02  0.42218380574E+02  0.45878442249E+01  0.13779162573E+03  0.91187600000E+02 0.  0.
<mgrwt>
<rscale>  0 0.36293471E+04</rscale>
<asrwt>0</asrwt>
<pdfrwt beam="1">  1        2 0.35472850E+00 0.36293471E+04</pdfrwt>
<pdfrwt beam="2">  1       -2 0.21972235E+00 0.36293471E+04</pdfrwt>
<totfact> 0.36307873E-01</totfact>
</mgrwt>
</event>
<event>
11    1  0.2385724E-019  0.3385490E+04  0.7818608E-02  0.8141477E-01
         -2   -1    0    0    0  501 -0.00000000000E+00  0.00000000000E+00  0.15355657572E+04  0.15355657572E+04  0.00000000000E+00 0.  1.
          2   -1    0    0  501    0  0.00000000000E+00 -0.00000000000E+00 -0.18660135165E+04  0.18660135165E+04  0.00000000000E+00 0. -1.
    9900016    2    1    2    0    0 -0.15081735615E+03  0.90274975066E+03 -0.77452195814E+03  0.21605793326E+04  0.17973635696E+04 0.  0.
         24    2    3    3    0    0  0.11807790710E+03 -0.72007243084E+02  0.50464448268E+03  0.53002033553E+03  0.84427880312E+02 0.  0.
        -15    1    4    4    0    0  0.23818048225E+02 -0.33160271138E+02  0.10807272594E+03  0.11552755989E+03  0.00000000000E+00 0.  1.
        -15    1    4    4    0    0  0.84358569161E+01 -0.21160174219E+02  0.33100058491E+02  0.40181221074E+02  0.00000000000E+00 0.  1.
         15    1    3    3    0    0 -0.26889526325E+03  0.97475699374E+03 -0.12791664408E+04  0.16305589970E+04  0.00000000000E+00 0. -1.
         15    1    4    4    0    0  0.52464509381E+02 -0.27808723651E+01  0.19779766123E+03  0.20465623075E+03  0.00000000000E+00 0. -1.
        -16    1    1    2    0    0  0.17723140662E+03 -0.94836181364E+03  0.53382672398E+03  0.11026205477E+04  0.00000000000E+00 0.  1.
         16    1    4    4    0    0  0.33359492579E+02 -0.14905925362E+02  0.16567403702E+03  0.16965532382E+03  0.00000000000E+00 0. -1.
    9900018    1    1    2    0    0 -0.26414050465E+02  0.45612062987E+02 -0.89752525181E+02  0.13837939342E+03  0.91187600000E+02 0.  0.
<mgrwt>
<rscale>  0 0.33854905E+04</rscale>
<asrwt>0</asrwt>
<pdfrwt beam="1">  1        2 0.28707900E+00 0.33854905E+04</pdfrwt>
<pdfrwt beam="2">  1       -2 0.23624089E+00 0.33854905E+04</pdfrwt>
<totfact> 0.51418279E-01</totfact>
</mgrwt>
</event>
<event>
12    1  0.2385724E-019  0.2592081E+04  0.7818608E-02  0.8370896E-01
          2   -1    0    0  501    0  0.00000000000E+00  0.00000000000E+00  0.12993361080E+04  0.12993361080E+04  0.00000000000E+00 0. -1.
         -2   -1    0    0    0  501 -0.00000000000E+00 -0.00000000000E+00 -0.12927534134E+04  0.12927534134E+04  0.00000000000E+00 0.  1.
    9900016    2    1    2    0    0 -0.27384794259E+03 -0.68745857364E+02 -0.54028058215E+03  0.18885238217E+04  0.17874284403E+04 0.  0.
        -24    2    3    3    0    0  0.55230755136E+02  0.23036510713E+03  0.60794093999E+03  0.65719412492E+03  0.78698236366E+02 0.  0.
        -24    2    4    4    0    0  0.38504378181E+02  0.18996614828E+03  0.50755148678E+03  0.54581073468E+03  0.52260135147E+02 0.  0.
        -15    1    4    4    0    0 -0.31336189068E+01  0.15333968773E+02  0.25043717367E+02  0.29531981738E+02  0.00000000000E+00 0. -1.
        -15    1    3    3    0    0 -0.32907869772E+03 -0.29911096449E+03 -0.11482215221E+04  0.12313296968E+04  0.00000000000E+00 0.  1.
         15    1    4    4    0    0  0.19859995862E+02  0.25064990081E+02  0.75345735843E+02  0.81851408498E+02  0.00000000000E+00 0.  1.
         15    1    5    5    0    0  0.34248296563E+02  0.11648643846E+03  0.24961341246E+03  0.27757682151E+03  0.00000000000E+00 0. -1.
        -16    1    5    5    0    0  0.42560816177E+01  0.73479709812E+02  0.25793807433E+03  0.26823391317E+03  0.00000000000E+00 0.  1.
         16    1    1    2    0    0  0.22489405652E+03  0.52332462151E+02  0.55230993956E+03  0.59863368815E+03  0.00000000000E+00 0. -1.
    9900018    1    1    2    0    0  0.48953886069E+02  0.16413395212E+02 -0.54466627930E+01  0.10493201148E+03  0.91187600000E+02 0.  0.
<mgrwt>
<rscale>  0 0.25920812E+04</rscale>
<asrwt>0</asrwt>
<pdfrwt beam="1">  1        2 0.19989786E+00 0.25920812E+04</pdfrwt>
<pdfrwt beam="2">  1       -2 0.19888514E+00 0.25920812E+04</pdfrwt>
<totfact> 0.19811360E+00</totfact>
</mgrwt>
</event>
