<event>
12    1  0.1564109E-012  0.1880839E+04  0.7818608E-02  0.9287222E-01
         -1   -1    0    0    0  501 -0.00000000000E+00  0.00000000000E+00  0.75502635581E+03  0.75502635581E+03  0.00000000000E+00 0.  1.
          1   -1    0    0  501    0  0.00000000000E+00 -0.00000000000E+00 -0.21106358166E+04  0.21106358166E+04  0.00000000000E+00 0. -1.
         23    2    1    2    0    0 -0.95977612038E+02 -0.74350136301E+02  0.31214984671E+03  0.35190470091E+03  0.10798030809E+03 0.  0.
    9900016    2    1    2    0    0  0.15699840629E+03 -0.23254993299E+02 -0.58774922296E+03  0.94826894779E+03  0.72703201715E+03 0.  0.
         23    2    4    4    0    0  0.23276545917E+03 -0.21932357010E+01  0.89768476433E+02  0.26620261896E+03  0.92848724894E+02 0.  0.
        -15    1    5    5    0    0  0.81356910166E+02 -0.17338682075E+02 -0.10690201027E+02  0.83868093610E+02  0.00000000000E+00 0.  1.
        -15    1    3    3    0    0 -0.40679644855E+02 -0.83334502547E+02  0.11941850984E+03  0.15119607572E+03  0.00000000000E+00 0.  1.
         15    1    5    5    0    0  0.15140854900E+03  0.15145446374E+02  0.10045867746E+03  0.18233452535E+03  0.00000000000E+00 0. -1.
         15    1    3    3    0    0 -0.55297967183E+02  0.89843662451E+01  0.19273133688E+03  0.20070862519E+03  0.00000000000E+00 0. -1.
        -16    1    1    2    0    0  0.94078494296E+02  0.45211120442E+03 -0.53744126865E+02  0.46491261052E+03  0.00000000000E+00 0.  1.
         16    1    4    4    0    0 -0.75767052881E+02 -0.21061757598E+02 -0.67751769939E+03  0.68206632883E+03  0.00000000000E+00 0. -1.
    9900018    1    1    2    0    0 -0.15509928855E+03 -0.35450607482E+03 -0.10262659576E+04  0.11005759132E+04  0.91187600000E+02 0.  0.
<mgrwt>
<rscale>  0 0.10196778E+04</rscale>
<asrwt>0</asrwt>
<pdfrwt beam="1">  1        1 0.32471320E+00 0.18808390E+04</pdfrwt>
<pdfrwt beam="2">  1       -1 0.11615790E+00 0.18808390E+04</pdfrwt>
<totfact> 0.15512778E+00</totfact>
</mgrwt>
</event>
<event>
12    1  0.1564109E-012  0.1560578E+04  0.7818608E-02  0.9461477E-01
          1   -1    0    0  501    0  0.00000000000E+00  0.00000000000E+00  0.82468399775E+03  0.82468399775E+03  0.00000000000E+00 0. -1.
         -1   -1    0    0    0  501 -0.00000000000E+00 -0.00000000000E+00 -0.11197908998E+04  0.11197908998E+04  0.00000000000E+00 0.  1.
         23    2    1    2    0    0  0.30839833656E+02  0.10223080665E+03  0.24902089305E+03  0.29175601320E+03  0.10820320188E+03 0.  0.
    9900016    2    1    2    0    0 -0.15296920806E+03  0.12975538511E+03 -0.39227241610E+03  0.82236929539E+03  0.69439007120E+03 0.  0.
         23    2    4    4    0    0  0.10306904674E+02 -0.12518168712E+03  0.13974466926E+03  0.21024661250E+03  0.94331216497E+02 0.  0.
        -15    1    3    3    0    0 -0.36308331444E+02  0.23429216093E+02  0.41843479652E+02  0.60150643292E+02  0.00000000000E+00 0.  1.
        -15    1    5    5    0    0 -0.11001147919E+02 -0.41468193507E+02  0.11132994265E+03  0.11931048763E+03  0.00000000000E+00 0.  1.
         15    1    5    5    0    0  0.21308052593E+02 -0.83713493613E+02  0.28414726619E+02  0.90936124874E+02  0.00000000000E+00 0. -1.
         15    1    3    3    0    0  0.67148165100E+02  0.78801590560E+02  0.20717741340E+03  0.23160536991E+03  0.00000000000E+00 0. -1.
        -16    1    4    4    0    0 -0.16327611273E+03  0.25493707223E+03 -0.53201708536E+03  0.61212268289E+03  0.00000000000E+00 0.  1.
         16    1    1    2    0    0  0.20228777938E+03 -0.16749753500E+03  0.27597768635E+03  0.38097172241E+03  0.00000000000E+00 0. -1.
    9900018    1    1    2    0    0 -0.80158404979E+02 -0.64488656762E+02 -0.42783306532E+03  0.44937786652E+03  0.91187600000E+02 0.  0.
<mgrwt>
<rscale>  0 0.87184555E+03</rscale>
<asrwt>0</asrwt>
<pdfrwt beam="1">  1        1 0.12687446E+00 0.15605783E+04</pdfrwt>
<pdfrwt beam="2">  1       -1 0.17227552E+00 0.15605783E+04</pdfrwt>
<totfact> 0.47595940E+00</totfact>
</mgrwt>
</event>
<event>
11    1  0.1564109E-012  0.2007110E+04  0.7818608E-02  0.9037083E-01
          2   -1    0    0  501    0  0.00000000000E+00  0.00000000000E+00  0.10156887350E+04  0.10156887350E+04  0.00000000000E+00 0. -1.
         -2   -1    0    0    0  501 -0.00000000000E+00 -0.00000000000E+00 -0.14095325230E+04  0.14095325230E+04  0.00000000000E+00 0.  1.
    9900016    2    1    2    0    0 -0.20667989677E+03 -0.73073665937E+02 -0.67987846634E+03  0.10093469016E+04  0.71308491661E+03 0.  0.
         23    2    3    3    0    0 -0.26737383060E+03 -0.26155563689E+03 -0.71174467738E+03  0.80878603203E+03  0.87488532690E+02 0.  0.
        -15    1    1    2    0    0 -0.71418902582E+02  0.11514293076E+03  0.49358975438E+02  0.14420423921E+03  0.00000000000E+00 0.  1.
        -15    1    4    4    0    0 -0.19515875573E+03 -0.21902312440E+03 -0.48225261660E+03  0.56446935717E+03  0.00000000000E+00 0.  1.
         15    1    4    4    0    0 -0.72215074875E+02 -0.42532512487E+02 -0.22949206077E+03  0.24431667486E+03  0.00000000000E+00 0. -1.
         15    1    1    2    0    0 -0.20640700795E+03  0.17243461128E+02  0.52344260851E+02  0.21363780453E+03  0.00000000000E+00 0. -1.
        -16    1    1    2    0    0  0.20864232430E+03 -0.20643075572E+03  0.51572951960E+03  0.59339886568E+03  0.00000000000E+00 0.  1.
         16    1    3    3    0    0  0.60693933830E+02  0.18848197095E+03  0.31866211035E+02  0.20056086952E+03  0.00000000000E+00 0. -1.
    9900018    1    1    2    0    0  0.27586348300E+03  0.14711802977E+03 -0.33139807756E+03  0.46463344707E+03  0.91187600000E+02 0.  0.
<mgrwt>
<rscale>  0 0.12905618E+04</rscale>
<asrwt>0</asrwt>
<pdfrwt beam="1">  1        2 0.15625981E+00 0.20071099E+04</pdfrwt>
<pdfrwt beam="2">  1       -2 0.21685116E+00 0.20071099E+04</pdfrwt>
<totfact> 0.23369033E+00</totfact>
</mgrwt>
</event>
<event>
12    1  0.1564109E-012  0.1460059E+04  0.7818608E-02  0.9632777E-01
          1   -1    0    0  501    0  0.00000000000E+00  0.00000000000E+00  0.26402188823E+04  0.26402188823E+04  0.00000000000E+00 0. -1.
         -1   -1    0    0    0  501 -0.00000000000E+00 -0.00000000000E+00 -0.23187244019E+03  0.23187244019E+03  0.00000000000E+00 0.  1.
         23    2    1    2    0    0  0.27421931315E+02  0.69688858858E+02  0.12278080063E+03  0.15997357352E+03  0.70056547548E+02 0.  0.
    9900016    2    1    2    0    0  0.13846478890E+01  0.14038502407E+02  0.95789422747E+03  0.11938213444E+04  0.71235458485E+03 0.  0.
         23    2    4    4    0    0 -0.22930805962E+03 -0.70836750942E+02  0.60717823932E+02  0.26358028265E+03  0.90486903857E+02 0.  0.
        -15    1    5    5    0    0 -0.49696349738E+02  0.14177475889E+02 -0.10035963995E+02  0.52644549320E+02  0.00000000000E+00 0.  1.
        -15    1    3    3    0    0 -0.19168636517E+02  0.54889346015E+00  0.23122505175E+02  0.30039776223E+02  0.00000000000E+00 0.  1.
         15    1    3    3    0    0  0.46590567832E+02  0.69139965398E+02  0.99658295456E+02  0.12993379729E+03  0.00000000000E+00 0. -1.
         15    1    5    5    0    0 -0.17961170988E+03 -0.85014226831E+02  0.70753787926E+02  0.21093573333E+03  0.00000000000E+00 0. -1.
        -16    1    1    2    0    0 -0.13803973891E+03 -0.21882147100E+03  0.10375470653E+03  0.27875230010E+03  0.00000000000E+00 0.  1.
         16    1    4    4    0    0  0.23069270751E+03  0.84875253349E+02  0.89717640354E+03  0.93024106176E+03  0.00000000000E+00 0. -1.
    9900018    1    1    2    0    0  0.10923315971E+03  0.13509410973E+03  0.12239167075E+04  0.12395441045E+04  0.91187600000E+02 0.  0.
<mgrwt>
<rscale>  0 0.75164245E+03</rscale>
<asrwt>0</asrwt>
<pdfrwt beam="1">  1        1 0.40618750E+00 0.14600590E+04</pdfrwt>
<pdfrwt beam="2">  1       -1 0.35672685E-01 0.14600590E+04</pdfrwt>
<totfact> 0.78917917E+00</totfact>
</mgrwt>
</event>
<event>
12    1  0.1564109E-012  0.1137892E+04  0.7818608E-02  0.9668006E-01
          2   -1    0    0  501    0  0.00000000000E+00  0.00000000000E+00  0.25262748825E+04  0.25262748825E+04  0.00000000000E+00 0. -1.
         -2   -1    0    0    0  501 -0.00000000000E+00 -0.00000000000E+00 -0.28105588184E+03  0.28105588184E+03  0.00000000000E+00 0.  1.
         23    2    1    2    0    0  0.93904319839E+02 -0.14864934498E+03 -0.87987407447E+02  0.21143989885E+03  0.77784303752E+02 0.  0.
    9900016    2    1    2    0    0  0.80390158019E+02  0.53079520234E+02  0.15822249876E+04  0.17346802674E+04  0.70455638937E+03 0.  0.
         23    2    4    4    0    0 -0.28885305918E+03  0.51869942151E+02  0.45859521716E+03  0.55193520717E+03  0.90533524230E+02 0.  0.
        -15    1    5    5    0    0 -0.13036452404E+03  0.38819748266E+02  0.28920103153E+03  0.31959211289E+03  0.00000000000E+00 0. -1.
        -15    1    3    3    0    0  0.19931663668E+02 -0.75535546407E+02 -0.71944709402E+02  0.10620231259E+03  0.00000000000E+00 0.  1.
         15    1    3    3    0    0  0.73972656171E+02 -0.73113798574E+02 -0.16042698045E+02  0.10523758627E+03  0.00000000000E+00 0. -1.
         15    1    5    5    0    0 -0.15848853514E+03  0.13050193886E+02  0.16939418563E+03  0.23234309428E+03  0.00000000000E+00 0.  1.
        -16    1    1    2    0    0 -0.26939881780E+03  0.10248612290E+03  0.54662947928E+03  0.61796675966E+03  0.00000000000E+00 0.  1.
         16    1    4    4    0    0  0.36924321720E+03  0.12095780829E+01  0.11236297704E+04  0.11827450602E+04  0.00000000000E+00 0. -1.
    9900018    1    1    2    0    0  0.95104339946E+02 -0.69162981491E+01  0.20435194129E+03  0.24324383848E+03  0.91187600000E+02 0.  0.
<mgrwt>
<rscale>  0 0.72954077E+03</rscale>
<asrwt>0</asrwt>
<pdfrwt beam="1">  1        2 0.38865766E+00 0.11378916E+04</pdfrwt>
<pdfrwt beam="2">  1       -2 0.43239368E-01 0.11378916E+04</pdfrwt>
<totfact> 0.17006784E+01</totfact>
</mgrwt>
</event>
<event>
12    1  0.1564109E-012  0.1545442E+04  0.7818608E-02  0.8854784E-01
          2   -1    0    0  501    0  0.00000000000E+00  0.00000000000E+00  0.94260896007E+03  0.94260896007E+03  0.00000000000E+00 0. -1.
         -2   -1    0    0    0  501 -0.00000000000E+00 -0.00000000000E+00 -0.63345260409E+03  0.63345260409E+03  0.00000000000E+00 0.  1.
         23    2    1    2    0    0 -0.72963098575E+02 -0.17318298297E+03  0.21587877509E+03  0.30659522254E+03  0.10991371890E+03 0.  0.
    9900016    2    1    2    0    0  0.22516039059E+03 -0.12717226386E+03  0.19669056326E+02  0.75581388500E+03  0.70992800395E+03 0.  0.
         23    2    4    4    0    0  0.89972225160E+02 -0.37949716045E+02 -0.33796290280E+03  0.36321087776E+03  0.90377186306E+02 0.  0.
        -15    1    5    5    0    0  0.66378550586E+02  0.51820859021E+01 -0.99423190869E+02  0.11965758177E+03  0.00000000000E+00 0.  1.
        -15    1    3    3    0    0 -0.21691078936E+02 -0.66552646008E+02  0.16222299904E+03  0.17668066961E+03  0.00000000000E+00 0.  1.
         15    1    3    3    0    0 -0.51272019639E+02 -0.10663033696E+03  0.53655776053E+02  0.12991455293E+03  0.00000000000E+00 0. -1.
         15    1    5    5    0    0  0.23593674574E+02 -0.43131801947E+02 -0.23853971193E+03  0.24355329599E+03  0.00000000000E+00 0. -1.
        -16    1    4    4    0    0  0.13518816543E+03 -0.89222547812E+02  0.35763195912E+03  0.39260300724E+03  0.00000000000E+00 0.  1.
         16    1    1    2    0    0  0.21796986177E+02 -0.19675378593E+02  0.13058273739E+03  0.13384349231E+03  0.00000000000E+00 0. -1.
    9900018    1    1    2    0    0 -0.17399427819E+03  0.32003062542E+03 -0.56974212833E+02  0.37980896431E+03  0.91187600000E+02 0.  0.
<mgrwt>
<rscale>  0 0.15454425E+04</rscale>
<asrwt>0</asrwt>
<pdfrwt beam="1">  1        2 0.14501676E+00 0.15454425E+04</pdfrwt>
<pdfrwt beam="2">  1       -2 0.97454247E-01 0.15454425E+04</pdfrwt>
<totfact> 0.23214491E+01</totfact>
</mgrwt>
</event>
<event>
11    1  0.1564109E-012  0.2124032E+04  0.7818608E-02  0.9343930E-01
         -2   -1    0    0    0  501 -0.00000000000E+00  0.00000000000E+00  0.49640333539E+03  0.49640333539E+03  0.00000000000E+00 0.  1.
          2   -1    0    0  501    0  0.00000000000E+00 -0.00000000000E+00 -0.28101762357E+04  0.28101762357E+04  0.00000000000E+00 0. -1.
    9900016    2    1    2    0    0  0.24734375851E+03  0.19922342828E+03 -0.10127220951E+04  0.12686556958E+04  0.69499088001E+03 0.  0.
         23    2    3    3    0    0 -0.66374553492E+02  0.33035954137E+03 -0.23498099187E+03  0.41983469987E+03  0.86614668211E+02 0.  0.
        -15    1    4    4    0    0  0.15418419547E+02  0.85084066028E+02 -0.36387919830E+02  0.93814213543E+02  0.00000000000E+00 0. -1.
        -15    1    1    2    0    0  0.20847563544E+02  0.44956198518E+01  0.42581488045E+02  0.47623677175E+02  0.00000000000E+00 0. -1.
         15    1    4    4    0    0 -0.81792973039E+02  0.24527547534E+03 -0.19859307204E+03  0.32602048633E+03  0.00000000000E+00 0.  1.
         15    1    1    2    0    0  0.48584063068E+02 -0.38085021489E+02  0.26215030349E+02  0.67067934679E+02  0.00000000000E+00 0.  1.
        -16    1    1    2    0    0 -0.70817927558E+03 -0.33269972281E+03 -0.44265429336E+03  0.89897153200E+03  0.00000000000E+00 0.  1.
         16    1    3    3    0    0  0.31371831200E+03 -0.13113611309E+03 -0.77774110327E+03  0.84882099595E+03  0.00000000000E+00 0. -1.
    9900018    1    1    2    0    0  0.39140389046E+03  0.16706569616E+03 -0.92719303022E+03  0.10242607314E+04  0.91187600000E+02 0.  0.
<mgrwt>
<rscale>  0 0.96837276E+03</rscale>
<asrwt>0</asrwt>
<pdfrwt beam="1">  1        2 0.43233481E+00 0.21240319E+04</pdfrwt>
<pdfrwt beam="2">  1       -2 0.76369743E-01 0.21240319E+04</pdfrwt>
<totfact> 0.32008870E+00</totfact>
</mgrwt>
</event>
<event>
12    1  0.1564109E-012  0.1760491E+04  0.7818608E-02  0.9176176E-01
         -1   -1    0    0    0  501 -0.00000000000E+00  0.00000000000E+00  0.47970307499E+03  0.47970307499E+03  0.00000000000E+00 0.  1.
          1   -1    0    0  501    0  0.00000000000E+00 -0.00000000000E+00 -0.22638339079E+04  0.22638339079E+04  0.00000000000E+00 0. -1.
         23    2    1    2    0    0  0.24755879541E+03  0.11536583421E+03 -0.42376004673E+03  0.51869188467E+03  0.12195926010E+03 0.  0.
    9900016    2    1    2    0    0 -0.61017518431E+03  0.35015250866E+02 -0.11400757411E+04  0.14757008092E+04  0.71019740873E+03 0.  0.
         23    2    4    4    0    0  0.30870188104E+02  0.13488559894E+03 -0.14090012307E+01  0.16517602863E+03  0.90188923013E+02 0.  0.
        -15    1    5    5    0    0  0.74801548674E+01  0.63057519839E+02 -0.45122792270E+02  0.77899100812E+02  0.00000000000E+00 0. -1.
        -15    1    3    3    0    0  0.15525676609E+03  0.63840280763E+02 -0.14959359357E+03  0.22485214721E+03  0.00000000000E+00 0.  1.
         15    1    3    3    0    0  0.92302029323E+02  0.51525553451E+02 -0.27416645316E+03  0.29383973746E+03  0.00000000000E+00 0. -1.
         15    1    5    5    0    0  0.23390033236E+02  0.71828079096E+02  0.43713791039E+02  0.87276927813E+02  0.00000000000E+00 0.  1.
        -16    1    1    2    0    0  0.49869184142E+03 -0.12072905755E+03 -0.57503840127E+02  0.51630974199E+03  0.00000000000E+00 0.  1.
         16    1    4    4    0    0 -0.64104537242E+03 -0.99870348069E+02 -0.11386667399E+04  0.13105247805E+04  0.00000000000E+00 0. -1.
    9900018    1    1    2    0    0 -0.13607545252E+03 -0.29652027528E+02 -0.16279120499E+03  0.23283454712E+03  0.91187600000E+02 0.  0.
<mgrwt>
<rscale>  0 0.11302751E+04</rscale>
<asrwt>0</asrwt>
<pdfrwt beam="1">  1        1 0.34828214E+00 0.17604906E+04</pdfrwt>
<pdfrwt beam="2">  1       -1 0.73800474E-01 0.17604906E+04</pdfrwt>
<totfact> 0.34300457E+00</totfact>
</mgrwt>
</event>
<event>
12    1  0.1564109E-012  0.1256854E+04  0.7818608E-02  0.9654944E-01
         -1   -1    0    0    0  501 -0.00000000000E+00  0.00000000000E+00  0.20478342134E+03  0.20478342134E+03  0.00000000000E+00 0.  1.
          1   -1    0    0  501    0  0.00000000000E+00 -0.00000000000E+00 -0.25740720159E+04  0.25740720159E+04  0.00000000000E+00 0. -1.
         23    2    1    2    0    0  0.12730754598E+03 -0.38616362039E+02 -0.85043268694E+02  0.17166184161E+03  0.67357224067E+02 0.  0.
    9900016    2    1    2    0    0  0.97927842132E+02  0.37822566024E+02 -0.14431734135E+04  0.16108398109E+04  0.70783824850E+03 0.  0.
         23    2    4    4    0    0 -0.18635186317E+02 -0.29466137159E+03 -0.37571523145E+03  0.48674040297E+03  0.92637415070E+02 0.  0.
        -15    1    5    5    0    0  0.28980674350E+02 -0.52220519275E+02 -0.49816426504E+02  0.77772350284E+02  0.00000000000E+00 0. -1.
        -15    1    3    3    0    0  0.10342237542E+03 -0.53518469561E+02 -0.83826733175E+02  0.14348287534E+03  0.00000000000E+00 0.  1.
         15    1    3    3    0    0  0.23885170553E+02  0.14902107522E+02 -0.12165355192E+01  0.28178966262E+02  0.00000000000E+00 0. -1.
         15    1    5    5    0    0 -0.47615860667E+02 -0.24244085231E+03 -0.32589880494E+03  0.40896805269E+03  0.00000000000E+00 0.  1.
        -16    1    1    2    0    0  0.55790626340E+01  0.20917039754E+03 -0.30280205978E+03  0.36806584812E+03  0.00000000000E+00 0.  1.
         16    1    4    4    0    0  0.11656302845E+03  0.33248393761E+03 -0.10674581821E+04  0.11240994079E+04  0.00000000000E+00 0. -1.
    9900018    1    1    2    0    0 -0.23081445074E+03 -0.20837660153E+03 -0.53826985258E+03  0.62828793664E+03  0.91187600000E+02 0.  0.
<mgrwt>
<rscale>  0 0.73763971E+03</rscale>
<asrwt>0</asrwt>
<pdfrwt beam="1">  1        1 0.39601108E+00 0.12568539E+04</pdfrwt>
<pdfrwt beam="2">  1       -1 0.31505141E-01 0.12568539E+04</pdfrwt>
<totfact> 0.11157365E+01</totfact>
</mgrwt>
</event>
<event>
12    1  0.1564109E-012  0.1779317E+04  0.7818608E-02  0.9351632E-01
         -2   -1    0    0    0  501 -0.00000000000E+00  0.00000000000E+00  0.50361245135E+03  0.50361245135E+03  0.00000000000E+00 0.  1.
          2   -1    0    0  501    0  0.00000000000E+00 -0.00000000000E+00 -0.19313772188E+04  0.19313772188E+04  0.00000000000E+00 0. -1.
         23    2    1    2    0    0 -0.22816561241E+02  0.95933049494E+02 -0.27729671993E+03  0.31613476380E+03  0.11542951332E+03 0.  0.
    9900016    2    1    2    0    0 -0.89343197211E+02  0.17691005619E+03 -0.12521439998E+03  0.76190482733E+03  0.72494202877E+03 0.  0.
         23    2    4    4    0    0 -0.12163483046E+03 -0.23022027749E+03  0.10211027241E+03  0.29449241322E+03  0.92210983957E+02 0.  0.
        -15    1    3    3    0    0  0.44801127666E+02  0.17097273128E+02 -0.87215297941E+02  0.99528719390E+02  0.00000000000E+00 0. -1.
        -15    1    5    5    0    0 -0.81699034529E+02 -0.20483536758E+03  0.54068038638E+02  0.22705861106E+03  0.00000000000E+00 0. -1.
         15    1    5    5    0    0 -0.39935795935E+02 -0.25384909914E+02  0.48042233769E+02  0.67433802161E+02  0.00000000000E+00 0.  1.
         15    1    3    3    0    0 -0.67617688907E+02  0.78835776366E+02 -0.19008142199E+03  0.21660604441E+03  0.00000000000E+00 0.  1.
        -16    1    1    2    0    0  0.95408874531E+02 -0.32580017712E+03 -0.11463169642E+04  0.11955296697E+04  0.00000000000E+00 0.  1.
         16    1    4    4    0    0  0.32291633254E+02  0.40713033368E+03 -0.22732467239E+03  0.46741241411E+03  0.00000000000E+00 0. -1.
    9900018    1    1    2    0    0  0.16750883921E+02  0.52957071431E+02  0.12106331663E+03  0.16142040935E+03  0.91187600000E+02 0.  0.
<mgrwt>
<rscale>  0 0.96165326E+03</rscale>
<asrwt>0</asrwt>
<pdfrwt beam="1">  1        2 0.29713495E+00 0.17793171E+04</pdfrwt>
<pdfrwt beam="2">  1       -2 0.77478840E-01 0.17793171E+04</pdfrwt>
<totfact> 0.10198002E+01</totfact>
</mgrwt>
</event>
<event>
12    1  0.1564109E-012  0.1689206E+04  0.7818608E-02  0.9338964E-01
          1   -1    0    0  501    0  0.00000000000E+00  0.00000000000E+00  0.14524615741E+04  0.14524615741E+04  0.00000000000E+00 0. -1.
         -1   -1    0    0    0  501 -0.00000000000E+00 -0.00000000000E+00 -0.61929092830E+03  0.61929092830E+03  0.00000000000E+00 0.  1.
         23    2    1    2    0    0 -0.12644905616E+03 -0.80674977594E+02 -0.54483504742E+01  0.18583101417E+03  0.10957036776E+03 0.  0.
    9900016    2    1    2    0    0  0.39066772974E+03  0.19240903650E+03  0.31697584882E+03  0.89331406203E+03  0.71266669089E+03 0.  0.
         23    2    4    4    0    0 -0.18091359277E+02  0.24296744642E+03 -0.12553633423E+03  0.28878351871E+03  0.90972919967E+02 0.  0.
        -15    1    5    5    0    0 -0.42075199829E+02  0.14492833446E+03 -0.39089285867E+02  0.15589264524E+03  0.00000000000E+00 0.  1.
        -15    1    3    3    0    0 -0.38492096108E+01 -0.60462623604E+02 -0.10430521182E+02  0.61476345368E+02  0.00000000000E+00 0.  1.
         15    1    3    3    0    0 -0.12259984655E+03 -0.20212353991E+02  0.49821707074E+01  0.12435466880E+03  0.00000000000E+00 0. -1.
         15    1    5    5    0    0  0.23983840552E+02  0.98039111954E+02 -0.86447048361E+02  0.13289087347E+03  0.00000000000E+00 0. -1.
        -16    1    4    4    0    0  0.40875908902E+03 -0.50558409917E+02  0.44251218305E+03  0.60453054332E+03  0.00000000000E+00 0.  1.
         16    1    1    2    0    0 -0.50837309494E+03 -0.21738381857E+03  0.27031895314E+03  0.61544395737E+03  0.00000000000E+00 0. -1.
    9900018    1    1    2    0    0  0.24415442136E+03  0.10564975966E+03  0.25132419435E+03  0.37716346886E+03  0.91187600000E+02 0.  0.
<mgrwt>
<rscale>  0 0.97273578E+03</rscale>
<asrwt>0</asrwt>
<pdfrwt beam="1">  1        1 0.22345563E+00 0.16892063E+04</pdfrwt>
<pdfrwt beam="2">  1       -1 0.95275528E-01 0.16892063E+04</pdfrwt>
<totfact> 0.71185680E+00</totfact>
</mgrwt>
</event>
