<event>
11    1  0.6082303E-015  0.3825354E+04  0.7818608E-02  0.8224644E-01
          1   -1    0    0  501    0  0.00000000000E+00  0.00000000000E+00  0.32201723094E+04  0.32201723094E+04  0.00000000000E+00 0. -1.
         -1   -1    0    0    0  501 -0.00000000000E+00 -0.00000000000E+00 -0.25355105914E+04  0.25355105914E+04  0.00000000000E+00 0.  1.
    9900016    2    1    2    0    0 -0.24768213075E+03 -0.37867403453E+03  0.82273025123E+03  0.24238923301E+04  0.22346428125E+04 0.  0.
        -24    2    3    3    0    0  0.56546470033E+02 -0.32891198614E+03 -0.72085076916E+03  0.79952278371E+03  0.90720738425E+02 0.  0.
        -15    1    1    2    0    0 -0.91136730378E+03 -0.17525485025E+03 -0.81125872447E+03  0.12326578369E+04  0.00000000000E+00 0.  1.
        -15    1    3    3    0    0 -0.28291972423E+03 -0.28373416872E+02  0.14847460493E+04  0.15117273075E+04  0.00000000000E+00 0.  1.
         15    1    4    4    0    0  0.40140252538E+02 -0.46666110083E+02 -0.16024421995E+03  0.17166005864E+03  0.00000000000E+00 0. -1.
         15    1    1    2    0    0 -0.35777852147E+03  0.26103366138E+03  0.17025264289E+03  0.47447866676E+03  0.00000000000E+00 0. -1.
        -16    1    4    4    0    0  0.16406217495E+02 -0.28224587606E+03 -0.56060654920E+03  0.62786272507E+03  0.00000000000E+00 0.  1.
         16    1    1    2    0    0  0.15168279560E+04  0.29289522340E+03  0.50293754837E+03  0.16246540670E+04  0.00000000000E+00 0. -1.
    9900018    1    3    3    0    0 -0.21308876556E+02 -0.21388631519E+02  0.58834971074E+02  0.11264223894E+03  0.91187600000E+02 0.  0.
<mgrwt>
<rscale>  0 0.30677543E+04</rscale>
<asrwt>0</asrwt>
<pdfrwt beam="1">  1        1 0.49541112E+00 0.38253539E+04</pdfrwt>
<pdfrwt beam="2">  1       -1 0.39007855E+00 0.38253539E+04</pdfrwt>
<totfact> 0.25759165E-03</totfact>
</mgrwt>
</event>
<event>
11    1  0.6082303E-015  0.4034981E+04  0.7818608E-02  0.8123476E-01
          1   -1    0    0  501    0  0.00000000000E+00  0.00000000000E+00  0.28628336210E+04  0.28628336210E+04  0.00000000000E+00 0. -1.
         -1   -1    0    0    0  501 -0.00000000000E+00 -0.00000000000E+00 -0.33961082439E+04  0.33961082439E+04  0.00000000000E+00 0.  1.
    9900016    2    1    2    0    0 -0.19948164125E+03  0.22283283831E+03  0.92705212251E+03  0.24525612787E+04  0.22508184709E+04 0.  0.
         24    2    3    3    0    0  0.94042309569E+03 -0.21512561639E+03  0.29272547415E+03  0.10132391936E+04  0.10144373077E+03 0.  0.
        -15    1    4    4    0    0  0.22399637847E+03 -0.84925669120E+02  0.10304648938E+03  0.26077830780E+03  0.00000000000E+00 0.  1.
        -15    1    1    2    0    0 -0.60087658358E+03 -0.22324256846E+03 -0.53033615301E+03  0.83195333298E+03  0.00000000000E+00 0.  1.
         15    1    3    3    0    0 -0.10925393009E+04  0.44885906280E+03  0.62296936239E+03  0.13353678927E+04  0.00000000000E+00 0. -1.
         15    1    1    2    0    0  0.11097225926E+04  0.49233220562E+03  0.58805463643E+03  0.13489564443E+04  0.00000000000E+00 0. -1.
        -16    1    1    2    0    0 -0.30936436781E+03 -0.49192247546E+03 -0.15180452288E+04  0.16254708089E+04  0.00000000000E+00 0.  1.
         16    1    4    4    0    0  0.71642671722E+03 -0.13019994727E+03  0.18967898478E+03  0.75246088581E+03  0.00000000000E+00 0. -1.
    9900018    1    3    3    0    0 -0.47365436042E+02 -0.10900608109E+02  0.11357285963E+02  0.10395419244E+03  0.91187600000E+02 0.  0.
<mgrwt>
<rscale>  0 0.34594139E+04</rscale>
<asrwt>0</asrwt>
<pdfrwt beam="1">  1        1 0.44043594E+00 0.40349811E+04</pdfrwt>
<pdfrwt beam="2">  1       -1 0.52247819E+00 0.40349811E+04</pdfrwt>
<totfact> 0.59478112E-04</totfact>
</mgrwt>
</event>
<event>
11    1  0.6082303E-015  0.3419322E+04  0.7818608E-02  0.8471725E-01
          1   -1    0    0  501    0  0.00000000000E+00  0.00000000000E+00  0.11680953394E+04  0.11680953394E+04  0.00000000000E+00 0. -1.
         -1   -1    0    0    0  501 -0.00000000000E+00 -0.00000000000E+00 -0.37609671209E+04  0.37609671209E+04  0.00000000000E+00 0.  1.
    9900016    2    1    2    0    0 -0.42536514272E+03  0.63745069686E+03 -0.13463717715E+04  0.26590733419E+04  0.21611744943E+04 0.  0.
         24    2    3    3    0    0 -0.10274558770E+04  0.50512795290E+03 -0.16190339525E+04  0.19850056703E+04  0.90314692499E+02 0.  0.
        -15    1    1    2    0    0  0.14839741113E+03  0.17740800456E+02 -0.13291375849E+03  0.20000648696E+03  0.00000000000E+00 0.  1.
        -15    1    4    4    0    0 -0.86179327449E+03  0.38623375174E+03 -0.13183271857E+04  0.16216814507E+04  0.00000000000E+00 0.  1.
         15    1    3    3    0    0  0.60209073430E+03  0.13232274396E+03  0.27266218102E+03  0.67406767157E+03  0.00000000000E+00 0. -1.
         15    1    1    2    0    0 -0.53074654959E+03 -0.90045080866E+02 -0.39578727917E+02  0.53978374577E+03  0.00000000000E+00 0. -1.
        -16    1    1    2    0    0  0.81761417199E+03 -0.57117503878E+03 -0.99783000325E+03  0.14108148619E+04  0.00000000000E+00 0.  1.
         16    1    4    4    0    0 -0.16566260253E+03  0.11889420116E+03 -0.30070676682E+03  0.36332421962E+03  0.00000000000E+00 0. -1.
    9900018    1    1    2    0    0 -0.98998908079E+01  0.60286223253E+01 -0.76177520428E+02  0.11938402380E+03  0.91187600000E+02 0.  0.
<mgrwt>
<rscale>  0 0.23157816E+04</rscale>
<asrwt>0</asrwt>
<pdfrwt beam="1">  1        1 0.17970697E+00 0.34193224E+04</pdfrwt>
<pdfrwt beam="2">  1       -1 0.57861033E+00 0.34193224E+04</pdfrwt>
<totfact> 0.48943617E-03</totfact>
</mgrwt>
</event>
