<event>
 9    1  0.2698637E-014  0.2211398E+04  0.7818608E-02  0.8827080E-01
         -2   -1    0    0    0  501 -0.00000000000E+00  0.00000000000E+00  0.66535970880E+03  0.66535970880E+03  0.00000000000E+00 0.  1.
          2   -1    0    0  501    0  0.00000000000E+00 -0.00000000000E+00 -0.34460892012E+04  0.34460892012E+04  0.00000000000E+00 0. -1.
        -15    1    1    2    0    0 -0.54318861859E+02 -0.58298911313E+03 -0.68700896503E+03  0.90266724923E+03  0.00000000000E+00 0.  1.
        -15    1    1    2    0    0  0.39072096403E+02  0.12885109941E+03 -0.53347516417E+03  0.55020449410E+03  0.00000000000E+00 0.  1.
         15    1    1    2    0    0  0.78300918677E+02  0.64959636585E+03 -0.28974596216E+03  0.71558311535E+03  0.00000000000E+00 0. -1.
         15    1    1    2    0    0  0.47345287021E+02  0.42882288640E+03 -0.82781102608E+03  0.93348901386E+03  0.00000000000E+00 0. -1.
        -16    1    1    2    0    0 -0.27092211559E+03 -0.16125068407E+03  0.20550939391E+02  0.31594764905E+03  0.00000000000E+00 0.  1.
         16    1    1    2    0    0  0.48283395454E+02 -0.21913991203E+03 -0.26678515006E+03  0.34860852487E+03  0.00000000000E+00 0. -1.
    9900018    1    1    2    0    0  0.11223927990E+03 -0.24389064242E+03 -0.19645416433E+03  0.34494886359E+03  0.91187600000E+02 0.  0.
<mgrwt>
<rscale>  0 0.15894100E+04</rscale>
<asrwt>0</asrwt>
<pdfrwt beam="1">  1        2 0.53016757E+00 0.22113976E+04</pdfrwt>
<pdfrwt beam="2">  1       -2 0.10236303E+00 0.22113976E+04</pdfrwt>
<totfact> 0.62262952E-01</totfact>
</mgrwt>
</event>
<event>
10    1  0.2698637E-014  0.2697369E+04  0.7818608E-02  0.8335859E-01
         -2   -1    0    0    0  501 -0.00000000000E+00  0.00000000000E+00  0.82180187006E+03  0.82180187006E+03  0.00000000000E+00 0.  1.
          2   -1    0    0  501    0  0.00000000000E+00 -0.00000000000E+00 -0.22133677374E+04  0.22133677374E+04  0.00000000000E+00 0. -1.
        -24    2    1    2    0    0 -0.25199177044E+03  0.75770015257E+03 -0.72717482606E+03  0.10816834669E+04  0.60386433626E+02 0.  0.
        -15    1    1    2    0    0  0.19066510853E+03 -0.40980878241E+03 -0.35484603251E+03  0.57464086918E+03  0.00000000000E+00 0.  1.
        -15    1    1    2    0    0 -0.75561768011E+02  0.97554766584E+01  0.22082894632E+02  0.79324676773E+02  0.00000000000E+00 0.  1.
         15    1    3    3    0    0 -0.48823970397E+02  0.22862465039E+03 -0.22502400228E+03  0.32448237618E+03  0.00000000000E+00 0. -1.
         15    1    1    2    0    0  0.34525722179E+02 -0.94889158972E+02  0.26696980453E+02  0.10444475452E+03  0.00000000000E+00 0. -1.
        -16    1    3    3    0    0 -0.20316780005E+03  0.52907550218E+03 -0.50215082378E+03  0.75720109073E+03  0.00000000000E+00 0.  1.
         16    1    1    2    0    0  0.17756736084E+03  0.41490219556E+03 -0.16521428039E+03  0.48059313141E+03  0.00000000000E+00 0. -1.
    9900018    1    1    2    0    0 -0.75204653098E+02 -0.67765988341E+03 -0.19311060351E+03  0.71448270869E+03  0.91187600000E+02 0.  0.
<mgrwt>
<rscale>  0 0.26973689E+04</rscale>
<asrwt>0</asrwt>
<pdfrwt beam="1">  1        2 0.34051810E+00 0.26973689E+04</pdfrwt>
<pdfrwt beam="2">  1       -2 0.12643106E+00 0.26973689E+04</pdfrwt>
<totfact> 0.20748223E+00</totfact>
</mgrwt>
</event>
<event>
11    1  0.2698637E-014  0.2317012E+04  0.7818608E-02  0.8796008E-01
          2   -1    0    0  501    0  0.00000000000E+00  0.00000000000E+00  0.11055158374E+04  0.11055158374E+04  0.00000000000E+00 0. -1.
         -2   -1    0    0    0  501 -0.00000000000E+00 -0.00000000000E+00 -0.20986905956E+04  0.20986905956E+04  0.00000000000E+00 0.  1.
         23    2    1    2    0    0 -0.26441208854E+03  0.22350845880E+03 -0.40444517106E+03  0.54522684599E+03  0.11758670617E+03 0.  0.
        -24    2    1    2    0    0 -0.49307288530E+03 -0.30601017739E+03 -0.63168402595E+03  0.85916436546E+03  0.48740120668E+02 0.  0.
        -15    1    3    3    0    0 -0.45322678612E+02  0.13376521087E+02 -0.11423298778E+02  0.48616543151E+02  0.00000000000E+00 0.  1.
        -15    1    1    2    0    0  0.95806420271E+03  0.21737495757E+03 -0.13080970209E+03  0.99108529747E+03  0.00000000000E+00 0.  1.
         15    1    4    4    0    0 -0.26047508077E+03 -0.17411417344E+03 -0.30841471069E+03  0.43963922353E+03  0.00000000000E+00 0. -1.
         15    1    3    3    0    0 -0.21908940993E+03  0.21013193771E+03 -0.39302187228E+03  0.49661030284E+03  0.00000000000E+00 0. -1.
        -16    1    4    4    0    0 -0.23259780453E+03 -0.13189600396E+03 -0.32326931525E+03  0.41952514194E+03  0.00000000000E+00 0.  1.
         16    1    1    2    0    0 -0.32960450347E+03 -0.66916512097E+02  0.40123809580E+03  0.52355415939E+03  0.00000000000E+00 0. -1.
    9900018    1    1    2    0    0  0.12902527460E+03 -0.67956726879E+02 -0.22747395485E+03  0.28517576465E+03  0.91187600000E+02 0.  0.
<mgrwt>
<rscale>  0 0.16405650E+04</rscale>
<asrwt>0</asrwt>
<pdfrwt beam="1">  1        2 0.17007936E+00 0.23170125E+04</pdfrwt>
<pdfrwt beam="2">  1       -2 0.32287548E+00 0.23170125E+04</pdfrwt>
<totfact> 0.44080069E-01</totfact>
</mgrwt>
</event>
<event>
11    1  0.2698637E-014  0.2105106E+04  0.7818608E-02  0.8824812E-01
         -1   -1    0    0    0  501 -0.00000000000E+00  0.00000000000E+00  0.74668010033E+03  0.74668010033E+03  0.00000000000E+00 0.  1.
          1   -1    0    0  501    0  0.00000000000E+00 -0.00000000000E+00 -0.26680351835E+04  0.26680351835E+04  0.00000000000E+00 0. -1.
         23    2    1    2    0    0 -0.45520515385E+03  0.19199171798E+03 -0.22426041328E+03  0.55333594285E+03  0.10869857779E+03 0.  0.
         24    2    1    2    0    0 -0.11896909942E+03 -0.67360562699E+03 -0.27877400493E+03  0.74459458822E+03  0.93850773339E+02 0.  0.
        -15    1    3    3    0    0 -0.29884824928E+03  0.68471988681E+02 -0.13657282134E+03  0.33563495775E+03  0.00000000000E+00 0.  1.
        -15    1    4    4    0    0 -0.91260297022E+02 -0.63596893882E+03 -0.27062328190E+03  0.69715270469E+03  0.00000000000E+00 0.  1.
         15    1    3    3    0    0 -0.15635690457E+03  0.12351972930E+03 -0.87687591937E+02  0.21770098510E+03  0.00000000000E+00 0. -1.
         15    1    1    2    0    0  0.55274935979E+03  0.43864950488E+03 -0.15766331385E+04  0.17273440006E+04  0.00000000000E+00 0. -1.
        -16    1    1    2    0    0  0.18529176645E+01 -0.11911467775E+03  0.16358974244E+03  0.20236932473E+03  0.00000000000E+00 0.  1.
         16    1    4    4    0    0 -0.27708802398E+02 -0.37636688170E+02 -0.81507230266E+01  0.47441883527E+02  0.00000000000E+00 0. -1.
    9900018    1    1    2    0    0  0.19571975813E+02  0.16207908187E+03 -0.52772689051E+01  0.18707142748E+03  0.91187600000E+02 0.  0.
<mgrwt>
<rscale>  0 0.15930773E+04</rscale>
<asrwt>0</asrwt>
<pdfrwt beam="1">  1        1 0.41046695E+00 0.21051062E+04</pdfrwt>
<pdfrwt beam="2">  1       -1 0.11487386E+00 0.21051062E+04</pdfrwt>
<totfact> 0.64336978E-01</totfact>
</mgrwt>
</event>
<event>
10    1  0.2698637E-014  0.1240031E+04  0.7818608E-02  0.9219127E-01
          2   -1    0    0  501    0  0.00000000000E+00  0.00000000000E+00  0.13650197463E+04  0.13650197463E+04  0.00000000000E+00 0.  1.
         -2   -1    0    0    0  501 -0.00000000000E+00 -0.00000000000E+00 -0.10299422861E+04  0.10299422861E+04  0.00000000000E+00 0. -1.
         23    2    1    2    0    0 -0.74736276682E+02  0.14808441737E+03 -0.50642893111E+02  0.20513420283E+03  0.10954831276E+03 0.  0.
        -15    1    1    2    0    0 -0.19715470648E+03 -0.37118944909E+03 -0.65039421946E+02  0.42530190666E+03  0.00000000000E+00 0.  1.
        -15    1    3    3    0    0 -0.47086604417E+02  0.11281214505E+03  0.17584939878E+02  0.12350286837E+03  0.00000000000E+00 0.  1.
         15    1    3    3    0    0 -0.27649672265E+02  0.35272272322E+02 -0.68227832989E+02  0.81631334459E+02  0.00000000000E+00 0. -1.
         15    1    1    2    0    0 -0.80261995645E+01  0.35205048848E+03  0.38492357841E+03  0.52169926925E+03  0.00000000000E+00 0. -1.
        -16    1    1    2    0    0  0.24341547872E+02  0.37605736030E+03  0.40429251655E+03  0.55268805680E+03  0.00000000000E+00 0.  1.
         16    1    1    2    0    0  0.11711901165E+03 -0.80253152055E+02 -0.11316018095E+03  0.18155621129E+03  0.00000000000E+00 0. -1.
    9900018    1    1    2    0    0  0.13845662320E+03 -0.42474966501E+03 -0.22529613872E+03  0.50858238561E+03  0.91187600000E+02 0.  0.
<mgrwt>
<rscale>  0 0.10858172E+04</rscale>
<asrwt>0</asrwt>
<pdfrwt beam="1">  1        2 0.21000304E+00 0.12400305E+04</pdfrwt>
<pdfrwt beam="2">  1       -2 0.15845266E+00 0.12400305E+04</pdfrwt>
<totfact> 0.37950950E+00</totfact>
</mgrwt>
</event>
<event>
10    1  0.2698637E-014  0.1706420E+04  0.7818608E-02  0.8929932E-01
         -1   -1    0    0    0  501 -0.00000000000E+00  0.00000000000E+00  0.12304641074E+04  0.12304641074E+04  0.00000000000E+00 0. -1.
          1   -1    0    0  501    0  0.00000000000E+00 -0.00000000000E+00 -0.14856963073E+04  0.14856963073E+04  0.00000000000E+00 0.  1.
         24    2    1    2    0    0 -0.13516238299E+03 -0.62133013711E+03  0.66553492555E+03  0.92656341543E+03  0.10612736042E+03 0.  0.
        -15    1    1    2    0    0  0.28143648642E+02  0.97171571933E+02 -0.47548538297E+02  0.11178212221E+03  0.00000000000E+00 0.  1.
        -15    1    3    3    0    0 -0.67371683303E+02 -0.37050389200E+03  0.31959540590E+03  0.49391628964E+03  0.00000000000E+00 0.  1.
         15    1    1    2    0    0 -0.53387425628E+01 -0.66090243377E+02  0.95339231315E+02  0.11612920162E+03  0.00000000000E+00 0. -1.
         15    1    1    2    0    0 -0.18821799125E+03  0.72380501098E+03 -0.46206248062E+03  0.87910263459E+03  0.00000000000E+00 0. -1.
        -16    1    1    2    0    0  0.16449575531E+03 -0.16045812006E+03 -0.45338059113E+03  0.50829088348E+03  0.00000000000E+00 0.  1.
         16    1    3    3    0    0 -0.67790699686E+02 -0.25082624511E+03  0.34593951965E+03  0.43264712579E+03  0.00000000000E+00 0. -1.
    9900018    1    1    2    0    0  0.13607971285E+03  0.26901917633E+02 -0.53114746725E+02  0.17429215741E+03  0.91187600000E+02 0.  0.
<mgrwt>
<rscale>  0 0.14334836E+04</rscale>
<asrwt>0</asrwt>
<pdfrwt beam="1">  1        1 0.22856866E+00 0.17064195E+04</pdfrwt>
<pdfrwt beam="2">  1       -1 0.18930217E+00 0.17064195E+04</pdfrwt>
<totfact> 0.11139432E+00</totfact>
</mgrwt>
</event>
<event>
10    1  0.2698637E-014  0.1948564E+04  0.7818608E-02  0.8735006E-01
         -2   -1    0    0    0  501 -0.00000000000E+00  0.00000000000E+00  0.29879426706E+04  0.29879426706E+04  0.00000000000E+00 0.  1.
          2   -1    0    0  501    0  0.00000000000E+00 -0.00000000000E+00 -0.96816918789E+03  0.96816918789E+03  0.00000000000E+00 0. -1.
        -24    2    1    2    0    0 -0.26721797902E+03 -0.70084067193E+03 -0.21320656513E+03  0.78137225175E+03  0.50024600458E+02 0.  0.
        -15    1    1    2    0    0 -0.42256778068E+02  0.69998447806E+03  0.94468221501E+03  0.11765153599E+04  0.00000000000E+00 0.  1.
        -15    1    1    2    0    0  0.21930333062E+01 -0.25103528197E+03 -0.81052932453E+02  0.26380504174E+03  0.00000000000E+00 0.  1.
         15    1    1    2    0    0  0.11745000774E+03 -0.24458698010E+03  0.79226491338E+03  0.83743715474E+03  0.00000000000E+00 0. -1.
         15    1    3    3    0    0 -0.15612558436E+03 -0.35987897727E+03 -0.12973916214E+03  0.41318316346E+03  0.00000000000E+00 0. -1.
        -16    1    3    3    0    0 -0.11109239466E+03 -0.34096169466E+03 -0.83467402990E+02  0.36818908829E+03  0.00000000000E+00 0.  1.
         16    1    1    2    0    0  0.28029299478E+03  0.46968248593E+03  0.51713047481E+03  0.75272154777E+03  0.00000000000E+00 0. -1.
    9900018    1    1    2    0    0 -0.90461278724E+02  0.26795970005E+02  0.59955377050E+02  0.14426050252E+03  0.91187600000E+02 0.  0.
<mgrwt>
<rscale>  0 0.17469953E+04</rscale>
<asrwt>0</asrwt>
<pdfrwt beam="1">  1        2 0.14894911E+00 0.19485640E+04</pdfrwt>
<pdfrwt beam="2">  1       -2 0.45968349E+00 0.19485640E+04</pdfrwt>
<totfact> 0.71726404E-02</totfact>
</mgrwt>
</event>
