<event>
11    1  0.3392939E-014  0.1151601E+04  0.7818608E-02  0.9156308E-01
         -1   -1    0    0    0  501 -0.00000000000E+00  0.00000000000E+00  0.15844561083E+03  0.15844561083E+03  0.00000000000E+00 0.  1.
          1   -1    0    0  501    0  0.00000000000E+00 -0.00000000000E+00 -0.20924921428E+04  0.20924921428E+04  0.00000000000E+00 0. -1.
    9900016    2    1    2    0    0 -0.19703489943E+02 -0.19673723234E+03 -0.18537421772E+04  0.20375307353E+04  0.82223942470E+03 0.  0.
         23    2    3    3    0    0 -0.54135810723E+02 -0.89260379933E+02  0.55799063706E+01  0.12887029234E+03  0.75354598156E+02 0.  0.
        -15    1    3    3    0    0  0.90863476106E+00 -0.50366661878E+02 -0.15677859418E+03  0.16467286917E+03  0.00000000000E+00 0. -1.
        -15    1    4    4    0    0 -0.51431193616E+02 -0.61558410177E+02 -0.28265200550E+02  0.85050144635E+02  0.00000000000E+00 0.  1.
         15    1    3    3    0    0  0.49851465841E+02 -0.23329344316E+02 -0.75055961805E+02  0.93074294814E+02  0.00000000000E+00 0.  1.
         15    1    4    4    0    0 -0.27046171067E+01 -0.27701969756E+02  0.33845106921E+02  0.43820147701E+02  0.00000000000E+00 0. -1.
        -16    1    1    2    0    0  0.19703489943E+02  0.19673723234E+03 -0.80304354814E+02  0.21340701841E+03  0.00000000000E+00 0.  1.
         16    1    3    3    0    0 -0.27431515578E+02 -0.70997077241E+02 -0.13374132105E+03  0.15388246808E+03  0.00000000000E+00 0. -1.
    9900018    1    3    3    0    0  0.11103735756E+02  0.37216231027E+02 -0.14937462065E+04  0.14970308109E+04  0.91187600000E+02 0.  0.
<mgrwt>
<rscale>  0 0.11516010E+04</rscale>
<asrwt>0</asrwt>
<pdfrwt beam="1">  1        1 0.32192183E+00 0.11516010E+04</pdfrwt>
<pdfrwt beam="2">  1       -1 0.24376250E-01 0.11516010E+04</pdfrwt>
<totfact> 0.37573249E+01</totfact>
</mgrwt>
</event>
<event>
10    1  0.3392939E-014  0.1055911E+04  0.7818608E-02  0.9249262E-01
         -2   -1    0    0    0  501 -0.00000000000E+00  0.00000000000E+00  0.62951676807E+03  0.62951676807E+03  0.00000000000E+00 0.  1.
          2   -1    0    0  501    0  0.00000000000E+00 -0.00000000000E+00 -0.44277970943E+03  0.44277970943E+03  0.00000000000E+00 0. -1.
    9900016    2    1    2    0    0 -0.10915066984E+03 -0.16721511677E+02  0.11679835381E+03  0.80523216035E+03  0.78902693169E+03 0.  0.
        -15    1    3    3    0    0  0.15543520310E+03  0.12974592354E+03 -0.35328425253E+02  0.20552908473E+03  0.00000000000E+00 0.  1.
        -15    1    3    3    0    0 -0.30093520540E+02  0.39895074685E+02  0.35214198008E+02  0.61133270025E+02  0.00000000000E+00 0.  1.
         15    1    3    3    0    0 -0.12655816418E+03 -0.10049329940E+03  0.19882642897E+03  0.25621830731E+03  0.00000000000E+00 0. -1.
         15    1    3    3    0    0  0.50305449428E+02  0.39936996430E+02 -0.40691621806E+02  0.76035583849E+02  0.00000000000E+00 0. -1.
        -16    1    3    3    0    0 -0.15823963765E+03 -0.12580620693E+03 -0.41222226108E+02  0.20631591444E+03  0.00000000000E+00 0.  1.
         16    1    1    2    0    0  0.61256443401E+02 -0.41831715782E+02 -0.56907413149E+02  0.93491700031E+02  0.00000000000E+00 0. -1.
    9900018    1    1    2    0    0  0.47894226441E+02  0.58553227458E+02  0.12684611798E+03  0.17357261712E+03  0.91187600000E+02 0.  0.
<mgrwt>
<rscale>  0 0.10559115E+04</rscale>
<asrwt>0</asrwt>
<pdfrwt beam="1">  1        2 0.68119955E-01 0.10559115E+04</pdfrwt>
<pdfrwt beam="2">  1       -2 0.96848734E-01 0.10559115E+04</pdfrwt>
<totfact> 0.62843546E+01</totfact>
</mgrwt>
</event>
<event>
10    1  0.3392939E-014  0.1058077E+04  0.7818608E-02  0.9247044E-01
         -2   -1    0    0    0  501 -0.00000000000E+00  0.00000000000E+00  0.34026398397E+03  0.34026398397E+03  0.00000000000E+00 0. -1.
          2   -1    0    0  501    0  0.00000000000E+00 -0.00000000000E+00 -0.82254347949E+03  0.82254347949E+03  0.00000000000E+00 0.  1.
    9900016    2    1    2    0    0  0.36632322231E+02  0.20489973880E+03 -0.43441322496E+03  0.94922607418E+03  0.81791775864E+03 0.  0.
        -15    1    3    3    0    0  0.34738060673E+02 -0.60511801171E+02 -0.53012724616E+02  0.87628533661E+02  0.00000000000E+00 0.  1.
        -15    1    3    3    0    0  0.92588124012E+02  0.66365110979E+02 -0.16899914389E+03  0.20380775083E+03  0.00000000000E+00 0. -1.
         15    1    3    3    0    0 -0.43541276909E+01 -0.14130922463E+02 -0.55920148895E+02  0.57842064711E+02  0.00000000000E+00 0.  1.
         15    1    3    3    0    0 -0.78623243542E+02  0.32075435994E+02 -0.67248552833E+02  0.10831812349E+03  0.00000000000E+00 0. -1.
        -16    1    1    2    0    0 -0.36632322231E+02 -0.20489973880E+03 -0.47866270558E+02  0.21358138928E+03  0.00000000000E+00 0.  1.
         16    1    3    3    0    0  0.10432027411E+03  0.75844329000E+02  0.14689559073E+03  0.19548247084E+03  0.00000000000E+00 0. -1.
    9900018    1    3    3    0    0 -0.11203676533E+03  0.10525758646E+03 -0.23612824545E+03  0.29614713064E+03  0.91187600000E+02 0.  0.
<mgrwt>
<rscale>  0 0.10580774E+04</rscale>
<asrwt>0</asrwt>
<pdfrwt beam="1">  1        2 0.12654515E+00 0.10580774E+04</pdfrwt>
<pdfrwt beam="2">  1       -2 0.52348305E-01 0.10580774E+04</pdfrwt>
<totfact> 0.11376306E+02</totfact>
</mgrwt>
</event>
<event>
11    1  0.3392939E-014  0.1152555E+04  0.7818608E-02  0.9155430E-01
         -1   -1    0    0    0  501 -0.00000000000E+00  0.00000000000E+00  0.80897226305E+03  0.80897226305E+03  0.00000000000E+00 0. -1.
          1   -1    0    0  501    0  0.00000000000E+00 -0.00000000000E+00 -0.41051569737E+03  0.41051569737E+03  0.00000000000E+00 0.  1.
    9900016    2    1    2    0    0 -0.12599086860E+03  0.30999180705E+02  0.18282190041E+02  0.61106409247E+03  0.59685043224E+03 0.  0.
         23    2    3    3    0    0 -0.17519742883E+03  0.10717751819E+03  0.47936726801E+02  0.22138302624E+03  0.67315340442E+02 0.  0.
        -15    1    3    3    0    0 -0.45927712931E+02  0.32296518605E+02 -0.93327071423E+02  0.10891447190E+03  0.00000000000E+00 0.  1.
        -15    1    4    4    0    0 -0.83665520975E+02  0.50718409698E+02 -0.11492902840E+02  0.98510726817E+02  0.00000000000E+00 0.  1.
         15    1    3    3    0    0  0.90694372607E+02  0.78102417945E+01 -0.61499416967E+02  0.10985739569E+03  0.00000000000E+00 0. -1.
         15    1    4    4    0    0 -0.91531907852E+02  0.56459108491E+02  0.59429629641E+02  0.12287229942E+03  0.00000000000E+00 0. -1.
        -16    1    1    2    0    0 -0.10324044340E+03 -0.73840983790E+02  0.32929619246E+03  0.35291225880E+03  0.00000000000E+00 0.  1.
         16    1    3    3    0    0  0.44399005524E+01 -0.11628509788E+03  0.12517195163E+03  0.17090919865E+03  0.00000000000E+00 0. -1.
    9900018    1    1    2    0    0  0.22923131200E+03  0.42841803085E+02  0.50878183170E+02  0.25551160914E+03  0.91187600000E+02 0.  0.
<mgrwt>
<rscale>  0 0.11525551E+04</rscale>
<asrwt>0</asrwt>
<pdfrwt beam="1">  1        1 0.63156261E-01 0.11525551E+04</pdfrwt>
<pdfrwt beam="2">  1       -1 0.12445727E+00 0.11525551E+04</pdfrwt>
<totfact> 0.32565508E+01</totfact>
</mgrwt>
</event>
<event>
11    1  0.3392939E-014  0.1012317E+04  0.7818608E-02  0.9295138E-01
         -1   -1    0    0    0  501 -0.00000000000E+00  0.00000000000E+00  0.10099662939E+04  0.10099662939E+04  0.00000000000E+00 0.  1.
          1   -1    0    0  501    0  0.00000000000E+00 -0.00000000000E+00 -0.25366845005E+03  0.25366845005E+03  0.00000000000E+00 0. -1.
    9900016    2    1    2    0    0 -0.17991024088E+03 -0.42444408938E+02  0.49729840681E+03  0.94543680084E+03  0.78254445007E+03 0.  0.
         23    2    3    3    0    0  0.96246464384E+02 -0.17659437520E+03  0.16343190747E+03  0.26696663474E+03  0.64126752837E+02 0.  0.
        -15    1    4    4    0    0  0.68820228736E+02 -0.71695196564E+02  0.10172156259E+03  0.14221006079E+03  0.00000000000E+00 0.  1.
        -15    1    3    3    0    0 -0.62520818143E+02 -0.32611676074E+02  0.39453845941E+02  0.80802104410E+02  0.00000000000E+00 0.  1.
         15    1    4    4    0    0  0.27426235648E+02 -0.10489917863E+03  0.61710344876E+02  0.12475657395E+03  0.00000000000E+00 0. -1.
         15    1    3    3    0    0 -0.85903832858E+00  0.64034826033E+02  0.35303442420E+02  0.73126807250E+02  0.00000000000E+00 0. -1.
        -16    1    1    2    0    0  0.17991024088E+03  0.42444408938E+02  0.25899943708E+03  0.31819794316E+03  0.00000000000E+00 0.  1.
         16    1    3    3    0    0 -0.20643065726E+03  0.18084006127E+03  0.29115126197E+03  0.40010723733E+03  0.00000000000E+00 0. -1.
    9900018    1    3    3    0    0 -0.63461915322E+01 -0.78113244971E+02 -0.32042050985E+02  0.12443401710E+03  0.91187600000E+02 0.  0.
<mgrwt>
<rscale>  0 0.10123173E+04</rscale>
<asrwt>0</asrwt>
<pdfrwt beam="1">  1        1 0.39025916E-01 0.10123173E+04</pdfrwt>
<pdfrwt beam="2">  1       -1 0.15537943E+00 0.10123173E+04</pdfrwt>
<totfact> 0.34666188E+01</totfact>
</mgrwt>
</event>
<event>
11    1  0.3392939E-014  0.1484840E+04  0.7818608E-02  0.8894597E-01
          2   -1    0    0  501    0  0.00000000000E+00  0.00000000000E+00  0.74935857188E+03  0.74935857188E+03  0.00000000000E+00 0. -1.
         -2   -1    0    0    0  501 -0.00000000000E+00 -0.00000000000E+00 -0.73554558951E+03  0.73554558951E+03  0.00000000000E+00 0.  1.
    9900016    2    1    2    0    0  0.18184557560E+03 -0.36822853013E+03  0.34226214567E+03  0.95903448492E+03  0.79620581707E+03 0.  0.
         23    2    3    3    0    0  0.10314309574E+03 -0.74696028127E+02  0.27045935726E+03  0.31755364632E+03  0.10711703667E+03 0.  0.
        -15    1    4    4    0    0  0.41966881532E+02 -0.56719167659E+02  0.23333805885E+03  0.24377229710E+03  0.00000000000E+00 0.  1.
        -15    1    3    3    0    0 -0.10324334648E+02  0.41367192990E+02  0.15413982938E+02  0.45336821810E+02  0.00000000000E+00 0.  1.
         15    1    4    4    0    0  0.61176214203E+02 -0.17976860468E+02  0.37121298403E+02  0.73781349212E+02  0.00000000000E+00 0. -1.
         15    1    3    3    0    0 -0.89611521637E+02 -0.42862560689E+02 -0.40422211824E+02  0.10724448297E+03  0.00000000000E+00 0. -1.
        -16    1    1    2    0    0 -0.18184557560E+03  0.36822853013E+03 -0.32844916329E+03  0.52586967648E+03  0.00000000000E+00 0.  1.
         16    1    3    3    0    0  0.44732885447E+02  0.13566288038E+02  0.13314025184E+03  0.14110776687E+03  0.00000000000E+00 0. -1.
    9900018    1    3    3    0    0  0.13390545071E+03 -0.30560342235E+03 -0.36329234547E+02  0.34779176695E+03  0.91187600000E+02 0.  0.
<mgrwt>
<rscale>  0 0.14848399E+04</rscale>
<asrwt>0</asrwt>
<pdfrwt beam="1">  1        2 0.11528593E+00 0.14848399E+04</pdfrwt>
<pdfrwt beam="2">  1       -2 0.11316086E+00 0.14848399E+04</pdfrwt>
<totfact> 0.22271890E+01</totfact>
</mgrwt>
</event>
<event>
11    1  0.3392939E-014  0.8598132E+03  0.7818608E-02  0.9477260E-01
          1   -1    0    0  501    0  0.00000000000E+00  0.00000000000E+00  0.81299246468E+02  0.81299246468E+02  0.00000000000E+00 0. -1.
         -1   -1    0    0    0  501 -0.00000000000E+00 -0.00000000000E+00 -0.22733259367E+04  0.22733259367E+04  0.00000000000E+00 0.  1.
    9900016    2    1    2    0    0 -0.35499981617E+02 -0.14924715806E+03 -0.16200391250E+04  0.17474292333E+04  0.63674735639E+03 0.  0.
         23    2    3    3    0    0 -0.40064802297E+02 -0.34741136748E+02 -0.11284650287E+03  0.14691315875E+03  0.77698185551E+02 0.  0.
        -15    1    4    4    0    0  0.14027737049E+02  0.25365414010E+01  0.22075919710E+01  0.14425148572E+02  0.00000000000E+00 0.  1.
        -15    1    3    3    0    0 -0.62393488948E+01 -0.31445873371E+03 -0.10687375731E+04  0.11140571012E+04  0.00000000000E+00 0.  1.
         15    1    3    3    0    0  0.37462850283E+02  0.10910982443E+03 -0.22130885183E+03  0.24957168677E+03  0.00000000000E+00 0. -1.
         15    1    4    4    0    0 -0.54092539346E+02 -0.37277678149E+02 -0.11505409484E+03  0.13248801018E+03  0.00000000000E+00 0. -1.
        -16    1    3    3    0    0 -0.26658680709E+02  0.90842887967E+02 -0.21714619728E+03  0.23688728658E+03  0.00000000000E+00 0.  1.
         16    1    1    2    0    0 -0.19800859012E+02  0.64580985745E+02 -0.18394768159E+03  0.19595797330E+03  0.00000000000E+00 0. -1.
    9900018    1    1    2    0    0  0.55300840629E+02  0.84666172314E+02 -0.38803988365E+03  0.41123797661E+03  0.91187600000E+02 0.  0.
<mgrwt>
<rscale>  0 0.85981320E+03</rscale>
<asrwt>0</asrwt>
<pdfrwt beam="1">  1        1 0.12507578E-01 0.85981320E+03</pdfrwt>
<pdfrwt beam="2">  1       -1 0.34974242E+00 0.85981320E+03</pdfrwt>
<totfact> 0.80038037E+00</totfact>
</mgrwt>
</event>
<event>
11    1  0.3392939E-014  0.1927644E+04  0.7818608E-02  0.8641217E-01
         -1   -1    0    0    0  501 -0.00000000000E+00  0.00000000000E+00  0.54120167660E+03  0.54120167660E+03  0.00000000000E+00 0. -1.
          1   -1    0    0  501    0  0.00000000000E+00 -0.00000000000E+00 -0.17164639821E+04  0.17164639821E+04  0.00000000000E+00 0.  1.
    9900016    2    1    2    0    0 -0.12757954870E+03  0.38170204631E+03  0.12065050428E+03  0.90069734516E+03  0.79669703778E+03 0.  0.
         23    2    3    3    0    0  0.17533628044E+02  0.18514351679E+03 -0.60037676579E+01  0.20192435205E+03  0.78433722368E+02 0.  0.
        -15    1    3    3    0    0 -0.34346808726E+02 -0.55132463666E+01  0.17044544362E+02  0.38737780624E+02  0.00000000000E+00 0.  1.
        -15    1    4    4    0    0  0.15194193750E+02  0.74472278350E+02  0.35260843929E+02  0.83787295463E+02  0.00000000000E+00 0. -1.
         15    1    3    3    0    0  0.67440724960E+00 -0.12811472349E+03 -0.23839810862E+02  0.13031566974E+03  0.00000000000E+00 0. -1.
         15    1    4    4    0    0  0.23394342932E+01  0.11067123844E+03 -0.41264611587E+02  0.11813705659E+03  0.00000000000E+00 0.  1.
        -16    1    1    2    0    0  0.12757954870E+03 -0.38170204631E+03 -0.12959128098E+04  0.13569683135E+04  0.00000000000E+00 0.  1.
         16    1    3    3    0    0 -0.17846401322E+03  0.16673943543E+02  0.51146358701E+02  0.18639574678E+03  0.00000000000E+00 0. -1.
    9900018    1    3    3    0    0  0.67023237956E+02  0.31351255583E+03  0.82303179736E+02  0.34332379597E+03  0.91187600000E+02 0.  0.
<mgrwt>
<rscale>  0 0.19276443E+04</rscale>
<asrwt>0</asrwt>
<pdfrwt beam="1">  1        1 0.26407138E+00 0.19276443E+04</pdfrwt>
<pdfrwt beam="2">  1       -1 0.83261798E-01 0.19276443E+04</pdfrwt>
<totfact> 0.62059687E+00</totfact>
</mgrwt>
</event>
<event>
10    1  0.3392939E-014  0.2920062E+04  0.7818608E-02  0.8266933E-01
          1   -1    0    0  501    0  0.00000000000E+00  0.00000000000E+00  0.26724438238E+04  0.26724438238E+04  0.00000000000E+00 0. -1.
         -1   -1    0    0    0  501 -0.00000000000E+00 -0.00000000000E+00 -0.79765610612E+03  0.79765610612E+03  0.00000000000E+00 0.  1.
         23    2    1    2    0    0  0.11134982091E+03 -0.21954273180E+03  0.15088015521E+03  0.29532856519E+03  0.62099488516E+02 0.  0.
        -15    1    3    3    0    0  0.41956989570E+02 -0.12424241210E+03  0.50601235362E+02  0.14055977717E+03  0.00000000000E+00 0. -1.
        -15    1    1    2    0    0  0.86476044372E+02  0.59688935193E+02  0.33039025228E+03  0.34669668882E+03  0.00000000000E+00 0.  1.
         15    1    1    2    0    0  0.46556791952E+03 -0.55749993498E+01  0.27076879130E+03  0.53860960504E+03  0.00000000000E+00 0. -1.
         15    1    3    3    0    0  0.69392831344E+02 -0.95300319696E+02  0.10027891985E+03  0.15476878801E+03  0.00000000000E+00 0.  1.
        -16    1    1    2    0    0 -0.10136715484E+04 -0.15566829558E+03  0.11643745351E+03  0.10321435496E+04  0.00000000000E+00 0.  1.
         16    1    1    2    0    0 -0.43259587733E+02  0.16701420654E+03  0.11839707455E+02  0.17293153498E+03  0.00000000000E+00 0. -1.
    9900018    1    1    2    0    0  0.39353735134E+03  0.15408288499E+03  0.99447135788E+03  0.10843899863E+04  0.91187600000E+02 0.  0.
<mgrwt>
<rscale>  0 0.29200624E+04</rscale>
<asrwt>0</asrwt>
<pdfrwt beam="1">  1        1 0.41114520E+00 0.29200624E+04</pdfrwt>
<pdfrwt beam="2">  1       -1 0.12271633E+00 0.29200624E+04</pdfrwt>
<totfact> 0.51494241E-01</totfact>
</mgrwt>
</event>
<event>
11    1  0.3392939E-014  0.2333490E+04  0.7818608E-02  0.8464832E-01
          1   -1    0    0  501    0  0.00000000000E+00  0.00000000000E+00  0.93911602454E+03  0.93911602454E+03  0.00000000000E+00 0. -1.
         -1   -1    0    0    0  501 -0.00000000000E+00 -0.00000000000E+00 -0.14495481632E+04  0.14495481632E+04  0.00000000000E+00 0.  1.
    9900016    2    1    2    0    0  0.47682511086E+03 -0.53558083684E+02  0.15204459863E+03  0.80493952370E+03  0.62815557163E+03 0.  0.
         23    2    3    3    0    0  0.25368120611E+03 -0.16878674654E+03  0.12081942811E+03  0.33680483087E+03  0.77440556190E+02 0.  0.
        -15    1    4    4    0    0  0.15880862736E+03 -0.61656065872E+02  0.52733401790E+02  0.17833244867E+03  0.00000000000E+00 0. -1.
        -15    1    3    3    0    0 -0.45286842236E+02  0.57980560179E+02  0.51840607827E+02  0.90000511433E+02  0.00000000000E+00 0.  1.
         15    1    4    4    0    0  0.94872578751E+02 -0.10713068067E+03  0.68086026321E+02  0.15847238220E+03  0.00000000000E+00 0.  1.
         15    1    3    3    0    0  0.17115635557E+03  0.19621817574E+02 -0.13827236999E+03  0.22090441842E+03  0.00000000000E+00 0. -1.
        -16    1    1    2    0    0 -0.89427966187E+03  0.45227750715E+01 -0.72220619687E+03  0.11494948281E+04  0.00000000000E+00 0.  1.
         16    1    3    3    0    0  0.97274391415E+02  0.37626285105E+02  0.11765693268E+03  0.15722976297E+03  0.00000000000E+00 0. -1.
    9900018    1    1    2    0    0  0.41745455101E+03  0.49035308613E+02  0.59729459585E+02  0.43422983590E+03  0.91187600000E+02 0.  0.
<mgrwt>
<rscale>  0 0.23334900E+04</rscale>
<asrwt>0</asrwt>
<pdfrwt beam="1">  1        1 0.14447939E+00 0.23334900E+04</pdfrwt>
<pdfrwt beam="2">  1       -1 0.22300741E+00 0.23334900E+04</pdfrwt>
<totfact> 0.16013473E+00</totfact>
</mgrwt>
</event>
<event>
11    1  0.3392939E-014  0.1385716E+04  0.7818608E-02  0.8964223E-01
         -3   -1    0    0    0  501 -0.00000000000E+00  0.00000000000E+00  0.15065920593E+03  0.15065920593E+03  0.00000000000E+00 0.  1.
          3   -1    0    0  501    0  0.00000000000E+00 -0.00000000000E+00 -0.31863463217E+04  0.31863463217E+04  0.00000000000E+00 0. -1.
    9900016    2    1    2    0    0 -0.17338717348E+03  0.33715166765E+03 -0.26142292950E+04  0.27701183664E+04  0.83404232378E+03 0.  0.
         23    2    3    3    0    0 -0.41735586669E+02 -0.65626909767E+02 -0.12575351656E+03  0.16174527906E+03  0.65565523643E+02 0.  0.
        -15    1    3    3    0    0 -0.56880815859E+01 -0.22692746916E+02  0.10026612347E+02  0.25452858187E+02  0.00000000000E+00 0. -1.
        -15    1    4    4    0    0 -0.26195534217E+02 -0.74007075980E+02 -0.11956776627E+03  0.14303742182E+03  0.00000000000E+00 0.  1.
         15    1    4    4    0    0 -0.15540052452E+02  0.83801662125E+01 -0.61857502819E+01  0.18707857240E+02  0.00000000000E+00 0.  1.
         15    1    3    3    0    0  0.85788443843E+02  0.15159697483E+03 -0.35742596814E+03  0.39761114494E+03  0.00000000000E+00 0. -1.
        -16    1    1    2    0    0  0.17338717348E+03 -0.33715166765E+03 -0.42145782076E+03  0.56688716126E+03  0.00000000000E+00 0.  1.
         16    1    3    3    0    0 -0.11343675307E+03 -0.19209346567E+02 -0.58417230171E+03  0.59539413335E+03  0.00000000000E+00 0. -1.
    9900018    1    3    3    0    0 -0.98315195992E+02  0.29308369607E+03 -0.15569041210E+04  0.15899149509E+04  0.91187600000E+02 0.  0.
<mgrwt>
<rscale>  0 0.13857163E+04</rscale>
<asrwt>0</asrwt>
<pdfrwt beam="1">  1        3 0.49020709E+00 0.13857163E+04</pdfrwt>
<pdfrwt beam="2">  1       -3 0.23178341E-01 0.13857163E+04</pdfrwt>
<totfact> 0.17458463E-01</totfact>
</mgrwt>
</event>
