<event>
12    1  0.4085999E-007  0.4191666E+04  0.7818608E-02  0.7966959E-01
          2   -1    0    0  501    0  0.00000000000E+00  0.00000000000E+00  0.17230840166E+04  0.17230840166E+04  0.00000000000E+00 0. -1.
         -2   -1    0    0    0  501 -0.00000000000E+00 -0.00000000000E+00 -0.25492179483E+04  0.25492179483E+04  0.00000000000E+00 0.  1.
         24    2    1    2    0    0  0.22427626388E+03 -0.77991267202E+03 -0.47798731557E+03  0.94493004408E+03  0.76532972246E+02 0.  0.
    9900016    2    1    2    0    0  0.22173040986E+03  0.52178250337E+03 -0.11809544286E+04  0.23480241840E+04  0.19486258878E+04 0.  0.
        -24    2    4    4    0    0 -0.49655794052E+03  0.37355496158E+03 -0.10637666199E+04  0.12345576355E+04  0.80125127978E+02 0.  0.
        -15    1    3    3    0    0  0.37205851841E+02 -0.21183618746E+03 -0.98089954430E+02  0.23639053469E+03  0.00000000000E+00 0.  1.
        -15    1    4    4    0    0  0.71967327763E+03 -0.18909445022E+03  0.24974866913E+01  0.74410521775E+03  0.00000000000E+00 0.  1.
         15    1    1    2    0    0 -0.44600667374E+03  0.25813016865E+03  0.83280781247E+03  0.97934773676E+03  0.00000000000E+00 0. -1.
         15    1    5    5    0    0 -0.27098988762E+03  0.15387329072E+03 -0.53509789254E+03  0.61922715008E+03  0.00000000000E+00 0. -1.
        -16    1    5    5    0    0 -0.22556805291E+03  0.21968167086E+03 -0.52866872740E+03  0.61533048546E+03  0.00000000000E+00 0.  1.
         16    1    3    3    0    0  0.18707041204E+03 -0.56807648455E+03 -0.37989736114E+03  0.70853950939E+03  0.00000000000E+00 0. -1.
    9900018    1    4    4    0    0 -0.13849272516E+01  0.33732199201E+03 -0.11968529539E+03  0.36936133074E+03  0.91187600000E+02 0.  0.
<mgrwt>
<rscale>  0 0.41916664E+04</rscale>
<asrwt>0</asrwt>
<pdfrwt beam="1">  1        2 0.26508985E+00 0.41916664E+04</pdfrwt>
<pdfrwt beam="2">  1       -2 0.39218738E+00 0.41916664E+04</pdfrwt>
<totfact> 0.61716497E-02</totfact>
</mgrwt>
</event>
<event>
12    1  0.4085999E-007  0.4120276E+04  0.7818608E-02  0.7980713E-01
         -2   -1    0    0    0  501 -0.00000000000E+00  0.00000000000E+00  0.19393730407E+04  0.19393730407E+04  0.00000000000E+00 0.  1.
          2   -1    0    0  501    0  0.00000000000E+00 -0.00000000000E+00 -0.21884227923E+04  0.21884227923E+04  0.00000000000E+00 0. -1.
        -24    2    1    2    0    0  0.15513799450E+04  0.18430784222E+03 -0.17684524215E+03  0.15743534302E+04  0.81026966657E+02 0.  0.
    9900016    2    1    2    0    0 -0.13712844444E+04  0.13034242656E+02 -0.23050928222E+03  0.22428966109E+04  0.17597896917E+04 0.  0.
         24    2    4    4    0    0 -0.90449977210E+03 -0.40237318717E+03  0.41329303854E+03  0.10758419766E+04  0.81245328068E+02 0.  0.
        -15    1    1    2    0    0 -0.18009550054E+03 -0.19734208488E+03  0.15830477278E+03  0.31054579189E+03  0.00000000000E+00 0.  1.
        -15    1    5    5    0    0 -0.64800910408E+03 -0.25587063107E+03  0.26573638167E+03  0.74565501632E+03  0.00000000000E+00 0.  1.
         15    1    4    4    0    0 -0.39123517668E+03 -0.37319163254E+02 -0.57142907342E+03  0.69353361084E+03  0.00000000000E+00 0. -1.
         15    1    3    3    0    0  0.10166488948E+03  0.59640985468E+01  0.75362006549E+01  0.10211814014E+03  0.00000000000E+00 0. -1.
        -16    1    3    3    0    0  0.14497150555E+04  0.17834374367E+03 -0.18438144281E+03  0.14722352901E+04  0.00000000000E+00 0.  1.
         16    1    5    5    0    0 -0.25649066802E+03 -0.14650255611E+03  0.14755665687E+03  0.33018696024E+03  0.00000000000E+00 0. -1.
    9900018    1    4    4    0    0 -0.75549495642E+02  0.45272659308E+03 -0.72373247341E+02  0.47352102351E+03  0.91187600000E+02 0.  0.
<mgrwt>
<rscale>  0 0.41202758E+04</rscale>
<asrwt>0</asrwt>
<pdfrwt beam="1">  1        2 0.33668043E+00 0.41202758E+04</pdfrwt>
<pdfrwt beam="2">  1       -2 0.29836508E+00 0.41202758E+04</pdfrwt>
<totfact> 0.13320333E-01</totfact>
</mgrwt>
</event>
<event>
11    1  0.4085999E-007  0.4113097E+04  0.7818608E-02  0.8625358E-01
         -1   -1    0    0    0  501 -0.00000000000E+00  0.00000000000E+00  0.15070710163E+04  0.15070710163E+04  0.00000000000E+00 0.  1.
          1   -1    0    0  501    0  0.00000000000E+00 -0.00000000000E+00 -0.37949480844E+04  0.37949480844E+04  0.00000000000E+00 0. -1.
        -24    2    1    2    0    0 -0.43229595213E+02 -0.11372276395E+04 -0.32854441296E+03  0.11872475865E+04  0.80373492410E+02 0.  0.
         24    2    1    2    0    0 -0.12067737305E+03  0.15491427767E+03  0.35456673352E+03  0.41324839179E+03  0.80592822329E+02 0.  0.
        -15    1    4    4    0    0 -0.82416422961E+02  0.14129521587E+03  0.23005168216E+03  0.28227748983E+03  0.00000000000E+00 0.  1.
        -15    1    1    2    0    0 -0.20630878785E+03  0.78161204299E+03  0.14939947308E+03  0.82207110657E+03  0.00000000000E+00 0.  1.
         15    1    1    2    0    0  0.55937199716E+03  0.77633312603E+02 -0.19398304720E+03  0.59712091324E+03  0.00000000000E+00 0. -1.
         15    1    3    3    0    0 -0.58625457433E+01 -0.91821600960E+03 -0.27798756403E+03  0.95939152357E+03  0.00000000000E+00 0. -1.
        -16    1    3    3    0    0 -0.37367049470E+02 -0.21901162994E+03 -0.50556848929E+02  0.22785606292E+03  0.00000000000E+00 0.  1.
         16    1    4    4    0    0 -0.38260950090E+02  0.13619061796E+02  0.12451505135E+03  0.13097090196E+03  0.00000000000E+00 0. -1.
    9900018    1    1    2    0    0 -0.18915624105E+03  0.12306800628E+03 -0.22693158146E+04  0.22823311027E+04  0.91187600000E+02 0.  0.
<mgrwt>
<rscale>  0 0.19604087E+04</rscale>
<asrwt>0</asrwt>
<pdfrwt beam="1">  1        1 0.58383816E+00 0.41130973E+04</pdfrwt>
<pdfrwt beam="2">  1       -1 0.23185708E+00 0.41130973E+04</pdfrwt>
<totfact> 0.10000610E-02</totfact>
</mgrwt>
</event>
