<event>
12    1  0.3296446E-014  0.9618850E+03  0.7818608E-02  0.9351366E-01
         -2   -1    0    0    0  501 -0.00000000000E+00  0.00000000000E+00  0.32136299537E+03  0.32136299537E+03  0.00000000000E+00 0. -1.
          2   -1    0    0  501    0  0.00000000000E+00 -0.00000000000E+00 -0.71976456279E+03  0.71976456279E+03  0.00000000000E+00 0.  1.
    9900016    2    1    2    0    0 -0.16628603927E+03 -0.94179062879E+02 -0.25033566186E+03  0.72213031454E+03  0.64983344392E+03 0.  0.
         23    2    3    3    0    0 -0.10763282402E+02 -0.30409263858E+03 -0.12929614291E+03  0.33870501992E+03  0.73589515974E+02 0.  0.
         23    2    3    3    0    0 -0.15306985850E+03  0.15521042950E+03  0.14732937877E+02  0.23702648675E+03  0.91890352884E+02 0.  0.
        -15    1    5    5    0    0 -0.13545656752E+03  0.11389556410E+03 -0.22873351597E+02  0.17844851196E+03  0.00000000000E+00 0.  1.
        -15    1    4    4    0    0  0.25926967571E+02 -0.10792552215E+03 -0.66950475076E+02  0.12962442706E+03  0.00000000000E+00 0.  1.
         15    1    4    4    0    0 -0.36690249973E+02 -0.19616711643E+03 -0.62345667837E+02  0.20908059286E+03  0.00000000000E+00 0. -1.
         15    1    5    5    0    0 -0.17613290978E+02  0.41314865405E+02  0.37606289474E+02  0.58577974790E+02  0.00000000000E+00 0. -1.
        -16    1    3    3    0    0 -0.24528983673E+01  0.54703146196E+02 -0.13577245683E+03  0.14639880788E+03  0.00000000000E+00 0.  1.
         16    1    1    2    0    0  0.11818878263E+03  0.10393051364E+03 -0.14711694047E+03  0.21543800542E+03  0.00000000000E+00 0. -1.
    9900018    1    1    2    0    0  0.48097256638E+02 -0.97514507617E+01 -0.94896507905E+00  0.10355923820E+03  0.91187600000E+02 0.  0.
<mgrwt>
<rscale>  0 0.96188502E+03</rscale>
<asrwt>0</asrwt>
<pdfrwt beam="1">  1        2 0.11073301E+00 0.96188502E+03</pdfrwt>
<pdfrwt beam="2">  1       -2 0.49440462E-01 0.96188502E+03</pdfrwt>
<totfact> 0.15317606E+02</totfact>
</mgrwt>
</event>
<event>
12    1  0.3655096E-014  0.1119788E+04  0.7818608E-02  0.9186117E-01
          1   -1    0    0  501    0  0.00000000000E+00  0.00000000000E+00  0.24525020984E+04  0.24525020984E+04  0.00000000000E+00 0. -1.
         -1   -1    0    0    0  501 -0.00000000000E+00 -0.00000000000E+00 -0.12782091573E+03  0.12782091573E+03  0.00000000000E+00 0.  1.
    9900016    2    1    2    0    0  0.32658709995E+02 -0.25224102425E+03  0.18106932552E+04  0.19466942661E+04  0.66806913988E+03 0.  0.
         23    2    3    3    0    0 -0.37919432048E+02 -0.95254249950E+02  0.12044296464E+03  0.17323664102E+03  0.70662370480E+02 0.  0.
         23    2    3    3    0    0  0.15158320775E+03  0.13940597446E+03  0.60428629545E+03  0.64486191322E+03  0.90958593138E+02 0.  0.
        -15    1    5    5    0    0  0.13530055183E+03  0.73580145829E+02  0.46701856698E+03  0.49175870006E+03  0.00000000000E+00 0. -1.
        -15    1    4    4    0    0 -0.36611869698E+02 -0.11744280004E+02  0.22620862638E+02  0.44610094621E+02  0.00000000000E+00 0. -1.
         15    1    5    5    0    0  0.16282655922E+02  0.65825828635E+02  0.13726772847E+03  0.15310321316E+03  0.00000000000E+00 0.  1.
         15    1    4    4    0    0 -0.13075623502E+01 -0.83509969946E+02  0.97822101999E+02  0.12862654640E+03  0.00000000000E+00 0.  1.
        -16    1    1    2    0    0 -0.30583095752E+02  0.27482825322E+03  0.37899168628E+03  0.46914879599E+03  0.00000000000E+00 0.  1.
         16    1    3    3    0    0 -0.81005065706E+02 -0.29639274876E+03  0.10859639951E+04  0.11285957118E+04  0.00000000000E+00 0. -1.
    9900018    1    1    2    0    0 -0.20756142426E+01 -0.22587228973E+02  0.13499624124E+03  0.16447995206E+03  0.91187600000E+02 0.  0.
<mgrwt>
<rscale>  0 0.11197876E+04</rscale>
<asrwt>0</asrwt>
<pdfrwt beam="1">  1        1 0.37730798E+00 0.11197876E+04</pdfrwt>
<pdfrwt beam="2">  1       -1 0.19664758E-01 0.11197876E+04</pdfrwt>
<totfact> 0.30838973E+01</totfact>
</mgrwt>
</event>
<event>
12    1  0.3296446E-014  0.1092285E+04  0.7818608E-02  0.9212744E-01
          1   -1    0    0  501    0  0.00000000000E+00  0.00000000000E+00  0.78636683433E+03  0.78636683433E+03  0.00000000000E+00 0. -1.
         -1   -1    0    0    0  501 -0.00000000000E+00 -0.00000000000E+00 -0.37930345211E+03  0.37930345211E+03  0.00000000000E+00 0.  1.
    9900016    2    1    2    0    0  0.14956091048E+03 -0.12785720063E+03  0.13955907199E+03  0.71655838143E+03  0.67473198362E+03 0.  0.
         23    2    3    3    0    0 -0.38292082555E+02 -0.20725387613E+03  0.46378722971E+02  0.24117984226E+03  0.10768601400E+03 0.  0.
         23    2    3    3    0    0  0.70495225442E+02 -0.14883643455E+03  0.11207212202E+03  0.21804588049E+03  0.88667831842E+02 0.  0.
        -15    1    4    4    0    0 -0.26602060207E+02 -0.21288192151E+03  0.59593457127E+02  0.22266064368E+03  0.00000000000E+00 0.  1.
        -15    1    5    5    0    0  0.91857841131E+02 -0.11840752028E+03  0.89733688408E+02  0.17467208899E+03  0.00000000000E+00 0. -1.
         15    1    5    5    0    0 -0.21362615689E+02 -0.30428914264E+02  0.22338433612E+02  0.43373791495E+02  0.00000000000E+00 0.  1.
         15    1    4    4    0    0 -0.11690022348E+02  0.56280453781E+01 -0.13214734155E+02  0.18519198581E+02  0.00000000000E+00 0. -1.
        -16    1    3    3    0    0  0.11735776760E+03  0.22823311005E+03 -0.18891772998E+02  0.25733265868E+03  0.00000000000E+00 0.  1.
         16    1    1    2    0    0 -0.17513422191E+03  0.14964372424E+03  0.26605196493E+03  0.35192170711E+03  0.00000000000E+00 0. -1.
    9900018    1    1    2    0    0  0.25573311430E+02 -0.21786523618E+02  0.14523452930E+01  0.97190197908E+02  0.91187600000E+02 0.  0.
<mgrwt>
<rscale>  0 0.10922850E+04</rscale>
<asrwt>0</asrwt>
<pdfrwt beam="1">  1        1 0.12097951E+00 0.10922850E+04</pdfrwt>
<pdfrwt beam="2">  1       -1 0.58354378E-01 0.10922850E+04</pdfrwt>
<totfact> 0.67425750E+01</totfact>
</mgrwt>
</event>
<event>
12    1  0.3296446E-014  0.1227652E+04  0.7818608E-02  0.9088992E-01
         -2   -1    0    0    0  501 -0.00000000000E+00  0.00000000000E+00  0.95561829080E+03  0.95561829080E+03  0.00000000000E+00 0.  1.
          2   -1    0    0  501    0  0.00000000000E+00 -0.00000000000E+00 -0.39428099962E+03  0.39428099962E+03  0.00000000000E+00 0. -1.
    9900016    2    1    2    0    0  0.30710956690E+03 -0.71756462799E+01  0.51223214078E+03  0.89167615818E+03  0.66207010886E+03 0.  0.
         23    2    3    3    0    0  0.56088793709E+01 -0.18243467324E+01 -0.80499687740E+02  0.13567630633E+03  0.10905536486E+03 0.  0.
         23    2    3    3    0    0 -0.36913557472E+01  0.28649810653E+02  0.83523866736E+01  0.95850178800E+02  0.91011299602E+02 0.  0.
        -15    1    4    4    0    0  0.22485593629E+02 -0.46097998623E+02 -0.12489087751E+02  0.52788300889E+02  0.00000000000E+00 0.  1.
        -15    1    5    5    0    0 -0.25862592674E+02  0.30251165506E+02  0.40489029515E+02  0.56774714666E+02  0.00000000000E+00 0.  1.
         15    1    5    5    0    0  0.22171236927E+02 -0.16013548529E+01 -0.32136642842E+02  0.39075464135E+02  0.00000000000E+00 0. -1.
         15    1    4    4    0    0 -0.16876714258E+02  0.44273651890E+02 -0.68010599989E+02  0.82888005445E+02  0.00000000000E+00 0. -1.
        -16    1    3    3    0    0  0.30519204328E+03 -0.34001110201E+02  0.58437944184E+03  0.66014967305E+03  0.00000000000E+00 0.  1.
         16    1    1    2    0    0 -0.35143209217E+03 -0.32282818838E+00  0.17947584702E+02  0.35189023206E+03  0.00000000000E+00 0. -1.
    9900018    1    1    2    0    0  0.44322525268E+02  0.74984744683E+01  0.31157565708E+02  0.10633290018E+03  0.91187600000E+02 0.  0.
<mgrwt>
<rscale>  0 0.12276516E+04</rscale>
<asrwt>0</asrwt>
<pdfrwt beam="1">  1        2 0.60658616E-01 0.12276516E+04</pdfrwt>
<pdfrwt beam="2">  1       -2 0.14701820E+00 0.12276516E+04</pdfrwt>
<totfact> 0.25128175E+01</totfact>
</mgrwt>
</event>
<event>
12    1  0.3296446E-014  0.1077118E+04  0.7818608E-02  0.9227785E-01
          3   -1    0    0  501    0  0.00000000000E+00  0.00000000000E+00  0.26764191959E+03  0.26764191959E+03  0.00000000000E+00 0. -1.
         -3   -1    0    0    0  501 -0.00000000000E+00 -0.00000000000E+00 -0.10837093801E+04  0.10837093801E+04  0.00000000000E+00 0.  1.
    9900016    2    1    2    0    0  0.29731824719E+02  0.18267718319E+03 -0.42209204011E+03  0.79927670762E+03  0.65301349938E+03 0.  0.
         23    2    3    3    0    0  0.57822078207E+02  0.58878795285E+02  0.52505502588E+01  0.11210611438E+03  0.75697472485E+02 0.  0.
         23    2    3    3    0    0 -0.44165658837E+02  0.16345200760E+03 -0.53690304064E+03  0.56955120506E+03  0.86351235866E+02 0.  0.
        -15    1    5    5    0    0 -0.25109745397E+02  0.61990868928E+02 -0.97847883192E+02  0.11852246787E+03  0.00000000000E+00 0. -1.
        -15    1    4    4    0    0  0.32745474336E+02  0.74255083254E+02 -0.40491973972E+01  0.81255642747E+02  0.00000000000E+00 0.  1.
         15    1    5    5    0    0 -0.19055913440E+02  0.10146113868E+03 -0.43905515744E+03  0.45102873720E+03  0.00000000000E+00 0.  1.
         15    1    4    4    0    0  0.25076603871E+02 -0.15376287970E+02  0.92997476560E+01  0.30850471631E+02  0.00000000000E+00 0. -1.
        -16    1    3    3    0    0  0.16075405349E+02 -0.39653619700E+02  0.10956045027E+03  0.11761938818E+03  0.00000000000E+00 0.  1.
         16    1    1    2    0    0 -0.66113635874E+02 -0.25387323746E+03 -0.23564352459E+03  0.35263366859E+03  0.00000000000E+00 0. -1.
    9900018    1    1    2    0    0  0.36381811155E+02  0.71196054269E+02 -0.15833189579E+03  0.19944092344E+03  0.91187600000E+02 0.  0.
<mgrwt>
<rscale>  0 0.10771185E+04</rscale>
<asrwt>0</asrwt>
<pdfrwt beam="1">  1        3 0.41175679E-01 0.10771185E+04</pdfrwt>
<pdfrwt beam="2">  1       -3 0.16672452E+00 0.10771185E+04</pdfrwt>
<totfact> 0.37295452E+00</totfact>
</mgrwt>
</event>
<event>
12    1  0.3296446E-014  0.1016402E+04  0.7818608E-02  0.9290736E-01
          1   -1    0    0  501    0  0.00000000000E+00  0.00000000000E+00  0.13385642290E+04  0.13385642290E+04  0.00000000000E+00 0. -1.
         -1   -1    0    0    0  501 -0.00000000000E+00 -0.00000000000E+00 -0.19294433920E+03  0.19294433920E+03  0.00000000000E+00 0.  1.
    9900016    2    1    2    0    0 -0.15366767308E+03  0.65782833319E+02  0.11118504487E+04  0.13609755507E+04  0.76687801784E+03 0.  0.
         23    2    3    3    0    0  0.90042724002E+02  0.59337063939E+02  0.66195195842E+03  0.67938974101E+03  0.10845019886E+03 0.  0.
         23    2    3    3    0    0 -0.14534938916E+02  0.77905921492E+02  0.45413497793E+02  0.12925976902E+03  0.91460948243E+02 0.  0.
        -15    1    5    5    0    0 -0.38623484743E+02  0.13727279840E+02  0.44777885598E+02  0.60706431488E+02  0.00000000000E+00 0. -1.
        -15    1    4    4    0    0  0.75104789968E+02 -0.15256655572E+02  0.35059426318E+03  0.35887300315E+03  0.00000000000E+00 0.  1.
         15    1    5    5    0    0  0.24088545827E+02  0.64178641652E+02  0.63561219492E+00  0.68553337535E+02  0.00000000000E+00 0.  1.
         15    1    4    4    0    0  0.14937934034E+02  0.74593719511E+02  0.31135769524E+03  0.32051673786E+03  0.00000000000E+00 0. -1.
        -16    1    3    3    0    0 -0.23254997533E+03 -0.53376466839E+02  0.15113220996E+03  0.28243491839E+03  0.00000000000E+00 0.  1.
         16    1    1    2    0    0  0.15366767308E+03 -0.65782833319E+02  0.33769441032E+02  0.17053301750E+03  0.00000000000E+00 0. -1.
    9900018    1    3    3    0    0  0.33745171650E+01 -0.18083685273E+02  0.25335278255E+03  0.26989112223E+03  0.91187600000E+02 0.  0.
<mgrwt>
<rscale>  0 0.10164023E+04</rscale>
<asrwt>0</asrwt>
<pdfrwt beam="1">  1        1 0.20593295E+00 0.10164023E+04</pdfrwt>
<pdfrwt beam="2">  1       -1 0.29683745E-01 0.10164023E+04</pdfrwt>
<totfact> 0.88345257E+01</totfact>
</mgrwt>
</event>
<event>
12    1  0.3296446E-014  0.8981157E+03  0.7818608E-02  0.9427940E-01
         -2   -1    0    0    0  501 -0.00000000000E+00  0.00000000000E+00  0.12043533160E+03  0.12043533160E+03  0.00000000000E+00 0.  1.
          2   -1    0    0  501    0  0.00000000000E+00 -0.00000000000E+00 -0.16743671979E+04  0.16743671979E+04  0.00000000000E+00 0. -1.
    9900016    2    1    2    0    0 -0.12665087062E+03  0.62376788551E+02 -0.12310641136E+04  0.14046698276E+04  0.66154906548E+03 0.  0.
         23    2    3    3    0    0 -0.65474720956E+01 -0.75508983591E+02 -0.54350556345E+03  0.55432595161E+03  0.78322966895E+02 0.  0.
         23    2    3    3    0    0  0.15425231297E+03  0.10476774705E+03 -0.19225556174E+03  0.28316408939E+03  0.91921943073E+02 0.  0.
        -15    1    4    4    0    0 -0.20963018642E+02  0.59360653475E+01 -0.60807955546E+02  0.64593285101E+02  0.00000000000E+00 0.  1.
        -15    1    5    5    0    0  0.67497342239E+02  0.48445804721E+02 -0.25453587433E+02  0.86895180059E+02  0.00000000000E+00 0.  1.
         15    1    5    5    0    0  0.86754970729E+02  0.56321942326E+02 -0.16680197431E+03  0.19626890933E+03  0.00000000000E+00 0. -1.
         15    1    4    4    0    0  0.14415546547E+02 -0.81445048938E+02 -0.48269760790E+03  0.48973266651E+03  0.00000000000E+00 0. -1.
        -16    1    1    2    0    0  0.11214237577E+03 -0.58256626760E+02 -0.19466050432E+03  0.23208287086E+03  0.00000000000E+00 0.  1.
         16    1    3    3    0    0 -0.27435571150E+03  0.33118025095E+02 -0.49530298838E+03  0.56717978659E+03  0.00000000000E+00 0. -1.
    9900018    1    1    2    0    0  0.14508494850E+02 -0.41201617914E+01 -0.12820724844E+03  0.15804983107E+03  0.91187600000E+02 0.  0.
<mgrwt>
<rscale>  0 0.89811574E+03</rscale>
<asrwt>0</asrwt>
<pdfrwt beam="1">  1        2 0.25759495E+00 0.89811574E+03</pdfrwt>
<pdfrwt beam="2">  1       -2 0.18528513E-01 0.89811574E+03</pdfrwt>
<totfact> 0.24875212E+02</totfact>
</mgrwt>
</event>
<event>
12    1  0.3296446E-014  0.1029480E+04  0.7818608E-02  0.9276790E-01
          2   -1    0    0  501    0  0.00000000000E+00  0.00000000000E+00  0.62739878947E+03  0.62739878947E+03  0.00000000000E+00 0. -1.
         -2   -1    0    0    0  501 -0.00000000000E+00 -0.00000000000E+00 -0.42231086822E+03  0.42231086822E+03  0.00000000000E+00 0.  1.
    9900016    2    1    2    0    0  0.34949533654E+02  0.12109336730E+03 -0.45936776047E+02  0.76882093923E+03  0.75702732824E+03 0.  0.
         23    2    3    3    0    0  0.10670417911E+03  0.31542062932E+02  0.85946358703E+02  0.15329020381E+03  0.61077217006E+02 0.  0.
         23    2    3    3    0    0  0.99217174381E+02  0.16596020408E+03  0.70006790964E+02  0.22473410211E+03  0.90651138102E+02 0.  0.
        -15    1    5    5    0    0 -0.33999385766E+01  0.75522596612E+02  0.36289711545E+02  0.83858007043E+02  0.00000000000E+00 0.  1.
        -15    1    4    4    0    0  0.57308319300E+02  0.34462469615E+02  0.78709625275E+02  0.10328170401E+03  0.00000000000E+00 0.  1.
         15    1    4    4    0    0  0.49395859807E+02 -0.29204066826E+01  0.72367334274E+01  0.50008499797E+02  0.00000000000E+00 0. -1.
         15    1    5    5    0    0  0.10261711296E+03  0.90437607468E+02  0.33717079419E+02  0.14087609507E+03  0.00000000000E+00 0. -1.
        -16    1    3    3    0    0 -0.17226947129E+03 -0.11215033828E+03 -0.20828414937E+03  0.29263758472E+03  0.00000000000E+00 0.  1.
         16    1    1    2    0    0 -0.34949533654E+02 -0.12109336730E+03  0.25102469730E+03  0.28088871846E+03  0.00000000000E+00 0. -1.
    9900018    1    3    3    0    0  0.12976514595E+01  0.35741438567E+02  0.63942236537E+01  0.98159048590E+02  0.91187600000E+02 0.  0.
<mgrwt>
<rscale>  0 0.10294801E+04</rscale>
<asrwt>0</asrwt>
<pdfrwt beam="1">  1        2 0.96522891E-01 0.10294801E+04</pdfrwt>
<pdfrwt beam="2">  1       -2 0.64970903E-01 0.10294801E+04</pdfrwt>
<totfact> 0.10237991E+02</totfact>
</mgrwt>
</event>
<event>
12    1  0.3296446E-014  0.8762919E+03  0.7818608E-02  0.9455713E-01
          2   -1    0    0  501    0  0.00000000000E+00  0.00000000000E+00  0.74532902601E+03  0.74532902601E+03  0.00000000000E+00 0. -1.
         -2   -1    0    0    0  501 -0.00000000000E+00 -0.00000000000E+00 -0.25756659739E+03  0.25756659739E+03  0.00000000000E+00 0.  1.
    9900016    2    1    2    0    0 -0.41756633491E+02 -0.62525580009E+01  0.33740090650E+03  0.75394138244E+03  0.67290825937E+03 0.  0.
         23    2    3    3    0    0 -0.23184416207E+03  0.83239329106E+02  0.32745702734E+03  0.41593555888E+03  0.71370743219E+02 0.  0.
         23    2    3    3    0    0  0.23414372105E+02 -0.13488982635E+03  0.77194233759E+01  0.16524627338E+03  0.92213032130E+02 0.  0.
        -15    1    4    4    0    0 -0.29988272677E+02  0.30137441299E+02  0.91592308879E+02  0.10097877456E+03  0.00000000000E+00 0.  1.
        -15    1    5    5    0    0  0.46470750641E+02 -0.80227809703E+02  0.36083233175E+02  0.99488852799E+02  0.00000000000E+00 0.  1.
         15    1    5    5    0    0 -0.23056378535E+02 -0.54662016645E+02 -0.28363809799E+02  0.65757420579E+02  0.00000000000E+00 0. -1.
         15    1    4    4    0    0 -0.20185588939E+03  0.53101887807E+02  0.23586471846E+03  0.31495678432E+03  0.00000000000E+00 0. -1.
        -16    1    3    3    0    0  0.16667315648E+03  0.45397939241E+02  0.22244557845E+01  0.17275955019E+03  0.00000000000E+00 0.  1.
         16    1    1    2    0    0  0.81986321081E+02  0.60384861624E+01  0.11868143029E+03  0.14437278848E+03  0.00000000000E+00 0. -1.
    9900018    1    1    2    0    0 -0.40229687590E+02  0.21407183854E+00  0.31680091830E+02  0.10458145248E+03  0.91187600000E+02 0.  0.
<mgrwt>
<rscale>  0 0.87629187E+03</rscale>
<asrwt>0</asrwt>
<pdfrwt beam="1">  1        2 0.11466600E+00 0.87629187E+03</pdfrwt>
<pdfrwt beam="2">  1       -2 0.39625631E-01 0.87629187E+03</pdfrwt>
<totfact> 0.22847817E+02</totfact>
</mgrwt>
</event>
<event>
12    1  0.3296446E-014  0.9183810E+03  0.7818608E-02  0.9402892E-01
          1   -1    0    0  501    0  0.00000000000E+00  0.00000000000E+00  0.76359306519E+03  0.76359306519E+03  0.00000000000E+00 0. -1.
         -1   -1    0    0    0  501 -0.00000000000E+00 -0.00000000000E+00 -0.27613647554E+03  0.27613647554E+03  0.00000000000E+00 0.  1.
    9900016    2    1    2    0    0  0.48411428018E+02  0.40928335629E+02  0.24610065778E+03  0.71834345742E+03  0.67188763498E+03 0.  0.
         23    2    3    3    0    0 -0.10026710541E+03  0.16587287661E+03  0.21563784910E+03  0.29623671964E+03  0.60738854728E+02 0.  0.
         23    2    3    3    0    0  0.17999554129E+03 -0.19368695230E+03  0.12235704143E+03  0.30314950132E+03  0.83757651527E+02 0.  0.
        -15    1    5    5    0    0  0.14640044653E+03 -0.10847694831E+03  0.10377766550E+03  0.20969058853E+03  0.00000000000E+00 0.  1.
        -15    1    4    4    0    0 -0.45263966807E+02  0.39591835771E+02  0.98582672036E+02  0.11547676553E+03  0.00000000000E+00 0.  1.
         15    1    5    5    0    0  0.33595094755E+02 -0.85210003984E+02  0.18579375933E+02  0.93458912794E+02  0.00000000000E+00 0. -1.
         15    1    4    4    0    0 -0.55003138607E+02  0.12628104084E+03  0.11705517706E+03  0.18075995411E+03  0.00000000000E+00 0. -1.
        -16    1    3    3    0    0 -0.31317007854E+02  0.68742411312E+02 -0.91894232750E+02  0.11895723646E+03  0.00000000000E+00 0.  1.
         16    1    1    2    0    0 -0.85244696027E+02 -0.55738978937E+02  0.17283337608E+03  0.20061123563E+03  0.00000000000E+00 0. -1.
    9900018    1    1    2    0    0  0.36833268010E+02  0.14810643308E+02  0.68522555779E+02  0.12077484768E+03  0.91187600000E+02 0.  0.
<mgrwt>
<rscale>  0 0.91838096E+03</rscale>
<asrwt>0</asrwt>
<pdfrwt beam="1">  1        1 0.11747586E+00 0.91838096E+03</pdfrwt>
<pdfrwt beam="2">  1       -1 0.42482535E-01 0.91838096E+03</pdfrwt>
<totfact> 0.13059409E+02</totfact>
</mgrwt>
</event>
<event>
12    1  0.3296446E-014  0.9322844E+03  0.7818608E-02  0.9386100E-01
          5   -1    0    0  501    0  0.00000000000E+00  0.00000000000E+00  0.61518584009E+03  0.61518584009E+03  0.00000000000E+00 0. -1.
         -5   -1    0    0    0  501 -0.00000000000E+00 -0.00000000000E+00 -0.35320798120E+03  0.35320798120E+03  0.00000000000E+00 0.  1.
    9900016    2    1    2    0    0  0.11249812986E+02 -0.12028796761E+03  0.16040140863E+03  0.69735149543E+03  0.66781340421E+03 0.  0.
         23    2    3    3    0    0 -0.17463702896E+03 -0.39574597330E+02 -0.24166110152E+02  0.19700333178E+03  0.78498861218E+02 0.  0.
         23    2    3    3    0    0  0.11085455386E+03  0.14283399361E+03  0.16914758413E+03  0.26404106994E+03  0.91741482204E+02 0.  0.
        -15    1    4    4    0    0 -0.82208391351E+02 -0.32355270707E+02 -0.48999407842E+02  0.10102487377E+03  0.00000000000E+00 0. -1.
        -15    1    5    5    0    0  0.79203255440E+02  0.42723449488E+02  0.11463518278E+03  0.14573837497E+03  0.00000000000E+00 0. -1.
         15    1    5    5    0    0  0.31651298417E+02  0.10011054412E+03  0.54512401350E+02  0.11830269497E+03  0.00000000000E+00 0.  1.
         15    1    4    4    0    0 -0.92428637610E+02 -0.72193266239E+01  0.24833297689E+02  0.95978458008E+02  0.00000000000E+00 0.  1.
        -16    1    3    3    0    0  0.75032288089E+02 -0.22354736389E+03  0.15419934656E+02  0.23630709372E+03  0.00000000000E+00 0.  1.
         16    1    1    2    0    0 -0.59823963309E+02  0.13029711248E+03  0.82769092075E+02  0.16555049595E+03  0.00000000000E+00 0. -1.
    9900018    1    1    2    0    0  0.48574150324E+02 -0.10009144878E+02  0.18807358189E+02  0.10549182990E+03  0.91187600000E+02 0.  0.
<mgrwt>
<rscale>  0 0.93228440E+03</rscale>
<asrwt>0</asrwt>
<pdfrwt beam="1">  1        5 0.94643975E-01 0.93228440E+03</pdfrwt>
<pdfrwt beam="2">  1       -5 0.54339689E-01 0.93228440E+03</pdfrwt>
<totfact> 0.27882998E+00</totfact>
</mgrwt>
</event>
<event>
12    1  0.3296446E-014  0.8123375E+03  0.7818608E-02  0.9542329E-01
         -2   -1    0    0    0  501 -0.00000000000E+00  0.00000000000E+00  0.47391086218E+03  0.47391086218E+03  0.00000000000E+00 0. -1.
          2   -1    0    0  501    0  0.00000000000E+00 -0.00000000000E+00 -0.34810985348E+03  0.34810985348E+03  0.00000000000E+00 0.  1.
    9900016    2    1    2    0    0 -0.25045562290E+02 -0.23707017136E+02  0.13166954543E+03  0.67777569111E+03  0.66396815843E+03 0.  0.
         23    2    3    3    0    0  0.64419647257E+02  0.13655401948E+03  0.12588679480E+03  0.22413847811E+03  0.10767395727E+03 0.  0.
         23    2    3    3    0    0 -0.47460443988E+02  0.88658127719E+02  0.11598293919E+03  0.17819351229E+03  0.90488277052E+02 0.  0.
        -15    1    4    4    0    0 -0.11526819256E+02  0.49975122477E+01 -0.13167050026E+02  0.18199282876E+02  0.00000000000E+00 0.  1.
        -15    1    5    5    0    0 -0.56567491572E+02  0.25750446546E+02  0.90333724775E+02  0.10965011825E+03  0.00000000000E+00 0. -1.
         15    1    4    4    0    0  0.75946466513E+02  0.13155650724E+03  0.13905384482E+03  0.20593919523E+03  0.00000000000E+00 0. -1.
         15    1    5    5    0    0  0.91070475831E+01  0.62907681173E+02  0.25649214413E+02  0.68543394038E+02  0.00000000000E+00 0.  1.
        -16    1    1    2    0    0  0.10881587678E+02  0.17744423951E+02 -0.40470560419E+02  0.45509776887E+02  0.00000000000E+00 0.  1.
         16    1    3    3    0    0 -0.42004765558E+02 -0.24891916434E+03 -0.11020018855E+03  0.27544370071E+03  0.00000000000E+00 0. -1.
    9900018    1    1    2    0    0  0.14163974612E+02  0.59625931856E+01  0.34602023683E+02  0.98735247663E+02  0.91187600000E+02 0.  0.
<mgrwt>
<rscale>  0 0.81233747E+03</rscale>
<asrwt>0</asrwt>
<pdfrwt beam="1">  1        2 0.53555362E-01 0.81233747E+03</pdfrwt>
<pdfrwt beam="2">  1       -2 0.72909364E-01 0.81233747E+03</pdfrwt>
<totfact> 0.15920260E+02</totfact>
</mgrwt>
</event>
<event>
11    1  0.3296446E-014  0.8561401E+03  0.7818608E-02  0.9482133E-01
          1   -1    0    0  501    0  0.00000000000E+00  0.00000000000E+00  0.16436932115E+03  0.16436932115E+03  0.00000000000E+00 0. -1.
         -1   -1    0    0    0  501 -0.00000000000E+00 -0.00000000000E+00 -0.11148307338E+04  0.11148307338E+04  0.00000000000E+00 0.  1.
    9900016    2    1    2    0    0  0.10843760500E+02 -0.56044351975E+02 -0.82145365333E+03  0.10670483556E+04  0.67863652427E+03 0.  0.
         23    2    3    3    0    0  0.34368682652E+02 -0.11409068220E+03 -0.53338691631E+03  0.55418531656E+03  0.91770760480E+02 0.  0.
        -15    1    3    3    0    0  0.12565982459E+03 -0.12716092897E+03 -0.95680173812E+02  0.20276831368E+03  0.00000000000E+00 0.  1.
        -15    1    4    4    0    0 -0.21662354665E+02 -0.60792148566E+02 -0.33695101668E+03  0.34307569220E+03  0.00000000000E+00 0.  1.
         15    1    4    4    0    0  0.56031037317E+02 -0.53298533639E+02 -0.19643589963E+03  0.21110962435E+03  0.00000000000E+00 0. -1.
         15    1    3    3    0    0 -0.23586027023E+02  0.29227649722E+02 -0.57369585406E+02  0.68569858601E+02  0.00000000000E+00 0. -1.
        -16    1    3    3    0    0 -0.12559871972E+03  0.15597960948E+03 -0.13501697780E+03  0.24152486675E+03  0.00000000000E+00 0.  1.
         16    1    1    2    0    0 -0.13247487268E+02  0.54321195832E+02 -0.22298003304E+01  0.55957664757E+02  0.00000000000E+00 0. -1.
    9900018    1    1    2    0    0  0.24037267682E+01  0.17231561434E+01 -0.12677795902E+03  0.15619403464E+03  0.91187600000E+02 0.  0.
<mgrwt>
<rscale>  0 0.85614011E+03</rscale>
<asrwt>0</asrwt>
<pdfrwt beam="1">  1        1 0.25287589E-01 0.85614011E+03</pdfrwt>
<pdfrwt beam="2">  1       -1 0.17151241E+00 0.85614011E+03</pdfrwt>
<totfact> 0.46725466E+01</totfact>
</mgrwt>
</event>
<event>
12    1  0.3296446E-014  0.1056966E+04  0.7818608E-02  0.9248182E-01
         -2   -1    0    0    0  501 -0.00000000000E+00  0.00000000000E+00  0.31811720814E+03  0.31811720814E+03  0.00000000000E+00 0.  1.
          2   -1    0    0  501    0  0.00000000000E+00 -0.00000000000E+00 -0.87795974247E+03  0.87795974247E+03  0.00000000000E+00 0. -1.
    9900016    2    1    2    0    0  0.18371002745E+03 -0.82339302178E+02 -0.22196154697E+03  0.72371950058E+03  0.65876691805E+03 0.  0.
         23    2    3    3    0    0  0.61225680111E+02 -0.99187751301E+02 -0.79659586704E+02  0.18385731651E+03  0.11777550325E+03 0.  0.
         23    2    3    3    0    0 -0.84977630162E+02 -0.19160240217E+03 -0.53253235964E+02  0.23258070918E+03  0.85587388070E+02 0.  0.
        -15    1    4    4    0    0  0.67789310354E+02 -0.73042232620E+02 -0.10647550831E+03  0.14583412568E+03  0.00000000000E+00 0.  1.
        -15    1    5    5    0    0 -0.18934627133E+02 -0.55425203787E+02  0.23226570187E+02  0.63007514490E+02  0.00000000000E+00 0.  1.
         15    1    5    5    0    0 -0.66043003029E+02 -0.13617719838E+03 -0.76479806151E+02  0.16957319469E+03  0.00000000000E+00 0. -1.
         15    1    4    4    0    0 -0.65636302426E+01 -0.26145518681E+02  0.26815921603E+02  0.38023190825E+02  0.00000000000E+00 0. -1.
        -16    1    1    2    0    0 -0.19387621011E+03  0.35370176544E+02 -0.30689672786E+03  0.36472542523E+03  0.00000000000E+00 0.  1.
         16    1    3    3    0    0  0.20746197750E+03  0.20845085129E+03 -0.89048724303E+02  0.30728147489E+03  0.00000000000E+00 0. -1.
    9900018    1    1    2    0    0  0.10166182658E+02  0.46969125633E+02 -0.30984259501E+02  0.10763202480E+03  0.91187600000E+02 0.  0.
<mgrwt>
<rscale>  0 0.10569657E+04</rscale>
<asrwt>0</asrwt>
<pdfrwt beam="1">  1        2 0.13507073E+00 0.10569657E+04</pdfrwt>
<pdfrwt beam="2">  1       -2 0.48941108E-01 0.10569657E+04</pdfrwt>
<totfact> 0.11941409E+02</totfact>
</mgrwt>
</event>
<event>
12    1  0.3296446E-014  0.1152376E+04  0.7818608E-02  0.9155594E-01
         -2   -1    0    0    0  501 -0.00000000000E+00  0.00000000000E+00  0.27130026523E+03  0.27130026523E+03  0.00000000000E+00 0.  1.
          2   -1    0    0  501    0  0.00000000000E+00 -0.00000000000E+00 -0.12237099961E+04  0.12237099961E+04  0.00000000000E+00 0. -1.
    9900016    2    1    2    0    0  0.15014833234E+03 -0.22530894164E+03 -0.78811259463E+03  0.10717456145E+04  0.67394996804E+03 0.  0.
         23    2    3    3    0    0  0.69012351350E+02  0.24550616027E+02  0.43673319908E+02  0.11528551848E+03  0.77575476232E+02 0.  0.
         23    2    3    3    0    0 -0.88972043449E+02  0.28853955933E+02 -0.17164557506E+03  0.21997979724E+03  0.10089763361E+03 0.  0.
        -15    1    5    5    0    0 -0.79867785901E+02  0.62367077517E+02 -0.11264097316E+03  0.15151404033E+03  0.00000000000E+00 0.  1.
        -15    1    4    4    0    0  0.94785288991E+01  0.18575357490E+02  0.50910918095E+02  0.55016433884E+02  0.00000000000E+00 0. -1.
         15    1    4    4    0    0  0.59533822451E+02  0.59752585371E+01 -0.72375981875E+01  0.60269084593E+02  0.00000000000E+00 0.  1.
         15    1    5    5    0    0 -0.91042575485E+01 -0.33513121584E+02 -0.59004601901E+02  0.68465756910E+02  0.00000000000E+00 0. -1.
        -16    1    1    2    0    0 -0.15934607357E+03  0.23052144426E+03 -0.64291693984E+02  0.28751474631E+03  0.00000000000E+00 0.  1.
         16    1    3    3    0    0  0.17010802444E+03 -0.27871351360E+03 -0.66014033948E+03  0.73648029875E+03  0.00000000000E+00 0. -1.
    9900018    1    1    2    0    0  0.91977412350E+01 -0.52125026253E+01 -0.10000544227E+03  0.13574990057E+03  0.91187600000E+02 0.  0.
<mgrwt>
<rscale>  0 0.11523764E+04</rscale>
<asrwt>0</asrwt>
<pdfrwt beam="1">  1        2 0.18826307E+00 0.11523764E+04</pdfrwt>
<pdfrwt beam="2">  1       -2 0.41738503E-01 0.11523764E+04</pdfrwt>
<totfact> 0.98633638E+01</totfact>
</mgrwt>
</event>
<event>
12    1  0.3296446E-014  0.2289959E+04  0.7818608E-02  0.8481891E-01
          2   -1    0    0  501    0  0.00000000000E+00  0.00000000000E+00  0.96526991909E+03  0.96526991909E+03  0.00000000000E+00 0. -1.
         -2   -1    0    0    0  501 -0.00000000000E+00 -0.00000000000E+00 -0.13581470843E+04  0.13581470843E+04  0.00000000000E+00 0.  1.
    9900016    2    1    2    0    0 -0.10207983571E+03  0.18559971286E+03 -0.10558648420E+04  0.12623158738E+04  0.65857668829E+03 0.  0.
         23    2    3    3    0    0 -0.76334940607E+01 -0.10930025903E+02 -0.14747893202E+03  0.16757883944E+03  0.78453147423E+02 0.  0.
         23    2    3    3    0    0 -0.20077354840E+03  0.33434346004E+03 -0.43988827912E+03  0.59494895246E+03  0.91471257343E+02 0.  0.
        -15    1    4    4    0    0 -0.31338121093E+02 -0.34047332730E+02 -0.91658665708E+02  0.10267721120E+03  0.00000000000E+00 0. -1.
        -15    1    5    5    0    0 -0.11835016928E+03  0.24172006431E+03 -0.35139320364E+03  0.44262008046E+03  0.00000000000E+00 0.  1.
         15    1    5    5    0    0 -0.82423379123E+02  0.92623395727E+02 -0.88495075480E+02  0.15232887201E+03  0.00000000000E+00 0. -1.
         15    1    4    4    0    0  0.23704627032E+02  0.23117306827E+02 -0.55820266309E+02  0.64901628242E+02  0.00000000000E+00 0.  1.
        -16    1    3    3    0    0  0.10632720675E+03 -0.13781372127E+03 -0.46849763089E+03  0.49978808191E+03  0.00000000000E+00 0.  1.
         16    1    1    2    0    0  0.49414438177E+02 -0.21996975545E+03  0.83034400658E+03  0.86040667668E+03  0.00000000000E+00 0. -1.
    9900018    1    1    2    0    0  0.52665397530E+02  0.34370042589E+02 -0.16735632977E+03  0.20069445292E+03  0.91187600000E+02 0.  0.
<mgrwt>
<rscale>  0 0.22899594E+04</rscale>
<asrwt>0</asrwt>
<pdfrwt beam="1">  1        2 0.14850306E+00 0.22899594E+04</pdfrwt>
<pdfrwt beam="2">  1       -2 0.20894571E+00 0.22899594E+04</pdfrwt>
<totfact> 0.27992086E+00</totfact>
</mgrwt>
</event>
<event>
12    1  0.3296446E-014  0.1119518E+04  0.7818608E-02  0.9186375E-01
          2   -1    0    0  501    0  0.00000000000E+00  0.00000000000E+00  0.36575219763E+03  0.36575219763E+03  0.00000000000E+00 0. -1.
         -2   -1    0    0    0  501 -0.00000000000E+00 -0.00000000000E+00 -0.85667292191E+03  0.85667292191E+03  0.00000000000E+00 0.  1.
    9900016    2    1    2    0    0  0.14205285199E+03 -0.82039331135E+02 -0.86577774987E+02  0.78607355801E+03  0.76387594730E+03 0.  0.
         23    2    3    3    0    0 -0.12105442994E+03 -0.65833949085E+02 -0.10893788883E+03  0.20920852456E+03  0.11363300254E+03 0.  0.
         23    2    3    3    0    0  0.13846512750E+03 -0.77321963036E+02 -0.13105352811E+03  0.22489839899E+03  0.90845941780E+02 0.  0.
        -15    1    4    4    0    0 -0.64942388145E+02 -0.84337801252E+02 -0.29968744965E+02  0.11058256722E+03  0.00000000000E+00 0. -1.
        -15    1    5    5    0    0  0.65764660237E+01 -0.44479541201E+02 -0.19268232873E+02  0.48917729801E+02  0.00000000000E+00 0.  1.
         15    1    4    4    0    0 -0.56112041792E+02  0.18503852167E+02 -0.78969143860E+02  0.98625957339E+02  0.00000000000E+00 0.  1.
         15    1    5    5    0    0  0.13188866148E+03 -0.32842421835E+02 -0.11178529524E+03  0.17598066919E+03  0.00000000000E+00 0. -1.
        -16    1    1    2    0    0 -0.14205285199E+03  0.82039331135E+02 -0.40434294930E+03  0.43635156154E+03  0.00000000000E+00 0.  1.
         16    1    3    3    0    0  0.91016766345E+02  0.32285578644E+02  0.21335615713E+03  0.23419491909E+03  0.00000000000E+00 0. -1.
    9900018    1    3    3    0    0  0.33625388079E+02  0.28831002342E+02 -0.59942515179E+02  0.11777171536E+03  0.91187600000E+02 0.  0.
<mgrwt>
<rscale>  0 0.11195178E+04</rscale>
<asrwt>0</asrwt>
<pdfrwt beam="1">  1        2 0.56269569E-01 0.11195178E+04</pdfrwt>
<pdfrwt beam="2">  1       -2 0.13179583E+00 0.11195178E+04</pdfrwt>
<totfact> 0.36558709E+01</totfact>
</mgrwt>
</event>
<event>
12    1  0.3296446E-014  0.9829527E+03  0.7818608E-02  0.9327442E-01
         -2   -1    0    0    0  501 -0.00000000000E+00  0.00000000000E+00  0.10694796411E+03  0.10694796411E+03  0.00000000000E+00 0.  1.
          2   -1    0    0  501    0  0.00000000000E+00 -0.00000000000E+00 -0.22585656148E+04  0.22585656148E+04  0.00000000000E+00 0. -1.
    9900016    2    1    2    0    0 -0.93922387332E+02 -0.45210128543E+02 -0.12840251627E+04  0.14916817325E+04  0.75201622462E+03 0.  0.
         23    2    3    3    0    0  0.11204350828E+03  0.12204203692E+03 -0.19743518233E+03  0.26919915313E+03  0.77714389280E+02 0.  0.
         23    2    3    3    0    0  0.42915255315E+02 -0.11294147146E+03 -0.10015563012E+03  0.18244810791E+03  0.93051957094E+02 0.  0.
        -15    1    4    4    0    0  0.80174569956E+02  0.11994090756E+03 -0.12839555166E+03  0.19313000973E+03  0.00000000000E+00 0. -1.
        -15    1    5    5    0    0  0.54348157353E+02 -0.32728243554E+02 -0.73632149815E+02  0.97193382595E+02  0.00000000000E+00 0.  1.
         15    1    4    4    0    0  0.31868938321E+02  0.21011293630E+01 -0.69039630664E+02  0.76069143393E+02  0.00000000000E+00 0.  1.
         15    1    5    5    0    0 -0.11432902038E+02 -0.80213227911E+02 -0.26523480309E+02  0.85254725315E+02  0.00000000000E+00 0. -1.
        -16    1    3    3    0    0 -0.20358565429E+03 -0.73344057856E+02 -0.77418688141E+03  0.80386055806E+03  0.00000000000E+00 0.  1.
         16    1    1    2    0    0  0.93922387332E+02  0.45210128543E+02 -0.86759248801E+03  0.87383184642E+03  0.00000000000E+00 0. -1.
    9900018    1    3    3    0    0 -0.45295496631E+02  0.19033363860E+02 -0.21224746879E+03  0.23617391337E+03  0.91187600000E+02 0.  0.
<mgrwt>
<rscale>  0 0.98295268E+03</rscale>
<asrwt>0</asrwt>
<pdfrwt beam="1">  1        2 0.34747163E+00 0.98295268E+03</pdfrwt>
<pdfrwt beam="2">  1       -2 0.16453533E-01 0.98295268E+03</pdfrwt>
<totfact> 0.14462320E+02</totfact>
</mgrwt>
</event>
