<event>
12    1  0.4485850E-013  0.3932290E+04  0.7818608E-02  0.8018347E-01
          1   -1    0    0  501    0  0.00000000000E+00  0.00000000000E+00  0.21755922294E+04  0.21755922294E+04  0.00000000000E+00 0. -1.
         -1   -1    0    0    0  501 -0.00000000000E+00 -0.00000000000E+00 -0.17768618265E+04  0.17768618265E+04  0.00000000000E+00 0.  1.
         23    2    1    2    0    0  0.29893957317E+00 -0.42573499536E+02  0.12630137459E+03  0.16104453929E+03  0.90392002874E+02 0.  0.
    9900016    2    1    2    0    0 -0.80411478277E+02  0.73761223966E+02 -0.10445555636E+04  0.24716219927E+04  0.22373896007E+04 0.  0.
        -24    2    4    4    0    0  0.59900740409E+03  0.39032350946E+02  0.45019997241E+03  0.75507550312E+03  0.84413302717E+02 0.  0.
        -15    1    3    3    0    0  0.70256312831E+01 -0.67988008737E+02  0.11175286063E+03  0.13099782703E+03  0.00000000000E+00 0.  1.
        -15    1    4    4    0    0 -0.68867567415E+03 -0.94964598059E+00 -0.14563253566E+04  0.16109496051E+04  0.00000000000E+00 0.  1.
         15    1    3    3    0    0 -0.67266917100E+01  0.25414509201E+02  0.14548513963E+02  0.30046712263E+02  0.00000000000E+00 0. -1.
         15    1    5    5    0    0  0.47126492785E+03  0.62021446124E+01  0.38151853232E+03  0.60637075236E+03  0.00000000000E+00 0. -1.
        -16    1    5    5    0    0  0.12774247625E+03  0.32830206334E+02  0.68681440094E+02  0.14870475076E+03  0.00000000000E+00 0.  1.
         16    1    1    2    0    0  0.80112538704E+02 -0.31187724431E+02  0.13169845919E+04  0.13197875240E+04  0.00000000000E+00 0. -1.
    9900018    1    4    4    0    0  0.92567917797E+01  0.35678519001E+02 -0.38430179456E+02  0.10559688442E+03  0.91187600000E+02 0.  0.
<mgrwt>
<rscale>  0 0.39322903E+04</rscale>
<asrwt>0</asrwt>
<pdfrwt beam="1">  1        1 0.33470650E+00 0.39322903E+04</pdfrwt>
<pdfrwt beam="2">  1       -1 0.27336336E+00 0.39322903E+04</pdfrwt>
<totfact> 0.87543384E-02</totfact>
</mgrwt>
</event>
<event>
12    1  0.4485850E-013  0.3054467E+04  0.7818608E-02  0.9015296E-01
          1   -1    0    0  501    0  0.00000000000E+00  0.00000000000E+00  0.16218744581E+04  0.16218744581E+04  0.00000000000E+00 0. -1.
         -1   -1    0    0    0  501 -0.00000000000E+00 -0.00000000000E+00 -0.15397608579E+04  0.15397608579E+04  0.00000000000E+00 0.  1.
         23    2    1    2    0    0  0.49739471383E+02 -0.17564517539E+02 -0.30402420555E+01  0.10598111391E+03  0.91870703400E+02 0.  0.
    9900016    2    1    2    0    0  0.63103167218E+03  0.18142493990E+03  0.12573034706E+03  0.23542655504E+04  0.22573529147E+04 0.  0.
        -24    2    4    4    0    0 -0.44369732710E+03 -0.71746115071E+03  0.28872887491E+03  0.89499770761E+03  0.77709153650E+02 0.  0.
        -15    1    4    4    0    0  0.98448379088E+03  0.87632019170E+03 -0.12694741168E+03  0.13241076460E+04  0.00000000000E+00 0.  1.
        -15    1    3    3    0    0  0.44117774986E+02 -0.51481279668E+02 -0.15258939220E+02  0.69494859178E+02  0.00000000000E+00 0. -1.
         15    1    5    5    0    0 -0.15734564923E+03 -0.26472017666E+03  0.66591886061E+02  0.31506968206E+03  0.00000000000E+00 0. -1.
         15    1    3    3    0    0  0.56216963970E+01  0.33916762129E+02  0.12218697165E+02  0.36486254728E+02  0.00000000000E+00 0.  1.
        -16    1    5    5    0    0 -0.28635167787E+03 -0.45274097405E+03  0.22213698885E+03  0.57992802555E+03  0.00000000000E+00 0.  1.
         16    1    1    2    0    0 -0.68077114357E+03 -0.16386042236E+03 -0.40576504875E+02  0.70138865166E+03  0.00000000000E+00 0. -1.
    9900018    1    4    4    0    0  0.90245208407E+02  0.22565898905E+02 -0.36051116170E+02  0.13516019682E+03  0.91187600000E+02 0.  0.
<mgrwt>
<rscale>  0 0.13181476E+04</rscale>
<asrwt>0</asrwt>
<pdfrwt beam="1">  1        1 0.24951915E+00 0.30544675E+04</pdfrwt>
<pdfrwt beam="2">  1       -1 0.23688629E+00 0.30544675E+04</pdfrwt>
<totfact> 0.38667559E-01</totfact>
</mgrwt>
</event>
<event>
12    1  0.4485850E-013  0.2649522E+04  0.7818608E-02  0.9049987E-01
         -2   -1    0    0    0  501 -0.00000000000E+00  0.00000000000E+00  0.28346928075E+04  0.28346928075E+04  0.00000000000E+00 0.  1.
          2   -1    0    0  501    0  0.00000000000E+00 -0.00000000000E+00 -0.71256708880E+03  0.71256708880E+03  0.00000000000E+00 0. -1.
         23    2    1    2    0    0 -0.18481156603E+02 -0.10705686195E+03  0.29939329848E+03  0.33131231900E+03  0.91262153760E+02 0.  0.
    9900016    2    1    2    0    0 -0.12133211586E+03 -0.14087891107E+03  0.17676918881E+04  0.27961961453E+04  0.21585666360E+04 0.  0.
        -24    2    4    4    0    0  0.53372666190E+02  0.94387631059E+03  0.37007122209E+03  0.10183999878E+04  0.80216547388E+02 0.  0.
        -15    1    4    4    0    0 -0.17470478205E+03 -0.10847552217E+04  0.13976206660E+04  0.17777961576E+04  0.00000000000E+00 0.  1.
        -15    1    3    3    0    0  0.25887855229E+02 -0.57194241849E+02  0.21347517013E+03  0.22251519186E+03  0.00000000000E+00 0.  1.
         15    1    3    3    0    0 -0.44369011833E+02 -0.49862620099E+02  0.85918128348E+02  0.10879712714E+03  0.00000000000E+00 0. -1.
         15    1    5    5    0    0  0.40292495395E+01  0.19818488344E+02 -0.33912345677E+01  0.20506286938E+02  0.00000000000E+00 0. -1.
        -16    1    5    5    0    0  0.49343416651E+02  0.92405782225E+03  0.37346245666E+03  0.99789370083E+03  0.00000000000E+00 0.  1.
         16    1    1    2    0    0  0.18316371949E+03  0.22751136010E+03 -0.19298809027E+02  0.29271626388E+03  0.00000000000E+00 0. -1.
    9900018    1    1    2    0    0 -0.43350447022E+02  0.20424412919E+02  0.74339341212E+02  0.12703516815E+03  0.91187600000E+02 0.  0.
<mgrwt>
<rscale>  0 0.12745596E+04</rscale>
<asrwt>0</asrwt>
<pdfrwt beam="1">  1        2 0.10962571E+00 0.26495217E+04</pdfrwt>
<pdfrwt beam="2">  1       -2 0.43610658E+00 0.26495217E+04</pdfrwt>
<totfact> 0.15040067E-01</totfact>
</mgrwt>
</event>
<event>
12    1  0.4485850E-013  0.2498567E+04  0.7818608E-02  0.8403496E-01
          1   -1    0    0  501    0  0.00000000000E+00  0.00000000000E+00  0.16721009039E+04  0.16721009039E+04  0.00000000000E+00 0. -1.
         -1   -1    0    0    0  501 -0.00000000000E+00 -0.00000000000E+00 -0.93338201164E+03  0.93338201164E+03  0.00000000000E+00 0.  1.
         23    2    1    2    0    0  0.46311094144E+02  0.48837627448E+02  0.79898820925E+02  0.13851799902E+03  0.90959239062E+02 0.  0.
    9900016    2    1    2    0    0 -0.34496968593E+02 -0.71743178421E+02  0.51256806792E+03  0.22170006969E+04  0.21554649014E+04 0.  0.
        -24    2    4    4    0    0 -0.99019830258E+03  0.68075509774E+02  0.71978435893E+03  0.12291480274E+04  0.87111402322E+02 0.  0.
        -15    1    4    4    0    0  0.95570133399E+03 -0.13981868819E+03 -0.20721629101E+03  0.98785266949E+03  0.00000000000E+00 0.  1.
        -15    1    3    3    0    0 -0.18285467333E+02 -0.12345015544E+02  0.27523212091E+02  0.35274423144E+02  0.00000000000E+00 0. -1.
         15    1    3    3    0    0  0.64596561477E+02  0.61182642991E+02  0.52375608834E+02  0.10324357587E+03  0.00000000000E+00 0.  1.
         15    1    5    5    0    0 -0.38361781055E+03  0.40300639819E+02  0.32966557997E+03  0.50741123437E+03  0.00000000000E+00 0. -1.
        -16    1    5    5    0    0 -0.60658049203E+03  0.27774869955E+02  0.39011877896E+03  0.72173679302E+03  0.00000000000E+00 0.  1.
         16    1    1    2    0    0 -0.12230753469E+02  0.19163918480E+02  0.15648431401E+03  0.15812712492E+03  0.00000000000E+00 0. -1.
    9900018    1    1    2    0    0  0.41662791829E+00  0.37416324931E+01 -0.10232310595E+02  0.91837094719E+02  0.91187600000E+02 0.  0.
<mgrwt>
<rscale>  0 0.24985667E+04</rscale>
<asrwt>0</asrwt>
<pdfrwt beam="1">  1        1 0.25724629E+00 0.24985667E+04</pdfrwt>
<pdfrwt beam="2">  1       -1 0.14359723E+00 0.24985667E+04</pdfrwt>
<totfact> 0.17347514E+00</totfact>
</mgrwt>
</event>
<event>
12    1  0.4485850E-013  0.5809852E+04  0.7818608E-02  0.8553319E-01
          2   -1    0    0  501    0  0.00000000000E+00  0.00000000000E+00  0.24827240646E+04  0.24827240646E+04  0.00000000000E+00 0. -1.
         -2   -1    0    0    0  501 -0.00000000000E+00 -0.00000000000E+00 -0.36565929485E+04  0.36565929485E+04  0.00000000000E+00 0.  1.
         23    2    1    2    0    0 -0.43237997030E+02  0.25499689173E+02  0.14884451678E+03  0.18079740322E+03  0.89516771052E+02 0.  0.
    9900016    2    1    2    0    0  0.14870473042E+04  0.86820533412E+03 -0.25910898538E+04  0.38390685462E+04  0.22493577939E+04 0.  0.
        -24    2    4    4    0    0 -0.15315777861E+03  0.93709838346E+03 -0.31447020276E+03  0.10032827993E+04  0.77937035112E+02 0.  0.
        -15    1    4    4    0    0  0.15780429738E+04 -0.75958059656E+02 -0.21407275983E+04  0.26605833767E+04  0.00000000000E+00 0.  1.
        -15    1    3    3    0    0 -0.50435685919E+02  0.32999662614E+02  0.15661937748E+03  0.16781646388E+03  0.00000000000E+00 0.  1.
         15    1    5    5    0    0 -0.88891990708E+02  0.55810069715E+03 -0.14674337972E+03  0.58387652262E+03  0.00000000000E+00 0. -1.
         15    1    3    3    0    0  0.71976888897E+01 -0.74999734418E+01 -0.77748607053E+01  0.12980939333E+02  0.00000000000E+00 0. -1.
        -16    1    5    5    0    0 -0.64265787901E+02  0.37899768631E+03 -0.16772682304E+03  0.41940627664E+03  0.00000000000E+00 0.  1.
         16    1    1    2    0    0 -0.14438093072E+04 -0.89370502329E+03  0.12683764532E+04  0.21194510637E+04  0.00000000000E+00 0. -1.
    9900018    1    4    4    0    0  0.62162109073E+02  0.70650103222E+01 -0.13589205271E+03  0.17520237030E+03  0.91187600000E+02 0.  0.
<mgrwt>
<rscale>  0 0.21180826E+04</rscale>
<asrwt>0</asrwt>
<pdfrwt beam="1">  1        2 0.38195755E+00 0.58098524E+04</pdfrwt>
<pdfrwt beam="2">  1       -2 0.56255276E+00 0.58098524E+04</pdfrwt>
<totfact> 0.18165425E-03</totfact>
</mgrwt>
</event>
<event>
12    1  0.4485850E-013  0.4006161E+04  0.7818608E-02  0.8845443E-01
          2   -1    0    0  501    0  0.00000000000E+00  0.00000000000E+00  0.48792819837E+04  0.48792819837E+04  0.00000000000E+00 0.  1.
         -2   -1    0    0    0  501 -0.00000000000E+00 -0.00000000000E+00 -0.86485586992E+03  0.86485586992E+03  0.00000000000E+00 0. -1.
         23    2    1    2    0    0  0.88972842029E+01 -0.10629794535E+02  0.16112738444E+03  0.18560933909E+03  0.91085885512E+02 0.  0.
    9900016    2    1    2    0    0 -0.44087889797E+03 -0.22070289998E+03  0.83070625212E+03  0.23494221560E+04  0.21416413372E+04 0.  0.
         24    2    4    4    0    0  0.18473413247E+03  0.52370457810E+03  0.11877440379E+04  0.13135601296E+04  0.79442619676E+02 0.  0.
        -15    1    3    3    0    0 -0.12421909939E+02 -0.38838176926E+02  0.13665260163E+03  0.14260659650E+03  0.00000000000E+00 0. -1.
        -15    1    5    5    0    0  0.10572684364E+03  0.19988561408E+03  0.43293451734E+03  0.48843087585E+03  0.00000000000E+00 0.  1.
         15    1    3    3    0    0  0.21319194142E+02  0.28208382391E+02  0.24474782817E+02  0.43002742586E+02  0.00000000000E+00 0.  1.
         15    1    4    4    0    0 -0.62561303044E+03 -0.74440747807E+03 -0.35703778574E+03  0.10358620264E+04  0.00000000000E+00 0. -1.
        -16    1    1    2    0    0  0.49272335242E+03  0.28771655742E+03  0.30322878288E+04  0.30855026489E+04  0.00000000000E+00 0.  1.
         16    1    5    5    0    0  0.79007288829E+02  0.32381896402E+03  0.75480952051E+03  0.82512925376E+03  0.00000000000E+00 0. -1.
    9900018    1    1    2    0    0 -0.60741738647E+02 -0.56383862904E+02 -0.96953515802E+01  0.12360370968E+03  0.91187600000E+02 0.  0.
<mgrwt>
<rscale>  0 0.15600987E+04</rscale>
<asrwt>0</asrwt>
<pdfrwt beam="1">  1        2 0.75065875E+00 0.40061613E+04</pdfrwt>
<pdfrwt beam="2">  1       -2 0.13305475E+00 0.40061613E+04</pdfrwt>
<totfact> 0.15349857E-02</totfact>
</mgrwt>
</event>
