<event>
10    1  0.6797271E-013  0.4272234E+04  0.7818608E-02  0.7951772E-01
         -2   -1    0    0    0  501 -0.00000000000E+00  0.00000000000E+00  0.22118734284E+04  0.22118734284E+04  0.00000000000E+00 0. -1.
          2   -1    0    0  501    0  0.00000000000E+00 -0.00000000000E+00 -0.20629552357E+04  0.20629552357E+04  0.00000000000E+00 0.  1.
    9900016    2    1    2    0    0 -0.27577089356E+03  0.59825595840E+03  0.18186642059E+03  0.23103614238E+04  0.22069741132E+04 0.  0.
        -15    1    3    3    0    0  0.28591625572E+02  0.22830660459E+02 -0.32948277476E+01  0.36736575776E+02  0.00000000000E+00 0. -1.
        -15    1    3    3    0    0 -0.10744317594E+04  0.64562562263E+03 -0.36182286683E+03  0.13046654120E+04  0.00000000000E+00 0.  1.
         15    1    3    3    0    0  0.44419137604E+03 -0.64069359651E+02  0.32869689579E+03  0.55628455910E+03  0.00000000000E+00 0. -1.
         15    1    3    3    0    0 -0.77582254046E+01  0.13776858006E+02  0.72410430719E+01  0.17390358901E+02  0.00000000000E+00 0.  1.
        -16    1    3    3    0    0  0.33363608963E+03 -0.19907823046E+02  0.21104617631E+03  0.39528451811E+03  0.00000000000E+00 0.  1.
         16    1    1    2    0    0 -0.33353398050E+03  0.40831464210E+03  0.44626127544E+03  0.69073503535E+03  0.00000000000E+00 0. -1.
    9900018    1    1    2    0    0  0.60930487406E+03 -0.10065706005E+04 -0.47920950327E+03  0.12737322049E+04  0.91187600000E+02 0.  0.
<mgrwt>
<rscale>  0 0.42722340E+04</rscale>
<asrwt>0</asrwt>
<pdfrwt beam="1">  1        2 0.31737773E+00 0.42722340E+04</pdfrwt>
<pdfrwt beam="2">  1       -2 0.34028822E+00 0.42722340E+04</pdfrwt>
<totfact> 0.85156942E-02</totfact>
</mgrwt>
</event>
<event>
11    1  0.6797271E-013  0.3655925E+04  0.7818608E-02  0.8077800E-01
          1   -1    0    0  501    0  0.00000000000E+00  0.00000000000E+00  0.11512913760E+04  0.11512913760E+04  0.00000000000E+00 0. -1.
         -1   -1    0    0    0  501 -0.00000000000E+00 -0.00000000000E+00 -0.29023475444E+04  0.29023475444E+04  0.00000000000E+00 0.  1.
    9900016    2    1    2    0    0 -0.11226916650E+04  0.23948596369E+03 -0.12625564498E+04  0.27848761364E+04  0.22008398862E+04 0.  0.
         24    2    3    3    0    0 -0.12789162050E+04  0.89416722494E+03 -0.13602550905E+04  0.20710683730E+04  0.62198143173E+02 0.  0.
        -15    1    4    4    0    0 -0.58246083699E+03  0.42580522562E+03 -0.66469238461E+03  0.98101309010E+03  0.00000000000E+00 0.  1.
        -15    1    3    3    0    0  0.14183069750E+02  0.11683389643E+02 -0.21182252228E+01  0.18497241394E+02  0.00000000000E+00 0. -1.
         15    1    3    3    0    0 -0.94050265126E+01 -0.12215090052E+02  0.87075139742E+01  0.17705472269E+02  0.00000000000E+00 0.  1.
         15    1    3    3    0    0  0.15144649685E+03 -0.65414956084E+03  0.91109351943E+02  0.67760504969E+03  0.00000000000E+00 0. -1.
        -16    1    1    2    0    0  0.70675412262E+03 -0.65225739370E+02 -0.26941391557E+03  0.75917036613E+03  0.00000000000E+00 0.  1.
         16    1    4    4    0    0 -0.69645536805E+03  0.46836199931E+03 -0.69556270586E+03  0.10900552829E+04  0.00000000000E+00 0. -1.
    9900018    1    1    2    0    0  0.41593754234E+03 -0.17426022432E+03 -0.21908580307E+03  0.50959241793E+03  0.91187600000E+02 0.  0.
<mgrwt>
<rscale>  0 0.36559254E+04</rscale>
<asrwt>0</asrwt>
<pdfrwt beam="1">  1        1 0.17712175E+00 0.36559254E+04</pdfrwt>
<pdfrwt beam="2">  1       -1 0.44651500E+00 0.36559254E+04</pdfrwt>
<totfact> 0.31943941E-02</totfact>
</mgrwt>
</event>
<event>
11    1  0.6797271E-013  0.3479857E+04  0.7818608E-02  0.8118580E-01
          1   -1    0    0  501    0  0.00000000000E+00  0.00000000000E+00  0.19955333717E+04  0.19955333717E+04  0.00000000000E+00 0. -1.
         -1   -1    0    0    0  501 -0.00000000000E+00 -0.00000000000E+00 -0.15170634704E+04  0.15170634704E+04  0.00000000000E+00 0.  1.
    9900016    2    1    2    0    0  0.13802248374E+03  0.52075987083E+03  0.29756165103E+03  0.22891044297E+04  0.22048163427E+04 0.  0.
        -24    2    3    3    0    0 -0.17608524875E+03  0.11610190864E+04  0.71643817635E+03  0.13786040959E+04  0.91072821978E+02 0.  0.
        -15    1    3    3    0    0 -0.17824541556E+02  0.16731816185E+02  0.25345299957E+02  0.35214374685E+02  0.00000000000E+00 0. -1.
        -15    1    3    3    0    0  0.31046526831E+03 -0.65553637695E+03 -0.44924301159E+03  0.85319160087E+03  0.00000000000E+00 0.  1.
         15    1    4    4    0    0 -0.33334092908E+02  0.24967480727E+03  0.11137534536E+03  0.27541448525E+03  0.00000000000E+00 0. -1.
         15    1    3    3    0    0  0.21467005736E+02 -0.14546547845E+01  0.50211863072E+01  0.22094358279E+02  0.00000000000E+00 0.  1.
        -16    1    4    4    0    0 -0.14275115584E+03  0.91134427911E+03  0.60506283099E+03  0.11031896106E+04  0.00000000000E+00 0.  1.
         16    1    1    2    0    0 -0.80082804729E+02 -0.74958546394E+03  0.43045826167E+03  0.86809327748E+03  0.00000000000E+00 0. -1.
    9900018    1    1    2    0    0 -0.57939679009E+02  0.22882559311E+03 -0.24955001144E+03  0.35539913487E+03  0.91187600000E+02 0.  0.
<mgrwt>
<rscale>  0 0.34798568E+04</rscale>
<asrwt>0</asrwt>
<pdfrwt beam="1">  1        1 0.30700513E+00 0.34798568E+04</pdfrwt>
<pdfrwt beam="2">  1       -1 0.23339438E+00 0.34798568E+04</pdfrwt>
<totfact> 0.21981820E-01</totfact>
</mgrwt>
</event>
<event>
11    1  0.6797271E-013  0.3515450E+04  0.7818608E-02  0.8110138E-01
          1   -1    0    0  501    0  0.00000000000E+00  0.00000000000E+00  0.15647908995E+04  0.15647908995E+04  0.00000000000E+00 0. -1.
         -1   -1    0    0    0  501 -0.00000000000E+00 -0.00000000000E+00 -0.19744477311E+04  0.19744477311E+04  0.00000000000E+00 0.  1.
    9900016    2    1    2    0    0 -0.24809472044E+02 -0.38815843367E+03 -0.41366855354E+03  0.22700226824E+04  0.21978623312E+04 0.  0.
        -24    2    3    3    0    0  0.10041660093E+02  0.55985066695E+03 -0.97771769471E+03  0.11280292475E+04  0.54630472339E+02 0.  0.
        -15    1    3    3    0    0 -0.51889359858E+02 -0.92136068146E+03  0.57226315775E+03  0.10858559447E+04  0.00000000000E+00 0.  1.
        -15    1    3    3    0    0  0.20650402899E+01 -0.25908078041E+02 -0.23273891066E+02  0.34887919177E+02  0.00000000000E+00 0.  1.
         15    1    3    3    0    0  0.14973187431E+02 -0.74034112011E+00  0.15059874483E+02  0.21249570966E+02  0.00000000000E+00 0. -1.
         15    1    4    4    0    0 -0.80350068972E+00  0.19737928249E+03 -0.39754780550E+03  0.44385074567E+03  0.00000000000E+00 0. -1.
        -16    1    4    4    0    0  0.10845160783E+02  0.36247138447E+03 -0.58016988920E+03  0.68417850186E+03  0.00000000000E+00 0.  1.
         16    1    1    2    0    0  0.59023564973E+03  0.14113457043E+03  0.15728740523E+03  0.62692616553E+03  0.00000000000E+00 0. -1.
    9900018    1    1    2    0    0 -0.56542617769E+03  0.24702386324E+03 -0.15327568336E+03  0.64228978268E+03  0.91187600000E+02 0.  0.
<mgrwt>
<rscale>  0 0.35154504E+04</rscale>
<asrwt>0</asrwt>
<pdfrwt beam="1">  1        1 0.24073706E+00 0.35154504E+04</pdfrwt>
<pdfrwt beam="2">  1       -1 0.30376119E+00 0.35154504E+04</pdfrwt>
<totfact> 0.15007027E-01</totfact>
</mgrwt>
</event>
<event>
11    1  0.6797271E-013  0.3585629E+04  0.7818608E-02  0.9008054E-01
         -1   -1    0    0    0  501 -0.00000000000E+00  0.00000000000E+00  0.14912327351E+04  0.14912327351E+04  0.00000000000E+00 0.  1.
          1   -1    0    0  501    0  0.00000000000E+00 -0.00000000000E+00 -0.22473727189E+04  0.22473727189E+04  0.00000000000E+00 0. -1.
         23    2    1    2    0    0  0.10795323730E+02 -0.21378266483E+02 -0.50531161353E+02  0.84208161725E+02  0.62960677737E+02 0.  0.
    9900016    2    1    2    0    0  0.49966895047E+03 -0.31787048847E+03 -0.11135924187E+04  0.25261172751E+04  0.21887141670E+04 0.  0.
        -15    1    4    4    0    0  0.10288349455E+04  0.60621864803E+03 -0.48399315733E+03  0.12885075749E+04  0.00000000000E+00 0.  1.
        -15    1    3    3    0    0  0.31877325352E+02 -0.30526908064E+02 -0.36567893745E+02  0.57317247321E+02  0.00000000000E+00 0. -1.
         15    1    3    3    0    0 -0.21082001622E+02  0.91486415809E+01 -0.13963267608E+02  0.26890914404E+02  0.00000000000E+00 0.  1.
         15    1    4    4    0    0 -0.23922339685E+03 -0.39121123426E+03 -0.28532321103E+03  0.54007721500E+03  0.00000000000E+00 0. -1.
        -16    1    4    4    0    0 -0.28994259822E+03 -0.53287790224E+03 -0.34427605038E+03  0.69753248514E+03  0.00000000000E+00 0.  1.
         16    1    1    2    0    0 -0.39443205353E+03  0.58902632577E+03  0.11903246867E+03  0.71881665667E+03  0.00000000000E+00 0. -1.
    9900018    1    1    2    0    0 -0.11603222067E+03 -0.24977757082E+03  0.28895112753E+03  0.40946336052E+03  0.91187600000E+02 0.  0.
<mgrwt>
<rscale>  0 0.13274785E+04</rscale>
<asrwt>0</asrwt>
<pdfrwt beam="1">  1        1 0.34574965E+00 0.35856291E+04</pdfrwt>
<pdfrwt beam="2">  1       -1 0.22942042E+00 0.35856291E+04</pdfrwt>
<totfact> 0.15557655E-01</totfact>
</mgrwt>
</event>
<event>
11    1  0.6797271E-013  0.3054414E+04  0.7818608E-02  0.8228361E-01
         -1   -1    0    0    0  501 -0.00000000000E+00  0.00000000000E+00  0.16581121454E+04  0.16581121454E+04  0.00000000000E+00 0.  1.
          1   -1    0    0  501    0  0.00000000000E+00 -0.00000000000E+00 -0.14066365371E+04  0.14066365371E+04  0.00000000000E+00 0. -1.
    9900016    2    1    2    0    0 -0.80759472367E+02  0.31457001294E+01 -0.21245601982E+03  0.22277848312E+04  0.22161578703E+04 0.  0.
         24    2    3    3    0    0 -0.87347043015E+03 -0.15494677214E+03  0.54997135343E+03  0.10485488877E+04  0.10013583669E+03 0.  0.
        -15    1    4    4    0    0 -0.78074554428E+03 -0.16736078220E+03  0.47915021070E+03  0.93121327350E+03  0.00000000000E+00 0.  1.
        -15    1    3    3    0    0 -0.37471532591E+01  0.12555530577E+02  0.30425424748E+02  0.33126861860E+02  0.00000000000E+00 0. -1.
         15    1    3    3    0    0  0.79430323743E+03  0.12621047361E+03 -0.78822536135E+03  0.11261198590E+04  0.00000000000E+00 0. -1.
         15    1    3    3    0    0  0.21548736100E+01  0.19326468090E+02 -0.46274366371E+01  0.19989222570E+02  0.00000000000E+00 0.  1.
        -16    1    1    2    0    0  0.17976991984E+02 -0.36235789723E+02  0.63184246539E+03  0.63313592993E+03  0.00000000000E+00 0.  1.
         16    1    4    4    0    0 -0.92724885869E+02  0.12414010057E+02  0.70821142724E+02  0.11733561421E+03  0.00000000000E+00 0. -1.
    9900018    1    1    2    0    0  0.62782480383E+02  0.33090089594E+02 -0.16791083731E+03  0.20382792142E+03  0.91187600000E+02 0.  0.
<mgrwt>
<rscale>  0 0.30544139E+04</rscale>
<asrwt>0</asrwt>
<pdfrwt beam="1">  1        1 0.21640562E+00 0.30544139E+04</pdfrwt>
<pdfrwt beam="2">  1       -1 0.25509418E+00 0.30544139E+04</pdfrwt>
<totfact> 0.41580412E-01</totfact>
</mgrwt>
</event>
<event>
11    1  0.6797271E-013  0.3688069E+04  0.7818608E-02  0.8070611E-01
          2   -1    0    0  501    0  0.00000000000E+00  0.00000000000E+00  0.21521667592E+04  0.21521667592E+04  0.00000000000E+00 0. -1.
         -2   -1    0    0    0  501 -0.00000000000E+00 -0.00000000000E+00 -0.15800183495E+04  0.15800183495E+04  0.00000000000E+00 0.  1.
    9900016    2    1    2    0    0  0.44388852929E+03 -0.27774100996E+03  0.68199098826E+03  0.23637830532E+04  0.22018586511E+04 0.  0.
         24    2    3    3    0    0  0.53852000013E+03  0.70864058533E+03  0.96257503245E+03  0.13128189640E+04  0.69048312449E+02 0.  0.
        -15    1    3    3    0    0  0.28972002273E+02 -0.22661955894E+02  0.27608140860E+01  0.36885813737E+02  0.00000000000E+00 0. -1.
        -15    1    4    4    0    0  0.40635918612E+03  0.57432246296E+03  0.73698074676E+03  0.10188791394E+04  0.00000000000E+00 0.  1.
         15    1    3    3    0    0 -0.11471805355E+03 -0.95121572077E+03 -0.28163393450E+03  0.99864370639E+03  0.00000000000E+00 0. -1.
         15    1    3    3    0    0 -0.88854195631E+01 -0.12503918625E+02 -0.17109237775E+01  0.15434569057E+02  0.00000000000E+00 0.  1.
        -16    1    1    2    0    0 -0.71115269519E+03  0.22937063156E+03 -0.48911770683E+03  0.89307624178E+03  0.00000000000E+00 0.  1.
         16    1    4    4    0    0  0.13216081401E+03  0.13431812236E+03  0.22559428570E+03  0.29393982462E+03  0.00000000000E+00 0. -1.
    9900018    1    1    2    0    0  0.26726416589E+03  0.48370378404E+02  0.37927512828E+03  0.47532581373E+03  0.91187600000E+02 0.  0.
<mgrwt>
<rscale>  0 0.36880689E+04</rscale>
<asrwt>0</asrwt>
<pdfrwt beam="1">  1        2 0.33110258E+00 0.36880689E+04</pdfrwt>
<pdfrwt beam="2">  1       -2 0.24307975E+00 0.36880689E+04</pdfrwt>
<totfact> 0.31517393E-01</totfact>
</mgrwt>
</event>
