<event>
10    1  0.2337559E-010  0.4329181E+04  0.7818608E-02  0.7941244E-01
          1   -1    0    0  501    0  0.00000000000E+00  0.00000000000E+00  0.40537973357E+04  0.40537973357E+04  0.00000000000E+00 0. -1.
         -1   -1    0    0    0  501 -0.00000000000E+00 -0.00000000000E+00 -0.11558177633E+04  0.11558177633E+04  0.00000000000E+00 0.  1.
    9900016    2    1    2    0    0 -0.52212739239E+02 -0.13384725516E+04  0.28936850057E+04  0.38701176616E+04  0.21932083488E+04 0.  0.
        -15    1    3    3    0    0  0.65858765469E+03 -0.55225164601E+03  0.68142279855E+03  0.10968393728E+04  0.00000000000E+00 0.  1.
        -15    1    3    3    0    0 -0.24339710460E+03 -0.40686752389E+03  0.51342130609E+03  0.69884531198E+03  0.00000000000E+00 0.  1.
         15    1    3    3    0    0  0.24537799727E+02 -0.37731403551E+02  0.13420510319E+03  0.14155130573E+03  0.00000000000E+00 0. -1.
         15    1    3    3    0    0 -0.15982864457E+03  0.22825063710E+03  0.49444479120E+03  0.56755546030E+03  0.00000000000E+00 0. -1.
        -16    1    1    2    0    0  0.52212739239E+02  0.13384725516E+04  0.42945667252E+01  0.13394974374E+04  0.00000000000E+00 0.  1.
         16    1    3    3    0    0  0.14296014659E+03 -0.13920840242E+03  0.23047763662E+03  0.30485492255E+03  0.00000000000E+00 0. -1.
    9900018    1    3    3    0    0 -0.47507259107E+03 -0.43066421278E+03  0.83971337000E+03  0.10604712882E+04  0.91187600000E+02 0.  0.
<mgrwt>
<rscale>  0 0.43291805E+04</rscale>
<asrwt>0</asrwt>
<pdfrwt beam="1">  1        1 0.62366112E+00 0.43291805E+04</pdfrwt>
<pdfrwt beam="2">  1       -1 0.17781812E+00 0.43291805E+04</pdfrwt>
<totfact> 0.14081842E-02</totfact>
</mgrwt>
</event>
<event>
10    1  0.2337559E-010  0.3257494E+04  0.7818608E-02  0.8173796E-01
          1   -1    0    0  501    0  0.00000000000E+00  0.00000000000E+00  0.10579884873E+04  0.10579884873E+04  0.00000000000E+00 0. -1.
         -1   -1    0    0    0  501 -0.00000000000E+00 -0.00000000000E+00 -0.25074154602E+04  0.25074154602E+04  0.00000000000E+00 0.  1.
    9900016    2    1    2    0    0 -0.34166172503E+03  0.23223262143E+02 -0.17423082496E+03  0.22450262478E+04  0.22119028954E+04 0.  0.
        -15    1    3    3    0    0  0.67372606719E+02 -0.15323181715E+02 -0.26051583275E+02  0.73841404545E+02  0.00000000000E+00 0.  1.
        -15    1    3    3    0    0 -0.70629727175E+03  0.16271803412E+03  0.49005620900E+03  0.87492175804E+03  0.00000000000E+00 0.  1.
         15    1    3    3    0    0  0.28722060057E+02 -0.23267669386E+03  0.11325007494E+02  0.23471611873E+03  0.00000000000E+00 0. -1.
         15    1    3    3    0    0  0.35561739373E+03  0.99613481370E+02 -0.75440707426E+03  0.83995036168E+03  0.00000000000E+00 0. -1.
        -16    1    1    2    0    0  0.34166172503E+03 -0.23223262143E+02 -0.12751961479E+04  0.13203776997E+04  0.00000000000E+00 0.  1.
         16    1    3    3    0    0 -0.10238086109E+03  0.86082849750E+01  0.56687430297E+02  0.11734312098E+03  0.00000000000E+00 0. -1.
    9900018    1    3    3    0    0  0.15304347305E+02  0.28333725585E+00  0.48159185778E+02  0.10425348385E+03  0.91187600000E+02 0.  0.
<mgrwt>
<rscale>  0 0.32574939E+04</rscale>
<asrwt>0</asrwt>
<pdfrwt beam="1">  1        1 0.16276746E+00 0.32574939E+04</pdfrwt>
<pdfrwt beam="2">  1       -1 0.38575622E+00 0.32574939E+04</pdfrwt>
<totfact> 0.10154027E-01</totfact>
</mgrwt>
</event>
<event>
11    1  0.2337559E-010  0.3108350E+04  0.7818608E-02  0.8213450E-01
         -2   -1    0    0    0  501 -0.00000000000E+00  0.00000000000E+00  0.34916370487E+04  0.34916370487E+04  0.00000000000E+00 0. -1.
          2   -1    0    0  501    0  0.00000000000E+00 -0.00000000000E+00 -0.69178448368E+03  0.69178448368E+03  0.00000000000E+00 0.  1.
    9900016    2    1    2    0    0 -0.50942869120E+03 -0.85720512364E+02  0.28816218654E+04  0.36603997200E+04  0.21972519059E+04 0.  0.
         24    2    3    3    0    0  0.24416096200E+03  0.43510914342E+03  0.11145900246E+04  0.12246432995E+04  0.92226601925E+02 0.  0.
        -15    1    3    3    0    0 -0.14185838800E+01 -0.12827521799E+02  0.60456739480E+01  0.14251591813E+02  0.00000000000E+00 0.  1.
        -15    1    4    4    0    0  0.15272541493E+03  0.35210016446E+03  0.83299174453E+03  0.91715583443E+03  0.00000000000E+00 0.  1.
         15    1    3    3    0    0 -0.87828021235E+02 -0.32442911186E+03 -0.14579845429E+03  0.36636757390E+03  0.00000000000E+00 0. -1.
         15    1    3    3    0    0 -0.15794198219E+02 -0.29088810464E+02 -0.27705442227E-02  0.33100084580E+02  0.00000000000E+00 0. -1.
        -16    1    1    2    0    0  0.50942869120E+03  0.85720512364E+02 -0.81769300402E+02  0.52302181230E+03  0.00000000000E+00 0.  1.
         16    1    4    4    0    0  0.91435547072E+02  0.83008978962E+02  0.28159828008E+03  0.30748746511E+03  0.00000000000E+00 0. -1.
    9900018    1    3    3    0    0 -0.64854884987E+03 -0.15448421166E+03  0.19067873916E+04  0.20220371702E+04  0.91187600000E+02 0.  0.
<mgrwt>
<rscale>  0 0.31083503E+04</rscale>
<asrwt>0</asrwt>
<pdfrwt beam="1">  1        2 0.10642838E+00 0.31083503E+04</pdfrwt>
<pdfrwt beam="2">  1       -2 0.53717492E+00 0.31083503E+04</pdfrwt>
<totfact> 0.35040325E-02</totfact>
</mgrwt>
</event>
<event>
11    1  0.2337559E-010  0.2892974E+04  0.7818608E-02  0.8274971E-01
         -2   -1    0    0    0  501 -0.00000000000E+00  0.00000000000E+00  0.15433736004E+04  0.15433736004E+04  0.00000000000E+00 0.  1.
          2   -1    0    0  501    0  0.00000000000E+00 -0.00000000000E+00 -0.13556823638E+04  0.13556823638E+04  0.00000000000E+00 0. -1.
    9900016    2    1    2    0    0  0.39410683280E+03 -0.21655785410E+03  0.54900775950E+03  0.23221962502E+04  0.22111011747E+04 0.  0.
        -24    2    3    3    0    0 -0.31122299072E+03  0.29153384113E+03  0.82240986133E+03  0.93294621907E+03  0.11035822215E+03 0.  0.
        -15    1    3    3    0    0 -0.35447237408E+02 -0.23439350248E+03 -0.41009998423E+03  0.47368641284E+03  0.00000000000E+00 0.  1.
        -15    1    3    3    0    0  0.86085057575E+02  0.35462758778E+02  0.14992767853E+02  0.94302849828E+02  0.00000000000E+00 0. -1.
         15    1    3    3    0    0  0.42932544367E+03 -0.14189848066E+02  0.51769943475E+02  0.43266825100E+03  0.00000000000E+00 0.  1.
         15    1    4    4    0    0 -0.40275444453E+02  0.17315549080E+01  0.11527990860E+03  0.12212521048E+03  0.00000000000E+00 0. -1.
        -16    1    4    4    0    0 -0.27094754627E+03  0.28980228622E+03  0.70712995273E+03  0.81082100859E+03  0.00000000000E+00 0.  1.
         16    1    1    2    0    0 -0.39410683280E+03  0.21655785410E+03 -0.36131652290E+03  0.57685971392E+03  0.00000000000E+00 0. -1.
    9900018    1    3    3    0    0  0.22536655968E+03 -0.29497110346E+03  0.69935171077E+02  0.38859251748E+03  0.91187600000E+02 0.  0.
<mgrwt>
<rscale>  0 0.28929738E+04</rscale>
<asrwt>0</asrwt>
<pdfrwt beam="1">  1        2 0.20856652E+00 0.28929738E+04</pdfrwt>
<pdfrwt beam="2">  1       -2 0.23744209E+00 0.28929738E+04</pdfrwt>
<totfact> 0.10181829E+00</totfact>
</mgrwt>
</event>
<event>
11    1  0.2337559E-010  0.2466357E+04  0.7818608E-02  0.8415070E-01
         -1   -1    0    0    0  501 -0.00000000000E+00  0.00000000000E+00  0.20311554549E+04  0.20311554549E+04  0.00000000000E+00 0.  1.
          1   -1    0    0  501    0  0.00000000000E+00 -0.00000000000E+00 -0.74870158500E+03  0.74870158500E+03  0.00000000000E+00 0. -1.
    9900016    2    1    2    0    0 -0.11222725033E+02  0.23300959747E+03  0.11014857659E+04  0.24846132817E+04  0.22148618118E+04 0.  0.
         24    2    3    3    0    0 -0.31726591782E+03  0.16571448554E+03  0.13128526120E+04  0.13637928138E+04  0.90718822731E+02 0.  0.
        -15    1    4    4    0    0 -0.19747871505E+03  0.15077767341E+03  0.89685416738E+03  0.93063373421E+03  0.00000000000E+00 0.  1.
        -15    1    3    3    0    0  0.15777068049E+02 -0.24048181829E+02 -0.68177299298E+02  0.73995777347E+02  0.00000000000E+00 0. -1.
         15    1    3    3    0    0  0.15391912332E+02  0.14131360865E+01 -0.33331314611E+02  0.36740773706E+02  0.00000000000E+00 0.  1.
         15    1    3    3    0    0  0.24672852756E+03 -0.23303538397E+03 -0.42839202191E+03  0.54653470240E+03  0.00000000000E+00 0. -1.
        -16    1    1    2    0    0  0.11222725033E+02 -0.23300959747E+03  0.18096810401E+03  0.29524375817E+03  0.00000000000E+00 0.  1.
         16    1    4    4    0    0 -0.11978720277E+03  0.14936812131E+02  0.41599844461E+03  0.43315907958E+03  0.00000000000E+00 0. -1.
    9900018    1    3    3    0    0  0.28145684846E+02  0.32296554164E+03  0.31853378972E+03  0.46354921449E+03  0.91187600000E+02 0.  0.
<mgrwt>
<rscale>  0 0.24663571E+04</rscale>
<asrwt>0</asrwt>
<pdfrwt beam="1">  1        1 0.11518486E+00 0.24663571E+04</pdfrwt>
<pdfrwt beam="2">  1       -1 0.31248545E+00 0.24663571E+04</pdfrwt>
<totfact> 0.59961299E-01</totfact>
</mgrwt>
</event>
<event>
11    1  0.2337559E-010  0.2471212E+04  0.7818608E-02  0.8413314E-01
         -1   -1    0    0    0  501 -0.00000000000E+00  0.00000000000E+00  0.62601708300E+03  0.62601708300E+03  0.00000000000E+00 0.  1.
          1   -1    0    0  501    0  0.00000000000E+00 -0.00000000000E+00 -0.24387858984E+04  0.24387858984E+04  0.00000000000E+00 0. -1.
    9900016    2    1    2    0    0  0.57511506974E+02  0.98851788616E+02 -0.13418674249E+04  0.25802130835E+04  0.22008662206E+04 0.  0.
        -24    2    3    3    0    0 -0.67245800134E+02 -0.64978577702E+03 -0.19010541145E+03  0.68664187508E+03  0.92700827911E+02 0.  0.
        -15    1    3    3    0    0 -0.30836827128E+02  0.10037147019E+03 -0.19962032413E+03  0.22555180279E+03  0.00000000000E+00 0.  1.
        -15    1    3    3    0    0  0.39955882265E+03  0.61265675654E+03 -0.69411101156E+03  0.10083578980E+04  0.00000000000E+00 0.  1.
         15    1    3    3    0    0  0.14707070525E+03  0.12049853186E+03 -0.37618500333E+02  0.19381651140E+03  0.00000000000E+00 0. -1.
         15    1    4    4    0    0  0.46992779486E+01 -0.26178426518E+02  0.90009041906E+01  0.28078630744E+02  0.00000000000E+00 0. -1.
        -16    1    4    4    0    0 -0.71945078082E+02 -0.62360735050E+03 -0.19910631564E+03  0.65856324434E+03  0.00000000000E+00 0.  1.
         16    1    1    2    0    0 -0.57511506974E+02 -0.98851788616E+02 -0.47090139054E+03  0.48458989792E+03  0.00000000000E+00 0. -1.
    9900018    1    3    3    0    0 -0.39103539367E+03 -0.84889192958E+02 -0.22041217742E+03  0.46584499625E+03  0.91187600000E+02 0.  0.
<mgrwt>
<rscale>  0 0.24712116E+04</rscale>
<asrwt>0</asrwt>
<pdfrwt beam="1">  1        1 0.37519783E+00 0.24712116E+04</pdfrwt>
<pdfrwt beam="2">  1       -1 0.96310320E-01 0.24712116E+04</pdfrwt>
<totfact> 0.13807265E+00</totfact>
</mgrwt>
</event>
<event>
10    1  0.2337559E-010  0.2543837E+04  0.7818608E-02  0.8387533E-01
         -1   -1    0    0    0  501 -0.00000000000E+00  0.00000000000E+00  0.92400712627E+03  0.92400712627E+03  0.00000000000E+00 0.  1.
          1   -1    0    0  501    0  0.00000000000E+00 -0.00000000000E+00 -0.17508272184E+04  0.17508272184E+04  0.00000000000E+00 0. -1.
    9900016    2    1    2    0    0  0.13346683436E+03 -0.53652386873E+02 -0.10256141160E+04  0.24294549681E+04  0.21976521909E+04 0.  0.
        -15    1    3    3    0    0  0.12950742051E+02  0.11944907381E+03 -0.41196543372E+02  0.12701558227E+03  0.00000000000E+00 0.  1.
        -15    1    3    3    0    0 -0.18101852388E+02  0.26349866781E+03  0.17590319298E+03  0.31733445810E+03  0.00000000000E+00 0.  1.
         15    1    3    3    0    0  0.32173879416E+03 -0.57425790679E+03 -0.94449064414E+03  0.11512387120E+04  0.00000000000E+00 0. -1.
         15    1    3    3    0    0 -0.80413794092E+02  0.95394080154E+02  0.18468519172E+02  0.12612491827E+03  0.00000000000E+00 0. -1.
        -16    1    1    2    0    0 -0.13346683436E+03  0.53652386873E+02  0.19879402394E+03  0.24537937657E+03  0.00000000000E+00 0.  1.
         16    1    3    3    0    0 -0.36551764672E+02  0.23373258615E+03  0.13823362331E+03  0.27399906559E+03  0.00000000000E+00 0. -1.
    9900018    1    3    3    0    0 -0.66155290697E+02 -0.19146888801E+03 -0.37253226399E+03  0.43374223183E+03  0.91187600000E+02 0.  0.
<mgrwt>
<rscale>  0 0.25438371E+04</rscale>
<asrwt>0</asrwt>
<pdfrwt beam="1">  1        1 0.26935803E+00 0.25438371E+04</pdfrwt>
<pdfrwt beam="2">  1       -1 0.14215494E+00 0.25438371E+04</pdfrwt>
<totfact> 0.15681307E+00</totfact>
</mgrwt>
</event>
<event>
11    1  0.2337559E-010  0.2477684E+04  0.7818608E-02  0.8410979E-01
          1   -1    0    0  501    0  0.00000000000E+00  0.00000000000E+00  0.24639656917E+04  0.24639656917E+04  0.00000000000E+00 0. -1.
         -1   -1    0    0    0  501 -0.00000000000E+00 -0.00000000000E+00 -0.62286983014E+03  0.62286983014E+03  0.00000000000E+00 0.  1.
    9900016    2    1    2    0    0 -0.14200734110E+03  0.23099360480E+03  0.16272259339E+04  0.27414886291E+04  0.21896053373E+04 0.  0.
        -24    2    3    3    0    0  0.77104537081E+03  0.24483286519E+03  0.12165526125E+04  0.14621670945E+04  0.58976754778E+02 0.  0.
        -15    1    3    3    0    0 -0.36919309088E+03 -0.33609794191E+01 -0.19675372929E+03  0.41836212128E+03  0.00000000000E+00 0.  1.
        -15    1    3    3    0    0  0.12033089334E+02 -0.65815417788E+00  0.85904903177E+01  0.14799490861E+02  0.00000000000E+00 0. -1.
         15    1    3    3    0    0  0.92121002307E+01 -0.21059630568E+02  0.10634786342E+02  0.25327248387E+02  0.00000000000E+00 0.  1.
         15    1    4    4    0    0  0.41592682307E+03  0.11335388954E+03  0.68970749150E+03  0.81335149244E+03  0.00000000000E+00 0. -1.
        -16    1    4    4    0    0  0.35511854774E+03  0.13147897565E+03  0.52684512102E+03  0.64881560210E+03  0.00000000000E+00 0.  1.
         16    1    1    2    0    0  0.14200734110E+03 -0.23099360480E+03  0.21386992771E+03  0.34534689279E+03  0.00000000000E+00 0. -1.
    9900018    1    3    3    0    0 -0.56510481060E+03  0.11239503772E+02  0.58820177401E+03  0.82083267402E+03  0.91187600000E+02 0.  0.
<mgrwt>
<rscale>  0 0.24776843E+04</rscale>
<asrwt>0</asrwt>
<pdfrwt beam="1">  1        1 0.37907164E+00 0.24776843E+04</pdfrwt>
<pdfrwt beam="2">  1       -1 0.95826129E-01 0.24776843E+04</pdfrwt>
<totfact> 0.13408586E+00</totfact>
</mgrwt>
</event>
