<event>
13    1  0.3803653E-010  0.4822961E+04  0.7818608E-02  0.7856413E-01
         -1   -1    0    0    0  501 -0.00000000000E+00  0.00000000000E+00  0.21025904411E+04  0.21025904411E+04  0.00000000000E+00 0.  1.
          1   -1    0    0  501    0  0.00000000000E+00 -0.00000000000E+00 -0.27657495486E+04  0.27657495486E+04  0.00000000000E+00 0. -1.
    9900016    2    1    2    0    0 -0.27534562942E+03  0.65726156047E+03  0.46324796465E+03  0.22901754688E+04  0.21266163327E+04 0.  0.
         23    2    3    3    0    0 -0.65490970493E+03  0.98531729539E+02 -0.68644035511E+03  0.95674712648E+03  0.74494829141E+02 0.  0.
    9900016    2    1    2    0    0  0.27534562942E+03 -0.65726156047E+03 -0.11264070721E+04  0.25781645209E+04  0.22068827405E+04 0.  0.
         24    2    5    5    0    0  0.77106456130E+03  0.43823881766E+03 -0.22362880144E+03  0.91811926966E+03  0.79619931518E+02 0.  0.
        -15    1    6    6    0    0  0.22425991814E+03  0.13300696634E+03 -0.10319777757E+03  0.28041602179E+03  0.00000000000E+00 0.  1.
        -15    1    4    4    0    0 -0.30152563372E+02  0.16943499065E+02 -0.21574418026E+02  0.40764135605E+02  0.00000000000E+00 0.  1.
         15    1    5    5    0    0 -0.31250099551E+03 -0.41389407842E+03 -0.78178609177E+03  0.93816558966E+03  0.00000000000E+00 0. -1.
         15    1    4    4    0    0 -0.62475714156E+03  0.81588230475E+02 -0.66486593709E+03  0.91598299088E+03  0.00000000000E+00 0. -1.
        -16    1    3    3    0    0  0.37956407552E+03  0.55872983093E+03  0.11496883198E+04  0.13334283423E+04  0.00000000000E+00 0.  1.
         16    1    6    6    0    0  0.54680464316E+03  0.30523185132E+03 -0.12043102387E+03  0.63770324788E+03  0.00000000000E+00 0. -1.
    9900018    1    5    5    0    0 -0.18321793637E+03 -0.68160629972E+03 -0.12099217890E+03  0.72187966156E+03  0.91187600000E+02 0.  0.
<mgrwt>
<rscale>  0 0.48229611E+04</rscale>
<asrwt>0</asrwt>
<pdfrwt beam="1">  1        1 0.42549993E+00 0.48229611E+04</pdfrwt>
<pdfrwt beam="2">  1       -1 0.32347545E+00 0.48229611E+04</pdfrwt>
<totfact> 0.14992732E-02</totfact>
</mgrwt>
</event>
<event>
13    1  0.3803653E-010  0.4911256E+04  0.7818608E-02  0.7842345E-01
         -1   -1    0    0    0  501 -0.00000000000E+00  0.00000000000E+00  0.41635317229E+04  0.41635317229E+04  0.00000000000E+00 0.  1.
          1   -1    0    0  501    0  0.00000000000E+00 -0.00000000000E+00 -0.14483156518E+04  0.14483156518E+04  0.00000000000E+00 0. -1.
    9900016    2    1    2    0    0 -0.70036360911E+00  0.34812156429E+03 -0.60306958740E+01  0.20897364202E+04  0.20605273166E+04 0.  0.
         23    2    3    3    0    0  0.49970380350E+03  0.85518770065E+02  0.89187512153E+03  0.10287937192E+04  0.77187647305E+02 0.  0.
    9900016    2    1    2    0    0  0.70036360911E+00 -0.34812156429E+03  0.27212467670E+04  0.35221109546E+04  0.22088215174E+04 0.  0.
        -24    2    5    5    0    0 -0.75527803558E+03 -0.86827269335E+02  0.15977224096E+03  0.78096525778E+03  0.79972990190E+02 0.  0.
        -15    1    4    4    0    0  0.41669519356E+03  0.10002812688E+03  0.74780479854E+03  0.86188892975E+03  0.00000000000E+00 0.  1.
        -15    1    5    5    0    0  0.43239142907E+03  0.11657250222E+03  0.14983607477E+04  0.15638530706E+04  0.00000000000E+00 0.  1.
         15    1    6    6    0    0 -0.56657218690E+03 -0.72942306432E+02  0.85120055858E+02  0.57755523281E+03  0.00000000000E+00 0. -1.
         15    1    4    4    0    0  0.83008609939E+02 -0.14509356816E+02  0.14407032299E+03  0.16690478940E+03  0.00000000000E+00 0. -1.
        -16    1    6    6    0    0 -0.18870584868E+03 -0.13884962904E+02  0.74652185105E+02  0.20341002498E+03  0.00000000000E+00 0.  1.
         16    1    3    3    0    0 -0.50040416711E+03  0.26260279423E+03 -0.89790581741E+03  0.10609427011E+04  0.00000000000E+00 0. -1.
    9900018    1    5    5    0    0  0.32358697011E+03 -0.37786679718E+03  0.10631137783E+04  0.11772926262E+04  0.91187600000E+02 0.  0.
<mgrwt>
<rscale>  0 0.49112557E+04</rscale>
<asrwt>0</asrwt>
<pdfrwt beam="1">  1        1 0.22281779E+00 0.49112557E+04</pdfrwt>
<pdfrwt beam="2">  1       -1 0.64054334E+00 0.49112557E+04</pdfrwt>
<totfact> 0.16418839E-03</totfact>
</mgrwt>
</event>
<event>
12    1  0.3803653E-010  0.6029647E+04  0.7818608E-02  0.7686737E-01
         -2   -1    0    0    0  501 -0.00000000000E+00  0.00000000000E+00  0.24360145137E+04  0.24360145137E+04  0.00000000000E+00 0.  1.
          2   -1    0    0  501    0  0.00000000000E+00 -0.00000000000E+00 -0.37311597350E+04  0.37311597350E+04  0.00000000000E+00 0. -1.
    9900016    2    1    2    0    0  0.46799719001E+03 -0.92093814174E+03 -0.25126940596E+04  0.34469508521E+04  0.21214830447E+04 0.  0.
    9900016    2    1    2    0    0 -0.46799719001E+03  0.92093814174E+03  0.12175488383E+04  0.27202233966E+04  0.22022810272E+04 0.  0.
        -24    2    4    4    0    0  0.79878624030E+03  0.56589993682E+03  0.33412590714E+03  0.10377666960E+04  0.83769906966E+02 0.  0.
        -15    1    3    3    0    0 -0.32815614818E+02  0.42223254904E+03 -0.68454140276E+03  0.80495597527E+03  0.00000000000E+00 0.  1.
        -15    1    4    4    0    0 -0.12003688681E+04  0.20658579502E+03  0.64027695535E+03  0.13760514852E+04  0.00000000000E+00 0.  1.
         15    1    5    5    0    0  0.49373714461E+03  0.29930375373E+03  0.19449615269E+03  0.60925188418E+03  0.00000000000E+00 0. -1.
         15    1    3    3    0    0  0.12543909058E+03  0.21204279994E+03 -0.52492538327E+02  0.25189795758E+03  0.00000000000E+00 0. -1.
        -16    1    5    5    0    0  0.30504909569E+03  0.26659618309E+03  0.13962975444E+03  0.42851481182E+03  0.00000000000E+00 0.  1.
         16    1    3    3    0    0  0.37537371424E+03 -0.15552134907E+04 -0.17756601185E+04  0.23900969192E+04  0.00000000000E+00 0. -1.
    9900018    1    4    4    0    0 -0.66414562163E+02  0.14845240990E+03  0.24314597581E+03  0.30640521539E+03  0.91187600000E+02 0.  0.
<mgrwt>
<rscale>  0 0.60296465E+04</rscale>
<asrwt>0</asrwt>
<pdfrwt beam="1">  1        2 0.57402458E+00 0.60296465E+04</pdfrwt>
<pdfrwt beam="2">  1       -2 0.37477146E+00 0.60296465E+04</pdfrwt>
<totfact> 0.40095634E-03</totfact>
</mgrwt>
</event>
