<event>
10    1  0.1463594E-014  0.5203951E+04  0.7818608E-02  0.7797793E-01
         -2   -1    0    0    0  501 -0.00000000000E+00  0.00000000000E+00  0.27549768382E+04  0.27549768382E+04  0.00000000000E+00 0.  1.
          2   -1    0    0  501    0  0.00000000000E+00 -0.00000000000E+00 -0.24574717432E+04  0.24574717432E+04  0.00000000000E+00 0. -1.
         24    2    1    2    0    0  0.65629783392E+03 -0.60168314978E+03 -0.63992584094E+03  0.10984834027E+04  0.66417200176E+02 0.  0.
        -15    1    1    2    0    0 -0.55395427969E+03  0.17951202194E+03  0.20014374433E+02  0.58265812033E+03  0.00000000000E+00 0.  1.
        -15    1    3    3    0    0  0.59040854701E+03 -0.52632483701E+03 -0.54503251686E+03  0.96055220101E+03  0.00000000000E+00 0.  1.
         15    1    1    2    0    0 -0.43651754379E+02 -0.40193958836E+03 -0.23247997394E+03  0.46637736505E+03  0.00000000000E+00 0. -1.
         15    1    1    2    0    0 -0.19232425614E+03 -0.49040818240E+03  0.21705461741E+03  0.56973810808E+03  0.00000000000E+00 0. -1.
        -16    1    1    2    0    0  0.28532365222E+03  0.17855930535E+04  0.67858176048E+03  0.19313791303E+04  0.00000000000E+00 0.  1.
         16    1    3    3    0    0  0.65889286917E+02 -0.75358312767E+02 -0.94893324080E+02  0.13793120165E+03  0.00000000000E+00 0. -1.
    9900018    1    1    2    0    0 -0.15169119594E+03 -0.47107415490E+03  0.25426015751E+03  0.56381245502E+03  0.91187600000E+02 0.  0.
<mgrwt>
<rscale>  0 0.52039515E+04</rscale>
<asrwt>0</asrwt>
<pdfrwt beam="1">  1        2 0.37807257E+00 0.52039515E+04</pdfrwt>
<pdfrwt beam="2">  1       -2 0.42384259E+00 0.52039515E+04</pdfrwt>
<totfact> 0.13672319E-02</totfact>
</mgrwt>
</event>
<event>
11    1  0.1463594E-014  0.2861239E+04  0.7818608E-02  0.8640647E-01
          1   -1    0    0  501    0  0.00000000000E+00  0.00000000000E+00  0.17758743803E+04  0.17758743803E+04  0.00000000000E+00 0. -1.
         -1   -1    0    0    0  501 -0.00000000000E+00 -0.00000000000E+00 -0.17045749014E+04  0.17045749014E+04  0.00000000000E+00 0.  1.
    9900016    2    1    2    0    0 -0.84842570475E+02  0.25883858791E+02  0.21262731269E+03  0.23598580241E+04  0.23485849536E+04 0.  0.
        -24    2    3    3    0    0 -0.79821297425E+03  0.48331365580E+03  0.40477786630E+03  0.10191773998E+04  0.64353780481E+02 0.  0.
        -15    1    3    3    0    0  0.52685579204E+03 -0.62914097793E+03  0.21881028068E+03  0.84927812561E+03  0.00000000000E+00 0.  1.
        -15    1    1    2    0    0 -0.24063470085E+03 -0.10413869241E+02 -0.27835867578E+03  0.36809925334E+03  0.00000000000E+00 0.  1.
         15    1    1    2    0    0  0.50110609142E+03  0.95029323528E+02  0.11884253331E+02  0.51017558023E+03  0.00000000000E+00 0. -1.
         15    1    4    4    0    0 -0.26163752970E+03  0.16992102617E+03  0.16688045285E+03  0.35380282309E+03  0.00000000000E+00 0. -1.
        -16    1    4    4    0    0 -0.53657544456E+03  0.31339262962E+03  0.23789741345E+03  0.66537457671E+03  0.00000000000E+00 0.  1.
         16    1    1    2    0    0 -0.17562882010E+03 -0.11049931308E+03  0.12514658868E+03  0.24231642391E+03  0.00000000000E+00 0. -1.
    9900018    1    3    3    0    0  0.18651461174E+03  0.17171118092E+03 -0.41096083430E+03  0.49140249874E+03  0.91187600000E+02 0.  0.
<mgrwt>
<rscale>  0 0.19288102E+04</rscale>
<asrwt>0</asrwt>
<pdfrwt beam="1">  1        1 0.27321144E+00 0.28612388E+04</pdfrwt>
<pdfrwt beam="2">  1       -1 0.26224229E+00 0.28612388E+04</pdfrwt>
<totfact> 0.20730113E-01</totfact>
</mgrwt>
</event>
<event>
11    1  0.1463594E-014  0.3510587E+04  0.7818608E-02  0.8358303E-01
         -1   -1    0    0    0  501 -0.00000000000E+00  0.00000000000E+00  0.26033197736E+04  0.26033197736E+04  0.00000000000E+00 0.  1.
          1   -1    0    0  501    0  0.00000000000E+00 -0.00000000000E+00 -0.21906149548E+04  0.21906149548E+04  0.00000000000E+00 0. -1.
    9900016    2    1    2    0    0  0.69406924724E+03  0.14159826142E+03 -0.17169564245E+03  0.24123946866E+04  0.22996492216E+04 0.  0.
         24    2    3    3    0    0  0.28871233868E+03  0.91749770640E+03 -0.33878277318E+03  0.10255380810E+04  0.10861736718E+03 0.  0.
        -15    1    4    4    0    0  0.17589429292E+03  0.38765586702E+03 -0.13194291227E+03  0.44567342933E+03  0.00000000000E+00 0.  1.
        -15    1    1    2    0    0 -0.46654905089E+03 -0.35703851109E+03  0.28810420867E+02  0.58819601804E+03  0.00000000000E+00 0.  1.
         15    1    1    2    0    0  0.38360536151E+03  0.23001146808E+02 -0.45574141055E+03  0.59613954694E+03  0.00000000000E+00 0. -1.
         15    1    3    3    0    0  0.76096101992E+03 -0.45749273564E+03  0.15092481542E+03  0.90063287577E+03  0.00000000000E+00 0. -1.
        -16    1    1    2    0    0 -0.61112555786E+03  0.19243910286E+03  0.10113314510E+04  0.11972044769E+04  0.00000000000E+00 0.  1.
         16    1    4    4    0    0  0.11281804576E+03  0.52984183938E+03 -0.20683986091E+03  0.57986465168E+03  0.00000000000E+00 0. -1.
    9900018    1    3    3    0    0 -0.35560411137E+03 -0.31840670934E+03  0.16162315303E+02  0.48622372978E+03  0.91187600000E+02 0.  0.
<mgrwt>
<rscale>  0 0.26293396E+04</rscale>
<asrwt>0</asrwt>
<pdfrwt beam="1">  1        1 0.33701769E+00 0.35105865E+04</pdfrwt>
<pdfrwt beam="2">  1       -1 0.40051073E+00 0.35105865E+04</pdfrwt>
<totfact> 0.12298998E-02</totfact>
</mgrwt>
</event>
<event>
11    1  0.1463594E-014  0.3854604E+04  0.7818608E-02  0.8236993E-01
          2   -1    0    0  501    0  0.00000000000E+00  0.00000000000E+00  0.25374096041E+04  0.25374096041E+04  0.00000000000E+00 0.  1.
         -2   -1    0    0    0  501 -0.00000000000E+00 -0.00000000000E+00 -0.28781158413E+04  0.28781158413E+04  0.00000000000E+00 0. -1.
    9900016    2    1    2    0    0 -0.85682794109E+03  0.15432236806E+03  0.55522303011E+03  0.25126674484E+04  0.22906888875E+04 0.  0.
        -24    2    3    3    0    0 -0.71508787929E+03  0.95094491362E+03 -0.11196180920E+03  0.11961417690E+04  0.50722588065E+02 0.  0.
        -15    1    1    2    0    0  0.61249361690E+03 -0.56211609235E+03  0.69610030471E+03  0.10842871235E+04  0.00000000000E+00 0.  1.
        -15    1    3    3    0    0 -0.38110843916E+03 -0.79180867255E+03  0.51717592087E+03  0.10196448153E+04  0.00000000000E+00 0.  1.
         15    1    4    4    0    0 -0.28568107829E+03  0.39536007083E+03 -0.22654187265E+02  0.48829957639E+03  0.00000000000E+00 0. -1.
         15    1    1    2    0    0  0.18348236491E+03  0.62467684269E+03 -0.12424758071E+04  0.14027234465E+04  0.00000000000E+00 0. -1.
        -16    1    4    4    0    0 -0.42940680100E+03  0.55558484279E+03 -0.89307621934E+02  0.70784219260E+03  0.00000000000E+00 0.  1.
         16    1    1    2    0    0  0.60851959279E+02 -0.21688311839E+03 -0.34955376491E+03  0.41584742701E+03  0.00000000000E+00 0. -1.
    9900018    1    3    3    0    0  0.23936837737E+03 -0.48138730090E+01  0.15000891844E+03  0.29688086409E+03  0.91187600000E+02 0.  0.
<mgrwt>
<rscale>  0 0.30237099E+04</rscale>
<asrwt>0</asrwt>
<pdfrwt beam="1">  1        2 0.39037071E+00 0.38546037E+04</pdfrwt>
<pdfrwt beam="2">  1       -2 0.44278705E+00 0.38546037E+04</pdfrwt>
<totfact> 0.97468957E-03</totfact>
</mgrwt>
</event>
<event>
 9    1  0.1535979E-014  0.2728040E+04  0.7818608E-02  0.9024123E-01
          2   -1    0    0  501    0  0.00000000000E+00  0.00000000000E+00  0.12476083365E+04  0.12476083365E+04  0.00000000000E+00 0. -1.
         -2   -1    0    0    0  501 -0.00000000000E+00 -0.00000000000E+00 -0.24863943013E+04  0.24863943013E+04  0.00000000000E+00 0.  1.
        -15    1    1    2    0    0 -0.84013806314E+03 -0.32667130918E+03 -0.80634041178E+03  0.12094341524E+04  0.00000000000E+00 0.  1.
        -15    1    1    2    0    0 -0.14119529772E+03  0.10398629201E+03 -0.63212994025E+03  0.65600116036E+03  0.00000000000E+00 0.  1.
         15    1    1    2    0    0  0.65634405745E+03  0.17834181958E+03 -0.39578424899E+03  0.78691708465E+03  0.00000000000E+00 0. -1.
         15    1    1    2    0    0  0.62457568074E+02  0.73964230949E+02  0.32081945530E+03  0.33510711447E+03  0.00000000000E+00 0. -1.
        -16    1    1    2    0    0  0.20963136818E+02  0.41863389689E+02  0.16495094672E+03  0.17146664786E+03  0.00000000000E+00 0.  1.
         16    1    1    2    0    0 -0.44143488987E+02 -0.37386846946E+02  0.23958779509E+03  0.24647258570E+03  0.00000000000E+00 0. -1.
    9900018    1    1    2    0    0  0.28571208750E+03 -0.34097576098E+02 -0.12988956093E+03  0.32860389236E+03  0.91187600000E+02 0.  0.
<mgrwt>
<rscale>  0 0.13068856E+04</rscale>
<asrwt>0</asrwt>
<pdfrwt beam="1">  1        2 0.19193974E+00 0.27280400E+04</pdfrwt>
<pdfrwt beam="2">  1       -2 0.38252220E+00 0.27280400E+04</pdfrwt>
<totfact> 0.14625277E-01</totfact>
</mgrwt>
</event>
