<event>
11    1  0.1796217E-012  0.1515908E+04  0.7818608E-02  0.8873943E-01
         -2   -1    0    0    0  501 -0.00000000000E+00  0.00000000000E+00  0.41139640172E+03  0.41139640172E+03  0.00000000000E+00 0.  1.
          2   -1    0    0  501    0  0.00000000000E+00 -0.00000000000E+00 -0.13964490674E+04  0.13964490674E+04  0.00000000000E+00 0. -1.
    9900016    2    1    2    0    0 -0.23194039740E+03 -0.10243476674E+03 -0.95866631192E+02  0.66017796692E+03  0.60195955648E+03 0.  0.
         23    2    3    3    0    0 -0.69561990620E+02  0.40800131014E+01 -0.57506972381E+02  0.12855761522E+03  0.91457594074E+02 0.  0.
        -15    1    4    4    0    0 -0.34025128316E+02 -0.27969492594E+02  0.10615590815E+02  0.45306651181E+02  0.00000000000E+00 0. -1.
        -15    1    3    3    0    0 -0.15914398056E+03  0.15324712291E+03 -0.61361759409E+02  0.22929621180E+03  0.00000000000E+00 0.  1.
         15    1    4    4    0    0 -0.35536862304E+02  0.32049505695E+02 -0.68122563196E+02  0.83250964043E+02  0.00000000000E+00 0. -1.
         15    1    3    3    0    0  0.31029739001E+02 -0.93526812452E+02 -0.57908602481E+02  0.11429573742E+03  0.00000000000E+00 0.  1.
        -16    1    3    3    0    0 -0.34264165223E+02 -0.16623509030E+03  0.80910703079E+02  0.18802840248E+03  0.00000000000E+00 0.  1.
         16    1    1    2    0    0  0.25077344469E+03 -0.17201890464E+03 -0.78134134361E+03  0.83843432620E+03  0.00000000000E+00 0. -1.
    9900018    1    1    2    0    0 -0.18833047292E+02  0.27445367138E+03 -0.10784469090E+03  0.30923317603E+03  0.91187600000E+02 0.  0.
<mgrwt>
<rscale>  0 0.15159078E+04</rscale>
<asrwt>0</asrwt>
<pdfrwt beam="1">  1        2 0.21483832E+00 0.15159078E+04</pdfrwt>
<pdfrwt beam="2">  1       -2 0.63291753E-01 0.15159078E+04</pdfrwt>
<totfact> 0.32429957E+01</totfact>
</mgrwt>
</event>
<event>
11    1  0.1796217E-012  0.9622067E+03  0.7818608E-02  0.9350996E-01
         -2   -1    0    0    0  501 -0.00000000000E+00  0.00000000000E+00  0.13105704462E+04  0.13105704462E+04  0.00000000000E+00 0.  1.
          2   -1    0    0  501    0  0.00000000000E+00 -0.00000000000E+00 -0.17661042975E+03  0.17661042975E+03  0.00000000000E+00 0. -1.
    9900016    2    1    2    0    0  0.13232608590E+03  0.65612775193E+02  0.60910049611E+03  0.86170706922E+03  0.59137165092E+03 0.  0.
         23    2    3    3    0    0 -0.16580741643E+02  0.78320894952E+02  0.21937826446E+01  0.11752324227E+03  0.86010558729E+02 0.  0.
        -15    1    3    3    0    0 -0.92464879405E+02  0.60845428318E+02  0.36581468950E+02  0.11657668695E+03  0.00000000000E+00 0.  1.
        -15    1    4    4    0    0  0.95176935230E+01  0.45053110043E+02 -0.37608178373E+02  0.59453715570E+02  0.00000000000E+00 0. -1.
         15    1    4    4    0    0 -0.26098435166E+02  0.33267784909E+02  0.39801961017E+02  0.58069526704E+02  0.00000000000E+00 0.  1.
         15    1    3    3    0    0  0.22298761368E+02 -0.41330639121E+01  0.11900631658E+03  0.12114792760E+03  0.00000000000E+00 0. -1.
        -16    1    3    3    0    0  0.21907294559E+03 -0.69420484165E+02  0.45131892793E+03  0.50645921239E+03  0.00000000000E+00 0.  1.
         16    1    1    2    0    0  0.64143175251E+02  0.34308647897E+02  0.35217567533E+02  0.80818978679E+02  0.00000000000E+00 0. -1.
    9900018    1    1    2    0    0 -0.19646926116E+03 -0.99921423091E+02  0.48964195281E+03  0.54465482804E+03  0.91187600000E+02 0.  0.
<mgrwt>
<rscale>  0 0.96220665E+03</rscale>
<asrwt>0</asrwt>
<pdfrwt beam="1">  1        2 0.27170836E-01 0.96220665E+03</pdfrwt>
<pdfrwt beam="2">  1       -2 0.20162622E+00 0.96220665E+03</pdfrwt>
<totfact> 0.25923403E+01</totfact>
</mgrwt>
</event>
<event>
11    1  0.1796217E-012  0.8402360E+03  0.7818608E-02  0.9503536E-01
          1   -1    0    0  501    0  0.00000000000E+00  0.00000000000E+00  0.10583753685E+04  0.10583753685E+04  0.00000000000E+00 0. -1.
         -1   -1    0    0    0  501 -0.00000000000E+00 -0.00000000000E+00 -0.16676420630E+03  0.16676420630E+03  0.00000000000E+00 0.  1.
    9900016    2    1    2    0    0 -0.62415864037E+02  0.22955843095E+01  0.83394997944E+03  0.11401347409E+04  0.77494106188E+03 0.  0.
         23    2    3    3    0    0 -0.21683070786E+02 -0.14858427601E+03  0.96791959457E+02  0.20044020925E+03  0.90885375237E+02 0.  0.
        -15    1    4    4    0    0 -0.51631425590E+02 -0.66076068670E+02  0.68315285487E+02  0.10816112606E+03  0.00000000000E+00 0.  1.
        -15    1    3    3    0    0  0.39320668274E+02 -0.12851827455E+03  0.21161248618E+03  0.25068487421E+03  0.00000000000E+00 0.  1.
         15    1    4    4    0    0  0.29948354804E+02 -0.82508207336E+02  0.28476673969E+02  0.92279083185E+02  0.00000000000E+00 0. -1.
         15    1    3    3    0    0  0.32490516461E+02  0.15880974246E+03  0.74676150165E+02  0.17847323430E+03  0.00000000000E+00 0. -1.
        -16    1    1    2    0    0  0.62415864037E+02 -0.22955843095E+01  0.57661182771E+02  0.85004833917E+02  0.00000000000E+00 0.  1.
         16    1    3    3    0    0 -0.35678690976E+02  0.61979120396E+02  0.30474939528E+03  0.31302807267E+03  0.00000000000E+00 0. -1.
    9900018    1    3    3    0    0 -0.76865287009E+02  0.58609272015E+02  0.14611998835E+03  0.19750835046E+03  0.91187600000E+02 0.  0.
<mgrwt>
<rscale>  0 0.84023599E+03</rscale>
<asrwt>0</asrwt>
<pdfrwt beam="1">  1        1 0.16282698E+00 0.84023599E+03</pdfrwt>
<pdfrwt beam="2">  1       -1 0.25656032E-01 0.84023599E+03</pdfrwt>
<totfact> 0.18425396E+02</totfact>
</mgrwt>
</event>
<event>
11    1  0.1796217E-012  0.1084036E+04  0.7818608E-02  0.9220892E-01
         -2   -1    0    0    0  501 -0.00000000000E+00  0.00000000000E+00  0.24933851772E+03  0.24933851772E+03  0.00000000000E+00 0.  1.
          2   -1    0    0  501    0  0.00000000000E+00 -0.00000000000E+00 -0.11782522709E+04  0.11782522709E+04  0.00000000000E+00 0. -1.
    9900016    2    1    2    0    0  0.20814998014E+03  0.75679104494E+02 -0.61334026329E+03  0.89247436512E+03  0.60931968024E+03 0.  0.
         23    2    3    3    0    0  0.15091714661E+02  0.14805174237E+03 -0.26671806744E+03  0.31833811161E+03  0.89741559669E+02 0.  0.
        -15    1    3    3    0    0  0.16000828923E+03 -0.13470950230E+03 -0.56900292067E+02  0.21676472469E+03  0.00000000000E+00 0.  1.
        -15    1    4    4    0    0  0.45238837187E+02  0.36966377433E+02 -0.98128248083E+02  0.11420253291E+03  0.00000000000E+00 0. -1.
         15    1    4    4    0    0 -0.30147122526E+02  0.11108536494E+03 -0.16858981936E+03  0.20413557870E+03  0.00000000000E+00 0.  1.
         15    1    3    3    0    0  0.27273425326E+02  0.12671151824E+03 -0.24974077310E+03  0.28137182221E+03  0.00000000000E+00 0. -1.
        -16    1    1    2    0    0 -0.37503301620E+02  0.71448277775E+01  0.79100909480E+02  0.87832226870E+02  0.00000000000E+00 0.  1.
         16    1    3    3    0    0  0.57765509238E+01 -0.64374653817E+02 -0.39981130681E+02  0.75999706612E+02  0.00000000000E+00 0. -1.
    9900018    1    1    2    0    0 -0.17064667852E+03 -0.82823932271E+02 -0.39467439940E+03  0.44728419666E+03  0.91187600000E+02 0.  0.
<mgrwt>
<rscale>  0 0.10840363E+04</rscale>
<asrwt>0</asrwt>
<pdfrwt beam="1">  1        2 0.18126959E+00 0.10840363E+04</pdfrwt>
<pdfrwt beam="2">  1       -2 0.38359771E-01 0.10840363E+04</pdfrwt>
<totfact> 0.12438772E+02</totfact>
</mgrwt>
</event>
<event>
11    1  0.1796217E-012  0.1765012E+04  0.7818608E-02  0.8725130E-01
         -1   -1    0    0    0  501 -0.00000000000E+00  0.00000000000E+00  0.11566402748E+04  0.11566402748E+04  0.00000000000E+00 0.  1.
          1   -1    0    0  501    0  0.00000000000E+00 -0.00000000000E+00 -0.67334434626E+03  0.67334434626E+03  0.00000000000E+00 0. -1.
    9900016    2    1    2    0    0  0.19981770767E+03 -0.26709177018E+03 -0.73307342878E+02  0.72510390321E+03  0.63963784592E+03 0.  0.
         23    2    3    3    0    0 -0.17969479778E+02 -0.45824440750E+01 -0.40841769978E+02  0.10502644789E+03  0.94966328692E+02 0.  0.
        -15    1    3    3    0    0 -0.46318392282E+02 -0.19230065160E+03 -0.12258696695E+03  0.23270689405E+03  0.00000000000E+00 0. -1.
        -15    1    4    4    0    0  0.29177379352E+02 -0.22763529594E+02 -0.39993553763E+02  0.54488366538E+02  0.00000000000E+00 0. -1.
         15    1    3    3    0    0  0.59415823429E+02 -0.13918529846E+03  0.79889881375E+02  0.17112913407E+03  0.00000000000E+00 0.  1.
         15    1    4    4    0    0 -0.47146859130E+02  0.18181085519E+02 -0.84821621504E+00  0.50538081356E+02  0.00000000000E+00 0.  1.
        -16    1    1    2    0    0 -0.19323159047E+03  0.46500764458E+03  0.68628870109E+03  0.85121251067E+03  0.00000000000E+00 0.  1.
         16    1    3    3    0    0  0.20468975630E+03  0.68976623955E+02  0.10231512674E+02  0.21624142720E+03  0.00000000000E+00 0. -1.
    9900018    1    1    2    0    0 -0.65861171933E+01 -0.19791587439E+03 -0.12968542967E+03  0.25366820719E+03  0.91187600000E+02 0.  0.
<mgrwt>
<rscale>  0 0.17650124E+04</rscale>
<asrwt>0</asrwt>
<pdfrwt beam="1">  1        1 0.10359144E+00 0.17650124E+04</pdfrwt>
<pdfrwt beam="2">  1       -1 0.17794466E+00 0.17650124E+04</pdfrwt>
<totfact> 0.58875578E+00</totfact>
</mgrwt>
</event>
<event>
11    1  0.1796217E-012  0.9451859E+03  0.7818608E-02  0.9370795E-01
         -2   -1    0    0    0  501 -0.00000000000E+00  0.00000000000E+00  0.26755271845E+03  0.26755271845E+03  0.00000000000E+00 0.  1.
          2   -1    0    0  501    0  0.00000000000E+00 -0.00000000000E+00 -0.83476674732E+03  0.83476674732E+03  0.00000000000E+00 0. -1.
    9900016    2    1    2    0    0 -0.15054702305E+02  0.46477675868E+02 -0.62906721972E+03  0.10234991915E+04  0.80587729195E+03 0.  0.
         23    2    3    3    0    0 -0.10424105779E+03  0.43218702568E+02 -0.21430532523E+02  0.14837089484E+03  0.93918051144E+02 0.  0.
        -15    1    4    4    0    0 -0.29115614190E+02  0.33019542056E+02 -0.50661531899E+02  0.67116316658E+02  0.00000000000E+00 0.  1.
        -15    1    3    3    0    0  0.44679473349E+02  0.13024380345E+03 -0.62927374148E+02  0.15139206747E+03  0.00000000000E+00 0.  1.
         15    1    4    4    0    0 -0.75125443598E+02  0.10199160511E+02  0.29230999377E+02  0.81254578182E+02  0.00000000000E+00 0. -1.
         15    1    3    3    0    0 -0.17738687451E+02 -0.32773239611E+02  0.46795354407E+02  0.59820995154E+02  0.00000000000E+00 0. -1.
        -16    1    1    2    0    0  0.15054702305E+02 -0.46477675868E+02  0.61853190853E+02  0.78820274260E+02  0.00000000000E+00 0.  1.
         16    1    3    3    0    0  0.14841755578E+03 -0.10270411562E+02 -0.25761041287E+03  0.29748340632E+03  0.00000000000E+00 0. -1.
    9900018    1    3    3    0    0 -0.86171986201E+02 -0.83941178973E+02 -0.33389425459E+03  0.36643182773E+03  0.91187600000E+02 0.  0.
<mgrwt>
<rscale>  0 0.94518593E+03</rscale>
<asrwt>0</asrwt>
<pdfrwt beam="1">  1        2 0.12842565E+00 0.94518593E+03</pdfrwt>
<pdfrwt beam="2">  1       -2 0.41161957E-01 0.94518593E+03</pdfrwt>
<totfact> 0.18193043E+02</totfact>
</mgrwt>
</event>
