<event>
13    1  0.3941596E-012  0.5137666E+04  0.7818608E-02  0.7807615E-01
         -2   -1    0    0    0  501 -0.00000000000E+00  0.00000000000E+00  0.29631666359E+04  0.29631666359E+04  0.00000000000E+00 0.  1.
          2   -1    0    0  501    0  0.00000000000E+00 -0.00000000000E+00 -0.22269764608E+04  0.22269764608E+04  0.00000000000E+00 0. -1.
    9900016    2    1    2    0    0 -0.70521322552E+03 -0.16006171611E+04  0.17533898389E+03  0.25595721597E+04  0.18604743728E+04 0.  0.
         24    2    3    3    0    0 -0.29448218520E+03  0.17725007482E+03 -0.49948936362E+03  0.61408887930E+03  0.97355949419E+02 0.  0.
    9900016    2    1    2    0    0  0.70521322552E+03  0.16006171611E+04  0.56085119119E+03  0.26305709369E+04  0.18830954320E+04 0.  0.
        -24    2    5    5    0    0  0.14293661287E+03 -0.40277952464E+03 -0.83908683748E+01  0.44011022453E+03  0.10471094639E+03 0.  0.
        -15    1    4    4    0    0 -0.98129664010E+02  0.10383017916E+03 -0.15471870067E+03  0.21058968018E+03  0.00000000000E+00 0.  1.
        -15    1    5    5    0    0  0.53335142822E+03  0.18932587691E+04  0.55574597337E+03  0.20439535464E+04  0.00000000000E+00 0.  1.
         15    1    3    3    0    0 -0.41073104032E+03 -0.17778672359E+04  0.67482834751E+03  0.19454832804E+04  0.00000000000E+00 0. -1.
         15    1    6    6    0    0  0.24947590350E+02 -0.12481320513E+03 -0.46996322228E+02  0.13568114365E+03  0.00000000000E+00 0. -1.
        -16    1    6    6    0    0  0.11798902252E+03 -0.27796631951E+03  0.38605453853E+02  0.30442908088E+03  0.00000000000E+00 0.  1.
         16    1    4    4    0    0 -0.19635252119E+03  0.73419895659E+02 -0.34477066296E+03  0.40349919912E+03  0.00000000000E+00 0. -1.
    9900018    1    5    5    0    0  0.28925184431E+02  0.11013791660E+03  0.13496086199E+02  0.14650716605E+03  0.91187600000E+02 0.  0.
<mgrwt>
<rscale>  0 0.51376658E+04</rscale>
<asrwt>0</asrwt>
<pdfrwt beam="1">  1        2 0.34261176E+00 0.51376658E+04</pdfrwt>
<pdfrwt beam="2">  1       -2 0.45587179E+00 0.51376658E+04</pdfrwt>
<totfact> 0.11438296E-02</totfact>
</mgrwt>
</event>
<event>
12    1  0.3941596E-012  0.5946755E+04  0.7818608E-02  0.7697039E-01
         -2   -1    0    0    0  501 -0.00000000000E+00  0.00000000000E+00  0.18535125548E+04  0.18535125548E+04  0.00000000000E+00 0.  1.
          2   -1    0    0  501    0  0.00000000000E+00 -0.00000000000E+00 -0.47698478238E+04  0.47698478238E+04  0.00000000000E+00 0. -1.
    9900016    2    1    2    0    0 -0.10494287122E+04 -0.12418442459E+04 -0.32715522482E+04  0.40941182765E+04  0.18480456152E+04 0.  0.
    9900016    2    1    2    0    0  0.97991448684E+03  0.11391008948E+04  0.30077235649E+03  0.23659392576E+04  0.18026151308E+04 0.  0.
        -24    2    4    4    0    0 -0.15937238647E+03 -0.19174976313E+03  0.54077805955E+03  0.59768000309E+03  0.51116994932E+02 0.  0.
        -15    1    3    3    0    0 -0.80962525891E+03 -0.34458559416E+03 -0.20639884736E+04  0.22437202835E+04  0.00000000000E+00 0.  1.
        -15    1    4    4    0    0  0.11392868733E+04  0.13308506580E+04 -0.24000570306E+03  0.17682592545E+04  0.00000000000E+00 0.  1.
         15    1    3    3    0    0  0.21015585444E+03 -0.71020709509E+03 -0.26014055522E+03  0.78500491052E+03  0.00000000000E+00 0. -1.
         15    1    5    5    0    0 -0.14466048330E+02 -0.41351958312E+02  0.12382084969E+03  0.13134250580E+03  0.00000000000E+00 0. -1.
        -16    1    5    5    0    0 -0.14490633814E+03 -0.15039780482E+03  0.41695720986E+03  0.46633749730E+03  0.00000000000E+00 0.  1.
         16    1    3    3    0    0 -0.44995930773E+03 -0.18705155667E+03 -0.94742321940E+03  0.10653930825E+04  0.00000000000E+00 0. -1.
    9900018    1    1    2    0    0  0.69514225359E+02  0.10274335109E+03  0.54444622675E+02  0.16330284459E+03  0.91187600000E+02 0.  0.
<mgrwt>
<rscale>  0 0.59467547E+04</rscale>
<asrwt>0</asrwt>
<pdfrwt beam="1">  1        2 0.73382274E+00 0.59467547E+04</pdfrwt>
<pdfrwt beam="2">  1       -2 0.28515578E+00 0.59467547E+04</pdfrwt>
<totfact> 0.16759192E-03</totfact>
</mgrwt>
</event>
<event>
12    1  0.3941596E-012  0.3960123E+04  0.7818608E-02  0.8012640E-01
          1   -1    0    0  501    0  0.00000000000E+00  0.00000000000E+00  0.35442150187E+04  0.35442150187E+04  0.00000000000E+00 0. -1.
         -1   -1    0    0    0  501 -0.00000000000E+00 -0.00000000000E+00 -0.11062093826E+04  0.11062093826E+04  0.00000000000E+00 0.  1.
    9900016    2    1    2    0    0  0.77160217413E+01  0.57846355076E+03  0.15540304327E+04  0.24800962839E+04  0.18442308356E+04 0.  0.
    9900016    2    1    2    0    0  0.71677965929E+01 -0.54668221161E+03  0.87923326796E+03  0.20725055949E+04  0.17953594302E+04 0.  0.
        -24    2    4    4    0    0  0.51763682141E+03  0.45543081976E+03  0.59392751903E+03  0.91224333001E+03  0.63819157175E+02 0.  0.
        -15    1    3    3    0    0 -0.77446945070E+02 -0.90520116377E+02 -0.18276302743E+03  0.21816105281E+03  0.00000000000E+00 0.  1.
        -15    1    4    4    0    0 -0.51046902482E+03 -0.10021130314E+04  0.28530574894E+03  0.11602622649E+04  0.00000000000E+00 0.  1.
         15    1    3    3    0    0  0.92045930756E+02  0.84551022037E+03  0.18608941432E+04  0.20460417880E+04  0.00000000000E+00 0. -1.
         15    1    5    5    0    0  0.46608429256E+03  0.42863445329E+03  0.55752827780E+03  0.84368231157E+03  0.00000000000E+00 0. -1.
        -16    1    5    5    0    0  0.51552528850E+02  0.26796366470E+02  0.36399241226E+02  0.68561018434E+02  0.00000000000E+00 0.  1.
         16    1    3    3    0    0 -0.68829639446E+01 -0.17652655323E+03 -0.12410068311E+03  0.21589344301E+03  0.00000000000E+00 0. -1.
    9900018    1    1    2    0    0 -0.14883818334E+02 -0.31781339149E+02  0.47419354019E+01  0.97822522516E+02  0.91187600000E+02 0.  0.
<mgrwt>
<rscale>  0 0.39601232E+04</rscale>
<asrwt>0</asrwt>
<pdfrwt beam="1">  1        1 0.54526384E+00 0.39601232E+04</pdfrwt>
<pdfrwt beam="2">  1       -1 0.17018606E+00 0.39601232E+04</pdfrwt>
<totfact> 0.44323993E-02</totfact>
</mgrwt>
</event>
<event>
12    1  0.3941596E-012  0.4675010E+04  0.7818608E-02  0.7880694E-01
          1   -1    0    0  501    0  0.00000000000E+00  0.00000000000E+00  0.22345741484E+04  0.22345741484E+04  0.00000000000E+00 0. -1.
         -1   -1    0    0    0  501 -0.00000000000E+00 -0.00000000000E+00 -0.24451767465E+04  0.24451767465E+04  0.00000000000E+00 0.  1.
    9900016    2    1    2    0    0 -0.40011469117E+03 -0.11558388522E+04  0.57837722843E+03  0.22902474110E+04  0.18478792620E+04 0.  0.
         24    2    3    3    0    0  0.16567595537E+03 -0.19652028537E+03 -0.60589373354E+03  0.66454483063E+03  0.91890537145E+02 0.  0.
    9900016    2    1    2    0    0  0.41696706334E+03  0.10902415918E+04 -0.75401224230E+03  0.22706552052E+04  0.17957873869E+04 0.  0.
        -15    1    4    4    0    0  0.15285365791E+03 -0.11958616868E+03 -0.40695285217E+03  0.45086108323E+03  0.00000000000E+00 0.  1.
        -15    1    5    5    0    0  0.68455614969E+03  0.11377031280E+04 -0.11610099675E+04  0.17637827741E+04  0.00000000000E+00 0.  1.
         15    1    3    3    0    0 -0.56579064654E+03 -0.95931856680E+03  0.11842709620E+04  0.16257025803E+04  0.00000000000E+00 0. -1.
         15    1    5    5    0    0 -0.26356348307E+03 -0.18282014215E+02  0.31969641835E+03  0.41473574907E+03  0.00000000000E+00 0. -1.
        -16    1    5    5    0    0 -0.40256032792E+01 -0.29179522030E+02  0.87301306860E+02  0.92136681984E+02  0.00000000000E+00 0.  1.
         16    1    4    4    0    0  0.12822297459E+02 -0.76934116688E+02 -0.19894088137E+03  0.21368374740E+03  0.00000000000E+00 0. -1.
    9900018    1    1    2    0    0 -0.16852372177E+02  0.65597260397E+02 -0.34967584203E+02  0.11884827874E+03  0.91187600000E+02 0.  0.
<mgrwt>
<rscale>  0 0.46750096E+04</rscale>
<asrwt>0</asrwt>
<pdfrwt beam="1">  1        1 0.34378064E+00 0.46750096E+04</pdfrwt>
<pdfrwt beam="2">  1       -1 0.37618104E+00 0.46750096E+04</pdfrwt>
<totfact> 0.15870464E-02</totfact>
</mgrwt>
</event>
