<event>
12    1  0.2745480E-008  0.3767616E+04  0.7818608E-02  0.8838442E-01
         -1   -1    0    0    0  501 -0.00000000000E+00  0.00000000000E+00  0.18526273164E+04  0.18526273164E+04  0.00000000000E+00 0.  1.
          1   -1    0    0  501    0  0.00000000000E+00 -0.00000000000E+00 -0.20335488966E+04  0.20335488966E+04  0.00000000000E+00 0. -1.
         23    2    1    2    0    0 -0.27978571713E+02 -0.61596873505E+02  0.40307038240E+01  0.11402298660E+03  0.91695253966E+02 0.  0.
    9900016    2    1    2    0    0 -0.67990871827E+03  0.30772998249E+03 -0.11188460819E+04  0.25747211623E+04  0.21955406854E+04 0.  0.
         24    2    4    4    0    0 -0.38396638396E+03  0.86031030556E+02  0.62690139370E+03  0.74350573330E+03  0.70454920320E+02 0.  0.
        -15    1    5    5    0    0 -0.96058930327E+02  0.14768058717E+01  0.19778588955E+03  0.21988350815E+03  0.00000000000E+00 0.  1.
        -15    1    3    3    0    0  0.33930034504E+02 -0.21440707452E+02  0.31380453645E+00  0.40137882988E+02  0.00000000000E+00 0. -1.
         15    1    4    4    0    0  0.15205523781E+02  0.20149343593E+03 -0.95859412389E+03  0.97965989355E+03  0.00000000000E+00 0. -1.
         15    1    3    3    0    0 -0.61908606217E+02 -0.40156166052E+02  0.37168992876E+01  0.73885103614E+02  0.00000000000E+00 0.  1.
        -16    1    1    2    0    0  0.70788728998E+03 -0.24613310899E+03  0.93389379781E+03  0.11974320641E+04  0.00000000000E+00 0.  1.
         16    1    5    5    0    0 -0.28790745363E+03  0.84554224684E+02  0.42911550415E+03  0.52362222515E+03  0.00000000000E+00 0. -1.
    9900018    1    4    4    0    0 -0.31114785809E+03  0.20205516009E+02 -0.78715335169E+03  0.85155553544E+03  0.91187600000E+02 0.  0.
<mgrwt>
<rscale>  0 0.15711955E+04</rscale>
<asrwt>0</asrwt>
<pdfrwt beam="1">  1        1 0.31285368E+00 0.37676163E+04</pdfrwt>
<pdfrwt beam="2">  1       -1 0.28501959E+00 0.37676163E+04</pdfrwt>
<totfact> 0.92790436E-02</totfact>
</mgrwt>
</event>
<event>
12    1  0.2745480E-008  0.3121196E+04  0.7818608E-02  0.8603238E-01
         -1   -1    0    0    0  501 -0.00000000000E+00  0.00000000000E+00  0.16448506560E+04  0.16448506560E+04  0.00000000000E+00 0.  1.
          1   -1    0    0  501    0  0.00000000000E+00 -0.00000000000E+00 -0.20872742067E+04  0.20872742067E+04  0.00000000000E+00 0. -1.
         23    2    1    2    0    0  0.16813921313E+03 -0.49822202953E+03 -0.28918041251E+03  0.60716920586E+03  0.92375039140E+02 0.  0.
    9900016    2    1    2    0    0  0.55039903935E+03  0.23873916221E+03 -0.39381632992E+03  0.23240161840E+04  0.22104353489E+04 0.  0.
        -24    2    4    4    0    0 -0.43955152829E+03  0.41943950176E+03  0.62383535177E+03  0.87448484152E+03  0.80113358840E+02 0.  0.
        -15    1    4    4    0    0  0.59038108478E+03 -0.18637698783E+03 -0.66799398103E+03  0.91077009479E+03  0.00000000000E+00 0.  1.
        -15    1    3    3    0    0  0.10905273170E+03 -0.40756761653E+03 -0.19982204295E+03  0.46683263509E+03  0.00000000000E+00 0.  1.
         15    1    5    5    0    0 -0.15306461193E+03  0.10049540962E+03  0.16425575610E+03  0.24598385352E+03  0.00000000000E+00 0. -1.
         15    1    3    3    0    0  0.59086481422E+02 -0.90654413004E+02 -0.89358369561E+02  0.14033657077E+03  0.00000000000E+00 0. -1.
        -16    1    5    5    0    0 -0.28648691636E+03  0.31894409215E+03  0.45957959567E+03  0.62850098800E+03  0.00000000000E+00 0.  1.
         16    1    1    2    0    0 -0.71853825248E+03  0.25948286733E+03  0.24057319170E+03  0.80093947291E+03  0.00000000000E+00 0. -1.
    9900018    1    4    4    0    0  0.39956948286E+03  0.56766482772E+01 -0.34965770066E+03  0.53876124768E+03  0.91187600000E+02 0.  0.
<mgrwt>
<rscale>  0 0.20072522E+04</rscale>
<asrwt>0</asrwt>
<pdfrwt beam="1">  1        1 0.32111911E+00 0.31211960E+04</pdfrwt>
<pdfrwt beam="2">  1       -1 0.25305395E+00 0.31211960E+04</pdfrwt>
<totfact> 0.14305942E-01</totfact>
</mgrwt>
</event>
<event>
12    1  0.2745480E-008  0.3431145E+04  0.7818608E-02  0.8897058E-01
          2   -1    0    0  501    0  0.00000000000E+00  0.00000000000E+00  0.20295873397E+04  0.20295873397E+04  0.00000000000E+00 0. -1.
         -2   -1    0    0    0  501 -0.00000000000E+00 -0.00000000000E+00 -0.15574258112E+04  0.15574258112E+04  0.00000000000E+00 0.  1.
         23    2    1    2    0    0  0.66689872282E+02  0.36017443071E+02  0.52809266913E+02  0.13033684650E+03  0.91946069050E+02 0.  0.
    9900016    2    1    2    0    0  0.74060633718E+03  0.52373026419E+03  0.57070864134E+03  0.24627178448E+04  0.22173136209E+04 0.  0.
         24    2    4    4    0    0 -0.11029908178E+03 -0.69919973728E+03  0.54892108549E+03  0.89874636193E+03  0.73379185971E+02 0.  0.
        -15    1    5    5    0    0 -0.11842263682E+02 -0.20826121345E+03  0.12905043734E+03  0.24528959949E+03  0.00000000000E+00 0.  1.
        -15    1    3    3    0    0  0.29293958327E+01 -0.20906736833E+02 -0.10874401439E+02  0.23747117965E+02  0.00000000000E+00 0.  1.
         15    1    4    4    0    0  0.81180229850E+03  0.11711719351E+04 -0.58544533091E+02  0.14262167212E+04  0.00000000000E+00 0. -1.
         15    1    3    3    0    0  0.63760476449E+02  0.56924179904E+02  0.63683668352E+02  0.10658972854E+03  0.00000000000E+00 0. -1.
        -16    1    1    2    0    0 -0.80729620946E+03 -0.55974770726E+03 -0.15135637973E+03  0.99395845953E+03  0.00000000000E+00 0.  1.
         16    1    5    5    0    0 -0.98456818094E+02 -0.49093852383E+03  0.41987064815E+03  0.65345676245E+03  0.00000000000E+00 0. -1.
    9900018    1    4    4    0    0  0.39103120452E+02  0.51758066348E+02  0.80332088934E+02  0.13775476169E+03  0.91187600000E+02 0.  0.
<mgrwt>
<rscale>  0 0.14811909E+04</rscale>
<asrwt>0</asrwt>
<pdfrwt beam="1">  1        2 0.31224420E+00 0.34311448E+04</pdfrwt>
<pdfrwt beam="2">  1       -2 0.23960397E+00 0.34311448E+04</pdfrwt>
<totfact> 0.39414702E-01</totfact>
</mgrwt>
</event>
