<event>
10    1  0.8974456E-010  0.2745432E+04  0.7818608E-02  0.8320413E-01
         -1   -1    0    0    0  501 -0.00000000000E+00  0.00000000000E+00  0.19063082138E+04  0.19063082138E+04  0.00000000000E+00 0.  1.
          1   -1    0    0  501    0  0.00000000000E+00 -0.00000000000E+00 -0.98848109998E+03  0.98848109998E+03  0.00000000000E+00 0. -1.
    9900016    2    1    2    0    0  0.49876379157E+03 -0.41541332323E+02  0.85438736463E+03  0.20908790432E+04  0.18415499999E+04 0.  0.
        -15    1    3    3    0    0  0.17422631357E+03  0.19595494679E+03  0.18774624321E+02  0.26287950858E+03  0.00000000000E+00 0.  1.
        -15    1    3    3    0    0  0.44963422766E+03  0.53750636663E+02  0.77467478654E+03  0.89731883660E+03  0.00000000000E+00 0.  1.
         15    1    3    3    0    0  0.15756334455E+02 -0.15351724539E+03 -0.12815032257E+03  0.20059489496E+03  0.00000000000E+00 0. -1.
         15    1    3    3    0    0 -0.15245128216E+03 -0.82487491446E+02  0.43999546427E+03  0.47290758955E+03  0.00000000000E+00 0. -1.
        -16    1    3    3    0    0  0.11598198051E+02 -0.55242178941E+02 -0.25090718793E+03  0.25717821348E+03  0.00000000000E+00 0.  1.
         16    1    1    2    0    0 -0.58403401930E+03  0.17657058951E+03  0.94467184862E+02  0.61741149794E+03  0.00000000000E+00 0. -1.
    9900018    1    1    2    0    0  0.85270227730E+02 -0.13502925718E+03 -0.31027435704E+02  0.18649877263E+03  0.91187600000E+02 0.  0.
<mgrwt>
<rscale>  0 0.27454323E+04</rscale>
<asrwt>0</asrwt>
<pdfrwt beam="1">  1        1 0.15207402E+00 0.27454323E+04</pdfrwt>
<pdfrwt beam="2">  1       -1 0.29327819E+00 0.27454323E+04</pdfrwt>
<totfact> 0.49057388E-01</totfact>
</mgrwt>
</event>
<event>
10    1  0.8974456E-010  0.3207512E+04  0.7818608E-02  0.8186836E-01
         -2   -1    0    0    0  501 -0.00000000000E+00  0.00000000000E+00  0.72207704783E+03  0.72207704783E+03  0.00000000000E+00 0.  1.
          2   -1    0    0  501    0  0.00000000000E+00 -0.00000000000E+00 -0.35619918248E+04  0.35619918248E+04  0.00000000000E+00 0. -1.
    9900016    2    1    2    0    0  0.87704119203E+03 -0.34957989090E+03 -0.17780795699E+04  0.27328280860E+04  0.18480733314E+04 0.  0.
        -15    1    3    3    0    0  0.73261090706E+01  0.21880068483E+02 -0.75373692682E+02  0.78826409404E+02  0.00000000000E+00 0.  1.
        -15    1    3    3    0    0  0.45872154669E+03 -0.28667293395E+03 -0.11755114557E+04  0.12939992314E+04  0.00000000000E+00 0.  1.
         15    1    3    3    0    0  0.43849721976E+03 -0.38333777618E+03  0.16355737659E+03  0.60496171600E+03  0.00000000000E+00 0. -1.
         15    1    3    3    0    0 -0.92677562682E+01  0.23400510572E+03 -0.48397792981E+03  0.53766059680E+03  0.00000000000E+00 0. -1.
        -16    1    1    2    0    0 -0.89495914282E+03  0.16691081966E+03 -0.75745946895E+03  0.11842955443E+04  0.00000000000E+00 0.  1.
         16    1    3    3    0    0 -0.18235927227E+02  0.64545645035E+02 -0.20677386835E+03  0.21738013241E+03  0.00000000000E+00 0. -1.
    9900018    1    1    2    0    0  0.17917950790E+02  0.18266907124E+03 -0.30437573812E+03  0.36694524237E+03  0.91187600000E+02 0.  0.
<mgrwt>
<rscale>  0 0.32075115E+04</rscale>
<asrwt>0</asrwt>
<pdfrwt beam="1">  1        2 0.54799874E+00 0.32075115E+04</pdfrwt>
<pdfrwt beam="2">  1       -2 0.11108878E+00 0.32075115E+04</pdfrwt>
<totfact> 0.39626039E-01</totfact>
</mgrwt>
</event>
<event>
11    1  0.8974456E-010  0.2742319E+04  0.7818608E-02  0.8321403E-01
         -2   -1    0    0    0  501 -0.00000000000E+00  0.00000000000E+00  0.84738876229E+03  0.84738876229E+03  0.00000000000E+00 0.  1.
          2   -1    0    0  501    0  0.00000000000E+00 -0.00000000000E+00 -0.22186725246E+04  0.22186725246E+04  0.00000000000E+00 0. -1.
    9900016    2    1    2    0    0 -0.14688169406E+02 -0.44444810599E+03 -0.68510586510E+03  0.20407069447E+04  0.18701243078E+04 0.  0.
         24    2    3    3    0    0 -0.44401672487E+02 -0.18616141140E+02 -0.84999689464E+03  0.85723765410E+03  0.10021779024E+03 0.  0.
        -15    1    4    4    0    0 -0.39419173659E+02  0.12911543962E+02 -0.12837211312E+03  0.13490729649E+03  0.00000000000E+00 0.  1.
        -15    1    3    3    0    0 -0.32653273887E+02  0.25497103379E+03  0.99775565355E+02  0.27573833213E+03  0.00000000000E+00 0.  1.
         15    1    3    3    0    0 -0.11688069593E+03  0.30929580843E+01  0.15596152143E+03  0.19492218867E+03  0.00000000000E+00 0. -1.
         15    1    3    3    0    0  0.17924747290E+03 -0.68389595672E+03 -0.90846057245E+02  0.71280876978E+03  0.00000000000E+00 0. -1.
        -16    1    1    2    0    0  0.30063088220E+03  0.31339735337E+03 -0.40093089162E+03  0.59105195058E+03  0.00000000000E+00 0.  1.
         16    1    4    4    0    0 -0.49824988282E+01 -0.31527685102E+02 -0.72162478152E+03  0.72233035761E+03  0.00000000000E+00 0. -1.
    9900018    1    1    2    0    0 -0.28594271280E+03  0.13105075262E+03 -0.28524700557E+03  0.43430239159E+03  0.91187600000E+02 0.  0.
<mgrwt>
<rscale>  0 0.27423188E+04</rscale>
<asrwt>0</asrwt>
<pdfrwt beam="1">  1        2 0.34133424E+00 0.27423188E+04</pdfrwt>
<pdfrwt beam="2">  1       -2 0.13036750E+00 0.27423188E+04</pdfrwt>
<totfact> 0.18999690E+00</totfact>
</mgrwt>
</event>
<event>
10    1  0.8974456E-010  0.5376793E+04  0.7818608E-02  0.7772874E-01
          2   -1    0    0  501    0  0.00000000000E+00  0.00000000000E+00  0.36144518382E+04  0.36144518382E+04  0.00000000000E+00 0. -1.
         -2   -1    0    0    0  501 -0.00000000000E+00 -0.00000000000E+00 -0.19996048399E+04  0.19996048399E+04  0.00000000000E+00 0.  1.
    9900016    2    1    2    0    0  0.56785238301E+03  0.20930805963E+03  0.70045447595E+03  0.20581245085E+04  0.18381985276E+04 0.  0.
        -15    1    3    3    0    0  0.44726474530E+02  0.12963563815E+03  0.36217936643E+03  0.38727219067E+03  0.00000000000E+00 0.  1.
        -15    1    3    3    0    0 -0.20177100424E+03 -0.25684997442E+03  0.68052620968E+02  0.33363843713E+03  0.00000000000E+00 0.  1.
         15    1    3    3    0    0  0.62450070585E+03  0.28561992176E+03  0.37557886849E+03  0.78271281948E+03  0.00000000000E+00 0. -1.
         15    1    3    3    0    0  0.10111953675E+03 -0.11439865093E+03 -0.27694293252E+03  0.31624294446E+03  0.00000000000E+00 0. -1.
        -16    1    1    2    0    0 -0.16405748812E+04 -0.11463237928E+04  0.41598606558E+03  0.20441596282E+04  0.00000000000E+00 0.  1.
         16    1    3    3    0    0 -0.72332988255E+00  0.16530112507E+03  0.17158655258E+03  0.23825811672E+03  0.00000000000E+00 0. -1.
    9900018    1    1    2    0    0  0.10727224982E+04  0.93701573319E+03  0.49840645680E+03  0.15117725414E+04  0.91187600000E+02 0.  0.
<mgrwt>
<rscale>  0 0.53767929E+04</rscale>
<asrwt>0</asrwt>
<pdfrwt beam="1">  1        2 0.55606951E+00 0.53767929E+04</pdfrwt>
<pdfrwt beam="2">  1       -2 0.30763151E+00 0.53767929E+04</pdfrwt>
<totfact> 0.13556648E-02</totfact>
</mgrwt>
</event>
<event>
11    1  0.8974456E-010  0.3713663E+04  0.7818608E-02  0.8064941E-01
         -2   -1    0    0    0  501 -0.00000000000E+00  0.00000000000E+00  0.16407076660E+04  0.16407076660E+04  0.00000000000E+00 0.  1.
          2   -1    0    0  501    0  0.00000000000E+00 -0.00000000000E+00 -0.21014250213E+04  0.21014250213E+04  0.00000000000E+00 0. -1.
    9900016    2    1    2    0    0  0.79690436349E+03  0.40426561683E+02 -0.28584862155E+03  0.20337466301E+04  0.18487090224E+04 0.  0.
        -24    2    3    3    0    0 -0.26969548824E+03  0.12304159948E+03  0.86447217177E+02  0.31623835308E+03  0.68254545767E+02 0.  0.
        -15    1    3    3    0    0  0.97772309366E+03  0.15945218531E+02  0.18431036492E+03  0.99507135849E+03  0.00000000000E+00 0.  1.
        -15    1    3    3    0    0  0.11053423145E+03  0.55783425091E+02 -0.55284091024E+03  0.56653568190E+03  0.00000000000E+00 0.  1.
         15    1    3    3    0    0 -0.21657473387E+02 -0.15434368142E+03 -0.37652934024E+01  0.15590123663E+03  0.00000000000E+00 0. -1.
         15    1    4    4    0    0 -0.10976879875E+03  0.19755730996E+02  0.50770675602E+02  0.12254443923E+03  0.00000000000E+00 0. -1.
        -16    1    4    4    0    0 -0.15992668949E+03  0.10328586849E+03  0.35676541576E+02  0.19369391384E+03  0.00000000000E+00 0.  1.
         16    1    1    2    0    0 -0.48455297558E+03 -0.60925570862E+03 -0.55013652053E+03  0.95322310917E+03  0.00000000000E+00 0. -1.
    9900018    1    1    2    0    0 -0.31235138791E+03  0.56882914694E+03  0.37526778671E+03  0.75516294802E+03  0.91187600000E+02 0.  0.
<mgrwt>
<rscale>  0 0.37136635E+04</rscale>
<asrwt>0</asrwt>
<pdfrwt beam="1">  1        2 0.32329616E+00 0.37136635E+04</pdfrwt>
<pdfrwt beam="2">  1       -2 0.25241656E+00 0.37136635E+04</pdfrwt>
<totfact> 0.29412639E-01</totfact>
</mgrwt>
</event>
<event>
11    1  0.8974456E-010  0.2478581E+04  0.7818608E-02  0.8410656E-01
          2   -1    0    0  501    0  0.00000000000E+00  0.00000000000E+00  0.71893518840E+03  0.71893518840E+03  0.00000000000E+00 0. -1.
         -2   -1    0    0    0  501 -0.00000000000E+00 -0.00000000000E+00 -0.21362721386E+04  0.21362721386E+04  0.00000000000E+00 0.  1.
    9900016    2    1    2    0    0  0.14056306896E+02 -0.10019922407E+03 -0.10808945117E+04  0.21443795006E+04  0.18492682425E+04 0.  0.
        -24    2    3    3    0    0  0.17637173731E+03 -0.62968707874E+03 -0.73501084949E+03  0.98615942360E+03  0.68239673518E+02 0.  0.
        -15    1    3    3    0    0 -0.41785834015E+03  0.32880851209E+03  0.52303037604E+02  0.53428104757E+03  0.00000000000E+00 0.  1.
        -15    1    3    3    0    0  0.56485652889E+02  0.26500499944E+03 -0.21551651016E+03  0.34621618227E+03  0.00000000000E+00 0.  1.
         15    1    3    3    0    0  0.19905725684E+03 -0.64325656858E+02 -0.18267018968E+03  0.27772284715E+03  0.00000000000E+00 0. -1.
         15    1    4    4    0    0  0.10201314479E+03 -0.39819828977E+03 -0.41336973519E+03  0.58296063131E+03  0.00000000000E+00 0. -1.
        -16    1    4    4    0    0  0.74358592525E+02 -0.23148878897E+03 -0.32164111429E+03  0.40319879229E+03  0.00000000000E+00 0.  1.
         16    1    1    2    0    0  0.56870212565E+02 -0.23140134262E+03 -0.21706945524E+02  0.23927388894E+03  0.00000000000E+00 0. -1.
    9900018    1    1    2    0    0 -0.70926519461E+02  0.33160056670E+03 -0.31473549291E+03  0.47155393741E+03  0.91187600000E+02 0.  0.
<mgrwt>
<rscale>  0 0.24785812E+04</rscale>
<asrwt>0</asrwt>
<pdfrwt beam="1">  1        2 0.11060542E+00 0.24785812E+04</pdfrwt>
<pdfrwt beam="2">  1       -2 0.32865725E+00 0.24785812E+04</pdfrwt>
<totfact> 0.74907986E-01</totfact>
</mgrwt>
</event>
