<event>
11    1  0.2941050E-012  0.3139263E+04  0.7818608E-02  0.8371983E-01
          2   -1    0    0  501    0  0.00000000000E+00  0.00000000000E+00  0.47327127654E+04  0.47327127654E+04  0.00000000000E+00 0.  1.
         -2   -1    0    0    0  501 -0.00000000000E+00 -0.00000000000E+00 -0.11342087689E+04  0.11342087689E+04  0.00000000000E+00 0. -1.
    9900016    2    1    2    0    0 -0.56617601214E+03  0.22133790055E+03  0.13931680008E+04  0.26834477400E+04  0.22114314260E+04 0.  0.
        -24    2    3    3    0    0  0.42416132569E+03  0.22095181040E+03 -0.40556613173E+03  0.63010590989E+03  0.61782179797E+02 0.  0.
        -15    1    3    3    0    0 -0.99033733783E+03  0.38609014641E+00  0.17987341325E+04  0.20533418301E+04  0.00000000000E+00 0.  1.
        -15    1    1    2    0    0  0.11270747227E+03 -0.68626246106E+03  0.10250673015E+04  0.12387179309E+04  0.00000000000E+00 0.  1.
         15    1    4    4    0    0  0.26285546548E+03  0.11953836048E+03 -0.27782581318E+03  0.40071136473E+03  0.00000000000E+00 0. -1.
         15    1    1    2    0    0  0.17432155335E+03  0.41527547606E+03  0.12456955515E+04  0.13246128234E+04  0.00000000000E+00 0. -1.
        -16    1    4    4    0    0  0.16130586022E+03  0.10141344992E+03 -0.12774031855E+03  0.22939454516E+03  0.00000000000E+00 0.  1.
         16    1    1    2    0    0  0.31337030615E+03  0.10232855875E+03 -0.24392556005E+03  0.41008750475E+03  0.00000000000E+00 0. -1.
    9900018    1    1    2    0    0 -0.34223319619E+02 -0.52679474300E+02  0.17849870278E+03  0.21005553529E+03  0.91187600000E+02 0.  0.
<mgrwt>
<rscale>  0 0.25888947E+04</rscale>
<asrwt>0</asrwt>
<pdfrwt beam="1">  1        2 0.72810965E+00 0.31392632E+04</pdfrwt>
<pdfrwt beam="2">  1       -2 0.17449366E+00 0.31392632E+04</pdfrwt>
<totfact> 0.11378977E-02</totfact>
</mgrwt>
</event>
<event>
11    1  0.2941050E-012  0.4549216E+04  0.7818608E-02  0.8210342E-01
         -2   -1    0    0    0  501 -0.00000000000E+00  0.00000000000E+00  0.28980682354E+04  0.28980682354E+04  0.00000000000E+00 0.  1.
          2   -1    0    0  501    0  0.00000000000E+00 -0.00000000000E+00 -0.49337446049E+04  0.49337446049E+04  0.00000000000E+00 0. -1.
    9900016    2    1    2    0    0  0.16809049040E+04  0.72840840430E+03 -0.21955405377E+04  0.36065654430E+04  0.21979299221E+04 0.  0.
        -24    2    3    3    0    0  0.67405775067E+03 -0.77896664489E+03 -0.98496125622E+03  0.14267895541E+04  0.66609837541E+02 0.  0.
        -15    1    1    2    0    0 -0.41685471141E+03 -0.52966950242E+03  0.14354793539E+04  0.15858494909E+04  0.00000000000E+00 0.  1.
        -15    1    3    3    0    0  0.10068471533E+04  0.15073750492E+04 -0.12105792815E+04  0.21797758889E+04  0.00000000000E+00 0.  1.
         15    1    4    4    0    0  0.57190665549E+03 -0.62556236691E+03 -0.79401948826E+03  0.11614096802E+04  0.00000000000E+00 0. -1.
         15    1    1    2    0    0  0.14779215127E+03  0.23879664512E+03  0.24435730506E+03  0.37225911706E+03  0.00000000000E+00 0. -1.
        -16    1    4    4    0    0  0.10215109518E+03 -0.15340427798E+03 -0.19094176796E+03  0.26537987395E+03  0.00000000000E+00 0.  1.
         16    1    1    2    0    0 -0.10000666913E+04 -0.31915821094E+03 -0.14971286990E+04  0.18284938316E+04  0.00000000000E+00 0. -1.
    9900018    1    1    2    0    0 -0.41177565250E+03 -0.11837733606E+03 -0.22843791822E+02  0.43864495768E+03  0.91187600000E+02 0.  0.
<mgrwt>
<rscale>  0 0.31197379E+04</rscale>
<asrwt>0</asrwt>
<pdfrwt beam="1">  1        2 0.75903762E+00 0.45492158E+04</pdfrwt>
<pdfrwt beam="2">  1       -2 0.44585666E+00 0.45492158E+04</pdfrwt>
<totfact> 0.10491550E-04</totfact>
</mgrwt>
</event>
<event>
11    1  0.2941050E-012  0.2979411E+04  0.7818608E-02  0.8548340E-01
         -2   -1    0    0    0  501 -0.00000000000E+00  0.00000000000E+00  0.14153638974E+04  0.14153638974E+04  0.00000000000E+00 0. -1.
          2   -1    0    0  501    0  0.00000000000E+00 -0.00000000000E+00 -0.25107367984E+04  0.25107367984E+04  0.00000000000E+00 0.  1.
    9900016    2    1    2    0    0  0.71899685701E+02  0.84339147144E+02 -0.46172553037E+03  0.22208393919E+04  0.21694825380E+04 0.  0.
         24    2    3    3    0    0  0.10708836929E+04 -0.18590804389E+03 -0.46464704029E+03  0.11859427177E+04  0.95966520757E+02 0.  0.
        -15    1    1    2    0    0 -0.43810459982E+02  0.13629370779E+03 -0.35221837133E+03  0.38020141016E+03  0.00000000000E+00 0.  1.
        -15    1    4    4    0    0  0.81946771960E+03 -0.10900097375E+03 -0.37905474784E+03  0.90944546709E+03  0.00000000000E+00 0.  1.
         15    1    1    2    0    0  0.31106659800E+03 -0.95707367050E+01  0.25646161807E+03  0.40326987110E+03  0.00000000000E+00 0. -1.
         15    1    3    3    0    0 -0.99898400722E+03  0.27024719103E+03  0.29215099273E+01  0.10348966742E+04  0.00000000000E+00 0. -1.
        -16    1    1    2    0    0 -0.69645845282E+02 -0.28873553964E+03 -0.55166238036E+03  0.62653821713E+03  0.00000000000E+00 0.  1.
         16    1    4    4    0    0  0.25141597332E+03 -0.76907070141E+02 -0.85592292450E+02  0.27649725063E+03  0.00000000000E+00 0. -1.
    9900018    1    1    2    0    0 -0.26950997844E+03  0.77673421409E+02  0.13771762993E+02  0.29525180562E+03  0.91187600000E+02 0.  0.
<mgrwt>
<rscale>  0 0.21295433E+04</rscale>
<asrwt>0</asrwt>
<pdfrwt beam="1">  1        2 0.38626720E+00 0.29794105E+04</pdfrwt>
<pdfrwt beam="2">  1       -2 0.21774829E+00 0.29794105E+04</pdfrwt>
<totfact> 0.29286391E-01</totfact>
</mgrwt>
</event>
<event>
11    1  0.2941050E-012  0.3796743E+04  0.7818608E-02  0.8184083E-01
         -2   -1    0    0    0  501 -0.00000000000E+00  0.00000000000E+00  0.19780843519E+04  0.19780843519E+04  0.00000000000E+00 0. -1.
          2   -1    0    0  501    0  0.00000000000E+00 -0.00000000000E+00 -0.46454736242E+04  0.46454736242E+04  0.00000000000E+00 0.  1.
    9900016    2    1    2    0    0 -0.93419035737E+03 -0.60324107688E+03 -0.73635225081E+03  0.25640245756E+04  0.21898392559E+04 0.  0.
        -24    2    3    3    0    0  0.79354433359E+02 -0.80176173110E+03  0.49895852984E+03  0.95384563596E+03  0.10836458454E+03 0.  0.
        -15    1    1    2    0    0  0.73686770145E+03  0.11973213196E+04 -0.20593086915E+04  0.24934523534E+04  0.00000000000E+00 0.  1.
        -15    1    3    3    0    0 -0.10135447907E+04  0.19852065422E+03 -0.12353107806E+04  0.16101789397E+04  0.00000000000E+00 0.  1.
         15    1    1    2    0    0 -0.65381072865E+01  0.23645624261E+03  0.11833689909E+03  0.26449560148E+03  0.00000000000E+00 0. -1.
         15    1    4    4    0    0  0.41662881543E+02 -0.82961169667E+02  0.48752672055E+02  0.10485787717E+03  0.00000000000E+00 0. -1.
        -16    1    4    4    0    0  0.37691551816E+02 -0.71880056143E+03  0.45020585778E+03  0.84898775879E+03  0.00000000000E+00 0.  1.
         16    1    1    2    0    0  0.53034980541E+03 -0.77278834358E+03  0.10937272642E+03  0.94362870524E+03  0.00000000000E+00 0. -1.
    9900018    1    1    2    0    0 -0.32648904220E+03 -0.57748141794E+02 -0.99437955620E+02  0.35795674036E+03  0.91187600000E+02 0.  0.
<mgrwt>
<rscale>  0 0.32179874E+04</rscale>
<asrwt>0</asrwt>
<pdfrwt beam="1">  1        2 0.71468823E+00 0.37967431E+04</pdfrwt>
<pdfrwt beam="2">  1       -2 0.30432068E+00 0.37967431E+04</pdfrwt>
<totfact> 0.19590395E-03</totfact>
</mgrwt>
</event>
