<event>
11    1  0.9728178E-011  0.5718078E+04  0.7818608E-02  0.7726374E-01
         -2   -1    0    0    0  501 -0.00000000000E+00  0.00000000000E+00  0.27862421959E+04  0.27862421959E+04  0.00000000000E+00 0.  1.
          2   -1    0    0  501    0  0.00000000000E+00 -0.00000000000E+00 -0.29337374104E+04  0.29337374104E+04  0.00000000000E+00 0. -1.
    9900016    2    1    2    0    0  0.11098378783E+04  0.11087828796E+04 -0.42585737643E+03  0.27115105428E+04  0.21702062871E+04 0.  0.
        -24    2    3    3    0    0 -0.25643200500E+03  0.37983064520E+03  0.49565275755E+03  0.68069925161E+03  0.87470697095E+02 0.  0.
        -15    1    3    3    0    0  0.14920065806E+04  0.63135249069E+03 -0.77434067064E+03  0.17956316655E+04  0.00000000000E+00 0.  1.
        -15    1    1    2    0    0 -0.73152500697E+03 -0.28363105223E+03  0.46439235211E+03  0.91172126569E+03  0.00000000000E+00 0.  1.
         15    1    1    2    0    0 -0.62897889606E+01 -0.14013977466E+04 -0.15776840748E+03  0.14102645412E+04  0.00000000000E+00 0. -1.
         15    1    4    4    0    0 -0.78804877094E+02  0.79903345836E+02  0.16978078856E+03  0.20351970296E+03  0.00000000000E+00 0. -1.
        -16    1    4    4    0    0 -0.17762712791E+03  0.29992729936E+03  0.32587196899E+03  0.47717954864E+03  0.00000000000E+00 0.  1.
         16    1    1    2    0    0 -0.37202308235E+03  0.57624591925E+03 -0.28261782682E+02  0.68648325662E+03  0.00000000000E+00 0. -1.
    9900018    1    3    3    0    0 -0.12573669727E+03  0.97599743703E+02 -0.14716946333E+03  0.23517962570E+03  0.91187600000E+02 0.  0.
<mgrwt>
<rscale>  0 0.57180776E+04</rscale>
<asrwt>0</asrwt>
<pdfrwt beam="1">  1        2 0.45134422E+00 0.57180776E+04</pdfrwt>
<pdfrwt beam="2">  1       -2 0.42865265E+00 0.57180776E+04</pdfrwt>
<totfact> 0.63456693E-03</totfact>
</mgrwt>
</event>
<event>
11    1  0.9728178E-011  0.4155304E+04  0.7818608E-02  0.8308522E-01
          1   -1    0    0  501    0  0.00000000000E+00  0.00000000000E+00  0.27565714636E+04  0.27565714636E+04  0.00000000000E+00 0. -1.
         -1   -1    0    0    0  501 -0.00000000000E+00 -0.00000000000E+00 -0.25026448178E+04  0.25026448178E+04  0.00000000000E+00 0.  1.
    9900016    2    1    2    0    0  0.72132278495E+03 -0.36888742437E+03 -0.58758948261E+03  0.24069154661E+04  0.21889714866E+04 0.  0.
        -24    2    3    3    0    0  0.64212232335E+03 -0.96215257642E+01 -0.45688761417E+03  0.79219994667E+03  0.80129967056E+02 0.  0.
        -15    1    3    3    0    0 -0.50997453260E+03 -0.73824865820E+03 -0.14049730400E+03  0.90819854529E+03  0.00000000000E+00 0.  1.
        -15    1    1    2    0    0 -0.86406199908E+02 -0.23012201949E+03 -0.67273765727E+03  0.71623887827E+03  0.00000000000E+00 0.  1.
         15    1    4    4    0    0  0.21848729978E+03 -0.39221601901E+02 -0.14178468371E+03  0.26339690726E+03  0.00000000000E+00 0. -1.
         15    1    1    2    0    0  0.26715610246E+03 -0.11492964977E+03  0.88360982072E+02  0.30395537605E+03  0.00000000000E+00 0. -1.
        -16    1    4    4    0    0  0.42363502357E+03  0.29600076137E+02 -0.31510293046E+03  0.52880303941E+03  0.00000000000E+00 0.  1.
         16    1    1    2    0    0 -0.90207268750E+03  0.71393909363E+03  0.14258928036E+04  0.18321065609E+04  0.00000000000E+00 0. -1.
    9900018    1    3    3    0    0  0.58917499420E+03  0.37898275959E+03  0.97954355538E+01  0.70651697418E+03  0.91187600000E+02 0.  0.
<mgrwt>
<rscale>  0 0.27831403E+04</rscale>
<asrwt>0</asrwt>
<pdfrwt beam="1">  1        1 0.42408792E+00 0.41553045E+04</pdfrwt>
<pdfrwt beam="2">  1       -1 0.38502228E+00 0.41553045E+04</pdfrwt>
<totfact> 0.60371365E-03</totfact>
</mgrwt>
</event>
<event>
11    1  0.9728178E-011  0.5196497E+04  0.7818608E-02  0.7798890E-01
          2   -1    0    0  501    0  0.00000000000E+00  0.00000000000E+00  0.35419322032E+04  0.35419322032E+04  0.00000000000E+00 0. -1.
         -2   -1    0    0    0  501 -0.00000000000E+00 -0.00000000000E+00 -0.19059920303E+04  0.19059920303E+04  0.00000000000E+00 0.  1.
    9900016    2    1    2    0    0  0.27715329334E+03 -0.63190488389E+03  0.89446987533E+03  0.24717832556E+04  0.21985264098E+04 0.  0.
        -24    2    3    3    0    0 -0.70536700813E+03 -0.36271154250E+03 -0.26270534538E+03  0.83938642238E+03  0.80331739479E+02 0.  0.
        -15    1    1    2    0    0 -0.47029329153E+02  0.15486095276E+04 -0.24936744830E+03  0.15692633147E+04  0.00000000000E+00 0.  1.
        -15    1    3    3    0    0  0.13385211132E+03 -0.23372741585E+03  0.13832329598E+03  0.30278412580E+03  0.00000000000E+00 0.  1.
         15    1    4    4    0    0 -0.26379830473E+03 -0.98029910756E+02 -0.11277320468E+03  0.30317850299E+03  0.00000000000E+00 0. -1.
         15    1    1    2    0    0  0.81010377239E+02 -0.19755138398E+03  0.24664887391E+03  0.32622829052E+03  0.00000000000E+00 0. -1.
        -16    1    4    4    0    0 -0.44156870339E+03 -0.26468163174E+03 -0.14993214070E+03  0.53620791939E+03  0.00000000000E+00 0.  1.
         16    1    1    2    0    0 -0.31113434143E+03 -0.71915325969E+03  0.74418887194E+03  0.10806493726E+04  0.00000000000E+00 0. -1.
    9900018    1    3    3    0    0  0.84866819014E+03 -0.35465925544E+02  0.10188519247E+04  0.13296127074E+04  0.91187600000E+02 0.  0.
<mgrwt>
<rscale>  0 0.51964967E+04</rscale>
<asrwt>0</asrwt>
<pdfrwt beam="1">  1        2 0.54491265E+00 0.51964967E+04</pdfrwt>
<pdfrwt beam="2">  1       -2 0.29322954E+00 0.51964967E+04</pdfrwt>
<totfact> 0.18993052E-02</totfact>
</mgrwt>
</event>
<event>
11    1  0.9728180E-011  0.3885425E+04  0.7818608E-02  0.8289931E-01
          1   -1    0    0  501    0  0.00000000000E+00  0.00000000000E+00  0.31266514487E+04  0.31266514487E+04  0.00000000000E+00 0. -1.
         -1   -1    0    0    0  501 -0.00000000000E+00 -0.00000000000E+00 -0.21867536679E+04  0.21867536679E+04  0.00000000000E+00 0.  1.
    9900016    2    1    2    0    0 -0.79685417493E+03 -0.97885856330E+02  0.11739121493E+04  0.26353325911E+04  0.22186369497E+04 0.  0.
         24    2    3    3    0    0 -0.30732525523E+03 -0.73745717185E+03  0.96129342153E+03  0.12523147138E+04  0.76910385009E+02 0.  0.
        -15    1    4    4    0    0 -0.52166796503E+02 -0.12805993879E+03  0.21477958533E+03  0.25544273890E+03  0.00000000000E+00 0.  1.
        -15    1    1    2    0    0 -0.16953883896E+03 -0.31089858546E+03  0.16190971293E+03  0.38937912566E+03  0.00000000000E+00 0.  1.
         15    1    1    2    0    0  0.45245828298E+03  0.58274730892E+03  0.73060204186E+03  0.10383122206E+04  0.00000000000E+00 0. -1.
         15    1    3    3    0    0  0.14254991929E+03  0.63302750367E+03  0.33881847882E+03  0.73201247358E+03  0.00000000000E+00 0. -1.
        -16    1    1    2    0    0  0.51393473092E+03 -0.17396286713E+03 -0.11265261233E+04  0.12503811792E+04  0.00000000000E+00 0.  1.
         16    1    4    4    0    0 -0.25515845873E+03 -0.60939723306E+03  0.74651383619E+03  0.99687197490E+03  0.00000000000E+00 0. -1.
    9900018    1    3    3    0    0 -0.63207883899E+03  0.65438118462E+01 -0.12619975101E+03  0.65100540376E+03  0.91187600000E+02 0.  0.
<mgrwt>
<rscale>  0 0.28433615E+04</rscale>
<asrwt>0</asrwt>
<pdfrwt beam="1">  1        1 0.48102330E+00 0.38854248E+04</pdfrwt>
<pdfrwt beam="2">  1       -1 0.33642364E+00 0.38854248E+04</pdfrwt>
<totfact> 0.69759587E-03</totfact>
</mgrwt>
</event>
<event>
11    1  0.9728178E-011  0.6107842E+04  0.7818608E-02  0.7677173E-01
          1   -1    0    0  501    0  0.00000000000E+00  0.00000000000E+00  0.26164647912E+04  0.26164647912E+04  0.00000000000E+00 0. -1.
         -1   -1    0    0    0  501 -0.00000000000E+00 -0.00000000000E+00 -0.35645170033E+04  0.35645170033E+04  0.00000000000E+00 0.  1.
    9900016    2    1    2    0    0 -0.15106336011E+04 -0.37387569931E+03 -0.12410319162E+03  0.27003874097E+04  0.22033823193E+04 0.  0.
         24    2    3    3    0    0 -0.14622678560E+03 -0.54281701420E+03  0.77654157369E+03  0.96187637914E+03  0.78465083637E+02 0.  0.
        -15    1    1    2    0    0  0.27690508380E+03  0.27836855255E+03 -0.66110155199E+03  0.76890879728E+03  0.00000000000E+00 0.  1.
        -15    1    4    4    0    0 -0.27381552568E+02 -0.24936224096E+03  0.35426761203E+03  0.43409309782E+03  0.00000000000E+00 0.  1.
         15    1    1    2    0    0  0.54918625979E+03  0.90898773058E+03  0.75831606145E+03  0.13049549767E+04  0.00000000000E+00 0. -1.
         15    1    3    3    0    0 -0.10736712106E+04 -0.68920376901E+02 -0.79513980418E+03  0.13378218099E+04  0.00000000000E+00 0. -1.
        -16    1    1    2    0    0  0.68454225748E+03 -0.81348058383E+03 -0.92116352989E+03  0.14067306108E+04  0.00000000000E+00 0.  1.
         16    1    4    4    0    0 -0.11884523303E+03 -0.29345477324E+03  0.42227396165E+03  0.52778328132E+03  0.00000000000E+00 0. -1.
    9900018    1    3    3    0    0 -0.29073560488E+03  0.23786169179E+03 -0.10550496112E+03  0.40068922069E+03  0.91187600000E+02 0.  0.
<mgrwt>
<rscale>  0 0.61078419E+04</rscale>
<asrwt>0</asrwt>
<pdfrwt beam="1">  1        1 0.40253305E+00 0.61078419E+04</pdfrwt>
<pdfrwt beam="2">  1       -1 0.54838723E+00 0.61078419E+04</pdfrwt>
<totfact> 0.58050939E-04</totfact>
</mgrwt>
</event>
<event>
11    1  0.9728178E-011  0.5243166E+04  0.7818608E-02  0.7792053E-01
          2   -1    0    0  501    0  0.00000000000E+00  0.00000000000E+00  0.19441636586E+04  0.19441636586E+04  0.00000000000E+00 0. -1.
         -2   -1    0    0    0  501 -0.00000000000E+00 -0.00000000000E+00 -0.35350401454E+04  0.35350401454E+04  0.00000000000E+00 0.  1.
    9900016    2    1    2    0    0 -0.73303673904E+03  0.15234056031E+03 -0.78415838858E+03  0.24581790642E+04  0.22061707609E+04 0.  0.
        -24    2    3    3    0    0 -0.80669599009E+03  0.64569939813E+03  0.29466057917E+03  0.10774662742E+04  0.80141013484E+02 0.  0.
        -15    1    1    2    0    0 -0.22595205817E+03  0.70169301137E+03 -0.13732611329E+04  0.15586127017E+04  0.00000000000E+00 0.  1.
        -15    1    3    3    0    0  0.29312577706E+03 -0.41314224001E+03 -0.99451393778E+03  0.11160946215E+04  0.00000000000E+00 0.  1.
         15    1    4    4    0    0 -0.53575435725E+03  0.44765371831E+03  0.16282998030E+03  0.71689621656E+03  0.00000000000E+00 0. -1.
         15    1    1    2    0    0  0.21100694783E+03 -0.14287162566E+03  0.30547236489E+03  0.39780598181E+03  0.00000000000E+00 0. -1.
        -16    1    4    4    0    0 -0.27094163284E+03  0.19804567982E+03  0.13183059887E+03  0.36057005769E+03  0.00000000000E+00 0.  1.
         16    1    1    2    0    0  0.74798184938E+03 -0.71116194602E+03  0.26107066985E+03  0.10646060563E+04  0.00000000000E+00 0. -1.
    9900018    1    3    3    0    0 -0.21946652601E+03 -0.80216597814E+02 -0.84305029982E+02  0.26461816846E+03  0.91187600000E+02 0.  0.
<mgrwt>
<rscale>  0 0.52431657E+04</rscale>
<asrwt>0</asrwt>
<pdfrwt beam="1">  1        2 0.29910210E+00 0.52431657E+04</pdfrwt>
<pdfrwt beam="2">  1       -2 0.54385233E+00 0.52431657E+04</pdfrwt>
<totfact> 0.47674054E-03</totfact>
</mgrwt>
</event>
<event>
11    1  0.9728178E-011  0.4881059E+04  0.7818608E-02  0.7847121E-01
         -2   -1    0    0    0  501 -0.00000000000E+00  0.00000000000E+00  0.14071084064E+04  0.14071084064E+04  0.00000000000E+00 0.  1.
          2   -1    0    0  501    0  0.00000000000E+00 -0.00000000000E+00 -0.42329251199E+04  0.42329251199E+04  0.00000000000E+00 0. -1.
    9900016    2    1    2    0    0 -0.11800328939E+04 -0.10797753391E+03 -0.26009047357E+04  0.36039624501E+04  0.21953822262E+04 0.  0.
         24    2    3    3    0    0 -0.17672349794E+03 -0.59702930863E+03 -0.16460638204E+04  0.17616940281E+04  0.79778178778E+02 0.  0.
        -15    1    1    2    0    0 -0.41373302674E+02 -0.56664780053E+02  0.20879951191E+03  0.22027229432E+03  0.00000000000E+00 0.  1.
        -15    1    4    4    0    0 -0.68634541453E+02 -0.29861457546E+03 -0.90721489911E+03  0.95755952197E+03  0.00000000000E+00 0.  1.
         15    1    1    2    0    0 -0.71539312690E+02 -0.26794746562E+03 -0.35451757708E+03  0.45010713175E+03  0.00000000000E+00 0. -1.
         15    1    3    3    0    0 -0.86189043541E+03  0.34259244746E+02 -0.10386887745E+04  0.13501493209E+04  0.00000000000E+00 0. -1.
        -16    1    1    2    0    0  0.12929455093E+04  0.43258977958E+03 -0.79193912615E+02  0.13656916501E+04  0.00000000000E+00 0.  1.
         16    1    4    4    0    0 -0.10808895648E+03 -0.29841473317E+03 -0.73884892128E+03  0.80413450614E+03  0.00000000000E+00 0. -1.
    9900018    1    3    3    0    0 -0.14141896059E+03  0.45479252997E+03  0.83847859227E+02  0.49211910105E+03  0.91187600000E+02 0.  0.
<mgrwt>
<rscale>  0 0.48810591E+04</rscale>
<asrwt>0</asrwt>
<pdfrwt beam="1">  1        2 0.65121924E+00 0.48810591E+04</pdfrwt>
<pdfrwt beam="2">  1       -2 0.21647822E+00 0.48810591E+04</pdfrwt>
<totfact> 0.16536159E-02</totfact>
</mgrwt>
</event>
<event>
11    1  0.9728178E-011  0.3060847E+04  0.7818608E-02  0.8310904E-01
          2   -1    0    0  501    0  0.00000000000E+00  0.00000000000E+00  0.31667301545E+04  0.31667301545E+04  0.00000000000E+00 0. -1.
         -2   -1    0    0    0  501 -0.00000000000E+00 -0.00000000000E+00 -0.30070569661E+04  0.30070569661E+04  0.00000000000E+00 0.  1.
    9900016    2    1    2    0    0  0.17271171879E+02  0.21950314585E+02  0.77344571021E+03  0.23065326657E+04  0.21728079901E+04 0.  0.
        -24    2    3    3    0    0 -0.33046543166E+03  0.11181827520E+03  0.43848815156E+03  0.56624515046E+03  0.81553560090E+02 0.  0.
        -15    1    1    2    0    0  0.67419279901E+03  0.11680093924E+04 -0.11632401257E+04  0.17809855308E+04  0.00000000000E+00 0.  1.
        -15    1    3    3    0    0  0.91983498754E+03  0.32073498918E+03  0.33521689708E+03  0.10302124566E+04  0.00000000000E+00 0.  1.
         15    1    1    2    0    0 -0.18491442525E+03 -0.68952611063E+03 -0.46123300936E+03  0.84992675616E+03  0.00000000000E+00 0. -1.
         15    1    4    4    0    0 -0.18351613221E+03  0.29201487436E+02  0.18822976926E+03  0.26450206745E+03  0.00000000000E+00 0. -1.
        -16    1    4    4    0    0 -0.14694929945E+03  0.82616787764E+02  0.25025838230E+03  0.30174308300E+03  0.00000000000E+00 0.  1.
         16    1    1    2    0    0 -0.50654954564E+03 -0.50043359631E+03  0.10107006132E+04  0.12363421679E+04  0.00000000000E+00 0. -1.
    9900018    1    3    3    0    0 -0.57209838400E+03 -0.41060294979E+03 -0.25933842896E+00  0.71007505871E+03  0.91187600000E+02 0.  0.
<mgrwt>
<rscale>  0 0.27755369E+04</rscale>
<asrwt>0</asrwt>
<pdfrwt beam="1">  1        2 0.48718926E+00 0.30608469E+04</pdfrwt>
<pdfrwt beam="2">  1       -2 0.46262415E+00 0.30608469E+04</pdfrwt>
<totfact> 0.30767359E-03</totfact>
</mgrwt>
</event>
<event>
11    1  0.9728178E-011  0.3845849E+04  0.7818608E-02  0.8177963E-01
         -2   -1    0    0    0  501 -0.00000000000E+00  0.00000000000E+00  0.26936093399E+04  0.26936093399E+04  0.00000000000E+00 0.  1.
          2   -1    0    0  501    0  0.00000000000E+00 -0.00000000000E+00 -0.35851756429E+04  0.35851756429E+04  0.00000000000E+00 0. -1.
    9900016    2    1    2    0    0 -0.51353724553E+03  0.97442040140E+03 -0.26274504747E+03  0.24722072940E+04  0.21976256103E+04 0.  0.
         24    2    3    3    0    0 -0.10030649974E+04  0.10589396097E+03 -0.51776534177E+03  0.11365728847E+04  0.79775015268E+02 0.  0.
        -15    1    1    2    0    0  0.20359861176E+03 -0.13541691810E+03 -0.17292324213E+02  0.24513090563E+03  0.00000000000E+00 0.  1.
        -15    1    4    4    0    0 -0.36805210345E+03  0.54642139274E+02 -0.15177479475E+03  0.40185034847E+03  0.00000000000E+00 0.  1.
         15    1    3    3    0    0  0.27087100424E+03  0.99942060020E+03  0.24856485053E+03  0.10648930096E+04  0.00000000000E+00 0. -1.
         15    1    1    2    0    0  0.14763894877E+04 -0.72072333737E+03 -0.13917216128E+04  0.21531505047E+04  0.00000000000E+00 0. -1.
        -16    1    1    2    0    0 -0.11664508539E+04 -0.11828014593E+03  0.78019268156E+03  0.14082962785E+04  0.00000000000E+00 0.  1.
         16    1    4    4    0    0 -0.63501289395E+03  0.51251821699E+02 -0.36599054702E+03  0.73472253622E+03  0.00000000000E+00 0. -1.
    9900018    1    3    3    0    0  0.21865674763E+03 -0.13089415977E+03  0.64554437707E+01  0.27074139967E+03  0.91187600000E+02 0.  0.
<mgrwt>
<rscale>  0 0.32414212E+04</rscale>
<asrwt>0</asrwt>
<pdfrwt beam="1">  1        2 0.55156549E+00 0.38458492E+04</pdfrwt>
<pdfrwt beam="2">  1       -2 0.41440143E+00 0.38458492E+04</pdfrwt>
<totfact> 0.31420402E-03</totfact>
</mgrwt>
</event>
<event>
11    1  0.9728178E-011  0.3806480E+04  0.7818608E-02  0.8309048E-01
         -2   -1    0    0    0  501 -0.00000000000E+00  0.00000000000E+00  0.29212580489E+04  0.29212580489E+04  0.00000000000E+00 0.  1.
          2   -1    0    0  501    0  0.00000000000E+00 -0.00000000000E+00 -0.22226937579E+04  0.22226937579E+04  0.00000000000E+00 0. -1.
    9900016    2    1    2    0    0 -0.66057204790E+03 -0.12455595383E+04  0.58536536449E+03  0.26820701499E+04  0.22052377842E+04 0.  0.
        -24    2    3    3    0    0 -0.33578048275E+03 -0.90183468321E+03  0.11298578379E+04  0.14859306511E+04  0.73190420143E+02 0.  0.
        -15    1    1    2    0    0 -0.38579153747E+03  0.40257667535E+03  0.51587465901E+03  0.75962474534E+03  0.00000000000E+00 0.  1.
        -15    1    3    3    0    0  0.14430525294E+03 -0.43713647670E+03 -0.53948218729E+03  0.70919203019E+03  0.00000000000E+00 0.  1.
         15    1    4    4    0    0 -0.72431259000E+02 -0.19419148689E+03  0.19880547521E+03  0.28719372875E+03  0.00000000000E+00 0. -1.
         15    1    1    2    0    0  0.22447767923E+03  0.46110415673E+03  0.26436335284E+03  0.57697075676E+03  0.00000000000E+00 0. -1.
        -16    1    4    4    0    0 -0.26334922375E+03 -0.70764319632E+03  0.93105236270E+03  0.11987369224E+04  0.00000000000E+00 0.  1.
         16    1    1    2    0    0  0.82188590614E+03  0.38187870625E+03 -0.66703908527E+03  0.11252861548E+04  0.00000000000E+00 0. -1.
    9900018    1    3    3    0    0 -0.46909681809E+03  0.93411621577E+02 -0.50102861261E+01  0.48694746857E+03  0.91187600000E+02 0.  0.
<mgrwt>
<rscale>  0 0.27814596E+04</rscale>
<asrwt>0</asrwt>
<pdfrwt beam="1">  1        2 0.34195288E+00 0.38064802E+04</pdfrwt>
<pdfrwt beam="2">  1       -2 0.44942432E+00 0.38064802E+04</pdfrwt>
<totfact> 0.13495715E-02</totfact>
</mgrwt>
</event>
