<event>
12    1  0.1833874E-014  0.1020097E+04  0.7818608E-02  0.9286773E-01
         -1   -1    0    0    0  501 -0.00000000000E+00  0.00000000000E+00  0.40283620157E+03  0.40283620157E+03  0.00000000000E+00 0.  1.
          1   -1    0    0  501    0  0.00000000000E+00 -0.00000000000E+00 -0.64579498123E+03  0.64579498123E+03  0.00000000000E+00 0. -1.
         23    2    1    2    0    0 -0.61423477710E+02 -0.40017805521E+02 -0.60380428593E+02  0.13204272659E+03  0.91734492506E+02 0.  0.
    9900016    2    1    2    0    0  0.15606997678E+03 -0.13616052542E+02 -0.21129812705E+03  0.71380628264E+03  0.66357311286E+03 0.  0.
         23    2    4    4    0    0  0.25001688907E+03  0.36790869399E+02  0.16183777305E+03  0.32573762886E+03  0.12669461384E+03 0.  0.
        -15    1    3    3    0    0 -0.62635913790E+02 -0.66215273861E+02 -0.48578431247E+02  0.10328399765E+03  0.00000000000E+00 0. -1.
        -15    1    5    5    0    0  0.65292579479E+02  0.39565443107E+02  0.10992767168E+03  0.13383810453E+03  0.00000000000E+00 0. -1.
         15    1    5    5    0    0  0.18472430959E+03 -0.27745737081E+01  0.51910101377E+02  0.19189952433E+03  0.00000000000E+00 0.  1.
         15    1    3    3    0    0  0.12124360796E+01  0.26197468340E+02 -0.11801997345E+02  0.28758728936E+02  0.00000000000E+00 0.  1.
        -16    1    1    2    0    0 -0.70813949575E+02  0.49444789333E+02  0.57957536611E+02  0.10401191613E+03  0.00000000000E+00 0.  1.
         16    1    4    4    0    0 -0.93946912288E+02 -0.50406921941E+02 -0.37313590010E+03  0.38806865379E+03  0.00000000000E+00 0. -1.
    9900018    1    1    2    0    0 -0.23832549496E+02  0.41890687306E+01 -0.29237760627E+02  0.98770257429E+02  0.91187600000E+02 0.  0.
<mgrwt>
<rscale>  0 0.10200972E+04</rscale>
<asrwt>0</asrwt>
<pdfrwt beam="1">  1        1 0.99353073E-01 0.10200972E+04</pdfrwt>
<pdfrwt beam="2">  1       -1 0.61974801E-01 0.10200972E+04</pdfrwt>
<totfact> 0.81340788E+01</totfact>
</mgrwt>
</event>
<event>
12    1  0.1833874E-014  0.9184274E+03  0.7818608E-02  0.9402835E-01
         -1   -1    0    0    0  501 -0.00000000000E+00  0.00000000000E+00  0.30217070866E+03  0.30217070866E+03  0.00000000000E+00 0.  1.
          1   -1    0    0  501    0  0.00000000000E+00 -0.00000000000E+00 -0.69787451325E+03  0.69787451325E+03  0.00000000000E+00 0. -1.
         23    2    1    2    0    0  0.45297792920E+02  0.20299795548E+02  0.81850243973E+01  0.10266554308E+03  0.89494398529E+02 0.  0.
    9900016    2    1    2    0    0 -0.46968258093E+02 -0.62065087411E+01 -0.42282844756E+03  0.87371281722E+03  0.76311575327E+03 0.  0.
         23    2    4    4    0    0 -0.37008124693E+03  0.39289470028E+02 -0.21923256871E+03  0.43811018076E+03  0.73306340206E+02 0.  0.
        -15    1    3    3    0    0  0.10531134045E+02  0.38886897578E+02  0.36311932654E+02  0.54236998816E+02  0.00000000000E+00 0. -1.
        -15    1    5    5    0    0 -0.26255780867E+03  0.37508380808E+02 -0.11753281068E+03  0.29009902294E+03  0.00000000000E+00 0.  1.
         15    1    5    5    0    0 -0.10752343826E+03  0.17810892194E+01 -0.10169975804E+03  0.14801115782E+03  0.00000000000E+00 0. -1.
         15    1    3    3    0    0  0.34766658875E+02 -0.18587102029E+02 -0.28126908257E+02  0.48428544261E+02  0.00000000000E+00 0.  1.
        -16    1    1    2    0    0  0.16704651723E+01 -0.14093286807E+02  0.18939618570E+02  0.23666861611E+02  0.00000000000E+00 0.  1.
         16    1    4    4    0    0  0.27481037846E+03 -0.34161004748E+02 -0.11785391544E+03  0.30096056841E+03  0.00000000000E+00 0. -1.
    9900018    1    4    4    0    0  0.48302610385E+02 -0.11334974021E+02 -0.85741963405E+02  0.13464206805E+03  0.91187600000E+02 0.  0.
<mgrwt>
<rscale>  0 0.91842743E+03</rscale>
<asrwt>0</asrwt>
<pdfrwt beam="1">  1        1 0.10736531E+00 0.91842743E+03</pdfrwt>
<pdfrwt beam="2">  1       -1 0.46487802E-01 0.91842743E+03</pdfrwt>
<totfact> 0.12691823E+02</totfact>
</mgrwt>
</event>
<event>
12    1  0.1993026E-014  0.1227959E+04  0.7818608E-02  0.9723692E-01
         -2   -1    0    0    0  501 -0.00000000000E+00  0.00000000000E+00  0.33432717710E+03  0.33432717710E+03  0.00000000000E+00 0.  1.
          2   -1    0    0  501    0  0.00000000000E+00 -0.00000000000E+00 -0.21758171971E+04  0.21758171971E+04  0.00000000000E+00 0. -1.
         23    2    1    2    0    0  0.48994923715E+02 -0.75058159717E+02  0.13371655474E+03  0.18434915264E+03  0.89834643524E+02 0.  0.
    9900016    2    1    2    0    0  0.25951265252E+03 -0.10379114841E+03 -0.95416311592E+03  0.11946221209E+04  0.66225020993E+03 0.  0.
         23    2    4    4    0    0 -0.48235721254E+02 -0.69766321508E+02  0.48089503107E+02  0.14563353048E+03  0.10817809606E+03 0.  0.
        -15    1    3    3    0    0  0.52280933881E+02 -0.28871571388E+02  0.22398865378E+02  0.63785365501E+02  0.00000000000E+00 0. -1.
        -15    1    5    5    0    0 -0.54143759545E+02  0.11564762303E+02  0.25896179827E+02  0.61122030025E+02  0.00000000000E+00 0.  1.
         15    1    5    5    0    0  0.59080382908E+01 -0.81331083810E+02  0.22193323280E+02  0.84511500451E+02  0.00000000000E+00 0.  1.
         15    1    3    3    0    0 -0.32860101659E+01 -0.46186588329E+02  0.11131768936E+03  0.12056378713E+03  0.00000000000E+00 0. -1.
        -16    1    1    2    0    0 -0.34590302179E+03  0.14196750490E+03 -0.87142323769E+03  0.94825214585E+03  0.00000000000E+00 0.  1.
         16    1    4    4    0    0  0.30774837377E+03 -0.34024826904E+02 -0.10022526190E+04  0.10489885904E+04  0.00000000000E+00 0. -1.
    9900018    1    1    2    0    0  0.37395445557E+02  0.36881803230E+02 -0.14962022114E+03  0.18292095485E+03  0.91187600000E+02 0.  0.
<mgrwt>
<rscale>  0 0.69623553E+03</rscale>
<asrwt>0</asrwt>
<pdfrwt beam="1">  1        2 0.33474109E+00 0.12279586E+04</pdfrwt>
<pdfrwt beam="2">  1       -2 0.51434952E-01 0.12279586E+04</pdfrwt>
<totfact> 0.18738677E+01</totfact>
</mgrwt>
</event>
<event>
12    1  0.1833874E-014  0.1741489E+04  0.7818608E-02  0.9317492E-01
          1   -1    0    0  501    0  0.00000000000E+00  0.00000000000E+00  0.39411092701E+03  0.39411092701E+03  0.00000000000E+00 0. -1.
         -1   -1    0    0    0  501 -0.00000000000E+00 -0.00000000000E+00 -0.24971866088E+04  0.24971866088E+04  0.00000000000E+00 0.  1.
         23    2    1    2    0    0  0.12153281550E+03 -0.10147327806E+03 -0.33160977662E+02  0.18624121312E+03  0.92298903676E+02 0.  0.
    9900016    2    1    2    0    0  0.44006662381E+03  0.29998748537E+03 -0.55758918706E+03  0.10796547445E+04  0.75570995830E+03 0.  0.
         23    2    4    4    0    0  0.27441850906E+02  0.37467056405E+03 -0.10346889222E+03  0.40875443722E+03  0.12346372561E+03 0.  0.
        -15    1    5    5    0    0 -0.78666937937E+01  0.98470344320E+02  0.25301211105E+02  0.10197276531E+03  0.00000000000E+00 0.  1.
        -15    1    3    3    0    0  0.31378766464E+02 -0.76576017864E+02 -0.41055242925E+02  0.92379902946E+02  0.00000000000E+00 0.  1.
         15    1    3    3    0    0  0.90154049037E+02 -0.24897260199E+02  0.78942652623E+01  0.93861310173E+02  0.00000000000E+00 0. -1.
         15    1    5    5    0    0  0.35308544700E+02  0.27620021973E+03 -0.12877010333E+03  0.30678167191E+03  0.00000000000E+00 0. -1.
        -16    1    1    2    0    0 -0.56159943931E+03 -0.19851420731E+03 -0.15123255170E+04  0.16254015781E+04  0.00000000000E+00 0.  1.
         16    1    4    4    0    0  0.31763898863E+03 -0.12722606364E+03 -0.37844912399E+03  0.51020068386E+03  0.00000000000E+00 0. -1.
    9900018    1    4    4    0    0  0.94985784276E+02  0.52542984959E+02 -0.75671170849E+02  0.16069962344E+03  0.91187600000E+02 0.  0.
<mgrwt>
<rscale>  0 0.99188313E+03</rscale>
<asrwt>0</asrwt>
<pdfrwt beam="1">  1        1 0.60632451E-01 0.17414887E+04</pdfrwt>
<pdfrwt beam="2">  1       -1 0.38418255E+00 0.17414887E+04</pdfrwt>
<totfact> 0.53157682E-01</totfact>
</mgrwt>
</event>
<event>
12    1  0.1833874E-014  0.1502960E+04  0.7818608E-02  0.9401083E-01
          2   -1    0    0  501    0  0.00000000000E+00  0.00000000000E+00  0.17974284627E+04  0.17974284627E+04  0.00000000000E+00 0. -1.
         -2   -1    0    0    0  501 -0.00000000000E+00 -0.00000000000E+00 -0.41091694912E+03  0.41091694912E+03  0.00000000000E+00 0.  1.
         23    2    1    2    0    0 -0.13357654467E+03  0.13513119480E+03  0.22902453688E+03  0.31133085563E+03  0.91496065939E+02 0.  0.
    9900016    2    1    2    0    0 -0.30936849318E+03  0.49500734794E+02  0.90223518989E+03  0.11637630373E+04  0.66494878140E+03 0.  0.
         23    2    4    4    0    0 -0.23740408073E+03  0.19035421623E+03  0.73917111998E+02  0.32047814001E+03  0.68169447655E+02 0.  0.
        -15    1    3    3    0    0 -0.89527744720E+02  0.31368136715E+02  0.13229922172E+03  0.16279515086E+03  0.00000000000E+00 0.  1.
        -15    1    5    5    0    0 -0.12775166553E+03  0.12924769370E+03  0.70431910140E+02  0.19490025228E+03  0.00000000000E+00 0.  1.
         15    1    5    5    0    0 -0.10965241520E+03  0.61106522535E+02  0.34852018585E+01  0.12557788774E+03  0.00000000000E+00 0. -1.
         15    1    3    3    0    0 -0.44048799947E+02  0.10376305808E+03  0.96725315164E+02  0.14853570477E+03  0.00000000000E+00 0. -1.
        -16    1    1    2    0    0  0.52310062121E+03 -0.15865242840E+03  0.14099361525E+03  0.56452108241E+03  0.00000000000E+00 0.  1.
         16    1    4    4    0    0 -0.71964412443E+02 -0.14085348144E+03  0.82831807789E+03  0.84328489733E+03  0.00000000000E+00 0. -1.
    9900018    1    1    2    0    0 -0.80155583363E+02 -0.25979501195E+02  0.11425817160E+03  0.16873043649E+03  0.91187600000E+02 0.  0.
<mgrwt>
<rscale>  0 0.91986608E+03</rscale>
<asrwt>0</asrwt>
<pdfrwt beam="1">  1        2 0.27652745E+00 0.15029598E+04</pdfrwt>
<pdfrwt beam="2">  1       -2 0.63217993E-01 0.15029598E+04</pdfrwt>
<totfact> 0.19305778E+01</totfact>
</mgrwt>
</event>
<event>
12    1  0.1833874E-014  0.1058702E+04  0.7818608E-02  0.9805787E-01
         -1   -1    0    0    0  501 -0.00000000000E+00  0.00000000000E+00  0.28383073756E+04  0.28383073756E+04  0.00000000000E+00 0.  1.
          1   -1    0    0  501    0  0.00000000000E+00 -0.00000000000E+00 -0.13031977418E+03  0.13031977418E+03  0.00000000000E+00 0. -1.
         23    2    1    2    0    0  0.46668912553E+02 -0.10331718318E+03  0.24519657305E+03  0.28792038781E+03  0.99621094857E+02 0.  0.
    9900016    2    1    2    0    0 -0.19292060506E+02 -0.33490186779E+02  0.19575596059E+04  0.20664440885E+04  0.66080086578E+03 0.  0.
         23    2    4    4    0    0  0.96708470702E+00  0.19305944934E+03  0.17873071973E+03  0.27313224258E+03  0.73373466120E+02 0.  0.
        -15    1    5    5    0    0  0.10395540925E+02  0.15345846082E+03  0.97047913890E+02  0.18186771032E+03  0.00000000000E+00 0. -1.
        -15    1    3    3    0    0  0.77800264125E+02 -0.79478385058E+02  0.17071340419E+03  0.20374680650E+03  0.00000000000E+00 0.  1.
         15    1    5    5    0    0 -0.94284562183E+01  0.39600988522E+02  0.81682805839E+02  0.91264532258E+02  0.00000000000E+00 0.  1.
         15    1    3    3    0    0 -0.31131351571E+02 -0.23838798124E+02  0.74483168855E+02  0.84173581303E+02  0.00000000000E+00 0. -1.
        -16    1    4    4    0    0 -0.20259145213E+02 -0.22654963612E+03  0.17788288861E+04  0.17933118459E+04  0.00000000000E+00 0.  1.
         16    1    1    2    0    0 -0.26581523969E+02  0.16379013044E+03  0.90985780715E+02  0.18924110689E+03  0.00000000000E+00 0. -1.
    9900018    1    1    2    0    0 -0.79532807875E+00 -0.26982760474E+02  0.41424564177E+03  0.42502156655E+03  0.91187600000E+02 0.  0.
<mgrwt>
<rscale>  0 0.65052912E+03</rscale>
<asrwt>0</asrwt>
<pdfrwt beam="1">  1        1 0.20049198E-01 0.10587016E+04</pdfrwt>
<pdfrwt beam="2">  1       -1 0.43666263E+00 0.10587016E+04</pdfrwt>
<totfact> 0.10682484E+00</totfact>
</mgrwt>
</event>
<event>
12    1  0.1833874E-014  0.1352363E+04  0.7818608E-02  0.9582704E-01
          1   -1    0    0  501    0  0.00000000000E+00  0.00000000000E+00  0.88712194194E+03  0.88712194194E+03  0.00000000000E+00 0. -1.
         -1   -1    0    0    0  501 -0.00000000000E+00 -0.00000000000E+00 -0.67375485400E+03  0.67375485400E+03  0.00000000000E+00 0.  1.
         23    2    1    2    0    0  0.10531378996E+03  0.65311782804E+02  0.13842281188E+03  0.20643857962E+03  0.89996605368E+02 0.  0.
    9900016    2    1    2    0    0  0.52480635920E+02  0.22306360414E+03  0.28502046112E+03  0.75524297429E+03  0.66079020749E+03 0.  0.
         23    2    4    4    0    0  0.97537111280E+02  0.30379405700E+03 -0.10624111114E+03  0.35320676956E+03  0.10799782970E+03 0.  0.
        -15    1    3    3    0    0  0.12059395503E+03  0.57044443344E+02  0.13265259431E+03  0.18813208468E+03  0.00000000000E+00 0. -1.
        -15    1    5    5    0    0  0.62754531633E+02  0.19221568508E+03 -0.11101846451E+02  0.20250494272E+03  0.00000000000E+00 0. -1.
         15    1    5    5    0    0  0.34782579647E+02  0.11157837192E+03 -0.95139264686E+02  0.15070182684E+03  0.00000000000E+00 0.  1.
         15    1    3    3    0    0 -0.15280165072E+02  0.82673394599E+01  0.57702175699E+01  0.18306494945E+02  0.00000000000E+00 0.  1.
        -16    1    1    2    0    0 -0.22115404140E+03 -0.33931469960E+03 -0.24344308196E+03  0.47255487464E+03  0.00000000000E+00 0.  1.
         16    1    4    4    0    0 -0.45056475360E+02 -0.80730452861E+02  0.39126157225E+03  0.40203620473E+03  0.00000000000E+00 0. -1.
    9900018    1    1    2    0    0  0.63359615516E+02  0.50939312657E+02  0.33366896906E+02  0.12664036740E+03  0.91187600000E+02 0.  0.
<mgrwt>
<rscale>  0 0.78451596E+03</rscale>
<asrwt>0</asrwt>
<pdfrwt beam="1">  1        1 0.13648030E+00 0.13523632E+04</pdfrwt>
<pdfrwt beam="2">  1       -1 0.10365459E+00 0.13523632E+04</pdfrwt>
<totfact> 0.15960269E+01</totfact>
</mgrwt>
</event>
<event>
12    1  0.1833874E-014  0.1483067E+04  0.7818608E-02  0.8895792E-01
         -2   -1    0    0    0  501 -0.00000000000E+00  0.00000000000E+00  0.27268571840E+03  0.27268571840E+03  0.00000000000E+00 0.  1.
          2   -1    0    0  501    0  0.00000000000E+00 -0.00000000000E+00 -0.20165033419E+04  0.20165033419E+04  0.00000000000E+00 0. -1.
         23    2    1    2    0    0 -0.27460524879E+02  0.66151495494E+02 -0.51338458166E+02  0.12668787844E+03  0.91016924102E+02 0.  0.
    9900016    2    1    2    0    0  0.67685336794E+02 -0.42949033468E+02 -0.16347064760E+04  0.17680006801E+04  0.66868170135E+03 0.  0.
         23    2    4    4    0    0  0.64765673969E+02  0.16323176867E+03 -0.90428378551E+02  0.21001676170E+03  0.71348060373E+02 0.  0.
        -15    1    5    5    0    0  0.52268510989E+02  0.64209523709E+02 -0.69364296167E+02  0.10801048911E+03  0.00000000000E+00 0. -1.
        -15    1    3    3    0    0  0.16636394136E+02  0.14303891063E+01 -0.45137482026E+02  0.48126997688E+02  0.00000000000E+00 0.  1.
         15    1    3    3    0    0 -0.44096919016E+02  0.64721106388E+02 -0.62009761403E+01  0.78560880747E+02  0.00000000000E+00 0. -1.
         15    1    5    5    0    0  0.12497162981E+02  0.99022244965E+02 -0.21064082384E+02  0.10200627259E+03  0.00000000000E+00 0.  1.
        -16    1    1    2    0    0 -0.30072520566E+01 -0.90998241513E+01  0.15726712876E+03  0.15755887837E+03  0.00000000000E+00 0.  1.
         16    1    4    4    0    0  0.29196628243E+01 -0.20618080214E+03 -0.15442780974E+04  0.15579839184E+04  0.00000000000E+00 0. -1.
    9900018    1    1    2    0    0 -0.37217559858E+02 -0.14102637875E+02 -0.21503981807E+03  0.23694162342E+03  0.91187600000E+02 0.  0.
<mgrwt>
<rscale>  0 0.14830666E+04</rscale>
<asrwt>0</asrwt>
<pdfrwt beam="1">  1        2 0.31023128E+00 0.14830666E+04</pdfrwt>
<pdfrwt beam="2">  1       -2 0.41951649E-01 0.14830666E+04</pdfrwt>
<totfact> 0.34091438E+01</totfact>
</mgrwt>
</event>
<event>
12    1  0.1833874E-014  0.1952647E+04  0.7818608E-02  0.9012286E-01
          1   -1    0    0  501    0  0.00000000000E+00  0.00000000000E+00  0.20660235787E+04  0.20660235787E+04  0.00000000000E+00 0. -1.
         -1   -1    0    0    0  501 -0.00000000000E+00 -0.00000000000E+00 -0.67941541620E+03  0.67941541620E+03  0.00000000000E+00 0.  1.
         23    2    1    2    0    0 -0.29912338931E+02 -0.39904508423E+03  0.16541636200E+03  0.44236682584E+03  0.90521315256E+02 0.  0.
    9900016    2    1    2    0    0  0.27754432107E+03  0.60484039814E+03  0.98549385021E+02  0.94324039559E+03  0.66115633946E+03 0.  0.
         23    2    4    4    0    0  0.13638176548E+03  0.34486799593E+03 -0.27412330397E+03  0.46742798493E+03  0.76232635697E+02 0.  0.
        -15    1    3    3    0    0  0.21022546886E+02 -0.16251813029E+03  0.99048547532E+02  0.19148029904E+03  0.00000000000E+00 0.  1.
        -15    1    5    5    0    0  0.13416416250E+03  0.30456628686E+03 -0.21633752584E+03  0.39694152048E+03  0.00000000000E+00 0. -1.
         15    1    3    3    0    0 -0.50934885817E+02 -0.23652695394E+03  0.66367814464E+02  0.25088652680E+03  0.00000000000E+00 0. -1.
         15    1    5    5    0    0  0.22176029782E+01  0.40301709067E+02 -0.57785778137E+02  0.70486464457E+02  0.00000000000E+00 0.  1.
        -16    1    4    4    0    0  0.14116255559E+03  0.25997240221E+03  0.37267268900E+03  0.47581241066E+03  0.00000000000E+00 0.  1.
         16    1    1    2    0    0 -0.35489828756E+03 -0.31368983795E+03  0.10771819763E+04  0.11767221928E+04  0.00000000000E+00 0. -1.
    9900018    1    1    2    0    0  0.10726630542E+03  0.10789452404E+03  0.45460439143E+02  0.18310958063E+03  0.91187600000E+02 0.  0.
<mgrwt>
<rscale>  0 0.13220160E+04</rscale>
<asrwt>0</asrwt>
<pdfrwt beam="1">  1        1 0.31784978E+00 0.19526474E+04</pdfrwt>
<pdfrwt beam="2">  1       -1 0.10452545E+00 0.19526474E+04</pdfrwt>
<totfact> 0.21322508E+00</totfact>
</mgrwt>
</event>
<event>
12    1  0.1833874E-014  0.1278900E+04  0.7818608E-02  0.9436241E-01
          2   -1    0    0  501    0  0.00000000000E+00  0.00000000000E+00  0.98999282611E+03  0.98999282611E+03  0.00000000000E+00 0.  1.
         -2   -1    0    0    0  501 -0.00000000000E+00 -0.00000000000E+00 -0.69416101502E+03  0.69416101502E+03  0.00000000000E+00 0. -1.
         23    2    1    2    0    0 -0.26481651750E+03  0.11238056689E+03  0.26982773741E+03  0.40498967785E+03  0.91937215187E+02 0.  0.
    9900016    2    1    2    0    0  0.17657037398E+03  0.30789043974E+03 -0.30222733612E+02  0.84606307262E+03  0.76742145486E+03 0.  0.
         23    2    4    4    0    0 -0.20776277020E+03 -0.72818634677E+02  0.99941923600E+02  0.25406600250E+03  0.78059101311E+02 0.  0.
        -15    1    5    5    0    0 -0.13007118532E+02 -0.31789504522E+02  0.18545735950E+02  0.39034626323E+02  0.00000000000E+00 0.  1.
        -15    1    3    3    0    0 -0.25548267103E+03  0.12009843792E+03  0.23241751305E+03  0.36566778688E+03  0.00000000000E+00 0. -1.
         15    1    5    5    0    0 -0.19475565166E+03 -0.41029130155E+02  0.81396187650E+02  0.21503137618E+03  0.00000000000E+00 0. -1.
         15    1    3    3    0    0 -0.93338464704E+01 -0.77178710307E+01  0.37410224363E+02  0.39321890978E+02  0.00000000000E+00 0.  1.
        -16    1    4    4    0    0  0.30932488104E+03  0.28103920999E+03 -0.12931298622E+03  0.43747773428E+03  0.00000000000E+00 0.  1.
         16    1    1    2    0    0  0.88246143522E+02 -0.42027100663E+03  0.56226807295E+02  0.43310109065E+03  0.00000000000E+00 0. -1.
    9900018    1    4    4    0    0  0.75008263131E+02  0.99669864428E+02 -0.85167099494E+00  0.15451933585E+03  0.91187600000E+02 0.  0.
<mgrwt>
<rscale>  0 0.89152286E+03</rscale>
<asrwt>0</asrwt>
<pdfrwt beam="1">  1        2 0.15230659E+00 0.12788998E+04</pdfrwt>
<pdfrwt beam="2">  1       -2 0.10679400E+00 0.12788998E+04</pdfrwt>
<totfact> 0.17581027E+01</totfact>
</mgrwt>
</event>
<event>
12    1  0.1833874E-014  0.1117496E+04  0.7818608E-02  0.9188305E-01
          2   -1    0    0  501    0  0.00000000000E+00  0.00000000000E+00  0.71244787744E+03  0.71244787744E+03  0.00000000000E+00 0. -1.
         -2   -1    0    0    0  501 -0.00000000000E+00 -0.00000000000E+00 -0.43820640134E+03  0.43820640134E+03  0.00000000000E+00 0.  1.
         23    2    1    2    0    0 -0.16840884340E+02  0.16289589217E+03  0.74223514145E+02  0.19845914665E+03  0.84013188049E+02 0.  0.
    9900016    2    1    2    0    0 -0.11839466865E+03 -0.95455881995E+02  0.10958377134E+03  0.77608393829E+03  0.75310593767E+03 0.  0.
         23    2    4    4    0    0  0.11773021219E+03 -0.25753056100E+03  0.20097150450E+03  0.36282300163E+03  0.10520737701E+03 0.  0.
        -15    1    5    5    0    0  0.41074462695E+00 -0.10511501626E+03  0.41645851536E+02  0.11306507995E+03  0.00000000000E+00 0.  1.
        -15    1    3    3    0    0 -0.49067037077E+02  0.11408459361E+03  0.61581078667E+02  0.13861853367E+03  0.00000000000E+00 0. -1.
         15    1    5    5    0    0  0.11731946756E+03 -0.15241554474E+03  0.15932565297E+03  0.24975792168E+03  0.00000000000E+00 0. -1.
         15    1    3    3    0    0  0.32226152736E+02  0.48811298561E+02  0.12642435478E+02  0.59840612984E+02  0.00000000000E+00 0.  1.
        -16    1    4    4    0    0 -0.23499131532E+03  0.19570292631E+03 -0.67540081612E+02  0.31318080443E+03  0.00000000000E+00 0.  1.
         16    1    1    2    0    0  0.13523555299E+03 -0.67440010175E+02  0.90434190615E+02  0.17611119384E+03  0.00000000000E+00 0. -1.
    9900018    1    4    4    0    0 -0.11335655168E+01 -0.33628247303E+02 -0.23847651554E+02  0.10008013222E+03  0.91187600000E+02 0.  0.
<mgrwt>
<rscale>  0 0.11174958E+04</rscale>
<asrwt>0</asrwt>
<pdfrwt beam="1">  1        2 0.10960737E+00 0.11174958E+04</pdfrwt>
<pdfrwt beam="2">  1       -2 0.67416369E-01 0.11174958E+04</pdfrwt>
<totfact> 0.80216560E+01</totfact>
</mgrwt>
</event>
<event>
12    1  0.1833874E-014  0.2142475E+04  0.7818608E-02  0.9178823E-01
         -2   -1    0    0    0  501 -0.00000000000E+00  0.00000000000E+00  0.54033339991E+03  0.54033339991E+03  0.00000000000E+00 0.  1.
          2   -1    0    0  501    0  0.00000000000E+00 -0.00000000000E+00 -0.25126283605E+04  0.25126283605E+04  0.00000000000E+00 0. -1.
         23    2    1    2    0    0  0.11436065656E+03  0.75322888350E+02 -0.43011337144E+02  0.16984978491E+03  0.90813418779E+02 0.  0.
    9900016    2    1    2    0    0 -0.22461297767E+03 -0.23950711745E+03  0.11598083410E+03  0.82830815600E+03  0.75155052948E+03 0.  0.
         23    2    4    4    0    0 -0.17957820001E+02  0.17475908843E+03 -0.12950300413E+03  0.24544072474E+03  0.11228044796E+03 0.  0.
        -15    1    5    5    0    0 -0.55559688695E+02  0.48394525534E+02 -0.27115041178E+02  0.78512002698E+02  0.00000000000E+00 0. -1.
        -15    1    3    3    0    0  0.12842224279E+03  0.65695012310E+02 -0.48110229441E+02  0.15206150487E+03  0.00000000000E+00 0. -1.
         15    1    5    5    0    0  0.37601868694E+02  0.12636456289E+03 -0.10238796295E+03  0.16692872204E+03  0.00000000000E+00 0.  1.
         15    1    3    3    0    0 -0.14061586223E+02  0.96278760404E+01  0.50988922964E+01  0.17788280041E+02  0.00000000000E+00 0.  1.
        -16    1    4    4    0    0 -0.13527625714E+03 -0.36586770312E+03  0.23840127474E+03  0.45715862644E+03  0.00000000000E+00 0.  1.
         16    1    1    2    0    0  0.11025232111E+03  0.16418422909E+03 -0.20452644575E+04  0.20548038195E+04  0.00000000000E+00 0. -1.
    9900018    1    4    4    0    0 -0.71378900529E+02 -0.48398502754E+02  0.70825634938E+01  0.12570880482E+03  0.91187600000E+02 0.  0.
<mgrwt>
<rscale>  0 0.11274706E+04</rscale>
<asrwt>0</asrwt>
<pdfrwt beam="1">  1        2 0.38655822E+00 0.21424751E+04</pdfrwt>
<pdfrwt beam="2">  1       -2 0.83128214E-01 0.21424751E+04</pdfrwt>
<totfact> 0.39657833E+00</totfact>
</mgrwt>
</event>
<event>
12    1  0.1833874E-014  0.2149166E+04  0.7818608E-02  0.8880299E-01
         -2   -1    0    0    0  501 -0.00000000000E+00  0.00000000000E+00  0.12036467652E+04  0.12036467652E+04  0.00000000000E+00 0. -1.
          2   -1    0    0  501    0  0.00000000000E+00 -0.00000000000E+00 -0.15304488753E+04  0.15304488753E+04  0.00000000000E+00 0.  1.
         23    2    1    2    0    0 -0.97956988160E+01  0.51092624009E+03 -0.26895137091E+03  0.58415160446E+03  0.88072007798E+02 0.  0.
    9900016    2    1    2    0    0  0.50520657067E+02 -0.11130740961E+04 -0.46386939252E+03  0.14225571310E+04  0.75299913504E+03 0.  0.
         23    2    4    4    0    0 -0.22981090666E+03 -0.18855491041E+03 -0.27866065445E+03  0.41460975858E+03  0.76703875466E+02 0.  0.
        -15    1    3    3    0    0  0.20404325467E+02  0.58534052190E+02 -0.54731447396E+02  0.82692823737E+02  0.00000000000E+00 0. -1.
        -15    1    5    5    0    0 -0.15903166934E+03 -0.10738079096E+03 -0.22016116705E+03  0.29204904656E+03  0.00000000000E+00 0.  1.
         15    1    5    5    0    0 -0.70779237313E+02 -0.81174119456E+02 -0.58499487399E+02  0.12256071202E+03  0.00000000000E+00 0. -1.
         15    1    3    3    0    0 -0.30200024283E+02  0.45239218790E+03 -0.21421992352E+03  0.50145878073E+03  0.00000000000E+00 0.  1.
        -16    1    4    4    0    0  0.24544359521E+03 -0.76841836033E+03 -0.15127856299E+03  0.82072805396E+03  0.00000000000E+00 0.  1.
         16    1    1    2    0    0 -0.40724958251E+02  0.60214785604E+03  0.40601865333E+03  0.72738690503E+03  0.00000000000E+00 0. -1.
    9900018    1    4    4    0    0  0.34887968510E+02 -0.15610082538E+03 -0.33930175079E+02  0.18721931846E+03  0.91187600000E+02 0.  0.
<mgrwt>
<rscale>  0 0.15062633E+04</rscale>
<asrwt>0</asrwt>
<pdfrwt beam="1">  1        2 0.23545367E+00 0.21491656E+04</pdfrwt>
<pdfrwt beam="2">  1       -2 0.18517643E+00 0.21491656E+04</pdfrwt>
<totfact> 0.18386736E+00</totfact>
</mgrwt>
</event>
<event>
12    1  0.1833874E-014  0.1035671E+04  0.7818608E-02  0.9936061E-01
          1   -1    0    0  501    0  0.00000000000E+00  0.00000000000E+00  0.13762758557E+04  0.13762758557E+04  0.00000000000E+00 0. -1.
         -1   -1    0    0    0  501 -0.00000000000E+00 -0.00000000000E+00 -0.27000146071E+03  0.27000146071E+03  0.00000000000E+00 0.  1.
         23    2    1    2    0    0  0.48439667802E+02 -0.19206795693E+02  0.34519808300E+03  0.36103391528E+03  0.92024285157E+02 0.  0.
    9900016    2    1    2    0    0 -0.18259884543E+03 -0.14593498379E+03  0.72024822590E+03  0.10685929340E+04  0.75398540696E+03 0.  0.
         23    2    4    4    0    0  0.66844735858E+02  0.11999593707E+03 -0.45469992507E+02  0.18324894372E+03  0.11245181871E+03 0.  0.
        -15    1    5    5    0    0 -0.22992688741E+02  0.82327630780E+01 -0.30504400338E+02  0.39076342759E+02  0.00000000000E+00 0. -1.
        -15    1    3    3    0    0 -0.75547775607E+01 -0.82583171350E+01  0.40667112877E-01  0.11192681524E+02  0.00000000000E+00 0.  1.
         15    1    5    5    0    0  0.89837424599E+02  0.11176317399E+03 -0.14965592168E+02  0.14417260096E+03  0.00000000000E+00 0.  1.
         15    1    3    3    0    0  0.55994445363E+02 -0.10948478558E+02  0.34515741589E+03  0.34984123376E+03  0.00000000000E+00 0. -1.
        -16    1    1    2    0    0  0.13415917763E+03  0.16514177949E+03  0.40828086093E+02  0.21665046708E+03  0.00000000000E+00 0.  1.
         16    1    4    4    0    0 -0.19895640544E+03 -0.25211326306E+03  0.67069661323E+03  0.74362537320E+03  0.00000000000E+00 0. -1.
    9900018    1    4    4    0    0 -0.50487175851E+02 -0.13817657804E+02  0.95021605173E+02  0.14171861711E+03  0.91187600000E+02 0.  0.
<mgrwt>
<rscale>  0 0.58544992E+03</rscale>
<asrwt>0</asrwt>
<pdfrwt beam="1">  1        1 0.21173474E+00 0.10356705E+04</pdfrwt>
<pdfrwt beam="2">  1       -1 0.41538687E-01 0.10356705E+04</pdfrwt>
<totfact> 0.45415662E+01</totfact>
</mgrwt>
</event>
<event>
12    1  0.1833874E-014  0.1638604E+04  0.7818608E-02  0.9219815E-01
         -3   -1    0    0    0  501 -0.00000000000E+00  0.00000000000E+00  0.62257932277E+03  0.62257932277E+03  0.00000000000E+00 0.  1.
          3   -1    0    0  501    0  0.00000000000E+00 -0.00000000000E+00 -0.15357985159E+04  0.15357985159E+04  0.00000000000E+00 0. -1.
         23    2    1    2    0    0  0.34497315412E+02  0.29970107571E+03 -0.11262845698E+03  0.33465432817E+03  0.91090891372E+02 0.  0.
    9900016    2    1    2    0    0  0.23809669051E+03 -0.12583875396E+03 -0.11136284264E+04  0.13736921843E+04  0.75784993168E+03 0.  0.
         23    2    4    4    0    0  0.15271701144E+02 -0.35220586474E+03 -0.27097458995E+03  0.45014594656E+03  0.70156601921E+02 0.  0.
        -15    1    3    3    0    0 -0.26224757353E+02  0.48234176480E+02 -0.74900328126E+01  0.55410958035E+02  0.00000000000E+00 0. -1.
        -15    1    5    5    0    0 -0.27308698935E+02 -0.10714252151E+03 -0.89365099306E+02  0.14216682428E+03  0.00000000000E+00 0. -1.
         15    1    5    5    0    0  0.42580400079E+02 -0.24506334324E+03 -0.18160949065E+03  0.30797912228E+03  0.00000000000E+00 0.  1.
         15    1    3    3    0    0  0.60722072764E+02  0.25146689923E+03 -0.10513842417E+03  0.27924337014E+03  0.00000000000E+00 0.  1.
        -16    1    1    2    0    0 -0.27259400592E+03 -0.17386232175E+03  0.31303769032E+03  0.45003132619E+03  0.00000000000E+00 0.  1.
         16    1    4    4    0    0  0.18406565098E+03  0.20672377396E+03 -0.62974911802E+03  0.68789449354E+03  0.00000000000E+00 0. -1.
    9900018    1    4    4    0    0  0.38759338385E+02  0.19643336827E+02 -0.21290471846E+03  0.23565174417E+03  0.91187600000E+02 0.  0.
<mgrwt>
<rscale>  0 0.10851222E+04</rscale>
<asrwt>0</asrwt>
<pdfrwt beam="1">  1        3 0.23627670E+00 0.16386036E+04</pdfrwt>
<pdfrwt beam="2">  1       -3 0.95781434E-01 0.16386036E+04</pdfrwt>
<totfact> 0.21173404E-01</totfact>
</mgrwt>
</event>
