<event>
13    1  0.2785436E-010  0.4170518E+04  0.7818608E-02  0.7971004E-01
         -2   -1    0    0    0  501 -0.00000000000E+00  0.00000000000E+00  0.15660894785E+04  0.15660894785E+04  0.00000000000E+00 0.  1.
          2   -1    0    0  501    0  0.00000000000E+00 -0.00000000000E+00 -0.27765368083E+04  0.27765368083E+04  0.00000000000E+00 0. -1.
    9900016    2    1    2    0    0 -0.65382125186E+03 -0.67378974958E+03 -0.50989158732E+03  0.21229298844E+04  0.18344936651E+04 0.  0.
         24    2    3    3    0    0  0.14936921089E+03 -0.18130345952E+03 -0.10208200108E+04  0.10511530797E+04  0.87562531190E+02 0.  0.
    9900016    2    1    2    0    0  0.65382125186E+03  0.67378974958E+03 -0.70055574255E+03  0.22196964023E+04  0.18854174376E+04 0.  0.
         23    2    5    5    0    0 -0.75931543296E+02 -0.29623134659E+03  0.40177132038E+03  0.51314392817E+03  0.91530799001E+02 0.  0.
        -15    1    4    4    0    0  0.56187130078E+02 -0.13473907791E+03 -0.62947665176E+03  0.64618299870E+03  0.00000000000E+00 0.  1.
        -15    1    6    6    0    0 -0.55862445528E+01 -0.19342929070E+03  0.22300052660E+03  0.29525468920E+03  0.00000000000E+00 0.  1.
         15    1    6    6    0    0 -0.70345298744E+02 -0.10280205589E+03  0.17877079378E+03  0.21788923897E+03  0.00000000000E+00 0. -1.
         15    1    3    3    0    0 -0.80319046274E+03 -0.49248629005E+03  0.51092842347E+03  0.10717768048E+04  0.00000000000E+00 0. -1.
        -16    1    5    5    0    0  0.68213714966E+03  0.96580324892E+03 -0.10795666211E+04  0.16011093329E+04  0.00000000000E+00 0.  1.
         16    1    4    4    0    0  0.93182080807E+02 -0.46564381612E+02 -0.39134335903E+03  0.40497008096E+03  0.00000000000E+00 0. -1.
    9900018    1    5    5    0    0  0.47615645499E+02  0.42178472509E+01 -0.22760441820E+02  0.10544314125E+03  0.91187600000E+02 0.  0.
<mgrwt>
<rscale>  0 0.41705180E+04</rscale>
<asrwt>0</asrwt>
<pdfrwt beam="1">  1        2 0.42715950E+00 0.41705180E+04</pdfrwt>
<pdfrwt beam="2">  1       -2 0.24093685E+00 0.41705180E+04</pdfrwt>
<totfact> 0.13585174E-01</totfact>
</mgrwt>
</event>
<event>
13    1  0.2785436E-010  0.4609471E+04  0.7818608E-02  0.7891747E-01
          2   -1    0    0  501    0  0.00000000000E+00  0.00000000000E+00  0.24437082374E+04  0.24437082374E+04  0.00000000000E+00 0. -1.
         -2   -1    0    0    0  501 -0.00000000000E+00 -0.00000000000E+00 -0.21736662150E+04  0.21736662150E+04  0.00000000000E+00 0.  1.
    9900016    2    1    2    0    0 -0.13009287775E+03 -0.13998511015E+02  0.14659738199E+04  0.23648686200E+04  0.18510548977E+04 0.  0.
         24    2    3    3    0    0  0.68313470215E+03  0.26995887141E+03  0.94564843130E+02  0.74538306181E+03  0.84276839904E+02 0.  0.
    9900016    2    1    2    0    0  0.91053887242E+02  0.40446118427E+02 -0.11535996908E+04  0.21414621276E+04  0.18014275168E+04 0.  0.
         23    2    5    5    0    0 -0.25461517714E+03 -0.37190881129E+03  0.32819068568E+03  0.56500203927E+03  0.91504786075E+02 0.  0.
        -15    1    6    6    0    0 -0.94516470632E+01 -0.71653870542E+02  0.52536227459E+02  0.89351362561E+02  0.00000000000E+00 0. -1.
        -15    1    4    4    0    0  0.54514028288E+03  0.21422106498E+03  0.40787317477E+02  0.58713899374E+03  0.00000000000E+00 0.  1.
         15    1    6    6    0    0 -0.24516353007E+03 -0.30025494075E+03  0.27565445822E+03  0.47565067671E+03  0.00000000000E+00 0.  1.
         15    1    3    3    0    0 -0.81322757990E+03 -0.28395738242E+03  0.13714089768E+04  0.16194855582E+04  0.00000000000E+00 0. -1.
        -16    1    5    5    0    0  0.34566906438E+03  0.41235492972E+03 -0.14817903765E+04  0.15764600883E+04  0.00000000000E+00 0.  1.
         16    1    4    4    0    0  0.13799441927E+03  0.55737806425E+02  0.53777525653E+02  0.15824406807E+03  0.00000000000E+00 0. -1.
    9900018    1    1    2    0    0  0.39038990505E+02 -0.26447607412E+02 -0.42332106773E+02  0.11104370480E+03  0.91187600000E+02 0.  0.
<mgrwt>
<rscale>  0 0.46094711E+04</rscale>
<asrwt>0</asrwt>
<pdfrwt beam="1">  1        2 0.37595512E+00 0.46094711E+04</pdfrwt>
<pdfrwt beam="2">  1       -2 0.33441018E+00 0.46094711E+04</pdfrwt>
<totfact> 0.54912567E-02</totfact>
</mgrwt>
</event>
<event>
13    1  0.2785436E-010  0.4398763E+04  0.7818608E-02  0.7928604E-01
          2   -1    0    0  501    0  0.00000000000E+00  0.00000000000E+00  0.21065800130E+04  0.21065800130E+04  0.00000000000E+00 0. -1.
         -2   -1    0    0    0  501 -0.00000000000E+00 -0.00000000000E+00 -0.22962716638E+04  0.22962716638E+04  0.00000000000E+00 0.  1.
    9900016    2    1    2    0    0 -0.19503313068E+03  0.58423998367E+03 -0.10719701049E+04  0.22223287206E+04  0.18466864260E+04 0.  0.
        -24    2    3    3    0    0 -0.27929106634E+03 -0.37192374115E+03 -0.11660284196E+04  0.12578623215E+04  0.79149071794E+02 0.  0.
    9900016    2    1    2    0    0  0.19503313068E+03 -0.58423998367E+03  0.88227845400E+03  0.21805229562E+04  0.18965470760E+04 0.  0.
         23    2    5    5    0    0  0.21662064632E+03  0.38952933977E+03 -0.35232229546E+03  0.57531027044E+03  0.90516829602E+02 0.  0.
        -15    1    6    6    0    0  0.16576832974E+03  0.24030157128E+03 -0.26910448305E+03  0.39704056103E+03  0.00000000000E+00 0.  1.
        -15    1    3    3    0    0  0.84257935667E+02  0.95616372481E+03  0.94058314717E+02  0.96446639907E+03  0.00000000000E+00 0.  1.
         15    1    4    4    0    0 -0.21484540508E+03 -0.32507598402E+03 -0.91562504219E+03  0.99508902183E+03  0.00000000000E+00 0. -1.
         15    1    6    6    0    0  0.50852316575E+02  0.14922776850E+03 -0.83217812405E+02  0.17826970941E+03  0.00000000000E+00 0. -1.
        -16    1    4    4    0    0 -0.64445661269E+02 -0.46847757124E+02 -0.25040337740E+03  0.26277329967E+03  0.00000000000E+00 0.  1.
         16    1    5    5    0    0 -0.32074855697E+02 -0.91566445069E+03  0.11250200749E+04  0.14509101804E+04  0.00000000000E+00 0. -1.
    9900018    1    5    5    0    0  0.10487340056E+02 -0.58104872749E+02  0.10958067455E+03  0.15430250538E+03  0.91187600000E+02 0.  0.
<mgrwt>
<rscale>  0 0.43987635E+04</rscale>
<asrwt>0</asrwt>
<pdfrwt beam="1">  1        2 0.32408923E+00 0.43987635E+04</pdfrwt>
<pdfrwt beam="2">  1       -2 0.35327256E+00 0.43987635E+04</pdfrwt>
<totfact> 0.66024316E-02</totfact>
</mgrwt>
</event>
<event>
13    1  0.2785436E-010  0.4344040E+04  0.7818608E-02  0.7938525E-01
          2   -1    0    0  501    0  0.00000000000E+00  0.00000000000E+00  0.34209000676E+04  0.34209000676E+04  0.00000000000E+00 0. -1.
         -2   -1    0    0    0  501 -0.00000000000E+00 -0.00000000000E+00 -0.13790727626E+04  0.13790727626E+04  0.00000000000E+00 0.  1.
    9900016    2    1    2    0    0  0.88868132355E+03  0.35718369320E+03  0.39315452069E+03  0.21163714716E+04  0.18458393872E+04 0.  0.
        -24    2    3    3    0    0  0.42570997024E+03 -0.63806450754E+03 -0.28957647244E+03  0.82370637035E+03  0.79261318601E+02 0.  0.
    9900016    2    1    2    0    0 -0.88868132355E+03 -0.35718369320E+03  0.16486727843E+04  0.26836013587E+04  0.18884542931E+04 0.  0.
         23    2    5    5    0    0  0.36596910525E+03  0.37787618545E+03  0.12015418809E+03  0.54718061689E+03  0.90806393280E+02 0.  0.
        -15    1    3    3    0    0  0.46297135331E+03  0.99524820073E+03  0.68273099313E+03  0.12926651013E+04  0.00000000000E+00 0.  1.
        -15    1    6    6    0    0  0.33493612643E+03  0.36255069992E+03  0.13142373059E+03  0.51078118188E+03  0.00000000000E+00 0. -1.
         15    1    4    4    0    0  0.22113376402E+03 -0.39859740904E+03 -0.18333382054E+03  0.49131591246E+03  0.00000000000E+00 0. -1.
         15    1    6    6    0    0  0.31032978816E+02  0.15325485530E+02 -0.11269542501E+02  0.36399435011E+02  0.00000000000E+00 0.  1.
        -16    1    4    4    0    0  0.20457620622E+03 -0.23946709849E+03 -0.10624265190E+03  0.33239045789E+03  0.00000000000E+00 0.  1.
         16    1    5    5    0    0 -0.11801465732E+04 -0.68485112394E+03  0.13889194100E+04  0.19470141560E+04  0.00000000000E+00 0. -1.
    9900018    1    5    5    0    0 -0.74503855564E+02 -0.50208754712E+02  0.13959918618E+03  0.18940658573E+03  0.91187600000E+02 0.  0.
<mgrwt>
<rscale>  0 0.43440396E+04</rscale>
<asrwt>0</asrwt>
<pdfrwt beam="1">  1        2 0.52629232E+00 0.43440396E+04</pdfrwt>
<pdfrwt beam="2">  1       -2 0.21216504E+00 0.43440396E+04</pdfrwt>
<totfact> 0.78366029E-02</totfact>
</mgrwt>
</event>
<event>
13    1  0.2785436E-010  0.4510483E+04  0.7818608E-02  0.7908804E-01
         -1   -1    0    0    0  501 -0.00000000000E+00  0.00000000000E+00  0.24041550058E+04  0.24041550058E+04  0.00000000000E+00 0.  1.
          1   -1    0    0  501    0  0.00000000000E+00 -0.00000000000E+00 -0.21155515008E+04  0.21155515008E+04  0.00000000000E+00 0. -1.
    9900016    2    1    2    0    0 -0.10477129976E+04  0.61903482773E+03  0.47913157083E+03  0.22641378731E+04  0.18482009098E+04 0.  0.
         24    2    3    3    0    0  0.49140537689E+03  0.33331154100E+03  0.34889884298E+03  0.69331524446E+03  0.79873636255E+02 0.  0.
    9900016    2    1    2    0    0  0.10477129976E+04 -0.61903482773E+03 -0.19052806581E+03  0.22555686334E+04  0.18895455202E+04 0.  0.
         23    2    5    5    0    0 -0.24139287209E+03  0.32590984127E+03 -0.43545369641E+03  0.60188890208E+03  0.90347027602E+02 0.  0.
        -15    1    4    4    0    0  0.40955304819E+03  0.30932558561E+03  0.30973229261E+03  0.59945818059E+03  0.00000000000E+00 0.  1.
        -15    1    6    6    0    0 -0.78820759662E+02  0.15231393575E+03 -0.23452285736E+03  0.29053952881E+03  0.00000000000E+00 0. -1.
         15    1    3    3    0    0 -0.15391183745E+04  0.28572328673E+03  0.13023272785E+03  0.15708226286E+04  0.00000000000E+00 0. -1.
         15    1    6    6    0    0 -0.16257211243E+03  0.17359590552E+03 -0.20093083904E+03  0.31134937327E+03  0.00000000000E+00 0.  1.
        -16    1    5    5    0    0  0.12044257953E+04 -0.89835849703E+03  0.22405467081E+03  0.15191741115E+04  0.00000000000E+00 0.  1.
         16    1    4    4    0    0  0.81852328707E+02  0.23985955389E+02  0.39166550367E+02  0.93857063870E+02  0.00000000000E+00 0. -1.
    9900018    1    5    5    0    0  0.84680074361E+02 -0.46586171983E+02  0.20870959788E+02  0.13450561985E+03  0.91187600000E+02 0.  0.
<mgrwt>
<rscale>  0 0.45104828E+04</rscale>
<asrwt>0</asrwt>
<pdfrwt beam="1">  1        1 0.32546946E+00 0.45104828E+04</pdfrwt>
<pdfrwt beam="2">  1       -1 0.36987000E+00 0.45104828E+04</pdfrwt>
<totfact> 0.21375999E-02</totfact>
</mgrwt>
</event>
<event>
13    1  0.2785436E-010  0.4791167E+04  0.7818608E-02  0.7861555E-01
          1   -1    0    0  501    0  0.00000000000E+00  0.00000000000E+00  0.21368003869E+04  0.21368003869E+04  0.00000000000E+00 0. -1.
         -1   -1    0    0    0  501 -0.00000000000E+00 -0.00000000000E+00 -0.26857071718E+04  0.26857071718E+04  0.00000000000E+00 0.  1.
    9900016    2    1    2    0    0  0.12681043867E+04 -0.56240015075E+03  0.35417775357E+03  0.23090395878E+04  0.18115847404E+04 0.  0.
         24    2    3    3    0    0  0.21534245137E+01  0.55207946312E+03  0.27065343493E+03  0.62034987081E+03  0.82366920152E+02 0.  0.
    9900016    2    1    2    0    0 -0.12681043867E+04  0.56240015075E+03 -0.90308453850E+03  0.25134679710E+04  0.18914483583E+04 0.  0.
         23    2    5    5    0    0  0.83903682641E+02 -0.23925438084E+03  0.36833956240E+03  0.45677830030E+03  0.93219609964E+02 0.  0.
        -15    1    6    6    0    0  0.61978047189E+02 -0.64762833911E+02  0.86494128415E+02  0.12456619622E+03  0.00000000000E+00 0. -1.
        -15    1    4    4    0    0  0.10198194005E+02  0.15199759357E+02  0.22030509963E+02  0.28642262737E+02  0.00000000000E+00 0.  1.
         15    1    3    3    0    0  0.12659509622E+04 -0.11144796139E+04  0.83524318638E+02  0.16886897170E+04  0.00000000000E+00 0. -1.
         15    1    6    6    0    0  0.21925635451E+02 -0.17449154693E+03  0.28184543399E+03  0.33221210408E+03  0.00000000000E+00 0.  1.
        -16    1    5    5    0    0 -0.12900246841E+04  0.73123243921E+03 -0.12003481495E+04  0.19077998443E+04  0.00000000000E+00 0.  1.
         16    1    4    4    0    0 -0.80447694917E+01  0.53687970376E+03  0.24862292497E+03  0.59170760807E+03  0.00000000000E+00 0. -1.
    9900018    1    5    5    0    0 -0.61983385183E+02  0.70422092383E+02 -0.71075951360E+02  0.14888982635E+03  0.91187600000E+02 0.  0.
<mgrwt>
<rscale>  0 0.47911669E+04</rscale>
<asrwt>0</asrwt>
<pdfrwt beam="1">  1        1 0.32873852E+00 0.47911669E+04</pdfrwt>
<pdfrwt beam="2">  1       -1 0.41318572E+00 0.47911669E+04</pdfrwt>
<totfact> 0.10261553E-02</totfact>
</mgrwt>
</event>
<event>
13    1  0.2785436E-010  0.4378364E+04  0.7818608E-02  0.7932285E-01
          2   -1    0    0  501    0  0.00000000000E+00  0.00000000000E+00  0.41801675668E+04  0.41801675668E+04  0.00000000000E+00 0. -1.
         -2   -1    0    0    0  501 -0.00000000000E+00 -0.00000000000E+00 -0.11464894503E+04  0.11464894503E+04  0.00000000000E+00 0.  1.
    9900016    2    1    2    0    0 -0.62404005536E+03  0.80344573689E+03  0.21219435922E+04  0.29941377276E+04  0.18512874117E+04 0.  0.
         24    2    3    3    0    0 -0.11962083570E+04  0.26460180221E+03  0.83016406936E+03  0.14820452414E+04  0.79731853847E+02 0.  0.
    9900016    2    1    2    0    0  0.62404005536E+03 -0.80344573689E+03  0.91173452431E+03  0.23325192895E+04  0.18906177165E+04 0.  0.
         23    2    5    5    0    0 -0.28105964834E+03 -0.29782754165E+02  0.10121146020E+04  0.10548975373E+04  0.92473284565E+02 0.  0.
        -15    1    4    4    0    0 -0.67544589849E+03  0.18958237342E+03  0.46925054683E+03  0.84401701037E+03  0.00000000000E+00 0.  1.
        -15    1    6    6    0    0 -0.58614372633E+01  0.15890243168E+02  0.37542502466E+02  0.41186111326E+02  0.00000000000E+00 0.  1.
         15    1    3    3    0    0  0.57216830160E+03  0.53884393468E+03  0.12917795228E+04  0.15120924862E+04  0.00000000000E+00 0. -1.
         15    1    6    6    0    0 -0.27519821108E+03 -0.45672997333E+02  0.97457209949E+03  0.10137114260E+04  0.00000000000E+00 0. -1.
        -16    1    5    5    0    0  0.86384280836E+03 -0.71536466262E+03 -0.18153998512E+03  0.11361900212E+04  0.00000000000E+00 0.  1.
         16    1    4    4    0    0 -0.52076245848E+03  0.75019428792E+02  0.36091352253E+03  0.63802823103E+03  0.00000000000E+00 0. -1.
    9900018    1    5    5    0    0  0.41256895340E+02 -0.58298320100E+02  0.81159907483E+02  0.14143173094E+03  0.91187600000E+02 0.  0.
<mgrwt>
<rscale>  0 0.43783641E+04</rscale>
<asrwt>0</asrwt>
<pdfrwt beam="1">  1        2 0.64310269E+00 0.43783641E+04</pdfrwt>
<pdfrwt beam="2">  1       -2 0.17638299E+00 0.43783641E+04</pdfrwt>
<totfact> 0.35376257E-02</totfact>
</mgrwt>
</event>
<event>
13    1  0.2785436E-010  0.4891198E+04  0.7818608E-02  0.7845514E-01
          1   -1    0    0  501    0  0.00000000000E+00  0.00000000000E+00  0.40545045881E+04  0.40545045881E+04  0.00000000000E+00 0. -1.
         -1   -1    0    0    0  501 -0.00000000000E+00 -0.00000000000E+00 -0.14751382776E+04  0.14751382776E+04  0.00000000000E+00 0.  1.
    9900016    2    1    2    0    0  0.65983278361E+03 -0.50263973021E+03  0.27930147810E+04  0.34482486512E+04  0.18443050704E+04 0.  0.
         24    2    3    3    0    0 -0.57967999355E+03 -0.50030458713E+03  0.88655682112E+03  0.11742699067E+04  0.81198779891E+02 0.  0.
    9900016    2    1    2    0    0 -0.67592060364E+03  0.48990122062E+03 -0.19588008279E+03  0.19862523122E+04  0.17916353905E+04 0.  0.
         23    2    5    5    0    0  0.22505866974E+03  0.29484475082E+03  0.63777068515E+03  0.74335880089E+03  0.90807643529E+02 0.  0.
        -15    1    4    4    0    0 -0.18711639930E+03 -0.11345791128E+03  0.25798120765E+03  0.33828914854E+03  0.00000000000E+00 0.  1.
        -15    1    6    6    0    0  0.10455248213E+03  0.20495963512E+03  0.35352315293E+03  0.42180361924E+03  0.00000000000E+00 0. -1.
         15    1    3    3    0    0  0.12395127772E+04 -0.23351430854E+01  0.19064579599E+04  0.22739787445E+04  0.00000000000E+00 0. -1.
         15    1    6    6    0    0  0.12050618760E+03  0.89885115698E+02  0.28424753222E+03  0.32155518165E+03  0.00000000000E+00 0.  1.
        -16    1    5    5    0    0 -0.90097927337E+03  0.19505646980E+03 -0.83365076793E+03  0.12428935113E+04  0.00000000000E+00 0.  1.
         16    1    4    4    0    0 -0.39256359425E+03 -0.38684667585E+03  0.62857561347E+03  0.83598075815E+03  0.00000000000E+00 0. -1.
    9900018    1    1    2    0    0  0.16087820023E+02  0.12738509596E+02 -0.17768387754E+02  0.95141902319E+02  0.91187600000E+02 0.  0.
<mgrwt>
<rscale>  0 0.48911982E+04</rscale>
<asrwt>0</asrwt>
<pdfrwt beam="1">  1        1 0.62376993E+00 0.48911982E+04</pdfrwt>
<pdfrwt beam="2">  1       -1 0.22694435E+00 0.48911982E+04</pdfrwt>
<totfact> 0.61592259E-03</totfact>
</mgrwt>
</event>
