<event>
12    1  0.4494735E-015  0.2415623E+04  0.7818608E-02  0.9029615E-01
          2   -1    0    0  501    0  0.00000000000E+00  0.00000000000E+00  0.21447660435E+04  0.21447660435E+04  0.00000000000E+00 0. -1.
         -2   -1    0    0    0  501 -0.00000000000E+00 -0.00000000000E+00 -0.10464055958E+04  0.10464055958E+04  0.00000000000E+00 0.  1.
        -24    2    1    2    0    0 -0.14232728427E+03 -0.11910936487E+03 -0.32825656898E+03  0.38573578468E+03  0.81213446292E+02 0.  0.
    9900016    2    1    2    0    0 -0.89520567847E+02  0.34221514895E+02  0.14548179637E+04  0.23109320935E+04  0.17929659197E+04 0.  0.
         24    2    4    4    0    0 -0.40907573747E+03 -0.79518483954E+03  0.61793842797E+03  0.10901136121E+04  0.82691586819E+02 0.  0.
        -15    1    5    5    0    0 -0.31773450438E+03 -0.59147568667E+03  0.42158781497E+03  0.79280198595E+03  0.00000000000E+00 0.  1.
        -15    1    1    2    0    0  0.27818095681E+03  0.12320223143E+03 -0.14288963950E+03  0.33612629121E+03  0.00000000000E+00 0.  1.
         15    1    4    4    0    0  0.31955516962E+03  0.82940635444E+03  0.83687953574E+03  0.12208184814E+04  0.00000000000E+00 0. -1.
         15    1    3    3    0    0 -0.13942242411E+03 -0.13039715312E+03 -0.31084915111E+03  0.36478654667E+03  0.00000000000E+00 0. -1.
        -16    1    3    3    0    0 -0.29048601526E+01  0.11287788254E+02 -0.17407417878E+02  0.20949238013E+02  0.00000000000E+00 0.  1.
         16    1    5    5    0    0 -0.91341233085E+02 -0.20370915287E+03  0.19635061300E+03  0.29731162616E+03  0.00000000000E+00 0. -1.
    9900018    1    1    2    0    0 -0.46333104700E+02 -0.38314381457E+02  0.11468869248E+03  0.15837746997E+03  0.91187600000E+02 0.  0.
<mgrwt>
<rscale>  0 0.12999373E+04</rscale>
<asrwt>0</asrwt>
<pdfrwt beam="1">  1        2 0.32996400E+00 0.24156229E+04</pdfrwt>
<pdfrwt beam="2">  1       -2 0.16098548E+00 0.24156229E+04</pdfrwt>
<totfact> 0.12117736E+00</totfact>
</mgrwt>
</event>
<event>
12    1  0.4494735E-015  0.2624143E+04  0.7818608E-02  0.8948685E-01
          2   -1    0    0  501    0  0.00000000000E+00  0.00000000000E+00  0.13956479234E+04  0.13956479234E+04  0.00000000000E+00 0. -1.
         -2   -1    0    0    0  501 -0.00000000000E+00 -0.00000000000E+00 -0.14578232329E+04  0.14578232329E+04  0.00000000000E+00 0.  1.
         24    2    1    2    0    0 -0.19346792464E+03  0.49270665544E+02 -0.74246870690E+02  0.22930045328E+03  0.84903849871E+02 0.  0.
    9900016    2    1    2    0    0  0.39199172054E+03  0.44071256285E+03 -0.99378082697E+01  0.18890075419E+04  0.17945377292E+04 0.  0.
        -24    2    4    4    0    0 -0.28568750153E+03 -0.41456621630E+03  0.47385243161E+03  0.69535603737E+03  0.74171393005E+02 0.  0.
        -15    1    3    3    0    0 -0.12639864400E+03 -0.17771332573E+01 -0.17322976344E+02  0.12759255824E+03  0.00000000000E+00 0.  1.
        -15    1    4    4    0    0  0.67767922207E+03  0.85527877915E+03 -0.48379023988E+03  0.11936515045E+04  0.00000000000E+00 0.  1.
         15    1    1    2    0    0 -0.28584015313E+03 -0.53019071363E+03  0.17807200607E+02  0.60259761231E+03  0.00000000000E+00 0. -1.
         15    1    5    5    0    0 -0.13807531272E+03 -0.17531964342E+03  0.25663584853E+03  0.34009370489E+03  0.00000000000E+00 0. -1.
        -16    1    5    5    0    0 -0.14761218882E+03 -0.23924657287E+03  0.21721658308E+03  0.35526233249E+03  0.00000000000E+00 0.  1.
         16    1    3    3    0    0 -0.67069280633E+02  0.51047798801E+02 -0.56923894346E+02  0.10170789505E+03  0.00000000000E+00 0. -1.
    9900018    1    1    2    0    0  0.87316357225E+02  0.40207485243E+02  0.42021687926E+01  0.13256554879E+03  0.91187600000E+02 0.  0.
<mgrwt>
<rscale>  0 0.14071137E+04</rscale>
<asrwt>0</asrwt>
<pdfrwt beam="1">  1        2 0.21471507E+00 0.26241429E+04</pdfrwt>
<pdfrwt beam="2">  1       -2 0.22428050E+00 0.26241429E+04</pdfrwt>
<totfact> 0.11836683E+00</totfact>
</mgrwt>
</event>
<event>
12    1  0.4494735E-015  0.2480820E+04  0.7818608E-02  0.8952746E-01
         -2   -1    0    0    0  501 -0.00000000000E+00  0.00000000000E+00  0.19135159889E+04  0.19135159889E+04  0.00000000000E+00 0.  1.
          2   -1    0    0  501    0  0.00000000000E+00 -0.00000000000E+00 -0.97817657031E+03  0.97817657031E+03  0.00000000000E+00 0. -1.
         24    2    1    2    0    0  0.14647578193E+03 -0.18932908124E+03  0.49630913644E+02  0.25750483592E+03  0.80900291968E+02 0.  0.
    9900016    2    1    2    0    0 -0.33171197908E+03  0.15350379522E+03  0.11570875596E+04  0.21660800371E+04  0.17942839392E+04 0.  0.
        -24    2    4    4    0    0 -0.36117331523E+02 -0.44435934882E+02 -0.48023401789E+03  0.49055675154E+03  0.82110904229E+02 0.  0.
        -15    1    3    3    0    0  0.71184320500E+02 -0.56315431341E+02 -0.14193046977E+02  0.91869896456E+02  0.00000000000E+00 0.  1.
        -15    1    4    4    0    0 -0.29559464756E+03  0.19793973010E+03  0.16373215775E+04  0.16755232856E+04  0.00000000000E+00 0.  1.
         15    1    5    5    0    0  0.22467557163E+02  0.19277161579E+01 -0.69004871546E+02  0.72596002035E+02  0.00000000000E+00 0. -1.
         15    1    1    2    0    0  0.20972131599E+03 -0.69010008800E+01 -0.29480569655E+03  0.36185777995E+03  0.00000000000E+00 0. -1.
        -16    1    5    5    0    0 -0.58584888686E+02 -0.46363651039E+02 -0.41122914635E+03  0.41796074950E+03  0.00000000000E+00 0.  1.
         16    1    3    3    0    0  0.75291461427E+02 -0.13301364990E+03  0.63823960621E+02  0.16563493947E+03  0.00000000000E+00 0. -1.
    9900018    1    1    2    0    0 -0.24485118841E+02  0.42726286901E+02  0.23426641957E+02  0.10624990628E+03  0.91187600000E+02 0.  0.
<mgrwt>
<rscale>  0 0.14014825E+04</rscale>
<asrwt>0</asrwt>
<pdfrwt beam="1">  1        2 0.15048870E+00 0.24808195E+04</pdfrwt>
<pdfrwt beam="2">  1       -2 0.29438708E+00 0.24808195E+04</pdfrwt>
<totfact> 0.79319118E-01</totfact>
</mgrwt>
</event>
<event>
12    1  0.4494735E-015  0.2504994E+04  0.7818608E-02  0.9000680E-01
          2   -1    0    0  501    0  0.00000000000E+00  0.00000000000E+00  0.22893099210E+04  0.22893099210E+04  0.00000000000E+00 0.  1.
         -2   -1    0    0    0  501 -0.00000000000E+00 -0.00000000000E+00 -0.10243754636E+04  0.10243754636E+04  0.00000000000E+00 0. -1.
         24    2    1    2    0    0  0.10570877733E+03  0.15472734503E+03  0.72259329628E+03  0.75065392334E+03  0.78900848437E+02 0.  0.
    9900016    2    1    2    0    0  0.34779548151E+03  0.18909271065E+03  0.40940036522E+03  0.19786073014E+04  0.18948774218E+04 0.  0.
        -24    2    4    4    0    0 -0.64536824741E+03  0.41401709288E+03  0.27224969101E+03  0.81721517663E+03  0.76226128710E+02 0.  0.
        -15    1    4    4    0    0  0.10131851048E+04 -0.24669469001E+03  0.71563574209E+02  0.10452385717E+04  0.00000000000E+00 0.  1.
        -15    1    3    3    0    0  0.76021382350E+02  0.15177248078E+03  0.55333664757E+03  0.57878802859E+03  0.00000000000E+00 0.  1.
         15    1    5    5    0    0 -0.48763780011E+03  0.35030246583E+03  0.21155288590E+03  0.63659804052E+03  0.00000000000E+00 0. -1.
         15    1    1    2    0    0 -0.45350425885E+03 -0.34382005569E+03  0.13294079587E+03  0.58442415991E+03  0.00000000000E+00 0. -1.
        -16    1    5    5    0    0 -0.15773044730E+03  0.63714627048E+02  0.60696805105E+02  0.18061713611E+03  0.00000000000E+00 0.  1.
         16    1    3    3    0    0  0.29687394985E+02  0.29548642525E+01  0.16925664871E+03  0.17186589475E+03  0.00000000000E+00 0. -1.
    9900018    1    4    4    0    0 -0.20021375890E+02  0.21770307784E+02  0.65587100000E+02  0.11615355300E+03  0.91187600000E+02 0.  0.
<mgrwt>
<rscale>  0 0.13370624E+04</rscale>
<asrwt>0</asrwt>
<pdfrwt beam="1">  1        2 0.35220153E+00 0.25049943E+04</pdfrwt>
<pdfrwt beam="2">  1       -2 0.15759623E+00 0.25049943E+04</pdfrwt>
<totfact> 0.10571940E+00</totfact>
</mgrwt>
</event>
<event>
12    1  0.4494735E-015  0.2891238E+04  0.7818608E-02  0.8911423E-01
          2   -1    0    0  501    0  0.00000000000E+00  0.00000000000E+00  0.16738242144E+04  0.16738242144E+04  0.00000000000E+00 0. -1.
         -2   -1    0    0    0  501 -0.00000000000E+00 -0.00000000000E+00 -0.15098244267E+04  0.15098244267E+04  0.00000000000E+00 0.  1.
        -24    2    1    2    0    0  0.43484055574E+02 -0.16449052286E+03 -0.19417083321E+03  0.27030989541E+03  0.80107002729E+02 0.  0.
    9900016    2    1    2    0    0  0.75336876536E+02 -0.55392779875E+03  0.71226785864E+03  0.21036300620E+04  0.18987949557E+04 0.  0.
         24    2    4    4    0    0 -0.49538833298E+03  0.20975070052E+03 -0.31621947251E+03  0.62892419031E+03  0.78395953621E+02 0.  0.
        -15    1    1    2    0    0 -0.11882093211E+03  0.71841832161E+03 -0.35409723776E+03  0.80970868374E+03  0.00000000000E+00 0.  1.
        -15    1    5    5    0    0 -0.22318576765E+03  0.10816754868E+03 -0.10306036177E+03  0.26857688589E+03  0.00000000000E+00 0.  1.
         15    1    4    4    0    0  0.61350548142E+03 -0.70023059891E+03  0.96041280749E+03  0.13375741580E+04  0.00000000000E+00 0. -1.
         15    1    3    3    0    0  0.10610898312E+02 -0.11380175527E+02 -0.66400984049E+02  0.68199635195E+02  0.00000000000E+00 0. -1.
        -16    1    3    3    0    0  0.32873157262E+02 -0.15311034733E+03 -0.12776984916E+03  0.20211026021E+03  0.00000000000E+00 0.  1.
         16    1    5    5    0    0 -0.27220256533E+03  0.10158315184E+03 -0.21315911074E+03  0.36034730442E+03  0.00000000000E+00 0. -1.
    9900018    1    4    4    0    0 -0.42780271905E+02 -0.63447900350E+02  0.68074523665E+02  0.13713171365E+03  0.91187600000E+02 0.  0.
<mgrwt>
<rscale>  0 0.14601073E+04</rscale>
<asrwt>0</asrwt>
<pdfrwt beam="1">  1        2 0.25751142E+00 0.28912379E+04</pdfrwt>
<pdfrwt beam="2">  1       -2 0.23228068E+00 0.28912379E+04</pdfrwt>
<totfact> 0.71735112E-01</totfact>
</mgrwt>
</event>
<event>
12    1  0.4494735E-015  0.4272179E+04  0.7818608E-02  0.8332172E-01
         -1   -1    0    0    0  501 -0.00000000000E+00  0.00000000000E+00  0.26758186828E+04  0.26758186828E+04  0.00000000000E+00 0.  1.
          1   -1    0    0  501    0  0.00000000000E+00 -0.00000000000E+00 -0.23654289334E+04  0.23654289334E+04  0.00000000000E+00 0. -1.
         24    2    1    2    0    0  0.40946428499E+02  0.68514312969E+03  0.33854663097E+03  0.76897581138E+03  0.74915011747E+02 0.  0.
    9900016    2    1    2    0    0 -0.10709228465E+04 -0.87417972020E+03  0.10064484865E+04  0.24785880346E+04  0.17942670266E+04 0.  0.
        -24    2    4    4    0    0  0.39117710347E+03 -0.66983774636E+03  0.24498808012E+03  0.81746977970E+03  0.80842739941E+02 0.  0.
        -15    1    4    4    0    0 -0.14620999500E+04 -0.20434197384E+03  0.76146040642E+03  0.16611182549E+04  0.00000000000E+00 0.  1.
        -15    1    3    3    0    0  0.14322590596E+02  0.25180571007E+03  0.84695025005E+02  0.26605356507E+03  0.00000000000E+00 0.  1.
         15    1    5    5    0    0  0.19953823258E+03 -0.41074866200E+03  0.16378788283E+03  0.48513548639E+03  0.00000000000E+00 0. -1.
         15    1    1    2    0    0  0.11017745139E+04  0.23139137612E+03 -0.11608085480E+04  0.16170731379E+04  0.00000000000E+00 0. -1.
        -16    1    5    5    0    0  0.19163887089E+03 -0.25908908436E+03  0.81200197291E+02  0.33233429331E+03  0.00000000000E+00 0.  1.
         16    1    3    3    0    0  0.26623837903E+02  0.43333741961E+03  0.25385160597E+03  0.50292224631E+03  0.00000000000E+00 0. -1.
    9900018    1    1    2    0    0 -0.71798095837E+02 -0.42354785604E+02  0.12620317989E+03  0.17661063229E+03  0.91187600000E+02 0.  0.
<mgrwt>
<rscale>  0 0.27087496E+04</rscale>
<asrwt>0</asrwt>
<pdfrwt beam="1">  1        1 0.36391214E+00 0.42721790E+04</pdfrwt>
<pdfrwt beam="2">  1       -1 0.41166441E+00 0.42721790E+04</pdfrwt>
<totfact> 0.74533380E-03</totfact>
</mgrwt>
</event>
<event>
12    1  0.4494735E-015  0.3812528E+04  0.7818608E-02  0.8451707E-01
          2   -1    0    0  501    0  0.00000000000E+00  0.00000000000E+00  0.34033852975E+04  0.34033852975E+04  0.00000000000E+00 0. -1.
         -2   -1    0    0    0  501 -0.00000000000E+00 -0.00000000000E+00 -0.17594702572E+04  0.17594702572E+04  0.00000000000E+00 0.  1.
         24    2    1    2    0    0  0.47137005207E+03  0.30496405071E+03 -0.52820852196E+03  0.77497531048E+03  0.79935542600E+02 0.  0.
    9900016    2    1    2    0    0 -0.30469379394E+03 -0.13284038285E+04  0.68378396408E+03  0.23492711636E+04  0.17871819859E+04 0.  0.
        -24    2    4    4    0    0  0.24594764012E+03 -0.52116467247E+03  0.11331334671E+04  0.12737452365E+04  0.79577733406E+02 0.  0.
        -15    1    4    4    0    0 -0.55064143407E+03 -0.80723915606E+03 -0.44934950303E+03  0.10755259271E+04  0.00000000000E+00 0.  1.
        -15    1    3    3    0    0  0.25553433528E+02  0.36701537299E+02 -0.61373505155E+02  0.75938711737E+02  0.00000000000E+00 0.  1.
         15    1    1    2    0    0 -0.82223414338E+02  0.11567682309E+04  0.14421256253E+04  0.18505674127E+04  0.00000000000E+00 0. -1.
         15    1    5    5    0    0  0.52318826607E+02 -0.18477012943E+03  0.33198357104E+03  0.38352360003E+03  0.00000000000E+00 0. -1.
        -16    1    5    5    0    0  0.19362881352E+03 -0.33639454304E+03  0.80114989607E+03  0.89022163643E+03  0.00000000000E+00 0.  1.
         16    1    3    3    0    0  0.44581661854E+03  0.26826251342E+03 -0.46683501680E+03  0.69903659874E+03  0.00000000000E+00 0. -1.
    9900018    1    1    2    0    0 -0.84452843785E+02 -0.13332845306E+03  0.46213972950E+02  0.18804166801E+03  0.91187600000E+02 0.  0.
<mgrwt>
<rscale>  0 0.23676713E+04</rscale>
<asrwt>0</asrwt>
<pdfrwt beam="1">  1        2 0.52359774E+00 0.38125283E+04</pdfrwt>
<pdfrwt beam="2">  1       -2 0.27068773E+00 0.38125283E+04</pdfrwt>
<totfact> 0.35138798E-02</totfact>
</mgrwt>
</event>
<event>
12    1  0.4494735E-015  0.2487340E+04  0.7818608E-02  0.9117185E-01
         -2   -1    0    0    0  501 -0.00000000000E+00  0.00000000000E+00  0.14731113053E+04  0.14731113053E+04  0.00000000000E+00 0.  1.
          2   -1    0    0  501    0  0.00000000000E+00 -0.00000000000E+00 -0.15420614945E+04  0.15420614945E+04  0.00000000000E+00 0. -1.
        -24    2    1    2    0    0 -0.67481685212E+02  0.82239102248E+02  0.45442947735E+03  0.47336492874E+03  0.79064265603E+02 0.  0.
    9900016    2    1    2    0    0 -0.68218763450E+02  0.10663806734E+02 -0.82900509634E+03  0.19805060811E+04  0.17973278418E+04 0.  0.
         24    2    4    4    0    0  0.25874880959E+03 -0.83890882929E+03 -0.32151775733E+03  0.93828496394E+03  0.79284519068E+02 0.  0.
        -15    1    1    2    0    0  0.15128260195E+03 -0.88857254122E+02  0.39524608194E+03  0.43243670353E+03  0.00000000000E+00 0.  1.
        -15    1    5    5    0    0  0.40995346681E+02 -0.21798743701E+03 -0.56253801937E+02  0.22883101052E+03  0.00000000000E+00 0.  1.
         15    1    3    3    0    0 -0.72591146808E+02  0.27732291143E+02  0.25790477275E+03  0.26935743237E+03  0.00000000000E+00 0. -1.
         15    1    4    4    0    0 -0.32696757304E+03  0.84957263602E+03 -0.50748733901E+03  0.10422211171E+04  0.00000000000E+00 0. -1.
        -16    1    3    3    0    0  0.51094615961E+01  0.54506811105E+02  0.19652470461E+03  0.20400749637E+03  0.00000000000E+00 0.  1.
         16    1    5    5    0    0  0.21775346291E+03 -0.62092139228E+03 -0.26526395539E+03  0.70945395342E+03  0.00000000000E+00 0. -1.
    9900018    1    1    2    0    0 -0.15582153293E+02 -0.40456548605E+01 -0.89620652142E+02  0.12886508646E+03  0.91187600000E+02 0.  0.
<mgrwt>
<rscale>  0 0.11950672E+04</rscale>
<asrwt>0</asrwt>
<pdfrwt beam="1">  1        2 0.23724023E+00 0.24873401E+04</pdfrwt>
<pdfrwt beam="2">  1       -2 0.22663251E+00 0.24873401E+04</pdfrwt>
<totfact> 0.94663249E-01</totfact>
</mgrwt>
</event>
<event>
12    1  0.4494735E-015  0.2391858E+04  0.7818608E-02  0.8932044E-01
          2   -1    0    0  501    0  0.00000000000E+00  0.00000000000E+00  0.12799536088E+04  0.12799536088E+04  0.00000000000E+00 0. -1.
         -2   -1    0    0    0  501 -0.00000000000E+00 -0.00000000000E+00 -0.14218206452E+04  0.14218206452E+04  0.00000000000E+00 0.  1.
         24    2    1    2    0    0 -0.12601886137E+03  0.26707091432E+03 -0.60160629408E+01  0.30606119144E+03  0.80184993586E+02 0.  0.
    9900016    2    1    2    0    0  0.21043438227E+03 -0.11985401222E+03 -0.43855585949E+03  0.18579779613E+04  0.17891627229E+04 0.  0.
        -24    2    4    4    0    0  0.47347501712E+03 -0.78711719515E+03  0.14511829110E+03  0.93325852005E+03  0.78613460078E+02 0.  0.
        -15    1    4    4    0    0 -0.26304063485E+03  0.66726318293E+03 -0.58367415059E+03  0.92471944121E+03  0.00000000000E+00 0.  1.
        -15    1    3    3    0    0 -0.73097660207E+02  0.22583290707E+03  0.80769910791E+01  0.23750580547E+03  0.00000000000E+00 0.  1.
         15    1    5    5    0    0  0.39441856668E+03 -0.59363317442E+03  0.11986006299E+03  0.72272594129E+03  0.00000000000E+00 0. -1.
         15    1    1    2    0    0 -0.62484127162E+02 -0.16420589833E+03  0.37762833306E+03  0.41649850074E+03  0.00000000000E+00 0. -1.
        -16    1    5    5    0    0  0.79056450439E+02 -0.19348402073E+03  0.25258228113E+02  0.21053257876E+03  0.00000000000E+00 0.  1.
         16    1    3    3    0    0 -0.52921201167E+02  0.41238007241E+02 -0.14093054020E+02  0.68555385972E+02  0.00000000000E+00 0. -1.
    9900018    1    1    2    0    0 -0.21931393729E+02  0.16988996234E+02 -0.74923446961E+02  0.12123660059E+03  0.91187600000E+02 0.  0.
<mgrwt>
<rscale>  0 0.14304829E+04</rscale>
<asrwt>0</asrwt>
<pdfrwt beam="1">  1        2 0.19691594E+00 0.23918582E+04</pdfrwt>
<pdfrwt beam="2">  1       -2 0.21874164E+00 0.23918582E+04</pdfrwt>
<totfact> 0.15226396E+00</totfact>
</mgrwt>
</event>
<event>
12    1  0.4494735E-015  0.3575050E+04  0.7818608E-02  0.8435857E-01
         -2   -1    0    0    0  501 -0.00000000000E+00  0.00000000000E+00  0.17336371657E+04  0.17336371657E+04  0.00000000000E+00 0.  1.
          2   -1    0    0  501    0  0.00000000000E+00 -0.00000000000E+00 -0.27508744993E+04  0.27508744993E+04  0.00000000000E+00 0. -1.
        -24    2    1    2    0    0 -0.60358371561E+03  0.41718348447E+03 -0.45102032175E+03  0.86490019985E+03  0.79231708339E+02 0.  0.
    9900016    2    1    2    0    0 -0.11881121016E+03  0.88881797601E+02  0.71224912458E+03  0.19438739056E+04  0.18025900444E+04 0.  0.
         24    2    4    4    0    0  0.57655337328E+03 -0.59187944733E+03  0.40445117165E+03  0.92323324590E+03  0.77741904153E+02 0.  0.
        -15    1    1    2    0    0  0.69412761330E+03 -0.49998096267E+03 -0.13187754697E+04  0.15719296568E+04  0.00000000000E+00 0.  1.
        -15    1    5    5    0    0  0.54502174169E+03 -0.55967131597E+03  0.40077601865E+03  0.87801030630E+03  0.00000000000E+00 0.  1.
         15    1    4    4    0    0 -0.69536458344E+03  0.68076124494E+03  0.30779795292E+03  0.10206406597E+04  0.00000000000E+00 0. -1.
         15    1    3    3    0    0 -0.40583433243E+03  0.26047875207E+03 -0.25577703017E+03  0.54586864246E+03  0.00000000000E+00 0. -1.
        -16    1    3    3    0    0 -0.19774938318E+03  0.15670473240E+03 -0.19524329157E+03  0.31903155739E+03  0.00000000000E+00 0.  1.
         16    1    5    5    0    0  0.31531631590E+02 -0.32208131366E+02  0.36751530027E+01  0.45222939603E+02  0.00000000000E+00 0. -1.
    9900018    1    1    2    0    0  0.28267312471E+02 -0.60843194099E+01  0.40309333281E+02  0.10380790259E+03  0.91187600000E+02 0.  0.
<mgrwt>
<rscale>  0 0.24097649E+04</rscale>
<asrwt>0</asrwt>
<pdfrwt beam="1">  1        2 0.42321146E+00 0.35750504E+04</pdfrwt>
<pdfrwt beam="2">  1       -2 0.26671341E+00 0.35750504E+04</pdfrwt>
<totfact> 0.99860944E-02</totfact>
</mgrwt>
</event>
<event>
12    1  0.4494735E-015  0.3793793E+04  0.7818608E-02  0.8422295E-01
         -2   -1    0    0    0  501 -0.00000000000E+00  0.00000000000E+00  0.11212641608E+04  0.11212641608E+04  0.00000000000E+00 0.  1.
          2   -1    0    0  501    0  0.00000000000E+00 -0.00000000000E+00 -0.49097818709E+04  0.49097818709E+04  0.00000000000E+00 0. -1.
        -24    2    1    2    0    0 -0.17560209504E+02 -0.65087728225E+03  0.18637039784E+02  0.65635601657E+03  0.80661538079E+02 0.  0.
    9900016    2    1    2    0    0  0.71316514262E+02 -0.65359128925E+03 -0.33653816131E+04  0.38704617867E+04  0.17951081922E+04 0.  0.
         24    2    4    4    0    0 -0.85395756044E+03 -0.42258417429E+03 -0.17700803231E+04  0.20118379392E+04  0.80539704790E+02 0.  0.
        -15    1    1    2    0    0 -0.80487225239E+02  0.13090957847E+04 -0.32062453410E+03  0.13501888974E+04  0.00000000000E+00 0.  1.
        -15    1    5    5    0    0 -0.42460366753E+03 -0.19363224451E+03 -0.78786599797E+03  0.91570440174E+03  0.00000000000E+00 0.  1.
         15    1    3    3    0    0 -0.40581297576E+02 -0.34397437717E+03  0.35209885703E+02  0.34814501277E+03  0.00000000000E+00 0. -1.
         15    1    4    4    0    0  0.92527407470E+03 -0.23100711496E+03 -0.15953012900E+04  0.18586238475E+04  0.00000000000E+00 0. -1.
        -16    1    3    3    0    0  0.23021088072E+02 -0.30690290508E+03 -0.16572845919E+02  0.30821100380E+03  0.00000000000E+00 0.  1.
         16    1    5    5    0    0 -0.42935389291E+03 -0.22895192979E+03 -0.98221432509E+03  0.10961335374E+04  0.00000000000E+00 0. -1.
    9900018    1    1    2    0    0  0.26730920481E+02 -0.46272131542E+01 -0.12114860268E+03  0.15403933113E+03  0.91187600000E+02 0.  0.
<mgrwt>
<rscale>  0 0.24465061E+04</rscale>
<asrwt>0</asrwt>
<pdfrwt beam="1">  1        2 0.75535105E+00 0.37937930E+04</pdfrwt>
<pdfrwt beam="2">  1       -2 0.17250218E+00 0.37937930E+04</pdfrwt>
<totfact> 0.70252513E-03</totfact>
</mgrwt>
</event>
<event>
12    1  0.4494735E-015  0.3438417E+04  0.7818608E-02  0.8579415E-01
          2   -1    0    0  501    0  0.00000000000E+00  0.00000000000E+00  0.26065740373E+04  0.26065740373E+04  0.00000000000E+00 0. -1.
         -2   -1    0    0    0  501 -0.00000000000E+00 -0.00000000000E+00 -0.16909978880E+04  0.16909978880E+04  0.00000000000E+00 0.  1.
        -24    2    1    2    0    0  0.38004253713E+03  0.21095280154E+03 -0.41896161135E+03  0.60925206147E+03  0.82011146238E+02 0.  0.
    9900016    2    1    2    0    0 -0.40537029329E+03  0.48450080122E+03  0.17793838958E+04  0.26113274818E+04  0.18038176369E+04 0.  0.
         24    2    4    4    0    0 -0.71358586828E+02  0.12069009481E+03 -0.37148249501E+03  0.40448623662E+03  0.77147421334E+02 0.  0.
        -15    1    1    2    0    0  0.90800762875E+02 -0.71492385757E+03 -0.56175753776E+03  0.91374637176E+03  0.00000000000E+00 0.  1.
        -15    1    5    5    0    0 -0.61812449255E+02  0.36282079136E+02 -0.12927638434E+03  0.14781593857E+03  0.00000000000E+00 0.  1.
         15    1    4    4    0    0 -0.33401170646E+03  0.36381070641E+03  0.21508663908E+04  0.22068412452E+04  0.00000000000E+00 0. -1.
         15    1    3    3    0    0  0.14268708015E+03  0.42898101469E+02 -0.17339718714E+03  0.22861853482E+03  0.00000000000E+00 0. -1.
        -16    1    3    3    0    0  0.23735545698E+03  0.16805470007E+03 -0.24556442421E+03  0.38063352665E+03  0.00000000000E+00 0.  1.
         16    1    5    5    0    0 -0.95461375728E+01  0.84408015673E+02 -0.24220611067E+03  0.25667029804E+03  0.00000000000E+00 0. -1.
    9900018    1    1    2    0    0 -0.65473006714E+02  0.19470254812E+02  0.11691140260E+03  0.16324601031E+03  0.91187600000E+02 0.  0.
<mgrwt>
<rscale>  0 0.20592376E+04</rscale>
<asrwt>0</asrwt>
<pdfrwt beam="1">  1        2 0.40101139E+00 0.34384171E+04</pdfrwt>
<pdfrwt beam="2">  1       -2 0.26015352E+00 0.34384171E+04</pdfrwt>
<totfact> 0.13509891E-01</totfact>
</mgrwt>
</event>
<event>
12    1  0.4494735E-015  0.4755513E+04  0.7818608E-02  0.8238419E-01
         -2   -1    0    0    0  501 -0.00000000000E+00  0.00000000000E+00  0.36449161700E+04  0.36449161700E+04  0.00000000000E+00 0.  1.
          2   -1    0    0  501    0  0.00000000000E+00 -0.00000000000E+00 -0.25171558449E+04  0.25171558449E+04  0.00000000000E+00 0. -1.
         24    2    1    2    0    0  0.65330767450E+03 -0.40389836583E+03  0.11754174845E+04  0.14063201090E+04  0.78645907468E+02 0.  0.
    9900016    2    1    2    0    0 -0.17745504107E+04 -0.95626365359E+03 -0.74962128027E+03  0.28583906806E+04  0.18828159452E+04 0.  0.
        -24    2    4    4    0    0 -0.54055601626E+03 -0.10944435515E+04  0.20394464773E+03  0.12401722858E+04  0.80164735810E+02 0.  0.
        -15    1    3    3    0    0  0.54079815366E+03 -0.36285024321E+03  0.96468617429E+03  0.11639340002E+04  0.00000000000E+00 0.  1.
        -15    1    4    4    0    0 -0.11182644264E+04  0.21154609695E+03 -0.87639415045E+03  0.14364309191E+04  0.00000000000E+00 0.  1.
         15    1    5    5    0    0 -0.12729681964E+03 -0.34041682125E+03  0.60151904606E+02  0.36838341997E+03  0.00000000000E+00 0. -1.
         15    1    1    2    0    0  0.11212427362E+04  0.13601620194E+04  0.70196412093E+03  0.18973612254E+04  0.00000000000E+00 0. -1.
        -16    1    5    5    0    0 -0.41325919662E+03 -0.75402673027E+03  0.14379274313E+03  0.87178886580E+03  0.00000000000E+00 0.  1.
         16    1    3    3    0    0  0.11250952084E+03 -0.41048122614E+02  0.21073131017E+03  0.24238610880E+03  0.00000000000E+00 0. -1.
    9900018    1    4    4    0    0 -0.11572996811E+03 -0.73366199007E+02 -0.77171777554E+02  0.18178747569E+03  0.91187600000E+02 0.  0.
<mgrwt>
<rscale>  0 0.30186705E+04</rscale>
<asrwt>0</asrwt>
<pdfrwt beam="1">  1        2 0.38725474E+00 0.47555131E+04</pdfrwt>
<pdfrwt beam="2">  1       -2 0.56075634E+00 0.47555131E+04</pdfrwt>
<totfact> 0.18398815E-03</totfact>
</mgrwt>
</event>
