<event>
12    1  0.7834792E-014  0.2139010E+04  0.7818608E-02  0.8544251E-01
          2   -1    0    0  501    0  0.00000000000E+00  0.00000000000E+00  0.13433349351E+04  0.13433349351E+04  0.00000000000E+00 0. -1.
         -2   -1    0    0    0  501 -0.00000000000E+00 -0.00000000000E+00 -0.85149384423E+03  0.85149384423E+03  0.00000000000E+00 0.  1.
    9900016    2    1    2    0    0  0.37669483300E+03 -0.53034678093E+03  0.50233985820E+03  0.11316189581E+04  0.77784923216E+03 0.  0.
         23    2    3    3    0    0 -0.27585304304E+02 -0.40706035282E+02 -0.45324588932E+02  0.10173099226E+03  0.76661242508E+02 0.  0.
         23    2    3    3    0    0 -0.21604806109E+02 -0.22135733615E+03 -0.57919800793E+02  0.24243240890E+03  0.77155243809E+02 0.  0.
        -15    1    4    4    0    0 -0.37534746481E+02 -0.38894135377E+02  0.12547034966E+01  0.54066489076E+02  0.00000000000E+00 0.  1.
        -15    1    5    5    0    0 -0.49619868779E+02 -0.15616763454E+03 -0.48282548923E+02  0.17082642064E+03  0.00000000000E+00 0.  1.
         15    1    4    4    0    0  0.99494421765E+01 -0.18118999045E+01 -0.46579292428E+02  0.47664503186E+02  0.00000000000E+00 0. -1.
         15    1    5    5    0    0  0.28015062669E+02 -0.65189701601E+02 -0.96372518700E+01  0.71605988261E+02  0.00000000000E+00 0. -1.
        -16    1    1    2    0    0 -0.56165688611E+03  0.38536837571E+03 -0.24010884848E+03  0.72223230462E+03  0.00000000000E+00 0.  1.
         16    1    3    3    0    0  0.42588494342E+03 -0.26828340950E+03  0.60558424792E+03  0.78745555695E+03  0.00000000000E+00 0. -1.
    9900018    1    1    2    0    0  0.18496205311E+03  0.14497840521E+03  0.22961008112E+03  0.34097751658E+03  0.91187600000E+02 0.  0.
<mgrwt>
<rscale>  0 0.21390105E+04</rscale>
<asrwt>0</asrwt>
<pdfrwt beam="1">  1        2 0.20666691E+00 0.21390105E+04</pdfrwt>
<pdfrwt beam="2">  1       -2 0.13099905E+00 0.21390105E+04</pdfrwt>
<totfact> 0.61050278E+00</totfact>
</mgrwt>
</event>
<event>
12    1  0.7539592E-014  0.1028695E+04  0.7818608E-02  0.9277621E-01
         -1   -1    0    0    0  501 -0.00000000000E+00  0.00000000000E+00  0.14750640100E+03  0.14750640100E+03  0.00000000000E+00 0.  1.
          1   -1    0    0  501    0  0.00000000000E+00 -0.00000000000E+00 -0.17935045516E+04  0.17935045516E+04  0.00000000000E+00 0. -1.
    9900016    2    1    2    0    0  0.77393438572E+02  0.17384165645E+03 -0.11657950602E+04  0.14244785975E+04  0.79614727687E+03 0.  0.
         23    2    3    3    0    0  0.90927152248E+02 -0.44123983132E+02 -0.11295931042E+03  0.18556844053E+03  0.10705684194E+03 0.  0.
         23    2    3    3    0    0 -0.77556813909E+02  0.15015684606E+03 -0.85505080453E+02  0.21627391706E+03  0.10440857540E+03 0.  0.
        -15    1    4    4    0    0 -0.12168113085E+02 -0.11738170041E+02 -0.65317391402E+02  0.67470061742E+02  0.00000000000E+00 0. -1.
        -15    1    5    5    0    0  0.18834603989E+02  0.60081057579E+02 -0.85498321079E+01  0.63541918576E+02  0.00000000000E+00 0.  1.
         15    1    4    4    0    0  0.10309526533E+03 -0.32385813091E+02 -0.47641919017E+02  0.11809837878E+03  0.00000000000E+00 0.  1.
         15    1    5    5    0    0 -0.96391417898E+02  0.90075788477E+02 -0.76955248346E+02  0.15273199849E+03  0.00000000000E+00 0. -1.
        -16    1    3    3    0    0  0.33871262143E+02 -0.11342210500E+03 -0.46986338001E+03  0.48454456160E+03  0.00000000000E+00 0.  1.
         16    1    1    2    0    0 -0.77393438572E+02 -0.17384165645E+03 -0.48020309038E+03  0.51653235510E+03  0.00000000000E+00 0. -1.
    9900018    1    3    3    0    0  0.30151838090E+02  0.18123089853E+03 -0.49746728931E+03  0.53809167829E+03  0.91187600000E+02 0.  0.
<mgrwt>
<rscale>  0 0.10286951E+04</rscale>
<asrwt>0</asrwt>
<pdfrwt beam="1">  1        1 0.27592377E+00 0.10286951E+04</pdfrwt>
<pdfrwt beam="2">  1       -1 0.22693293E-01 0.10286951E+04</pdfrwt>
<totfact> 0.68215628E+01</totfact>
</mgrwt>
</event>
<event>
12    1  0.7539592E-014  0.1381347E+04  0.7818608E-02  0.8967432E-01
         -1   -1    0    0    0  501 -0.00000000000E+00  0.00000000000E+00  0.71099091764E+03  0.71099091764E+03  0.00000000000E+00 0.  1.
          1   -1    0    0  501    0  0.00000000000E+00 -0.00000000000E+00 -0.67093675627E+03  0.67093675627E+03  0.00000000000E+00 0. -1.
    9900016    2    1    2    0    0  0.25762675545E+03 -0.15612903042E+03  0.23228747687E+03  0.87247933921E+03  0.78518463190E+03 0.  0.
         23    2    3    3    0    0 -0.24895143173E+02  0.25220467526E+02  0.80268769389E+02  0.14847826052E+03  0.11977845537E+03 0.  0.
         23    2    3    3    0    0  0.14694597672E+02  0.19442085070E+03  0.13149208896E+03  0.26209615327E+03  0.11571009338E+03 0.  0.
        -15    1    5    5    0    0  0.17604131158E+02  0.30552961553E+02  0.84556239786E+02  0.91614117800E+02  0.00000000000E+00 0.  1.
        -15    1    4    4    0    0 -0.40991385493E+01 -0.27786182763E+02 -0.19090048943E+02  0.33960342430E+02  0.00000000000E+00 0. -1.
         15    1    5    5    0    0 -0.29095334864E+01  0.16386788915E+03  0.46935849171E+02  0.17048203547E+03  0.00000000000E+00 0. -1.
         15    1    4    4    0    0 -0.20796004624E+02  0.53006650289E+02  0.99358818331E+02  0.11451791809E+03  0.00000000000E+00 0.  1.
        -16    1    3    3    0    0  0.26782730095E+03 -0.37577034865E+03  0.20526618528E+02  0.46190492542E+03  0.00000000000E+00 0.  1.
         16    1    1    2    0    0 -0.27887097061E+03 -0.10043672193E+02 -0.91010537315E+02  0.29351799179E+03  0.00000000000E+00 0. -1.
    9900018    1    1    2    0    0  0.21244215159E+02  0.16617270261E+03 -0.10122277819E+03  0.21593034291E+03  0.91187600000E+02 0.  0.
<mgrwt>
<rscale>  0 0.13813471E+04</rscale>
<asrwt>0</asrwt>
<pdfrwt beam="1">  1        1 0.10322104E+00 0.13813471E+04</pdfrwt>
<pdfrwt beam="2">  1       -1 0.10938322E+00 0.13813471E+04</pdfrwt>
<totfact> 0.21947060E+01</totfact>
</mgrwt>
</event>
<event>
12    1  0.7539592E-014  0.1977097E+04  0.7818608E-02  0.8617404E-01
          2   -1    0    0  501    0  0.00000000000E+00  0.00000000000E+00  0.13359639701E+04  0.13359639701E+04  0.00000000000E+00 0. -1.
         -2   -1    0    0    0  501 -0.00000000000E+00 -0.00000000000E+00 -0.73147815216E+03  0.73147815216E+03  0.00000000000E+00 0.  1.
    9900016    2    1    2    0    0  0.76291580000E+03  0.19320586289E+03  0.57585606608E+03  0.12799215282E+04  0.82898726538E+03 0.  0.
         23    2    3    3    0    0  0.16324261635E+02  0.89295888730E+02  0.10771752811E+03  0.15825198572E+03  0.72113714796E+02 0.  0.
         23    2    3    3    0    0  0.12610211024E+03  0.83418144156E+02  0.42624474899E+02  0.17266718309E+03  0.71671342056E+02 0.  0.
        -15    1    4    4    0    0 -0.14087322308E+02 -0.46268857420E+01  0.26698566900E+02  0.30539715061E+02  0.00000000000E+00 0.  1.
        -15    1    5    5    0    0  0.12598376615E+03  0.53673210222E+02  0.40695490877E+02  0.14285953173E+03  0.00000000000E+00 0.  1.
         15    1    4    4    0    0  0.30411583943E+02  0.93922774472E+02  0.81018961206E+02  0.12771227066E+03  0.00000000000E+00 0. -1.
         15    1    5    5    0    0  0.11834409646E+00  0.29744933934E+02  0.19289840218E+01  0.29807651357E+02  0.00000000000E+00 0. -1.
        -16    1    1    2    0    0 -0.76291580000E+03 -0.19320586289E+03  0.28629751834E+02  0.78752059404E+03  0.00000000000E+00 0.  1.
         16    1    3    3    0    0  0.53875077953E+03 -0.19376867134E+03  0.17822045024E+03  0.59963424629E+03  0.00000000000E+00 0. -1.
    9900018    1    3    3    0    0  0.81738648592E+02  0.21426050135E+03  0.24729361284E+03  0.34936811311E+03  0.91187600000E+02 0.  0.
<mgrwt>
<rscale>  0 0.19770973E+04</rscale>
<asrwt>0</asrwt>
<pdfrwt beam="1">  1        2 0.20553292E+00 0.19770973E+04</pdfrwt>
<pdfrwt beam="2">  1       -2 0.11253510E+00 0.19770973E+04</pdfrwt>
<totfact> 0.91170631E+00</totfact>
</mgrwt>
</event>
<event>
12    1  0.7539592E-014  0.1240209E+04  0.7818608E-02  0.9078372E-01
          2   -1    0    0  501    0  0.00000000000E+00  0.00000000000E+00  0.60647872498E+03  0.60647872498E+03  0.00000000000E+00 0. -1.
         -2   -1    0    0    0  501 -0.00000000000E+00 -0.00000000000E+00 -0.63403621163E+03  0.63403621163E+03  0.00000000000E+00 0.  1.
    9900016    2    1    2    0    0  0.73177865068E+00  0.17138233546E+03 -0.12528662642E+03  0.81185764580E+03  0.78360937838E+03 0.  0.
         23    2    3    3    0    0  0.84545167175E+01  0.49085522126E+02  0.77281154860E+02  0.14405069241E+03  0.11089345225E+03 0.  0.
         23    2    3    3    0    0  0.98904040179E+02 -0.22607812352E+03 -0.67756087216E+02  0.27933744452E+03  0.11200532781E+03 0.  0.
        -15    1    4    4    0    0 -0.25694137591E+02  0.65496466270E+02  0.16237987797E+02  0.72205595685E+02  0.00000000000E+00 0.  1.
        -15    1    5    5    0    0  0.57851707710E+01 -0.85181303263E+02  0.21880379382E+02  0.88136675841E+02  0.00000000000E+00 0.  1.
         15    1    5    5    0    0  0.93118869408E+02 -0.14089682026E+03 -0.89636466598E+02  0.19120076868E+03  0.00000000000E+00 0. -1.
         15    1    4    4    0    0  0.34148654309E+02 -0.16410944144E+02  0.61043167063E+02  0.71845096728E+02  0.00000000000E+00 0. -1.
        -16    1    1    2    0    0 -0.22296334690E+02  0.55981974717E+02 -0.97533871842E+02  0.11464712901E+03  0.00000000000E+00 0.  1.
         16    1    3    3    0    0 -0.10662677825E+03  0.34837493685E+03 -0.13481169406E+03  0.38846950887E+03  0.00000000000E+00 0. -1.
    9900018    1    1    2    0    0  0.21564556040E+02 -0.22736431018E+03  0.19526301160E+03  0.31401016180E+03  0.91187600000E+02 0.  0.
<mgrwt>
<rscale>  0 0.12402088E+04</rscale>
<asrwt>0</asrwt>
<pdfrwt beam="1">  1        2 0.93304420E-01 0.12402088E+04</pdfrwt>
<pdfrwt beam="2">  1       -2 0.97544032E-01 0.12402088E+04</pdfrwt>
<totfact> 0.42214436E+01</totfact>
</mgrwt>
</event>
<event>
11    1  0.7539592E-014  0.2132396E+04  0.7818608E-02  0.8547105E-01
          2   -1    0    0  501    0  0.00000000000E+00  0.00000000000E+00  0.18409671655E+04  0.18409671655E+04  0.00000000000E+00 0. -1.
         -2   -1    0    0    0  501 -0.00000000000E+00 -0.00000000000E+00 -0.61748980319E+03  0.61748980319E+03  0.00000000000E+00 0.  1.
         23    2    1    2    0    0  0.83087841822E+02 -0.10491699461E+03  0.45735754061E+03  0.48150975858E+03  0.69025809946E+02 0.  0.
    9900016    2    1    2    0    0 -0.29507163621E+03  0.37502315596E+03  0.41155895171E+03  0.86550957172E+03  0.59330970833E+03 0.  0.
        -15    1    4    4    0    0 -0.20471606136E+01  0.52128804414E+02  0.55773587446E+02  0.76369471471E+02  0.00000000000E+00 0. -1.
        -15    1    3    3    0    0 -0.39201174061E+00 -0.50781624210E+02  0.16934747157E+03  0.17679788788E+03  0.00000000000E+00 0. -1.
         15    1    4    4    0    0 -0.35404048431E+03  0.22448026498E+03  0.46771833710E+03  0.62808956109E+03  0.00000000000E+00 0.  1.
         15    1    3    3    0    0  0.83479853563E+02 -0.54135370399E+02  0.28801006904E+03  0.30471187070E+03  0.00000000000E+00 0.  1.
        -16    1    1    2    0    0  0.19719153701E+02  0.99128838980E-02 -0.33780635298E+03  0.33838140794E+03  0.00000000000E+00 0.  1.
         16    1    4    4    0    0  0.61016008716E+02  0.98414086561E+02 -0.11193297284E+03  0.16105053915E+03  0.00000000000E+00 0. -1.
    9900018    1    1    2    0    0  0.19226464068E+03 -0.27011607423E+03  0.69236722296E+03  0.77305623045E+03  0.91187600000E+02 0.  0.
<mgrwt>
<rscale>  0 0.21323963E+04</rscale>
<asrwt>0</asrwt>
<pdfrwt beam="1">  1        2 0.28322572E+00 0.21323963E+04</pdfrwt>
<pdfrwt beam="2">  1       -2 0.94998432E-01 0.21323963E+04</pdfrwt>
<totfact> 0.70146001E+00</totfact>
</mgrwt>
</event>
<event>
12    1  0.7539592E-014  0.2025521E+04  0.7818608E-02  0.8594781E-01
          2   -1    0    0  501    0  0.00000000000E+00  0.00000000000E+00  0.31449320552E+04  0.31449320552E+04  0.00000000000E+00 0.  1.
         -2   -1    0    0    0  501 -0.00000000000E+00 -0.00000000000E+00 -0.32613851289E+03  0.32613851289E+03  0.00000000000E+00 0. -1.
    9900016    2    1    2    0    0 -0.12947765648E+02 -0.39897577770E+01  0.87323828946E+03  0.11778939560E+04  0.79038313401E+03 0.  0.
         23    2    3    3    0    0 -0.19617369696E+03 -0.41510235597E+02  0.30303872373E+03  0.37127852746E+03  0.76210614973E+02 0.  0.
         23    2    3    3    0    0 -0.11792193675E+03 -0.15062653394E+03  0.13224841511E+03  0.24279759729E+03  0.69764561598E+02 0.  0.
        -15    1    4    4    0    0 -0.17351019629E+03 -0.60451791936E+02  0.24598189060E+03  0.30702979964E+03  0.00000000000E+00 0.  1.
        -15    1    5    5    0    0 -0.51140503153E+02 -0.17307108362E+02  0.27647091799E+02  0.60656811221E+02  0.00000000000E+00 0.  1.
         15    1    4    4    0    0 -0.22663500661E+02  0.18941556339E+02  0.57056833134E+02  0.64248727816E+02  0.00000000000E+00 0. -1.
         15    1    5    5    0    0 -0.66781433600E+02 -0.13331942558E+03  0.10460132331E+03  0.18214078607E+03  0.00000000000E+00 0. -1.
        -16    1    1    2    0    0 -0.70423818464E+02 -0.40118266026E+02  0.20937135449E+04  0.20952816989E+04  0.00000000000E+00 0.  1.
         16    1    3    3    0    0  0.30114786806E+03  0.18814701176E+03  0.43795115062E+03  0.56381783122E+03  0.00000000000E+00 0. -1.
    9900018    1    1    2    0    0  0.83371584113E+02  0.44108023803E+02 -0.14815829205E+03  0.19789491327E+03  0.91187600000E+02 0.  0.
<mgrwt>
<rscale>  0 0.20255206E+04</rscale>
<asrwt>0</asrwt>
<pdfrwt beam="1">  1        2 0.48383568E+00 0.20255206E+04</pdfrwt>
<pdfrwt beam="2">  1       -2 0.50175158E-01 0.20255206E+04</pdfrwt>
<totfact> 0.49197137E+00</totfact>
</mgrwt>
</event>
<event>
12    1  0.7539592E-014  0.2220238E+04  0.7818608E-02  0.9067092E-01
         -2   -1    0    0    0  501 -0.00000000000E+00  0.00000000000E+00  0.42501069604E+03  0.42501069604E+03  0.00000000000E+00 0.  1.
          2   -1    0    0  501    0  0.00000000000E+00 -0.00000000000E+00 -0.38196222751E+04  0.38196222751E+04  0.00000000000E+00 0. -1.
         23    2    1    2    0    0  0.16421020278E+03 -0.11106742135E+03 -0.51688681166E+02  0.23158047246E+03  0.10796681287E+03 0.  0.
    9900016    2    1    2    0    0 -0.20394171126E+03  0.39298092930E+03 -0.15704106139E+04  0.18178329670E+04  0.80143681428E+03 0.  0.
         23    2    4    4    0    0  0.83215389131E+02  0.54173500309E+03 -0.12142797874E+04  0.13367756519E+04  0.10996420789E+03 0.  0.
        -15    1    3    3    0    0  0.15053887111E+03 -0.44061669874E+02 -0.28882361044E+02  0.15949160870E+03  0.00000000000E+00 0. -1.
        -15    1    5    5    0    0 -0.25726180884E+02  0.73024842566E+02 -0.15178265365E+03  0.17038907818E+03  0.00000000000E+00 0. -1.
         15    1    3    3    0    0  0.13671331675E+02 -0.67005751479E+02 -0.22806320121E+02  0.72088863762E+02  0.00000000000E+00 0.  1.
         15    1    5    5    0    0  0.10894157002E+03  0.46871016052E+03 -0.10624971337E+04  0.11663865738E+04  0.00000000000E+00 0.  1.
        -16    1    1    2    0    0 -0.29006964626E+03  0.11835399278E+03 -0.16156756684E+04  0.16457691007E+04  0.00000000000E+00 0.  1.
         16    1    4    4    0    0 -0.28715710039E+03 -0.14875407379E+03 -0.35613082649E+03  0.48105731504E+03  0.00000000000E+00 0. -1.
    9900018    1    1    2    0    0  0.32980115474E+03 -0.40026750073E+03 -0.15683661568E+03  0.54945043108E+03  0.91187600000E+02 0.  0.
<mgrwt>
<rscale>  0 0.12537212E+04</rscale>
<asrwt>0</asrwt>
<pdfrwt beam="1">  1        2 0.58763421E+00 0.22202380E+04</pdfrwt>
<pdfrwt beam="2">  1       -2 0.65386259E-01 0.22202380E+04</pdfrwt>
<totfact> 0.93179583E-01</totfact>
</mgrwt>
</event>
<event>
11    1  0.7539592E-014  0.1927288E+04  0.7818608E-02  0.9168174E-01
          2   -1    0    0  501    0  0.00000000000E+00  0.00000000000E+00  0.24983244152E+04  0.24983244152E+04  0.00000000000E+00 0. -1.
         -2   -1    0    0    0  501 -0.00000000000E+00 -0.00000000000E+00 -0.52938549485E+03  0.52938549485E+03  0.00000000000E+00 0.  1.
         23    2    1    2    0    0  0.14027361244E+03  0.57614919437E+03  0.54304402171E+03  0.81175537865E+03  0.11146929956E+03 0.  0.
         23    2    1    2    0    0  0.81365905019E+02  0.21023651997E+03  0.65309648797E+03  0.69406908465E+03  0.66159404823E+02 0.  0.
        -15    1    3    3    0    0  0.32237978809E+02  0.13759484960E+03  0.69982284245E+02  0.15769955619E+03  0.00000000000E+00 0. -1.
        -15    1    4    4    0    0  0.77171514308E+02  0.11372293138E+03  0.41297601133E+03  0.43524422302E+03  0.00000000000E+00 0. -1.
         15    1    4    4    0    0  0.41943907108E+01  0.96513588594E+02  0.24012047664E+03  0.25882486163E+03  0.00000000000E+00 0.  1.
         15    1    3    3    0    0  0.10803563363E+03  0.43855434476E+03  0.47306173746E+03  0.65405582246E+03  0.00000000000E+00 0.  1.
        -16    1    1    2    0    0 -0.20420205966E+03 -0.23625973882E+03  0.41267163884E+03  0.51750847999E+03  0.00000000000E+00 0.  1.
         16    1    1    2    0    0 -0.33778691729E+02 -0.72876783030E+03  0.23087899964E+03  0.76521151519E+03  0.00000000000E+00 0. -1.
    9900018    1    1    2    0    0  0.16341233939E+02  0.17864185479E+03  0.12924777219E+03  0.23916545156E+03  0.91187600000E+02 0.  0.
<mgrwt>
<rscale>  0 0.11388047E+04</rscale>
<asrwt>0</asrwt>
<pdfrwt beam="1">  1        2 0.38435760E+00 0.19272878E+04</pdfrwt>
<pdfrwt beam="2">  1       -2 0.81443924E-01 0.19272878E+04</pdfrwt>
<totfact> 0.42950318E+00</totfact>
</mgrwt>
</event>
