<event>
12    1  0.7386468E-013  0.9857147E+03  0.7818608E-02  0.9954597E-01
          1   -1    0    0  501    0  0.00000000000E+00  0.00000000000E+00  0.33236088420E+03  0.33236088420E+03  0.00000000000E+00 0. -1.
         -1   -1    0    0    0  501 -0.00000000000E+00 -0.00000000000E+00 -0.92932405465E+03  0.92932405465E+03  0.00000000000E+00 0.  1.
         23    2    1    2    0    0  0.63035734037E+02  0.14887613798E+02 -0.11999260766E+03  0.16663495826E+03  0.95780157711E+02 0.  0.
    9900016    2    1    2    0    0 -0.81287178520E+02  0.16504265396E+03 -0.61491577675E+03  0.86759251526E+03  0.58373682171E+03 0.  0.
         23    2    4    4    0    0  0.54493211009E+02  0.10196677880E+03 -0.28430360387E+03  0.32171797834E+03  0.96473749749E+02 0.  0.
        -15    1    5    5    0    0  0.39282481620E+02  0.12932705778E+02 -0.17550702211E+03  0.18031384598E+03  0.00000000000E+00 0. -1.
        -15    1    3    3    0    0  0.11627633903E+02 -0.25257877925E+02 -0.91185285181E+02  0.95330574849E+02  0.00000000000E+00 0. -1.
         15    1    5    5    0    0  0.15210729389E+02  0.89034073020E+02 -0.10879658175E+03  0.14140413236E+03  0.00000000000E+00 0.  1.
         15    1    3    3    0    0  0.51408100134E+02  0.40145491723E+02 -0.28807322474E+02  0.71304383408E+02  0.00000000000E+00 0.  1.
        -16    1    4    4    0    0  0.13163540383E+03 -0.27148659285E+01 -0.16755028794E+03  0.21309234859E+03  0.00000000000E+00 0.  1.
         16    1    1    2    0    0  0.18251444483E+02 -0.17993026775E+03  0.13794521396E+03  0.22745746533E+03  0.00000000000E+00 0. -1.
    9900018    1    4    4    0    0 -0.26741579336E+03  0.65790741088E+02 -0.16306188494E+03  0.33278218833E+03  0.91187600000E+02 0.  0.
<mgrwt>
<rscale>  0 0.57686705E+03</rscale>
<asrwt>0</asrwt>
<pdfrwt beam="1">  1        1 0.51132444E-01 0.98571474E+03</pdfrwt>
<pdfrwt beam="2">  1       -1 0.14297293E+00 0.98571474E+03</pdfrwt>
<totfact> 0.30528344E+01</totfact>
</mgrwt>
</event>
<event>
11    1  0.7386468E-013  0.8590925E+03  0.7818608E-02  0.9478214E-01
         -4   -1    0    0    0  501 -0.00000000000E+00  0.00000000000E+00  0.10181489427E+03  0.10181489427E+03  0.00000000000E+00 0. -1.
          4   -1    0    0  501    0  0.00000000000E+00 -0.00000000000E+00 -0.18122100676E+04  0.18122100676E+04  0.00000000000E+00 0.  1.
         23    2    1    2    0    0 -0.49411277539E+01  0.11306561562E+03 -0.51707403416E+03  0.53797945548E+03  0.96166987782E+02 0.  0.
         23    2    1    2    0    0 -0.97237864075E+02 -0.15143703029E+03 -0.69618007585E+03  0.72494647146E+03  0.92153741794E+02 0.  0.
        -15    1    3    3    0    0  0.19057175106E+02  0.40152773400E+02 -0.60909084519E+02  0.75401178450E+02  0.00000000000E+00 0. -1.
        -15    1    4    4    0    0 -0.18662244104E+02 -0.76342697278E+02 -0.43518559596E+03  0.44222504420E+03  0.00000000000E+00 0. -1.
         15    1    3    3    0    0 -0.23998302860E+02  0.72912842221E+02 -0.45616494964E+03  0.46257827703E+03  0.00000000000E+00 0.  1.
         15    1    4    4    0    0 -0.78575619970E+02 -0.75094333015E+02 -0.26099447989E+03  0.28272142727E+03  0.00000000000E+00 0.  1.
        -16    1    1    2    0    0  0.11102904345E+03  0.87448850276E+02 -0.16803523017E+03  0.21956909728E+03  0.00000000000E+00 0.  1.
         16    1    1    2    0    0  0.87920564224E+02  0.53829312232E+02 -0.77744032179E+02  0.12911915043E+03  0.00000000000E+00 0. -1.
    9900018    1    1    2    0    0 -0.96770615842E+02 -0.10290674784E+03 -0.25136180101E+03  0.30241078724E+03  0.91187600000E+02 0.  0.
<mgrwt>
<rscale>  0 0.85909249E+03</rscale>
<asrwt>0</asrwt>
<pdfrwt beam="1">  1        4 0.27880153E+00 0.85909249E+03</pdfrwt>
<pdfrwt beam="2">  1       -4 0.15663831E-01 0.85909249E+03</pdfrwt>
<totfact> 0.30709458E+00</totfact>
</mgrwt>
</event>
<event>
12    1  0.7386468E-013  0.1104382E+04  0.7818608E-02  0.9200932E-01
          2   -1    0    0  501    0  0.00000000000E+00  0.00000000000E+00  0.26298500078E+04  0.26298500078E+04  0.00000000000E+00 0. -1.
         -2   -1    0    0    0  501 -0.00000000000E+00 -0.00000000000E+00 -0.11594373843E+03  0.11594373843E+03  0.00000000000E+00 0.  1.
         23    2    1    2    0    0  0.11702478646E+03  0.32131754736E+03  0.95276353672E+03  0.10157322076E+04  0.83748395676E+02 0.  0.
    9900016    2    1    2    0    0 -0.12269362077E+03 -0.29718773291E+03  0.15431786925E+04  0.16994496068E+04  0.63510173683E+03 0.  0.
         23    2    4    4    0    0  0.44644714893E+02 -0.23245993197E+03  0.89790442502E+03  0.93207096043E+03  0.80580073617E+02 0.  0.
        -15    1    3    3    0    0  0.39853938606E+01  0.60955522278E+02  0.10226939981E+03  0.11912383976E+03  0.00000000000E+00 0.  1.
        -15    1    5    5    0    0  0.56020508018E+02 -0.15312557332E+03  0.69594105441E+03  0.71478646443E+03  0.00000000000E+00 0. -1.
         15    1    3    3    0    0  0.11303939260E+03  0.26036202508E+03  0.85049413691E+03  0.89660836785E+03  0.00000000000E+00 0. -1.
         15    1    5    5    0    0 -0.11375793125E+02 -0.79334358654E+02  0.20196337061E+03  0.21728449600E+03  0.00000000000E+00 0.  1.
        -16    1    4    4    0    0 -0.10220378519E+03  0.13559453768E+03  0.17368525292E+03  0.24289516141E+03  0.00000000000E+00 0.  1.
         16    1    1    2    0    0  0.56688343125E+01 -0.24129814448E+02  0.17964040189E+02  0.30611931786E+02  0.00000000000E+00 0. -1.
    9900018    1    4    4    0    0 -0.65134550469E+02 -0.20032233862E+03  0.47158901455E+03  0.52448348501E+03  0.91187600000E+02 0.  0.
<mgrwt>
<rscale>  0 0.11043815E+04</rscale>
<asrwt>0</asrwt>
<pdfrwt beam="1">  1        2 0.40459226E+00 0.11043815E+04</pdfrwt>
<pdfrwt beam="2">  1       -2 0.17837500E-01 0.11043815E+04</pdfrwt>
<totfact> 0.76544917E+01</totfact>
</mgrwt>
</event>
<event>
12    1  0.7386468E-013  0.1190783E+04  0.7818608E-02  0.9120962E-01
         -1   -1    0    0    0  501 -0.00000000000E+00  0.00000000000E+00  0.92869331526E+02  0.92869331526E+02  0.00000000000E+00 0.  1.
          1   -1    0    0  501    0  0.00000000000E+00 -0.00000000000E+00 -0.38170962849E+04  0.38170962849E+04  0.00000000000E+00 0. -1.
         23    2    1    2    0    0 -0.12386977574E+03 -0.10223958125E+03 -0.52431143747E+03  0.55572078835E+03  0.90146868125E+02 0.  0.
    9900016    2    1    2    0    0  0.82798633633E+02  0.12311697640E+03 -0.20912729201E+04  0.21856347724E+04  0.61770828736E+03 0.  0.
         23    2    4    4    0    0  0.19134955723E+03  0.17383260602E+03 -0.37049454941E+03  0.46069025758E+03  0.90204624686E+02 0.  0.
        -15    1    5    5    0    0  0.13553238573E+03  0.64914880586E+02 -0.22494163040E+03  0.27052117550E+03  0.00000000000E+00 0.  1.
        -15    1    3    3    0    0 -0.56171995688E+02 -0.27465836080E+01 -0.10061449125E+03  0.11526540102E+03  0.00000000000E+00 0.  1.
         15    1    3    3    0    0 -0.67697780050E+02 -0.99492997642E+02 -0.42369694621E+03  0.44045538734E+03  0.00000000000E+00 0. -1.
         15    1    5    5    0    0  0.55817171505E+02  0.10891772543E+03 -0.14555291900E+03  0.19016908208E+03  0.00000000000E+00 0. -1.
        -16    1    4    4    0    0 -0.10855092360E+03 -0.50715629617E+02 -0.17207783707E+04  0.17249445148E+04  0.00000000000E+00 0.  1.
         16    1    1    2    0    0 -0.14877495320E+03  0.30014005185E+02 -0.41295741216E+03  0.43996437522E+03  0.00000000000E+00 0. -1.
    9900018    1    1    2    0    0  0.18984609531E+03 -0.50891400337E+02 -0.69568518360E+03  0.72864568043E+03  0.91187600000E+02 0.  0.
<mgrwt>
<rscale>  0 0.11907832E+04</rscale>
<asrwt>0</asrwt>
<pdfrwt beam="1">  1        1 0.58724549E+00 0.11907832E+04</pdfrwt>
<pdfrwt beam="2">  1       -1 0.14287592E-01 0.11907832E+04</pdfrwt>
<totfact> 0.50133607E+00</totfact>
</mgrwt>
</event>
<event>
11    1  0.7386468E-013  0.8793006E+03  0.7818608E-02  0.9451833E-01
         -3   -1    0    0    0  501 -0.00000000000E+00  0.00000000000E+00  0.30652873818E+03  0.30652873818E+03  0.00000000000E+00 0.  1.
          3   -1    0    0  501    0  0.00000000000E+00 -0.00000000000E+00 -0.63058484893E+03  0.63058484893E+03  0.00000000000E+00 0. -1.
         23    2    1    2    0    0  0.18147965085E+03  0.11684568405E+03 -0.24759765976E+03  0.34090094819E+03  0.91219941948E+02 0.  0.
         23    2    1    2    0    0 -0.92602766218E+02  0.50817750942E+02 -0.22854120507E+03  0.26738940884E+03  0.90046084997E+02 0.  0.
        -15    1    3    3    0    0  0.12568895521E+03  0.28537804656E+02 -0.12114004404E+03  0.17688140102E+03  0.00000000000E+00 0. -1.
        -15    1    4    4    0    0 -0.24363912171E+02  0.27934880356E+02 -0.11629131448E+02  0.38848352025E+02  0.00000000000E+00 0.  1.
         15    1    4    4    0    0 -0.68238854047E+02  0.22882870586E+02 -0.21691207362E+03  0.22854105681E+03  0.00000000000E+00 0. -1.
         15    1    3    3    0    0  0.55790695639E+02  0.88307879395E+02 -0.12645761571E+03  0.16401954717E+03  0.00000000000E+00 0.  1.
        -16    1    1    2    0    0 -0.46206662566E+02 -0.84649700488E+02  0.10418283235E+03  0.14196721458E+03  0.00000000000E+00 0.  1.
         16    1    1    2    0    0 -0.15049291227E+02  0.64299995934E+01  0.53605169791E+02  0.56047660875E+02  0.00000000000E+00 0. -1.
    9900018    1    1    2    0    0 -0.27620930835E+02 -0.89443734098E+02 -0.57052480707E+01  0.13080835462E+03  0.91187600000E+02 0.  0.
<mgrwt>
<rscale>  0 0.87930058E+03</rscale>
<asrwt>0</asrwt>
<pdfrwt beam="1">  1        3 0.97013053E-01 0.87930058E+03</pdfrwt>
<pdfrwt beam="2">  1       -3 0.47158268E-01 0.87930058E+03</pdfrwt>
<totfact> 0.11036384E+01</totfact>
</mgrwt>
</event>
<event>
11    1  0.7386468E-013  0.8569716E+03  0.7818608E-02  0.1013531E+00
          1   -1    0    0  501    0  0.00000000000E+00  0.00000000000E+00  0.20763249649E+03  0.20763249649E+03  0.00000000000E+00 0. -1.
         -1   -1    0    0    0  501 -0.00000000000E+00 -0.00000000000E+00 -0.11040638907E+04  0.11040638907E+04  0.00000000000E+00 0.  1.
         23    2    1    2    0    0 -0.24299901782E+03  0.27300258600E+02 -0.39066052379E+03  0.47142843430E+03  0.99173066084E+02 0.  0.
         23    2    1    2    0    0 -0.39686049672E+02 -0.14374067842E+02 -0.80608954864E+02  0.12849458940E+03  0.90727391324E+02 0.  0.
        -15    1    4    4    0    0  0.26617270609E+02  0.10333746247E+02 -0.30576086779E+02  0.41834943395E+02  0.00000000000E+00 0. -1.
        -15    1    3    3    0    0 -0.20253719535E+02  0.15452377225E+02 -0.11006032345E+03  0.11297019038E+03  0.00000000000E+00 0. -1.
         15    1    4    4    0    0 -0.66303320281E+02 -0.24707814089E+02 -0.50032868086E+02  0.86659646008E+02  0.00000000000E+00 0.  1.
         15    1    3    3    0    0 -0.22274529828E+03  0.11847881375E+02 -0.28060020034E+03  0.35845824392E+03  0.00000000000E+00 0.  1.
        -16    1    1    2    0    0  0.21023531238E+03 -0.12084665058E+03 -0.20168545189E+03  0.31540421848E+03  0.00000000000E+00 0.  1.
         16    1    1    2    0    0 -0.58346084711E+02  0.14904363394E+03 -0.85046459933E+02  0.18124891935E+03  0.00000000000E+00 0. -1.
    9900018    1    1    2    0    0  0.13079583983E+03 -0.41123174114E+02 -0.13843000375E+03  0.21512022568E+03  0.91187600000E+02 0.  0.
<mgrwt>
<rscale>  0 0.50095145E+03</rscale>
<asrwt>0</asrwt>
<pdfrwt beam="1">  1        1 0.31943461E-01 0.85697155E+03</pdfrwt>
<pdfrwt beam="2">  1       -1 0.16985598E+00 0.85697155E+03</pdfrwt>
<totfact> 0.35404629E+01</totfact>
</mgrwt>
</event>
<event>
12    1  0.7386468E-013  0.8900884E+03  0.7818608E-02  0.9881313E-01
         -1   -1    0    0    0  501 -0.00000000000E+00  0.00000000000E+00  0.12473334711E+03  0.12473334711E+03  0.00000000000E+00 0.  1.
          1   -1    0    0  501    0  0.00000000000E+00 -0.00000000000E+00 -0.23786321664E+04  0.23786321664E+04  0.00000000000E+00 0. -1.
         23    2    1    2    0    0 -0.92092763327E+02  0.15336395442E+03 -0.37766455422E+03  0.42670658365E+03  0.86292603633E+02 0.  0.
    9900016    2    1    2    0    0 -0.46537016740E+01  0.66873336673E+02 -0.14416102777E+04  0.15799071274E+04  0.64294061801E+03 0.  0.
         23    2    4    4    0    0  0.18200583003E+03  0.57131364714E+02 -0.65130531211E+03  0.68424174895E+03  0.87166773630E+02 0.  0.
        -15    1    5    5    0    0  0.15824184175E+01 -0.12040241391E+02 -0.15313663527E+02  0.19544302275E+02  0.00000000000E+00 0.  1.
        -15    1    3    3    0    0 -0.53255884332E+02  0.10678944838E+03 -0.15318357307E+03  0.19417873869E+03  0.00000000000E+00 0.  1.
         15    1    3    3    0    0 -0.38836878995E+02  0.46574506042E+02 -0.22448098115E+03  0.23252784496E+03  0.00000000000E+00 0. -1.
         15    1    5    5    0    0  0.18042341161E+03  0.69171606105E+02 -0.63599164858E+03  0.66469744667E+03  0.00000000000E+00 0. -1.
        -16    1    4    4    0    0 -0.15820085481E+03  0.13192543312E+03 -0.66532177481E+03  0.69648036183E+03  0.00000000000E+00 0.  1.
         16    1    1    2    0    0  0.96746465001E+02 -0.22023729109E+03 -0.43462398737E+03  0.49675180249E+03  0.00000000000E+00 0. -1.
    9900018    1    4    4    0    0 -0.28458676890E+02 -0.12218346116E+03 -0.12498319080E+03  0.19918501662E+03  0.91187600000E+02 0.  0.
<mgrwt>
<rscale>  0 0.61175560E+03</rscale>
<asrwt>0</asrwt>
<pdfrwt beam="1">  1        1 0.36594339E+00 0.89008836E+03</pdfrwt>
<pdfrwt beam="2">  1       -1 0.19189747E-01 0.89008836E+03</pdfrwt>
<totfact> 0.36898335E+01</totfact>
</mgrwt>
</event>
<event>
12    1  0.7386468E-013  0.1050665E+04  0.7818608E-02  0.9254658E-01
         -2   -1    0    0    0  501 -0.00000000000E+00  0.00000000000E+00  0.61429462465E+03  0.61429462465E+03  0.00000000000E+00 0.  1.
          2   -1    0    0  501    0  0.00000000000E+00 -0.00000000000E+00 -0.44925382762E+03  0.44925382762E+03  0.00000000000E+00 0. -1.
         23    2    1    2    0    0  0.13931364916E+03 -0.13228433456E+03  0.17581517807E+02  0.21523767260E+03  0.95450028433E+02 0.  0.
    9900016    2    1    2    0    0 -0.20633762213E+03 -0.14961183267E+02  0.12396453039E+03  0.68483154952E+03  0.64095865320E+03 0.  0.
         23    2    4    4    0    0 -0.15012433597E+03 -0.12046565198E+03 -0.63931230236E+02  0.22261908997E+03  0.91775636534E+02 0.  0.
        -15    1    3    3    0    0  0.92781662613E+02 -0.13921572354E+03  0.17288063913E+02  0.16819135457E+03  0.00000000000E+00 0.  1.
        -15    1    5    5    0    0 -0.12942940667E+03 -0.57264319537E+02 -0.20053612113E+02  0.14294516768E+03  0.00000000000E+00 0.  1.
         15    1    5    5    0    0 -0.20694929301E+02 -0.63201332443E+02 -0.43877618123E+02  0.79673922293E+02  0.00000000000E+00 0. -1.
         15    1    3    3    0    0  0.46531986547E+02  0.69313889850E+01  0.29345389374E+00  0.47046318033E+02  0.00000000000E+00 0. -1.
        -16    1    4    4    0    0 -0.19262483872E+03  0.82289154021E+02  0.20810358665E+03  0.29526756703E+03  0.00000000000E+00 0.  1.
         16    1    1    2    0    0  0.67023972966E+02  0.14724551782E+03  0.23494748831E+02  0.16347923016E+03  0.00000000000E+00 0. -1.
    9900018    1    4    4    0    0  0.13641155257E+03  0.23215314691E+02 -0.20207826022E+02  0.16694489252E+03  0.91187600000E+02 0.  0.
<mgrwt>
<rscale>  0 0.10506650E+04</rscale>
<asrwt>0</asrwt>
<pdfrwt beam="1">  1        2 0.69115973E-01 0.10506650E+04</pdfrwt>
<pdfrwt beam="2">  1       -2 0.94506866E-01 0.10506650E+04</pdfrwt>
<totfact> 0.65480381E+01</totfact>
</mgrwt>
</event>
<event>
12    1  0.7386468E-013  0.7669589E+03  0.7818608E-02  0.9898431E-01
          1   -1    0    0  501    0  0.00000000000E+00  0.00000000000E+00  0.20750067555E+04  0.20750067555E+04  0.00000000000E+00 0. -1.
         -1   -1    0    0    0  501 -0.00000000000E+00 -0.00000000000E+00 -0.13750548830E+03  0.13750548830E+03  0.00000000000E+00 0.  1.
         23    2    1    2    0    0  0.27642489623E+03  0.53856748025E+02  0.42483987475E+03  0.51652565486E+03  0.83657398902E+02 0.  0.
    9900016    2    1    2    0    0 -0.17605293780E+03 -0.30033161500E+02  0.13060980222E+04  0.14650958805E+04  0.63930999349E+03 0.  0.
         23    2    4    4    0    0 -0.25209509588E+03 -0.15786628860E+03  0.72307752438E+03  0.78727053328E+03  0.92087370824E+02 0.  0.
        -15    1    3    3    0    0  0.89360852195E+01 -0.67915840222E+01  0.46814060829E+00  0.11233805598E+02  0.00000000000E+00 0.  1.
        -15    1    5    5    0    0 -0.16452329046E+03 -0.50476722574E+02  0.42683678648E+03  0.46022326638E+03  0.00000000000E+00 0.  1.
         15    1    3    3    0    0  0.26748881101E+03  0.60648332047E+02  0.42437173414E+03  0.50529184926E+03  0.00000000000E+00 0. -1.
         15    1    5    5    0    0 -0.87571805426E+02 -0.10738956602E+03  0.29624073790E+03  0.32704726690E+03  0.00000000000E+00 0. -1.
        -16    1    1    2    0    0 -0.10037195842E+03 -0.23823586524E+02  0.20656337027E+03  0.23089070845E+03  0.00000000000E+00 0.  1.
         16    1    4    4    0    0  0.12920484474E+03  0.86531561163E+02  0.53065001833E+03  0.55296568151E+03  0.00000000000E+00 0. -1.
    9900018    1    4    4    0    0 -0.53162686665E+02  0.41301565933E+02  0.52370479469E+02  0.12485966569E+03  0.91187600000E+02 0.  0.
<mgrwt>
<rscale>  0 0.60337404E+03</rscale>
<asrwt>0</asrwt>
<pdfrwt beam="1">  1        1 0.31923179E+00 0.76695894E+03</pdfrwt>
<pdfrwt beam="2">  1       -1 0.21154692E-01 0.76695894E+03</pdfrwt>
<totfact> 0.50918390E+01</totfact>
</mgrwt>
</event>
<event>
11    1  0.7386468E-013  0.1015134E+04  0.7818608E-02  0.9292100E-01
          1   -1    0    0  501    0  0.00000000000E+00  0.00000000000E+00  0.14220281895E+04  0.14220281895E+04  0.00000000000E+00 0. -1.
         -1   -1    0    0    0  501 -0.00000000000E+00 -0.00000000000E+00 -0.18116695163E+03  0.18116695163E+03  0.00000000000E+00 0.  1.
         23    2    1    2    0    0 -0.99583039325E+02 -0.18249799819E+03  0.21196990662E+03  0.31165315730E+03  0.94731980213E+02 0.  0.
         23    2    1    2    0    0  0.72899735688E+01 -0.85301592620E+02  0.49151765350E+03  0.50751448310E+03  0.93015275274E+02 0.  0.
        -15    1    4    4    0    0 -0.35674278716E+02 -0.73342966457E+02  0.33305059818E+03  0.34289144906E+03  0.00000000000E+00 0. -1.
        -15    1    3    3    0    0 -0.46648642540E+02 -0.64930967876E+02  0.14685818647E+03  0.16721080520E+03  0.00000000000E+00 0.  1.
         15    1    3    3    0    0 -0.52934396786E+02 -0.11756703031E+03  0.65111720149E+02  0.14444235210E+03  0.00000000000E+00 0. -1.
         15    1    4    4    0    0  0.42964252285E+02 -0.11958626163E+02  0.15846705532E+03  0.16462303404E+03  0.00000000000E+00 0.  1.
        -16    1    1    2    0    0  0.54127145043E+02 -0.10951507118E+03  0.58501489910E+02  0.13544638410E+03  0.00000000000E+00 0.  1.
         16    1    1    2    0    0  0.27881750972E+02  0.33033710150E+03  0.39501542849E+03  0.51569097472E+03  0.00000000000E+00 0. -1.
    9900018    1    1    2    0    0  0.10284169743E+02  0.46977560487E+02  0.83856759344E+02  0.13289014191E+03  0.91187600000E+02 0.  0.
<mgrwt>
<rscale>  0 0.10151345E+04</rscale>
<asrwt>0</asrwt>
<pdfrwt beam="1">  1        1 0.21877356E+00 0.10151345E+04</pdfrwt>
<pdfrwt beam="2">  1       -1 0.27871840E-01 0.10151345E+04</pdfrwt>
<totfact> 0.86157062E+01</totfact>
</mgrwt>
</event>
<event>
11    1  0.7386468E-013  0.7418081E+03  0.7818608E-02  0.9648291E-01
          1   -1    0    0  501    0  0.00000000000E+00  0.00000000000E+00  0.33485262481E+03  0.33485262481E+03  0.00000000000E+00 0.  1.
         -1   -1    0    0    0  501 -0.00000000000E+00 -0.00000000000E+00 -0.41083688335E+03  0.41083688335E+03  0.00000000000E+00 0. -1.
         23    2    1    2    0    0  0.61900355212E+02  0.26313170060E+02 -0.13820353166E+03  0.17847160404E+03  0.90707554216E+02 0.  0.
         23    2    1    2    0    0  0.56190890782E+02  0.88951420334E+02 -0.72528043116E+02  0.15724682742E+03  0.91632288573E+02 0.  0.
        -15    1    4    4    0    0  0.21247799515E+02  0.19130956325E+02  0.20954730454E+02  0.35448035242E+02  0.00000000000E+00 0. -1.
        -15    1    3    3    0    0 -0.12788095700E+02 -0.20845570348E+02 -0.26424571692E+02  0.36004599483E+02  0.00000000000E+00 0.  1.
         15    1    4    4    0    0  0.34943091266E+02  0.69820464009E+02 -0.93482773569E+02  0.12179879218E+03  0.00000000000E+00 0.  1.
         15    1    3    3    0    0  0.74688450913E+02  0.47158740409E+02 -0.11177895997E+03  0.14246700456E+03  0.00000000000E+00 0. -1.
        -16    1    1    2    0    0 -0.19181325300E+03 -0.50678079943E+02  0.79040291040E+02  0.21356020093E+03  0.00000000000E+00 0.  1.
         16    1    1    2    0    0 -0.22575250346E+02 -0.23867748772E+02 -0.19904840406E+02  0.38412420273E+02  0.00000000000E+00 0. -1.
    9900018    1    1    2    0    0  0.96297257348E+02 -0.40718761679E+02  0.75611865605E+02  0.15799845550E+03  0.91187600000E+02 0.  0.
<mgrwt>
<rscale>  0 0.74180809E+03</rscale>
<asrwt>0</asrwt>
<pdfrwt beam="1">  1        1 0.51515789E-01 0.74180809E+03</pdfrwt>
<pdfrwt beam="2">  1       -1 0.63205674E-01 0.74180809E+03</pdfrwt>
<totfact> 0.19538214E+02</totfact>
</mgrwt>
</event>
<event>
12    1  0.7386468E-013  0.8434390E+03  0.7818608E-02  0.1004652E+00
         -4   -1    0    0    0  501 -0.00000000000E+00  0.00000000000E+00  0.93644480123E+03  0.93644480123E+03  0.00000000000E+00 0.  1.
          4   -1    0    0  501    0  0.00000000000E+00 -0.00000000000E+00 -0.28954416598E+03  0.28954416598E+03  0.00000000000E+00 0. -1.
         23    2    1    2    0    0  0.86594962626E+02  0.58222996204E+02 -0.33702350690E+02  0.14219482135E+03  0.90525763946E+02 0.  0.
    9900016    2    1    2    0    0  0.37082668580E+02 -0.17117982914E+03  0.62951025339E+03  0.90867741369E+03  0.63145373924E+03 0.  0.
         23    2    4    4    0    0 -0.17328023187E+03 -0.17842568449E+03  0.51823593613E+03  0.58199181904E+03  0.91017736152E+02 0.  0.
        -15    1    5    5    0    0 -0.11092558966E+03 -0.61239176952E+02  0.31178169315E+03  0.33654501544E+03  0.00000000000E+00 0. -1.
        -15    1    3    3    0    0  0.31037451142E+02  0.81156002812E+01 -0.55642614794E+02  0.64228396543E+02  0.00000000000E+00 0. -1.
         15    1    5    5    0    0 -0.62354642213E+02 -0.11718650754E+03  0.20645424298E+03  0.24544680360E+03  0.00000000000E+00 0.  1.
         15    1    3    3    0    0  0.55557511484E+02  0.50107395923E+02  0.21940264104E+02  0.77966424809E+02  0.00000000000E+00 0.  1.
        -16    1    1    2    0    0 -0.12367763121E+03  0.11295683294E+03  0.51092732546E+02  0.17511673217E+03  0.00000000000E+00 0.  1.
         16    1    4    4    0    0  0.14773066402E+03 -0.61707153016E+02  0.78630232837E+01  0.16029332163E+03  0.00000000000E+00 0. -1.
    9900018    1    4    4    0    0  0.62632236431E+02  0.68953008363E+02  0.10341129398E+03  0.16639227301E+03  0.91187600000E+02 0.  0.
<mgrwt>
<rscale>  0 0.53656527E+03</rscale>
<asrwt>0</asrwt>
<pdfrwt beam="1">  1        4 0.44545257E-01 0.84343899E+03</pdfrwt>
<pdfrwt beam="2">  1       -4 0.14406843E+00 0.84343899E+03</pdfrwt>
<totfact> 0.32129475E+00</totfact>
</mgrwt>
</event>
<event>
12    1  0.7386470E-013  0.7710826E+03  0.7818608E-02  0.1014067E+00
          2   -1    0    0  501    0  0.00000000000E+00  0.00000000000E+00  0.79407868662E+03  0.79407868662E+03  0.00000000000E+00 0. -1.
         -2   -1    0    0    0  501 -0.00000000000E+00 -0.00000000000E+00 -0.26256277212E+03  0.26256277212E+03  0.00000000000E+00 0.  1.
         23    2    1    2    0    0  0.95172015177E+02 -0.31811910716E+02  0.12901681677E+03  0.18682884908E+03  0.90498451387E+02 0.  0.
    9900016    2    1    2    0    0 -0.23575338671E+03  0.14110234950E+02  0.27953846861E+03  0.68220720553E+03  0.57574834586E+03 0.  0.
         23    2    4    4    0    0 -0.11190279108E+03  0.13401414594E+03  0.13405591808E+03  0.23850335343E+03  0.91819575581E+02 0.  0.
        -15    1    3    3    0    0  0.88776395305E+02 -0.18220020556E+02  0.44454402940E+02  0.10094261465E+03  0.00000000000E+00 0. -1.
        -15    1    5    5    0    0 -0.32431701277E+02  0.15012281560E+02  0.76176478592E+02  0.84142971994E+02  0.00000000000E+00 0.  1.
         15    1    5    5    0    0 -0.79471089805E+02  0.11900186438E+03  0.57879439489E+02  0.15436038144E+03  0.00000000000E+00 0. -1.
         15    1    3    3    0    0  0.63956198723E+01 -0.13591890160E+02  0.84562413826E+02  0.85886234425E+02  0.00000000000E+00 0.  1.
        -16    1    4    4    0    0 -0.12367629382E+03 -0.12503498162E+03 -0.85331776166E+02  0.19547655692E+03  0.00000000000E+00 0.  1.
         16    1    1    2    0    0  0.14058137153E+03  0.17701675766E+02  0.12296062912E+03  0.18760540413E+03  0.00000000000E+00 0. -1.
    9900018    1    4    4    0    0 -0.17430180348E+00  0.51310706276E+01  0.23081432670E+03  0.24822729518E+03  0.91187600000E+02 0.  0.
<mgrwt>
<rscale>  0 0.49889867E+03</rscale>
<asrwt>0</asrwt>
<pdfrwt beam="1">  1        2 0.12216595E+00 0.77108265E+03</pdfrwt>
<pdfrwt beam="2">  1       -2 0.40394273E-01 0.77108265E+03</pdfrwt>
<totfact> 0.20350956E+02</totfact>
</mgrwt>
</event>
<event>
12    1  0.7386468E-013  0.1154261E+04  0.7818608E-02  0.9153862E-01
         -4   -1    0    0    0  501 -0.00000000000E+00  0.00000000000E+00  0.20057598319E+03  0.20057598319E+03  0.00000000000E+00 0. -1.
          4   -1    0    0  501    0  0.00000000000E+00 -0.00000000000E+00 -0.16606154988E+04  0.16606154988E+04  0.00000000000E+00 0.  1.
         23    2    1    2    0    0 -0.22757981978E+03 -0.86346870184E+02 -0.44679112616E+03  0.51698269705E+03  0.91653926677E+02 0.  0.
    9900016    2    1    2    0    0  0.26125226441E+03  0.35238164409E+02 -0.94918038085E+03  0.12556049303E+04  0.77852801596E+03 0.  0.
         23    2    4    4    0    0  0.29615810334E+03 -0.67340729955E+02 -0.87938917862E+03  0.93506204573E+03  0.93655249753E+02 0.  0.
        -15    1    3    3    0    0 -0.68752856774E+02 -0.37170278817E+02 -0.69135107284E+02  0.10434676804E+03  0.00000000000E+00 0. -1.
        -15    1    5    5    0    0  0.14829408907E+03  0.13592711822E+02 -0.39066615955E+03  0.41808605201E+03  0.00000000000E+00 0. -1.
         15    1    3    3    0    0 -0.15882696300E+03 -0.49176591367E+02 -0.37765601888E+03  0.41263592901E+03  0.00000000000E+00 0.  1.
         15    1    5    5    0    0  0.14786401427E+03 -0.80933441778E+02 -0.48872301907E+03  0.51697599372E+03  0.00000000000E+00 0.  1.
        -16    1    1    2    0    0 -0.33672444639E+02  0.51108705775E+02 -0.64068008572E+02  0.88603854636E+02  0.00000000000E+00 0.  1.
         16    1    4    4    0    0 -0.21426537565E+02 -0.40889096877E+01  0.98568126914E+02  0.10095291644E+03  0.00000000000E+00 0. -1.
    9900018    1    4    4    0    0 -0.13479301356E+02  0.10666780405E+03 -0.16835932914E+03  0.21958996810E+03  0.91187600000E+02 0.  0.
<mgrwt>
<rscale>  0 0.11542610E+04</rscale>
<asrwt>0</asrwt>
<pdfrwt beam="1">  1        4 0.25547931E+00 0.11542610E+04</pdfrwt>
<pdfrwt beam="2">  1       -4 0.30857843E-01 0.11542610E+04</pdfrwt>
<totfact> 0.11831304E+00</totfact>
</mgrwt>
</event>
<event>
12    1  0.7386468E-013  0.1454468E+04  0.7818608E-02  0.8915309E-01
         -1   -1    0    0    0  501 -0.00000000000E+00  0.00000000000E+00  0.37004672940E+03  0.37004672940E+03  0.00000000000E+00 0.  1.
          1   -1    0    0  501    0  0.00000000000E+00 -0.00000000000E+00 -0.14291950186E+04  0.14291950186E+04  0.00000000000E+00 0. -1.
         23    2    1    2    0    0 -0.17993673472E+03 -0.31926901955E+03 -0.85760809921E+03  0.93827638662E+03  0.10276668003E+03 0.  0.
    9900016    2    1    2    0    0  0.72949305347E+02  0.23096149449E+03 -0.11363515585E+03  0.69673435316E+03  0.64332029126E+03 0.  0.
         23    2    4    4    0    0 -0.41218648446E+02  0.10582633946E+01  0.19046795695E+03  0.21554278579E+03  0.92089917900E+02 0.  0.
        -15    1    5    5    0    0 -0.59673316038E+02  0.15937404575E+02  0.72619054454E+02  0.95333271114E+02  0.00000000000E+00 0.  1.
        -15    1    3    3    0    0 -0.12704232978E+03 -0.17034962104E+03 -0.38240324771E+03  0.43748256057E+03  0.00000000000E+00 0. -1.
         15    1    5    5    0    0  0.18454667592E+02 -0.14879141180E+02  0.11784890250E+03  0.12020951468E+03  0.00000000000E+00 0. -1.
         15    1    3    3    0    0 -0.52894404942E+02 -0.14891939851E+03 -0.47520485150E+03  0.50079382605E+03  0.00000000000E+00 0.  1.
        -16    1    1    2    0    0  0.10698742937E+03  0.88307525063E+02 -0.87905034104E+02  0.16423100818E+03  0.00000000000E+00 0.  1.
         16    1    4    4    0    0 -0.20686132835E+02  0.20431397238E+03 -0.19755781747E+03  0.28495825422E+03  0.00000000000E+00 0. -1.
    9900018    1    4    4    0    0  0.13485408663E+03  0.25589258719E+02 -0.10654529533E+03  0.19623331316E+03  0.91187600000E+02 0.  0.
<mgrwt>
<rscale>  0 0.14544675E+04</rscale>
<asrwt>0</asrwt>
<pdfrwt beam="1">  1        1 0.21987616E+00 0.14544675E+04</pdfrwt>
<pdfrwt beam="2">  1       -1 0.56930266E-01 0.14544675E+04</pdfrwt>
<totfact> 0.22224868E+01</totfact>
</mgrwt>
</event>
<event>
12    1  0.7386468E-013  0.1107521E+04  0.7818608E-02  0.9197892E-01
          2   -1    0    0  501    0  0.00000000000E+00  0.00000000000E+00  0.19505327941E+04  0.19505327941E+04  0.00000000000E+00 0. -1.
         -2   -1    0    0    0  501 -0.00000000000E+00 -0.00000000000E+00 -0.15721385702E+03  0.15721385702E+03  0.00000000000E+00 0.  1.
         23    2    1    2    0    0 -0.59647457149E+02  0.36348678714E+02  0.21282763398E+03  0.24088505451E+03  0.88605655074E+02 0.  0.
    9900016    2    1    2    0    0  0.29450822231E+02  0.71288128069E+02  0.11525129850E+04  0.14245235362E+04  0.83368565805E+03 0.  0.
         23    2    4    4    0    0  0.64202433500E+02 -0.12363979392E+03 -0.26067851015E+01  0.16812432300E+03  0.94075722413E+02 0.  0.
        -15    1    3    3    0    0 -0.45183656913E+01 -0.27285119959E+02  0.39862427838E+02  0.48517074858E+02  0.00000000000E+00 0. -1.
        -15    1    5    5    0    0  0.34725087959E+02 -0.13240642714E+03  0.27295031863E+01  0.13691144536E+03  0.00000000000E+00 0. -1.
         15    1    5    5    0    0  0.29477345541E+02  0.87666332185E+01 -0.53362882878E+01  0.31212877644E+02  0.00000000000E+00 0.  1.
         15    1    3    3    0    0 -0.55129091457E+02  0.63633798673E+02  0.17296520614E+03  0.19236797965E+03  0.00000000000E+00 0.  1.
        -16    1    4    4    0    0  0.10803042257E+02  0.31539824301E+03  0.58323739284E+03  0.66314298144E+03  0.00000000000E+00 0.  1.
         16    1    1    2    0    0  0.30196634918E+02 -0.10763680678E+03  0.42797831814E+03  0.44233806046E+03  0.00000000000E+00 0. -1.
    9900018    1    4    4    0    0 -0.45554653526E+02 -0.12047032102E+03  0.57188237724E+03  0.59325623173E+03  0.91187600000E+02 0.  0.
<mgrwt>
<rscale>  0 0.11075212E+04</rscale>
<asrwt>0</asrwt>
<pdfrwt beam="1">  1        2 0.30008195E+00 0.11075212E+04</pdfrwt>
<pdfrwt beam="2">  1       -2 0.24186749E-01 0.11075212E+04</pdfrwt>
<totfact> 0.10777939E+02</totfact>
</mgrwt>
</event>
<event>
12    1  0.7386468E-013  0.1150475E+04  0.7818608E-02  0.9157345E-01
          2   -1    0    0  501    0  0.00000000000E+00  0.00000000000E+00  0.71426473165E+03  0.71426473165E+03  0.00000000000E+00 0. -1.
         -2   -1    0    0    0  501 -0.00000000000E+00 -0.00000000000E+00 -0.46327116466E+03  0.46327116466E+03  0.00000000000E+00 0.  1.
         23    2    1    2    0    0 -0.15522918247E+03 -0.36926704685E+02  0.25551725496E+02  0.18552016811E+03  0.91132658756E+02 0.  0.
    9900016    2    1    2    0    0  0.15995365957E+03  0.45811705187E+02  0.11050744574E+03  0.87664164427E+03  0.85358349993E+03 0.  0.
         23    2    4    4    0    0  0.25149586300E+02  0.89610839385E+02  0.20178170374E+03  0.24229143098E+03  0.96574724099E+02 0.  0.
        -15    1    3    3    0    0 -0.76127493055E+02 -0.54606812069E+02 -0.15013236739E+02  0.94882540020E+02  0.00000000000E+00 0. -1.
        -15    1    5    5    0    0 -0.95850104123E+01  0.64227160167E+02  0.18508033274E+03  0.19614211709E+03  0.00000000000E+00 0.  1.
         15    1    5    5    0    0  0.34734596712E+02  0.25383679218E+02  0.16701370999E+02  0.46149313892E+02  0.00000000000E+00 0. -1.
         15    1    3    3    0    0 -0.79101689410E+02  0.17680107384E+02  0.40564962236E+02  0.90637628090E+02  0.00000000000E+00 0.  1.
        -16    1    1    2    0    0 -0.47244771063E+01 -0.88850005015E+01  0.11493439575E+03  0.11537408393E+03  0.00000000000E+00 0.  1.
         16    1    4    4    0    0 -0.18692324593E+03  0.13478198510E+03  0.38527052195E+02  0.23364677855E+03  0.00000000000E+00 0. -1.
    9900018    1    4    4    0    0  0.32172731920E+03 -0.17858111929E+03 -0.12980131020E+03  0.40070343474E+03  0.91187600000E+02 0.  0.
<mgrwt>
<rscale>  0 0.11504751E+04</rscale>
<asrwt>0</asrwt>
<pdfrwt beam="1">  1        2 0.10988688E+00 0.11504751E+04</pdfrwt>
<pdfrwt beam="2">  1       -2 0.71272487E-01 0.11504751E+04</pdfrwt>
<totfact> 0.70675306E+01</totfact>
</mgrwt>
</event>
<event>
12    1  0.7386468E-013  0.8067495E+03  0.7818608E-02  0.9550298E-01
         -1   -1    0    0    0  501 -0.00000000000E+00  0.00000000000E+00  0.38924708442E+03  0.38924708442E+03  0.00000000000E+00 0.  1.
          1   -1    0    0  501    0  0.00000000000E+00 -0.00000000000E+00 -0.41801522658E+03  0.41801522658E+03  0.00000000000E+00 0. -1.
         23    2    1    2    0    0 -0.70683852809E+02  0.15786019546E+02  0.44304482086E+02  0.12632161578E+03  0.93535330324E+02 0.  0.
    9900016    2    1    2    0    0 -0.42175362737E+02 -0.21267732029E+02 -0.68671600710E+02  0.56786275434E+03  0.56171277480E+03 0.  0.
         23    2    4    4    0    0  0.75242939224E+02 -0.14747208249E+03  0.22207511079E+02  0.19046813439E+03  0.91517329801E+02 0.  0.
        -15    1    5    5    0    0  0.64415968802E+02 -0.58492060869E+02  0.45030542475E+02  0.97971873397E+02  0.00000000000E+00 0.  1.
        -15    1    3    3    0    0 -0.41958861023E+02  0.49184256759E+02  0.50234076949E+02  0.81872459461E+02  0.00000000000E+00 0. -1.
         15    1    3    3    0    0 -0.28724991786E+02 -0.33398237213E+02 -0.59295948626E+01  0.44449156317E+02  0.00000000000E+00 0.  1.
         15    1    5    5    0    0  0.10826970422E+02 -0.88980021618E+02 -0.22823031396E+02  0.92496260994E+02  0.00000000000E+00 0. -1.
        -16    1    1    2    0    0  0.11285921555E+03  0.54817124830E+01 -0.44010235354E+01  0.11307794088E+03  0.00000000000E+00 0.  1.
         16    1    4    4    0    0 -0.51898421843E+02 -0.32822905004E+01  0.10496794266E+03  0.11714302628E+03  0.00000000000E+00 0. -1.
    9900018    1    4    4    0    0 -0.65519880117E+02  0.12948664096E+03 -0.19584705445E+03  0.26025159367E+03  0.91187600000E+02 0.  0.
<mgrwt>
<rscale>  0 0.80674955E+03</rscale>
<asrwt>0</asrwt>
<pdfrwt beam="1">  1        1 0.64310035E-01 0.80674955E+03</pdfrwt>
<pdfrwt beam="2">  1       -1 0.59884167E-01 0.80674955E+03</pdfrwt>
<totfact> 0.16181521E+02</totfact>
</mgrwt>
</event>
<event>
11    1  0.7386468E-013  0.1227803E+04  0.7818608E-02  0.9728516E-01
         -1   -1    0    0    0  501 -0.00000000000E+00  0.00000000000E+00  0.49671588991E+03  0.49671588991E+03  0.00000000000E+00 0.  1.
          1   -1    0    0  501    0  0.00000000000E+00 -0.00000000000E+00 -0.96886690997E+03  0.96886690997E+03  0.00000000000E+00 0. -1.
         23    2    1    2    0    0  0.23180024592E+03  0.31609853229E+03  0.72597389907E+02  0.40911646977E+03  0.91957972397E+02 0.  0.
         23    2    1    2    0    0  0.77740935766E+02  0.34834188424E+02 -0.15195470892E+03  0.19671451988E+03  0.91374476701E+02 0.  0.
        -15    1    3    3    0    0  0.17846218818E+03  0.19405005257E+03  0.15179597845E+02  0.26407308781E+03  0.00000000000E+00 0.  1.
        -15    1    4    4    0    0  0.25682549758E+02  0.26603517264E+02 -0.13703801622E+03  0.14193927709E+03  0.00000000000E+00 0.  1.
         15    1    3    3    0    0  0.53338057743E+02  0.12204847972E+03  0.57417792062E+02  0.14504338196E+03  0.00000000000E+00 0. -1.
         15    1    4    4    0    0  0.52058386008E+02  0.82306711600E+01 -0.14916692704E+02  0.54775242790E+02  0.00000000000E+00 0. -1.
        -16    1    1    2    0    0  0.82144127868E+02 -0.28633649716E+03 -0.40569092205E+02  0.30063615649E+03  0.00000000000E+00 0.  1.
         16    1    1    2    0    0 -0.23182862932E+03 -0.18821624035E+02 -0.12813870102E+03  0.26555280757E+03  0.00000000000E+00 0. -1.
    9900018    1    1    2    0    0 -0.15985668023E+03 -0.45774599521E+02 -0.22408590782E+03  0.29356284617E+03  0.91187600000E+02 0.  0.
<mgrwt>
<rscale>  0 0.69344072E+03</rscale>
<asrwt>0</asrwt>
<pdfrwt beam="1">  1        1 0.14905645E+00 0.12278033E+04</pdfrwt>
<pdfrwt beam="2">  1       -1 0.76417829E-01 0.12278033E+04</pdfrwt>
<totfact> 0.27137215E+01</totfact>
</mgrwt>
</event>
<event>
12    1  0.7386468E-013  0.1282127E+04  0.7818608E-02  0.9468179E-01
         -2   -1    0    0    0  501 -0.00000000000E+00  0.00000000000E+00  0.29123972660E+03  0.29123972660E+03  0.00000000000E+00 0.  1.
          2   -1    0    0  501    0  0.00000000000E+00 -0.00000000000E+00 -0.21591742526E+04  0.21591742526E+04  0.00000000000E+00 0. -1.
         23    2    1    2    0    0 -0.17248249158E+02 -0.25193098220E+03 -0.15033975561E+03  0.30705637816E+03  0.88965472886E+02 0.  0.
    9900016    2    1    2    0    0 -0.37566177242E+02  0.55760911161E+03 -0.16191954310E+04  0.18175874825E+04  0.60785793874E+03 0.  0.
         23    2    4    4    0    0  0.11795710041E+03  0.21767893009E+03 -0.72421907310E+03  0.77080740477E+03  0.91393628080E+02 0.  0.
        -15    1    3    3    0    0  0.14866487071E+02 -0.17904383028E+03 -0.66919165365E+02  0.19171823151E+03  0.00000000000E+00 0. -1.
        -15    1    5    5    0    0  0.84470910090E+02  0.21346504274E+03 -0.64750311236E+03  0.68699558924E+03  0.00000000000E+00 0.  1.
         15    1    5    5    0    0  0.33486190319E+02  0.42138873546E+01 -0.76715960740E+02  0.83811815521E+02  0.00000000000E+00 0. -1.
         15    1    3    3    0    0 -0.32114736229E+02 -0.72887151914E+02 -0.83420590245E+02  0.11533814666E+03  0.00000000000E+00 0.  1.
        -16    1    1    2    0    0  0.54814426400E+02 -0.30567812942E+03 -0.98399339395E+02  0.32577011855E+03  0.00000000000E+00 0.  1.
         16    1    4    4    0    0 -0.20045543303E+03  0.30927827282E+03 -0.41426584319E+03  0.55448320038E+03  0.00000000000E+00 0. -1.
    9900018    1    4    4    0    0  0.44932155380E+02  0.30651908700E+02 -0.48071051469E+03  0.49229687732E+03  0.91187600000E+02 0.  0.
<mgrwt>
<rscale>  0 0.86671091E+03</rscale>
<asrwt>0</asrwt>
<pdfrwt beam="1">  1        2 0.33218066E+00 0.12821271E+04</pdfrwt>
<pdfrwt beam="2">  1       -2 0.44806111E-01 0.12821271E+04</pdfrwt>
<totfact> 0.25235427E+01</totfact>
</mgrwt>
</event>
<event>
11    1  0.7386468E-013  0.9755398E+03  0.7818608E-02  0.9335787E-01
          1   -1    0    0  501    0  0.00000000000E+00  0.00000000000E+00  0.55714245301E+03  0.55714245301E+03  0.00000000000E+00 0. -1.
         -1   -1    0    0    0  501 -0.00000000000E+00 -0.00000000000E+00 -0.42703529718E+03  0.42703529718E+03  0.00000000000E+00 0.  1.
         23    2    1    2    0    0  0.18452380350E+03 -0.15223499009E+03  0.31443479206E+03  0.40562147106E+03  0.91842327201E+02 0.  0.
         23    2    1    2    0    0 -0.76933659756E+02  0.16086276433E+03 -0.55726258982E+02  0.20754682861E+03  0.90413788640E+02 0.  0.
        -15    1    3    3    0    0  0.95518919872E+02 -0.82180754143E+02  0.92031159219E+02  0.15603613259E+03  0.00000000000E+00 0.  1.
        -15    1    4    4    0    0 -0.69009216408E+02  0.14711266644E+03 -0.77961635367E+02  0.18022881336E+03  0.00000000000E+00 0.  1.
         15    1    4    4    0    0 -0.79244433485E+01  0.13750097889E+02  0.22235376385E+02  0.27318015252E+02  0.00000000000E+00 0. -1.
         15    1    3    3    0    0  0.89004883631E+02 -0.70054235947E+02  0.22240363284E+03  0.24958533848E+03  0.00000000000E+00 0. -1.
        -16    1    1    2    0    0 -0.10597487150E+03  0.34082704297E+02 -0.64951100859E+02  0.12888347305E+03  0.00000000000E+00 0.  1.
         16    1    1    2    0    0  0.70613445236E+02  0.12780849751E+02  0.34979488247E+02  0.79832157470E+02  0.00000000000E+00 0. -1.
    9900018    1    1    2    0    0 -0.72228717483E+02 -0.55491328286E+02 -0.98629764632E+02  0.16229382000E+03  0.91187600000E+02 0.  0.
<mgrwt>
<rscale>  0 0.97553984E+03</rscale>
<asrwt>0</asrwt>
<pdfrwt beam="1">  1        1 0.85714224E-01 0.97553984E+03</pdfrwt>
<pdfrwt beam="2">  1       -1 0.65697738E-01 0.97553984E+03</pdfrwt>
<totfact> 0.89836142E+01</totfact>
</mgrwt>
</event>
<event>
12    1  0.7386468E-013  0.1007661E+04  0.7818608E-02  0.9300182E-01
          2   -1    0    0  501    0  0.00000000000E+00  0.00000000000E+00  0.23195413832E+04  0.23195413832E+04  0.00000000000E+00 0.  1.
         -2   -1    0    0    0  501 -0.00000000000E+00 -0.00000000000E+00 -0.10943762698E+03  0.10943762698E+03  0.00000000000E+00 0. -1.
         23    2    1    2    0    0  0.50058012697E+02 -0.15829251741E+03  0.26147216746E+03  0.32648505035E+03  0.10325922739E+03 0.  0.
    9900016    2    1    2    0    0 -0.38560155443E+02  0.95243372940E+02  0.10857573596E+04  0.12372429380E+04  0.58424554609E+03 0.  0.
         23    2    4    4    0    0  0.58373360750E+02  0.19328852481E+03  0.53618496059E+03  0.58042944446E+03  0.92930753578E+02 0.  0.
        -15    1    3    3    0    0 -0.62626431147E+01 -0.12299790706E+03  0.12944953010E+03  0.17867536675E+03  0.00000000000E+00 0. -1.
        -15    1    5    5    0    0  0.20409849470E+02  0.12933575043E+03  0.43864532561E+03  0.45777070676E+03  0.00000000000E+00 0.  1.
         15    1    5    5    0    0  0.37963511280E+02  0.63952774380E+02  0.97539634984E+02  0.12265873769E+03  0.00000000000E+00 0. -1.
         15    1    3    3    0    0  0.56320655811E+02 -0.35294610355E+02  0.13202263736E+03  0.14780968360E+03  0.00000000000E+00 0.  1.
        -16    1    1    2    0    0 -0.11497857254E+02  0.63049144471E+02  0.86287422923E+03  0.86525102185E+03  0.00000000000E+00 0.  1.
         16    1    4    4    0    0 -0.82090361188E+02 -0.12708870620E+03  0.68482894515E+02  0.16607309681E+03  0.00000000000E+00 0. -1.
    9900018    1    4    4    0    0 -0.14843155005E+02  0.29043554335E+02  0.48108950445E+03  0.49074039673E+03  0.91187600000E+02 0.  0.
<mgrwt>
<rscale>  0 0.10076609E+04</rscale>
<asrwt>0</asrwt>
<pdfrwt beam="1">  1        2 0.35685248E+00 0.10076609E+04</pdfrwt>
<pdfrwt beam="2">  1       -2 0.16836560E-01 0.10076609E+04</pdfrwt>
<totfact> 0.12825253E+02</totfact>
</mgrwt>
</event>
<event>
11    1  0.7386468E-013  0.5417856E+03  0.7818608E-02  0.1003413E+00
          1   -1    0    0  501    0  0.00000000000E+00  0.00000000000E+00  0.31852601873E+03  0.31852601873E+03  0.00000000000E+00 0. -1.
         -1   -1    0    0    0  501 -0.00000000000E+00 -0.00000000000E+00 -0.23038280005E+03  0.23038280005E+03  0.00000000000E+00 0.  1.
         23    2    1    2    0    0 -0.12831654972E+02  0.15862206717E+02  0.99258363513E+02  0.13371486143E+03  0.87242079694E+02 0.  0.
         23    2    1    2    0    0 -0.20455136920E+02  0.18507355294E+02 -0.68354463632E+02  0.11790850059E+03  0.92027968496E+02 0.  0.
        -15    1    4    4    0    0 -0.23228767165E+02  0.46968510992E+02 -0.72034928987E+02  0.89076639154E+02  0.00000000000E+00 0.  1.
        -15    1    3    3    0    0 -0.14154772808E+02 -0.32275144095E+02  0.67150259744E+02  0.75836665955E+02  0.00000000000E+00 0.  1.
         15    1    3    3    0    0  0.13231178361E+01  0.48137350812E+02  0.32108103769E+02  0.57878195477E+02  0.00000000000E+00 0. -1.
         15    1    4    4    0    0  0.27736302450E+01 -0.28461155697E+02  0.36804653553E+01  0.28831861431E+02  0.00000000000E+00 0. -1.
        -16    1    1    2    0    0  0.80995564375E+02 -0.21234383638E+01  0.67939842041E+02  0.10573841580E+03  0.00000000000E+00 0.  1.
         16    1    1    2    0    0  0.25326965681E+01 -0.57450188498E+02  0.42919473720E+02  0.71756671709E+02  0.00000000000E+00 0. -1.
    9900018    1    1    2    0    0 -0.50241469051E+02  0.25204064850E+02 -0.53619996964E+02  0.11979036925E+03  0.91187600000E+02 0.  0.
<mgrwt>
<rscale>  0 0.54178563E+03</rscale>
<asrwt>0</asrwt>
<pdfrwt beam="1">  1        1 0.49004003E-01 0.54178563E+03</pdfrwt>
<pdfrwt beam="2">  1       -1 0.35443508E-01 0.54178563E+03</pdfrwt>
<totfact> 0.62042186E+02</totfact>
</mgrwt>
</event>
<event>
11    1  0.7386468E-013  0.8110198E+03  0.7818608E-02  0.9544202E-01
          3   -1    0    0  501    0  0.00000000000E+00  0.00000000000E+00  0.15867708914E+03  0.15867708914E+03  0.00000000000E+00 0. -1.
         -3   -1    0    0    0  501 -0.00000000000E+00 -0.00000000000E+00 -0.10363077080E+04  0.10363077080E+04  0.00000000000E+00 0.  1.
         23    2    1    2    0    0 -0.98889117291E+02 -0.59573819309E+02 -0.15531119057E+03  0.21269170178E+03  0.88250193328E+02 0.  0.
         23    2    1    2    0    0  0.18284133284E+03  0.17143200755E+03 -0.58030063661E+03  0.63910012152E+03  0.94235079861E+02 0.  0.
        -15    1    4    4    0    0  0.13820298105E+03  0.79228800108E+02 -0.41625268502E+03  0.44569447442E+03  0.00000000000E+00 0. -1.
        -15    1    3    3    0    0 -0.84471981456E+02 -0.21010129255E+01 -0.75684377674E+02  0.11343744942E+03  0.00000000000E+00 0. -1.
         15    1    4    4    0    0  0.44638351787E+02  0.92203207443E+02 -0.16404795159E+03  0.19340564711E+03  0.00000000000E+00 0.  1.
         15    1    3    3    0    0 -0.14417135834E+02 -0.57472806383E+02 -0.79626812898E+02  0.99254252359E+02  0.00000000000E+00 0.  1.
        -16    1    1    2    0    0 -0.17866453352E+02 -0.70060217284E+02 -0.10952948075E+03  0.13124157632E+03  0.00000000000E+00 0.  1.
         16    1    1    2    0    0  0.86951908786E+01  0.90530837358E+01  0.55092486550E+02  0.56504395792E+02  0.00000000000E+00 0. -1.
    9900018    1    1    2    0    0 -0.74780953077E+02 -0.50851054694E+02 -0.87581797488E+02  0.15544700175E+03  0.91187600000E+02 0.  0.
<mgrwt>
<rscale>  0 0.81101983E+03</rscale>
<asrwt>0</asrwt>
<pdfrwt beam="1">  1        3 0.24411860E-01 0.81101983E+03</pdfrwt>
<pdfrwt beam="2">  1       -3 0.15943196E+00 0.81101983E+03</pdfrwt>
<totfact> 0.11568259E+01</totfact>
</mgrwt>
</event>
