<event>
12    1  0.1133778E-013  0.1387181E+04  0.7818608E-02  0.9786480E-01
         -1   -1    0    0    0  501 -0.00000000000E+00  0.00000000000E+00  0.60878166781E+03  0.60878166781E+03  0.00000000000E+00 0.  1.
          1   -1    0    0  501    0  0.00000000000E+00 -0.00000000000E+00 -0.87468347945E+03  0.87468347945E+03  0.00000000000E+00 0. -1.
         23    2    1    2    0    0  0.27524848987E+02 -0.10913119799E+02 -0.27212771489E+01  0.71538833410E+02  0.65066779856E+02 0.  0.
    9900016    2    1    2    0    0  0.39906521413E+03 -0.74702387224E+02 -0.24476206970E+02  0.79903854066E+03  0.68777177389E+03 0.  0.
         23    2    4    4    0    0  0.34427261040E+03 -0.77956041545E+01 -0.32564409329E+03  0.48570031638E+03  0.10619001895E+03 0.  0.
        -15    1    5    5    0    0  0.50424198330E+02  0.33426770931E+02 -0.81168842555E+02  0.10123403476E+03  0.00000000000E+00 0.  1.
        -15    1    3    3    0    0 -0.17223861638E+02 -0.15005180121E+02 -0.11776278948E+02  0.25700147589E+02  0.00000000000E+00 0. -1.
         15    1    3    3    0    0  0.44748710625E+02  0.40920603227E+01  0.90550017994E+01  0.45838685822E+02  0.00000000000E+00 0.  1.
         15    1    5    5    0    0  0.29384841207E+03 -0.41222375086E+02 -0.24447525073E+03  0.38446628162E+03  0.00000000000E+00 0. -1.
        -16    1    1    2    0    0 -0.43676915065E+03  0.12813875644E+03 -0.15262484714E+03  0.48008455071E+03  0.00000000000E+00 0.  1.
         16    1    4    4    0    0  0.54792603729E+02 -0.66906783069E+02  0.30116788632E+03  0.31333822427E+03  0.00000000000E+00 0. -1.
    9900018    1    1    2    0    0  0.10179087534E+02 -0.42523249422E+02 -0.86079480382E+02  0.13280322248E+03  0.91187600000E+02 0.  0.
<mgrwt>
<rscale>  0 0.66093199E+03</rscale>
<asrwt>0</asrwt>
<pdfrwt beam="1">  1        1 0.13456669E+00 0.13871813E+04</pdfrwt>
<pdfrwt beam="2">  1       -1 0.93658718E-01 0.13871813E+04</pdfrwt>
<totfact> 0.20582137E+01</totfact>
</mgrwt>
</event>
<event>
11    1  0.1133778E-013  0.1224733E+04  0.7818608E-02  0.9091479E-01
          2   -1    0    0  501    0  0.00000000000E+00  0.00000000000E+00  0.21306195928E+04  0.21306195928E+04  0.00000000000E+00 0.  1.
         -2   -1    0    0    0  501 -0.00000000000E+00 -0.00000000000E+00 -0.17600169992E+03  0.17600169992E+03  0.00000000000E+00 0. -1.
    9900016    2    1    2    0    0  0.92970965136E+02 -0.22154416690E+02  0.88008143107E+03  0.11375423584E+04  0.71437026348E+03 0.  0.
         23    2    3    3    0    0  0.33261311235E+02 -0.11482536442E+03 -0.72331516879E+02  0.15950857708E+03  0.76941267776E+02 0.  0.
        -15    1    3    3    0    0  0.10805847076E+02 -0.75648238927E+01  0.52048951574E+01  0.14180402856E+02  0.00000000000E+00 0. -1.
        -15    1    4    4    0    0  0.35806270665E+02 -0.10540978776E+02 -0.25225989386E+02  0.45050547089E+02  0.00000000000E+00 0. -1.
         15    1    3    3    0    0 -0.15920107800E+02 -0.50312593860E+01  0.12127084787E+02  0.20635638803E+02  0.00000000000E+00 0.  1.
         15    1    4    4    0    0 -0.25449594301E+01 -0.10428438565E+03 -0.47105527493E+02  0.11445802999E+03  0.00000000000E+00 0.  1.
        -16    1    3    3    0    0  0.64823914625E+02  0.10526703101E+03  0.93508096801E+03  0.94321773969E+03  0.00000000000E+00 0.  1.
         16    1    1    2    0    0  0.39919565569E+02  0.11226409426E+03  0.92174003688E+03  0.92940921781E+03  0.00000000000E+00 0. -1.
    9900018    1    1    2    0    0 -0.13289053071E+03 -0.90109677570E+02  0.15279642497E+03  0.23966971652E+03  0.91187600000E+02 0.  0.
<mgrwt>
<rscale>  0 0.12247329E+04</rscale>
<asrwt>0</asrwt>
<pdfrwt beam="1">  1        2 0.32778761E+00 0.12247329E+04</pdfrwt>
<pdfrwt beam="2">  1       -2 0.27077186E-01 0.12247329E+04</pdfrwt>
<totfact> 0.69149086E+01</totfact>
</mgrwt>
</event>
<event>
11    1  0.1133778E-013  0.1638754E+04  0.7818608E-02  0.9526831E-01
          2   -1    0    0  501    0  0.00000000000E+00  0.00000000000E+00  0.14356843041E+04  0.14356843041E+04  0.00000000000E+00 0. -1.
         -2   -1    0    0    0  501 -0.00000000000E+00 -0.00000000000E+00 -0.53194485320E+03  0.53194485320E+03  0.00000000000E+00 0.  1.
         23    2    1    2    0    0 -0.24924691855E+01 -0.71025647861E+02  0.21966138591E+02  0.10670457496E+03  0.76501634076E+02 0.  0.
    9900016    2    1    2    0    0 -0.15468461347E+03 -0.30502602222E+03  0.44734147045E+03  0.87478049122E+03  0.66944627325E+03 0.  0.
        -15    1    4    4    0    0 -0.76298397003E+02  0.38622185037E+02  0.30107425659E+03  0.31298374805E+03  0.00000000000E+00 0. -1.
        -15    1    3    3    0    0 -0.75100210074E+01 -0.52479906600E+02  0.49897734364E+02  0.72803330329E+02  0.00000000000E+00 0.  1.
         15    1    3    3    0    0  0.50175518219E+01 -0.18545741262E+02 -0.27931595773E+02  0.33901244633E+02  0.00000000000E+00 0.  1.
         15    1    4    4    0    0 -0.20531886800E+03 -0.36060254118E+02  0.74673201340E+02  0.22143230677E+03  0.00000000000E+00 0. -1.
        -16    1    1    2    0    0  0.20780933231E+03  0.53485089698E+03  0.73802997038E+02  0.57853010549E+03  0.00000000000E+00 0.  1.
         16    1    4    4    0    0  0.12693265153E+03 -0.30758795313E+03  0.71594012518E+02  0.34036443640E+03  0.00000000000E+00 0. -1.
    9900018    1    1    2    0    0 -0.50632249657E+02 -0.15879922690E+03  0.36062884482E+03  0.40761398562E+03  0.91187600000E+02 0.  0.
<mgrwt>
<rscale>  0 0.82334231E+03</rscale>
<asrwt>0</asrwt>
<pdfrwt beam="1">  1        2 0.22087451E+00 0.16387544E+04</pdfrwt>
<pdfrwt beam="2">  1       -2 0.81837670E-01 0.16387544E+04</pdfrwt>
<totfact> 0.17287503E+01</totfact>
</mgrwt>
</event>
<event>
11    1  0.1133778E-013  0.1233767E+04  0.7818608E-02  0.9083803E-01
          1   -1    0    0  501    0  0.00000000000E+00  0.00000000000E+00  0.24116251694E+03  0.24116251694E+03  0.00000000000E+00 0. -1.
         -1   -1    0    0    0  501 -0.00000000000E+00 -0.00000000000E+00 -0.15779614885E+04  0.15779614885E+04  0.00000000000E+00 0.  1.
    9900016    2    1    2    0    0  0.52631849397E+01 -0.53365151348E+02 -0.93980037642E+03  0.11848289142E+04  0.71952711409E+03 0.  0.
         23    2    3    3    0    0  0.16011565496E+03 -0.30785950326E+03 -0.33576361923E+03  0.49525067325E+03  0.11009779581E+03 0.  0.
        -15    1    4    4    0    0 -0.10257284020E+02 -0.60328702346E+02 -0.79475019384E+02  0.10030475018E+03  0.00000000000E+00 0. -1.
        -15    1    3    3    0    0 -0.17458106268E+02 -0.86600486683E+00 -0.45247313964E+02  0.48506235268E+02  0.00000000000E+00 0.  1.
         15    1    4    4    0    0  0.17037293898E+03 -0.24753080092E+03 -0.25628859985E+03  0.39494592307E+03  0.00000000000E+00 0. -1.
         15    1    3    3    0    0 -0.24159777849E+01  0.22428563898E+02 -0.20409994047E+01  0.22650454868E+02  0.00000000000E+00 0.  1.
        -16    1    1    2    0    0  0.64568621961E+02  0.19692806096E+03 -0.39990930067E+03  0.45041893488E+03  0.00000000000E+00 0.  1.
         16    1    3    3    0    0 -0.13497838596E+03  0.23293179289E+03 -0.55674844382E+03  0.61842155082E+03  0.00000000000E+00 0. -1.
    9900018    1    1    2    0    0 -0.69831806901E+02 -0.14356290961E+03  0.29107055501E+01  0.18387615634E+03  0.91187600000E+02 0.  0.
<mgrwt>
<rscale>  0 0.12337669E+04</rscale>
<asrwt>0</asrwt>
<pdfrwt beam="1">  1        1 0.37101926E-01 0.12337669E+04</pdfrwt>
<pdfrwt beam="2">  1       -1 0.24276331E+00 0.12337669E+04</pdfrwt>
<totfact> 0.89630585E+00</totfact>
</mgrwt>
</event>
<event>
12    1  0.1133778E-013  0.3024952E+04  0.7818608E-02  0.8236641E-01
          1   -1    0    0  501    0  0.00000000000E+00  0.00000000000E+00  0.25296924022E+04  0.25296924022E+04  0.00000000000E+00 0. -1.
         -1   -1    0    0    0  501 -0.00000000000E+00 -0.00000000000E+00 -0.90429310728E+03  0.90429310728E+03  0.00000000000E+00 0.  1.
    9900016    2    1    2    0    0  0.20653010476E+03 -0.54924923237E+03  0.66135658947E+03  0.11488471214E+04  0.73357192321E+03 0.  0.
         23    2    3    3    0    0  0.94069431053E+01 -0.30630683590E+02  0.61390919743E+02  0.90414604991E+02  0.58131113984E+02 0.  0.
         23    2    3    3    0    0 -0.29691787994E+02  0.48871231434E+02 -0.96408516818E+02  0.13191933265E+03  0.69556514251E+02 0.  0.
        -15    1    5    5    0    0  0.39742900997E+01 -0.16224348202E+02 -0.19725541697E+02  0.25848045412E+02  0.00000000000E+00 0.  1.
        -15    1    4    4    0    0 -0.23300336209E+02 -0.57941582784E+01  0.31562091267E+02  0.39656569982E+02  0.00000000000E+00 0.  1.
         15    1    5    5    0    0 -0.33666078094E+02  0.65095579636E+02 -0.76682975121E+02  0.10607128724E+03  0.00000000000E+00 0. -1.
         15    1    4    4    0    0  0.32707279314E+02 -0.24836525312E+02  0.29828828476E+02  0.50758035009E+02  0.00000000000E+00 0. -1.
        -16    1    1    2    0    0 -0.96079626427E+03  0.24926746321E+03 -0.36787428090E+02  0.99328598325E+03  0.00000000000E+00 0.  1.
         16    1    3    3    0    0  0.22681494965E+03 -0.56748978021E+03  0.69637418654E+03  0.92651318378E+03  0.00000000000E+00 0. -1.
    9900018    1    1    2    0    0  0.75426615952E+03  0.29998176916E+03  0.10008301336E+04  0.12918524048E+04  0.91187600000E+02 0.  0.
<mgrwt>
<rscale>  0 0.30249518E+04</rscale>
<asrwt>0</asrwt>
<pdfrwt beam="1">  1        1 0.38918344E+00 0.30249518E+04</pdfrwt>
<pdfrwt beam="2">  1       -1 0.13912202E+00 0.30249518E+04</pdfrwt>
<totfact> 0.46730272E-01</totfact>
</mgrwt>
</event>
<event>
11    1  0.1133778E-013  0.1225974E+04  0.7818608E-02  0.9090420E-01
          1   -1    0    0  501    0  0.00000000000E+00  0.00000000000E+00  0.22375471154E+04  0.22375471154E+04  0.00000000000E+00 0. -1.
         -1   -1    0    0    0  501 -0.00000000000E+00 -0.00000000000E+00 -0.16793081797E+03  0.16793081797E+03  0.00000000000E+00 0.  1.
    9900016    2    1    2    0    0  0.13153630712E+03 -0.10852652975E+01  0.94311095216E+03  0.11893046190E+04  0.71251963545E+03 0.  0.
         23    2    3    3    0    0 -0.26880353651E+03  0.59689790335E+01  0.36218900427E+03  0.45552939098E+03  0.63523076775E+02 0.  0.
        -15    1    3    3    0    0 -0.85301997811E+01 -0.21504116954E+02  0.60806222524E+00  0.23142192937E+02  0.00000000000E+00 0. -1.
        -15    1    4    4    0    0 -0.75203155376E+02 -0.44854934649E+01  0.59183878700E+02  0.95803787650E+02  0.00000000000E+00 0. -1.
         15    1    4    4    0    0 -0.19360038113E+03  0.10454472498E+02  0.30300512557E+03  0.35972560333E+03  0.00000000000E+00 0.  1.
         15    1    3    3    0    0  0.20769779829E+02  0.49822390070E+01  0.39530611571E+02  0.44931900815E+02  0.00000000000E+00 0.  1.
        -16    1    3    3    0    0  0.38810026359E+03  0.94676336158E+01  0.54078327410E+03  0.66570113431E+03  0.00000000000E+00 0.  1.
         16    1    1    2    0    0 -0.57742840487E+02 -0.53721644670E+02  0.10732942027E+04  0.10761880394E+04  0.00000000000E+00 0. -1.
    9900018    1    1    2    0    0 -0.73793466637E+02  0.54806909967E+02  0.53211142607E+02  0.13998527490E+03  0.91187600000E+02 0.  0.
<mgrwt>
<rscale>  0 0.12259741E+04</rscale>
<asrwt>0</asrwt>
<pdfrwt beam="1">  1        1 0.34423800E+00 0.12259741E+04</pdfrwt>
<pdfrwt beam="2">  1       -1 0.25835512E-01 0.12259741E+04</pdfrwt>
<totfact> 0.26945096E+01</totfact>
</mgrwt>
</event>
<event>
11    1  0.1133778E-013  0.3312226E+04  0.7818608E-02  0.8159791E-01
         -1   -1    0    0    0  501 -0.00000000000E+00  0.00000000000E+00  0.13272295759E+04  0.13272295759E+04  0.00000000000E+00 0.  1.
          1   -1    0    0  501    0  0.00000000000E+00 -0.00000000000E+00 -0.20664924803E+04  0.20664924803E+04  0.00000000000E+00 0. -1.
    9900016    2    1    2    0    0 -0.28498903631E+03  0.36403014471E+03  0.70947413968E+03  0.11046694977E+04  0.70936904871E+03 0.  0.
         23    2    3    3    0    0  0.18022071862E+03  0.28709600424E+02  0.10295185687E+03  0.23972843431E+03  0.11647698832E+03 0.  0.
        -15    1    4    4    0    0  0.38293721842E+02 -0.57362058095E+01  0.83950954193E+02  0.92450396968E+02  0.00000000000E+00 0.  1.
        -15    1    3    3    0    0  0.19557696572E+02  0.30754955357E+02  0.56017459966E+02  0.66830581288E+02  0.00000000000E+00 0.  1.
         15    1    3    3    0    0 -0.18043015336E+02  0.19631473383E+02  0.80166455049E+01  0.27842624782E+02  0.00000000000E+00 0. -1.
         15    1    4    4    0    0  0.14192699678E+03  0.34445806233E+02  0.19000902681E+02  0.14727803735E+03  0.00000000000E+00 0. -1.
        -16    1    3    3    0    0 -0.46672443616E+03  0.28493411554E+03  0.54248817734E+03  0.77026785735E+03  0.00000000000E+00 0.  1.
         16    1    1    2    0    0  0.18547655316E+03 -0.55162042232E+03 -0.17870032322E+04  0.18793794705E+04  0.00000000000E+00 0. -1.
    9900018    1    1    2    0    0  0.99512483146E+02  0.18759027761E+03  0.33826618811E+03  0.40967308793E+03  0.91187600000E+02 0.  0.
<mgrwt>
<rscale>  0 0.33122258E+04</rscale>
<asrwt>0</asrwt>
<pdfrwt beam="1">  1        1 0.31792192E+00 0.33122258E+04</pdfrwt>
<pdfrwt beam="2">  1       -1 0.20418916E+00 0.33122258E+04</pdfrwt>
<totfact> 0.31350207E-01</totfact>
</mgrwt>
</event>
