<event>
11    1  0.3092267E-010  0.3428821E+04  0.7818608E-02  0.8130869E-01
         -2   -1    0    0    0  501 -0.00000000000E+00  0.00000000000E+00  0.92186669323E+03  0.92186669323E+03  0.00000000000E+00 0.  1.
          2   -1    0    0  501    0  0.00000000000E+00 -0.00000000000E+00 -0.31883166910E+04  0.31883166910E+04  0.00000000000E+00 0. -1.
    9900016    2    1    2    0    0 -0.26417280389E+03 -0.15839402160E+03 -0.17907187684E+04  0.28564252427E+04  0.22039998918E+04 0.  0.
        -24    2    3    3    0    0 -0.91007171355E+03  0.38728425983E+03 -0.12673555369E+04  0.16095902656E+04  0.79819449367E+02 0.  0.
        -15    1    3    3    0    0  0.64103187566E+03 -0.41901465150E+03 -0.68703065912E+03  0.10288373391E+04  0.00000000000E+00 0.  1.
        -15    1    3    3    0    0 -0.23164749079E+02 -0.10027810366E+03  0.99401374631E+02  0.14308367116E+03  0.00000000000E+00 0.  1.
         15    1    4    4    0    0 -0.47911144400E+03  0.24673923584E+03 -0.68005655996E+03  0.86770095714E+03  0.00000000000E+00 0. -1.
         15    1    3    3    0    0  0.28031783083E+02 -0.26385526266E+02  0.64266052993E+02  0.74913966832E+02  0.00000000000E+00 0. -1.
        -16    1    4    4    0    0 -0.43096026955E+03  0.14054502399E+03 -0.58729897692E+03  0.74188930845E+03  0.00000000000E+00 0.  1.
         16    1    1    2    0    0  0.41304345506E+03 -0.18274180751E+02 -0.76677644190E+03  0.87114003083E+03  0.00000000000E+00 0. -1.
    9900018    1    1    2    0    0 -0.14887065117E+03  0.17666820235E+03  0.29104521252E+03  0.38261811069E+03  0.91187600000E+02 0.  0.
<mgrwt>
<rscale>  0 0.34288208E+04</rscale>
<asrwt>0</asrwt>
<pdfrwt beam="1">  1        2 0.49051026E+00 0.34288208E+04</pdfrwt>
<pdfrwt beam="2">  1       -2 0.14182565E+00 0.34288208E+04</pdfrwt>
<totfact> 0.37836189E-01</totfact>
</mgrwt>
</event>
<event>
11    1  0.3092267E-010  0.3024771E+04  0.7818608E-02  0.8236693E-01
          3   -1    0    0  501    0  0.00000000000E+00  0.00000000000E+00  0.11423733755E+04  0.11423733755E+04  0.00000000000E+00 0. -1.
         -3   -1    0    0    0  501 -0.00000000000E+00 -0.00000000000E+00 -0.20022436688E+04  0.20022436688E+04  0.00000000000E+00 0.  1.
    9900016    2    1    2    0    0  0.18338690690E+03  0.60366732612E+02 -0.63728172435E+03  0.23001727675E+04  0.22016793281E+04 0.  0.
        -24    2    3    3    0    0 -0.61678075230E+03 -0.74499702967E+03 -0.59075719101E+03  0.11358394261E+04  0.75485577920E+02 0.  0.
        -15    1    3    3    0    0  0.73178059822E+03  0.80100691321E+03 -0.14349064556E+02  0.10850441533E+04  0.00000000000E+00 0.  1.
        -15    1    3    3    0    0  0.29164822031E+02 -0.15595645971E+01 -0.16785241321E+01  0.29254683883E+02  0.00000000000E+00 0. -1.
         15    1    3    3    0    0  0.39222238952E+02  0.59164136631E+01 -0.30496944652E+02  0.50034504216E+02  0.00000000000E+00 0.  1.
         15    1    4    4    0    0 -0.47673858833E+03 -0.52499371438E+03 -0.42228581900E+03  0.82536258376E+03  0.00000000000E+00 0. -1.
        -16    1    4    4    0    0 -0.14004216397E+03 -0.22000331529E+03 -0.16847137201E+03  0.31047684231E+03  0.00000000000E+00 0.  1.
         16    1    1    2    0    0 -0.21620278053E+03 -0.53830185612E+02  0.26560561050E+03  0.34668093619E+03  0.00000000000E+00 0. -1.
    9900018    1    1    2    0    0  0.32815873622E+02 -0.65365470005E+01 -0.48819417946E+03  0.49776334062E+03  0.91187600000E+02 0.  0.
<mgrwt>
<rscale>  0 0.30247710E+04</rscale>
<asrwt>0</asrwt>
<pdfrwt beam="1">  1        3 0.17574975E+00 0.30247710E+04</pdfrwt>
<pdfrwt beam="2">  1       -3 0.30803749E+00 0.30247710E+04</pdfrwt>
<totfact> 0.16100193E-02</totfact>
</mgrwt>
</event>
<event>
11    1  0.3092267E-010  0.2940368E+04  0.7818608E-02  0.8260967E-01
         -1   -1    0    0    0  501 -0.00000000000E+00  0.00000000000E+00  0.58703978210E+03  0.58703978210E+03  0.00000000000E+00 0.  1.
          1   -1    0    0  501    0  0.00000000000E+00 -0.00000000000E+00 -0.36819338331E+04  0.36819338331E+04  0.00000000000E+00 0. -1.
    9900016    2    1    2    0    0  0.20729568104E+03 -0.14140057897E+03 -0.25852286096E+04  0.34037770787E+04  0.21998467708E+04 0.  0.
        -24    2    3    3    0    0  0.52959231766E+03  0.25818292036E+03 -0.27434165205E+04  0.28071383778E+04  0.81026068568E+02 0.  0.
        -15    1    3    3    0    0 -0.10367830408E+03 -0.85554692220E+02  0.15995975731E+03  0.20893999152E+03  0.00000000000E+00 0. -1.
        -15    1    3    3    0    0 -0.21481754110E+03 -0.29131495717E+03  0.94558746635E+01  0.36207788362E+03  0.00000000000E+00 0.  1.
         15    1    4    4    0    0  0.23680162426E+03  0.71758124022E+02 -0.11077272245E+04  0.11350259211E+04  0.00000000000E+00 0. -1.
         15    1    3    3    0    0 -0.38007914328E+01 -0.22713849947E+02 -0.11227720992E+02  0.25620825779E+02  0.00000000000E+00 0.  1.
        -16    1    4    4    0    0  0.29279069341E+03  0.18642479634E+03 -0.16356892961E+04  0.16721124568E+04  0.00000000000E+00 0.  1.
         16    1    1    2    0    0 -0.41469646853E+03 -0.23225297631E+02 -0.34774143619E+03  0.54169796188E+03  0.00000000000E+00 0. -1.
    9900018    1    1    2    0    0  0.20740078749E+03  0.16462587661E+03 -0.16192400529E+03  0.32349857462E+03  0.91187600000E+02 0.  0.
<mgrwt>
<rscale>  0 0.29403684E+04</rscale>
<asrwt>0</asrwt>
<pdfrwt beam="1">  1        1 0.56645138E+00 0.29403684E+04</pdfrwt>
<pdfrwt beam="2">  1       -1 0.90313809E-01 0.29403684E+04</pdfrwt>
<totfact> 0.18292004E-01</totfact>
</mgrwt>
</event>
<event>
11    1  0.3223864E-010  0.5457866E+04  0.7818608E-02  0.7761514E-01
         -1   -1    0    0    0  501 -0.00000000000E+00  0.00000000000E+00  0.22972280406E+04  0.22972280406E+04  0.00000000000E+00 0.  1.
          1   -1    0    0  501    0  0.00000000000E+00 -0.00000000000E+00 -0.32417656008E+04  0.32417656008E+04  0.00000000000E+00 0. -1.
    9900016    2    1    2    0    0  0.10988484326E+04 -0.88219019180E+03 -0.10246827357E+04  0.28037820254E+04  0.21967001445E+04 0.  0.
         24    2    3    3    0    0  0.23958369143E+02 -0.12786172726E+04 -0.49150105224E+03  0.13723639591E+04  0.79833692958E+02 0.  0.
        -15    1    3    3    0    0  0.65879436752E+02 -0.61817335693E+02 -0.18021284730E+03  0.20158907091E+03  0.00000000000E+00 0.  1.
        -15    1    4    4    0    0  0.25168209879E+02 -0.79760706463E+03 -0.26648691680E+03  0.84132380518E+03  0.00000000000E+00 0.  1.
         15    1    3    3    0    0  0.20504460169E+02 -0.47743538068E+02 -0.63864386166E+02  0.82331877997E+02  0.00000000000E+00 0. -1.
         15    1    3    3    0    0  0.98850616655E+03  0.50598795459E+03 -0.28910444996E+03  0.11474971174E+04  0.00000000000E+00 0. -1.
        -16    1    1    2    0    0 -0.21462193061E+03  0.10977052987E+04  0.95409353202E+03  0.14701407972E+04  0.00000000000E+00 0.  1.
         16    1    4    4    0    0 -0.12098407363E+01 -0.48101020800E+03 -0.22501413545E+03  0.53104015391E+03  0.00000000000E+00 0. -1.
    9900018    1    1    2    0    0 -0.88422650200E+03 -0.21551510685E+03 -0.87394835654E+03  0.12650708187E+04  0.91187600000E+02 0.  0.
<mgrwt>
<rscale>  0 0.54578658E+04</rscale>
<asrwt>0</asrwt>
<pdfrwt beam="1">  1        1 0.49873317E+00 0.54578658E+04</pdfrwt>
<pdfrwt beam="2">  1       -1 0.35341970E+00 0.54578658E+04</pdfrwt>
<totfact> 0.40592519E-03</totfact>
</mgrwt>
</event>
<event>
11    1  0.3092267E-010  0.4215792E+04  0.7818608E-02  0.7962375E-01
          2   -1    0    0  501    0  0.00000000000E+00  0.00000000000E+00  0.16794761317E+04  0.16794761317E+04  0.00000000000E+00 0.  1.
         -2   -1    0    0    0  501 -0.00000000000E+00 -0.00000000000E+00 -0.26456019757E+04  0.26456019757E+04  0.00000000000E+00 0. -1.
    9900016    2    1    2    0    0  0.97732614680E+03  0.60052852484E+03 -0.90392969744E+03  0.26448570396E+04  0.22050802606E+04 0.  0.
         24    2    3    3    0    0 -0.84057817608E+02  0.75358705466E+02  0.61168839680E+03  0.62705568379E+03  0.79318879222E+02 0.  0.
        -15    1    4    4    0    0 -0.18099219599E+02  0.58806458393E+02  0.18451894213E+03  0.19450712404E+03  0.00000000000E+00 0.  1.
        -15    1    3    3    0    0  0.12398178777E+03  0.13545451118E+03 -0.24318708696E+03  0.30472835044E+03  0.00000000000E+00 0.  1.
         15    1    3    3    0    0  0.76285831478E+03  0.71870431902E+02 -0.99849893631E+03  0.12586176120E+04  0.00000000000E+00 0. -1.
         15    1    3    3    0    0  0.17454386187E+03  0.31784487629E+03 -0.27393207098E+03  0.45445539342E+03  0.00000000000E+00 0. -1.
        -16    1    1    2    0    0 -0.11586096229E+04 -0.74319377150E+03  0.10593157664E+03  0.13805559529E+04  0.00000000000E+00 0.  1.
         16    1    4    4    0    0 -0.65958598009E+02  0.16552247073E+02  0.42716945467E+03  0.43254855975E+03  0.00000000000E+00 0. -1.
    9900018    1    1    2    0    0  0.18128347610E+03  0.14266524666E+03 -0.16812772323E+03  0.29966511479E+03  0.91187600000E+02 0.  0.
<mgrwt>
<rscale>  0 0.42157919E+04</rscale>
<asrwt>0</asrwt>
<pdfrwt beam="1">  1        2 0.25838094E+00 0.42157919E+04</pdfrwt>
<pdfrwt beam="2">  1       -2 0.40701569E+00 0.42157919E+04</pdfrwt>
<totfact> 0.52106529E-02</totfact>
</mgrwt>
</event>
<event>
11    1  0.3092267E-010  0.3283017E+04  0.7818608E-02  0.8167230E-01
         -1   -1    0    0    0  501 -0.00000000000E+00  0.00000000000E+00  0.62420923780E+03  0.62420923780E+03  0.00000000000E+00 0.  1.
          1   -1    0    0  501    0  0.00000000000E+00 -0.00000000000E+00 -0.43167414719E+04  0.43167414719E+04  0.00000000000E+00 0. -1.
    9900016    2    1    2    0    0 -0.72438125049E+03  0.87163157857E+02 -0.29658245659E+04  0.37652612761E+04  0.22019880811E+04 0.  0.
         24    2    3    3    0    0 -0.71882986997E+02  0.45651835758E+03 -0.23530445082E+04  0.23993448946E+04  0.80382155238E+02 0.  0.
        -15    1    3    3    0    0 -0.85688609790E+02 -0.90837527921E+02  0.74253123404E+02  0.14528427534E+03  0.00000000000E+00 0.  1.
        -15    1    4    4    0    0 -0.62670286497E+02  0.24180147519E+03 -0.11001468207E+04  0.11281482816E+04  0.00000000000E+00 0.  1.
         15    1    3    3    0    0 -0.25963955376E+02 -0.78721380608E+02  0.16917375469E+03  0.18839039790E+03  0.00000000000E+00 0. -1.
         15    1    3    3    0    0 -0.54084569833E+03 -0.19979629119E+03 -0.85620693573E+03  0.10322417082E+04  0.00000000000E+00 0. -1.
        -16    1    1    2    0    0  0.24802273888E+03 -0.22191155788E+03 -0.56614023997E+02  0.33758727202E+03  0.00000000000E+00 0.  1.
         16    1    4    4    0    0 -0.92127004992E+01  0.21471688238E+03 -0.12528976876E+04  0.12711966130E+04  0.00000000000E+00 0. -1.
    9900018    1    1    2    0    0  0.47635851162E+03  0.13474840002E+03 -0.67009364426E+03  0.83810216166E+03  0.91187600000E+02 0.  0.
<mgrwt>
<rscale>  0 0.32830168E+04</rscale>
<asrwt>0</asrwt>
<pdfrwt beam="1">  1        1 0.66411406E+00 0.32830168E+04</pdfrwt>
<pdfrwt beam="2">  1       -1 0.96032192E-01 0.32830168E+04</pdfrwt>
<totfact> 0.42463916E-02</totfact>
</mgrwt>
</event>
<event>
11    1  0.3092267E-010  0.5223058E+04  0.7818608E-02  0.7794990E-01
         -1   -1    0    0    0  501 -0.00000000000E+00  0.00000000000E+00  0.20752044706E+04  0.20752044706E+04  0.00000000000E+00 0.  1.
          1   -1    0    0  501    0  0.00000000000E+00 -0.00000000000E+00 -0.32864629292E+04  0.32864629292E+04  0.00000000000E+00 0. -1.
    9900016    2    1    2    0    0  0.10174044025E+03  0.16240162020E+03 -0.36572798413E+03  0.22405535692E+04  0.22021802684E+04 0.  0.
        -24    2    3    3    0    0 -0.63585466336E+03 -0.81537063923E+02  0.11234953810E+03  0.65567459772E+03  0.79544413233E+02 0.  0.
        -15    1    3    3    0    0  0.46153254281E+03  0.23056980752E+03 -0.91713808021E+03  0.10522913011E+04  0.00000000000E+00 0.  1.
        -15    1    3    3    0    0  0.59806439897E+02 -0.17789970741E+02  0.19632576739E+03  0.20600267050E+03  0.00000000000E+00 0.  1.
         15    1    4    4    0    0 -0.49304595180E+03 -0.50656310898E+02  0.54884786158E+02  0.49867094579E+03  0.00000000000E+00 0. -1.
         15    1    3    3    0    0  0.21625612089E+03  0.31158847349E+02  0.24273479059E+03  0.32658499989E+03  0.00000000000E+00 0. -1.
        -16    1    4    4    0    0 -0.14280871155E+03 -0.30880753025E+02  0.57464751946E+02  0.15700365193E+03  0.00000000000E+00 0.  1.
         16    1    1    2    0    0  0.86804077343E+03  0.10983146025E+04 -0.26070286748E+03  0.14239928847E+04  0.00000000000E+00 0. -1.
    9900018    1    1    2    0    0 -0.96978121368E+03 -0.12607162227E+04 -0.58482760698E+03  0.16971209459E+04  0.91187600000E+02 0.  0.
<mgrwt>
<rscale>  0 0.52230576E+04</rscale>
<asrwt>0</asrwt>
<pdfrwt beam="1">  1        1 0.50560968E+00 0.52230576E+04</pdfrwt>
<pdfrwt beam="2">  1       -1 0.31926223E+00 0.52230576E+04</pdfrwt>
<totfact> 0.64169940E-03</totfact>
</mgrwt>
</event>
<event>
11    1  0.3092267E-010  0.4235280E+04  0.7818608E-02  0.7958695E-01
         -1   -1    0    0    0  501 -0.00000000000E+00  0.00000000000E+00  0.20229214795E+04  0.20229214795E+04  0.00000000000E+00 0.  1.
          1   -1    0    0  501    0  0.00000000000E+00 -0.00000000000E+00 -0.22167933114E+04  0.22167933114E+04  0.00000000000E+00 0. -1.
    9900016    2    1    2    0    0 -0.75610199152E+03 -0.78081935043E+02 -0.20525584222E+03  0.23378112046E+04  0.22012369834E+04 0.  0.
        -24    2    3    3    0    0 -0.36166575477E+03 -0.71645587914E+03  0.29193788924E+03  0.85776223579E+03  0.80107284592E+02 0.  0.
        -15    1    3    3    0    0  0.23815799389E+02 -0.98921638911E+01  0.33690086664E+02  0.42427221762E+02  0.00000000000E+00 0. -1.
        -15    1    3    3    0    0 -0.57335310981E+03  0.54892656350E+03 -0.78988351304E+03  0.11198080750E+04  0.00000000000E+00 0.  1.
         15    1    4    4    0    0 -0.13586413353E+03 -0.19954180048E+03  0.67419418028E+02  0.25064191758E+03  0.00000000000E+00 0. -1.
         15    1    3    3    0    0  0.15510107366E+03  0.99339544489E+02  0.25899969492E+03  0.31781367201E+03  0.00000000000E+00 0.  1.
        -16    1    4    4    0    0 -0.22580162123E+03 -0.51691407866E+03  0.22451847121E+03  0.60712031821E+03  0.00000000000E+00 0.  1.
         16    1    1    2    0    0  0.46689742746E+03  0.33596922819E+03 -0.80748038138E+03  0.99140965114E+03  0.00000000000E+00 0. -1.
    9900018    1    1    2    0    0  0.28920456406E+03 -0.25788729314E+03  0.81886439162E+03  0.91049393523E+03  0.91187600000E+02 0.  0.
<mgrwt>
<rscale>  0 0.42352798E+04</rscale>
<asrwt>0</asrwt>
<pdfrwt beam="1">  1        1 0.34104512E+00 0.42352798E+04</pdfrwt>
<pdfrwt beam="2">  1       -1 0.31121869E+00 0.42352798E+04</pdfrwt>
<totfact> 0.45487008E-02</totfact>
</mgrwt>
</event>
<event>
11    1  0.3092267E-010  0.3573673E+04  0.7818608E-02  0.8096549E-01
          2   -1    0    0  501    0  0.00000000000E+00  0.00000000000E+00  0.17234826071E+04  0.17234826071E+04  0.00000000000E+00 0. -1.
         -2   -1    0    0    0  501 -0.00000000000E+00 -0.00000000000E+00 -0.18525190720E+04  0.18525190720E+04  0.00000000000E+00 0.  1.
    9900016    2    1    2    0    0  0.13549936438E+03 -0.52760970176E+03 -0.58700653771E+03  0.23437851824E+04  0.22027301766E+04 0.  0.
         24    2    3    3    0    0 -0.49314339514E+03  0.53470115709E+03 -0.44398011379E+03  0.85589154067E+03  0.79600580327E+02 0.  0.
        -15    1    3    3    0    0  0.18340178608E+03 -0.43248565846E+03 -0.17880028331E+03  0.50264261779E+03  0.00000000000E+00 0.  1.
        -15    1    4    4    0    0 -0.23199524088E+03  0.29071033603E+03 -0.26105371416E+03  0.45440437162E+03  0.00000000000E+00 0.  1.
         15    1    3    3    0    0  0.20222567553E+03 -0.11956203148E+03 -0.25745837957E+03  0.34853281112E+03  0.00000000000E+00 0. -1.
         15    1    3    3    0    0  0.24301529791E+03 -0.51026316891E+03  0.29323223896E+03  0.63671821281E+03  0.00000000000E+00 0. -1.
        -16    1    1    2    0    0  0.15507502913E+03  0.61758577977E+03 -0.43951014737E+02  0.63827278787E+03  0.00000000000E+00 0.  1.
         16    1    4    4    0    0 -0.26114815426E+03  0.24399082106E+03 -0.18292639963E+03  0.40148716906E+03  0.00000000000E+00 0. -1.
    9900018    1    1    2    0    0 -0.29057439351E+03 -0.89976078010E+02  0.50192108752E+03  0.59394370884E+03  0.91187600000E+02 0.  0.
<mgrwt>
<rscale>  0 0.35736728E+04</rscale>
<asrwt>0</asrwt>
<pdfrwt beam="1">  1        2 0.26515117E+00 0.35736728E+04</pdfrwt>
<pdfrwt beam="2">  1       -2 0.28500293E+00 0.35736728E+04</pdfrwt>
<totfact> 0.30510573E-01</totfact>
</mgrwt>
</event>
<event>
11    1  0.3092267E-010  0.3675007E+04  0.7818608E-02  0.8073523E-01
         -1   -1    0    0    0  501 -0.00000000000E+00  0.00000000000E+00  0.29636382793E+04  0.29636382793E+04  0.00000000000E+00 0.  1.
          1   -1    0    0  501    0  0.00000000000E+00 -0.00000000000E+00 -0.11392817904E+04  0.11392817904E+04  0.00000000000E+00 0. -1.
    9900016    2    1    2    0    0  0.21901216801E+03 -0.10306249347E+03  0.55539130422E+03  0.22845558129E+04  0.22027590776E+04 0.  0.
        -24    2    3    3    0    0 -0.16407566845E+03  0.76873016521E+03 -0.13096445878E+03  0.80079731678E+03  0.79106012513E+02 0.  0.
        -15    1    3    3    0    0 -0.43715774431E+02  0.71374245935E+02  0.49143921025E+02  0.97059141201E+02  0.00000000000E+00 0. -1.
        -15    1    3    3    0    0  0.47365613276E+03 -0.10229102277E+04  0.53159405236E+03  0.12463096335E+04  0.00000000000E+00 0.  1.
         15    1    4    4    0    0 -0.50918554642E+01  0.77985619800E+02  0.77910850893E+01  0.78539066041E+02  0.00000000000E+00 0. -1.
         15    1    3    3    0    0 -0.46852521863E+02  0.79743323117E+02  0.10561778961E+03  0.14038972138E+03  0.00000000000E+00 0.  1.
        -16    1    4    4    0    0 -0.15898381299E+03  0.69074454541E+03 -0.13875554387E+03  0.72225825074E+03  0.00000000000E+00 0.  1.
         16    1    1    2    0    0 -0.49711900914E+03  0.31043816089E+03  0.98674231087E+02  0.59433640715E+03  0.00000000000E+00 0. -1.
    9900018    1    1    2    0    0  0.27810684113E+03 -0.20737566742E+03  0.11702909535E+04  0.12240278497E+04  0.91187600000E+02 0.  0.
<mgrwt>
<rscale>  0 0.36750070E+04</rscale>
<asrwt>0</asrwt>
<pdfrwt beam="1">  1        1 0.17527412E+00 0.36750070E+04</pdfrwt>
<pdfrwt beam="2">  1       -1 0.45594435E+00 0.36750070E+04</pdfrwt>
<totfact> 0.28034566E-02</totfact>
</mgrwt>
</event>
<event>
11    1  0.3092267E-010  0.3300277E+04  0.7818608E-02  0.8162825E-01
          1   -1    0    0  501    0  0.00000000000E+00  0.00000000000E+00  0.25971503444E+04  0.25971503444E+04  0.00000000000E+00 0.  1.
         -1   -1    0    0    0  501 -0.00000000000E+00 -0.00000000000E+00 -0.10484405919E+04  0.10484405919E+04  0.00000000000E+00 0. -1.
    9900016    2    1    2    0    0  0.75905589493E+03 -0.82497897902E+02  0.80713953355E+03  0.24576159400E+04  0.21921291310E+04 0.  0.
        -24    2    3    3    0    0  0.26807827804E+03  0.65315531654E+02 -0.71797550024E+03  0.77317272766E+03  0.78582224579E+02 0.  0.
        -15    1    3    3    0    0  0.76178130303E+01  0.81816896933E+01 -0.52272301988E+01  0.12340788352E+02  0.00000000000E+00 0.  1.
        -15    1    3    3    0    0  0.45428697691E+03 -0.15598041785E+03  0.15589788995E+04  0.16312945035E+04  0.00000000000E+00 0.  1.
         15    1    4    4    0    0  0.15500435083E+03  0.62157528939E+02 -0.50683323022E+03  0.53363829551E+03  0.00000000000E+00 0. -1.
         15    1    3    3    0    0  0.29072826945E+02 -0.14701403536E-01 -0.28636635470E+02  0.40807920478E+02  0.00000000000E+00 0. -1.
        -16    1    4    4    0    0  0.11307392721E+03  0.31580027155E+01 -0.21114227002E+03  0.23953443215E+03  0.00000000000E+00 0.  1.
         16    1    1    2    0    0 -0.60673716558E+03  0.25984396288E+03  0.42926811077E+03  0.78734997559E+03  0.00000000000E+00 0. -1.
    9900018    1    1    2    0    0 -0.15231872934E+03 -0.17734606498E+03  0.31230210822E+03  0.40062502077E+03  0.91187600000E+02 0.  0.
<mgrwt>
<rscale>  0 0.33002775E+04</rscale>
<asrwt>0</asrwt>
<pdfrwt beam="1">  1        1 0.39956159E+00 0.33002775E+04</pdfrwt>
<pdfrwt beam="2">  1       -1 0.16129855E+00 0.33002775E+04</pdfrwt>
<totfact> 0.27463797E-01</totfact>
</mgrwt>
</event>
<event>
11    1  0.3092267E-010  0.3686599E+04  0.7818608E-02  0.8070938E-01
          1   -1    0    0  501    0  0.00000000000E+00  0.00000000000E+00  0.18105972326E+04  0.18105972326E+04  0.00000000000E+00 0. -1.
         -1   -1    0    0    0  501 -0.00000000000E+00 -0.00000000000E+00 -0.18765920983E+04  0.18765920983E+04  0.00000000000E+00 0.  1.
    9900016    2    1    2    0    0  0.12073486701E+03 -0.19127624752E+03  0.28933528487E+03  0.22262923727E+04  0.21957912721E+04 0.  0.
        -24    2    3    3    0    0 -0.19825606446E+03 -0.99245157904E+03 -0.18677116312E+03  0.10320132045E+04  0.76825667097E+02 0.  0.
        -15    1    3    3    0    0  0.25240139138E+03  0.92149638005E+03  0.41984748561E+03  0.10436158067E+04  0.00000000000E+00 0.  1.
        -15    1    3    3    0    0  0.13674707925E+02 -0.87454996180E+01  0.53090666692E+01  0.17078278288E+02  0.00000000000E+00 0. -1.
         15    1    4    4    0    0 -0.76128965863E+00 -0.12991249048E+03 -0.17147673401E+02  0.13104151040E+03  0.00000000000E+00 0. -1.
         15    1    3    3    0    0  0.52914832164E+02 -0.11157554892E+03  0.50949895715E+02  0.13358508320E+03  0.00000000000E+00 0.  1.
        -16    1    4    4    0    0 -0.19749477480E+03 -0.86253908856E+03 -0.16962348972E+03  0.90097169414E+03  0.00000000000E+00 0.  1.
         16    1    1    2    0    0 -0.57469831986E+03  0.15486326154E+03 -0.67281236635E+03  0.89829687128E+03  0.00000000000E+00 0. -1.
    9900018    1    1    2    0    0  0.45396345285E+03  0.36412985981E+02  0.31748221580E+03  0.56260008693E+03  0.91187600000E+02 0.  0.
<mgrwt>
<rscale>  0 0.36865987E+04</rscale>
<asrwt>0</asrwt>
<pdfrwt beam="1">  1        1 0.27855342E+00 0.36865987E+04</pdfrwt>
<pdfrwt beam="2">  1       -1 0.28870648E+00 0.36865987E+04</pdfrwt>
<totfact> 0.12579958E-01</totfact>
</mgrwt>
</event>
<event>
11    1  0.3092267E-010  0.3694069E+04  0.7818608E-02  0.8069278E-01
          1   -1    0    0  501    0  0.00000000000E+00  0.00000000000E+00  0.35126717765E+04  0.35126717765E+04  0.00000000000E+00 0. -1.
         -1   -1    0    0    0  501 -0.00000000000E+00 -0.00000000000E+00 -0.97120825689E+03  0.97120825689E+03  0.00000000000E+00 0.  1.
    9900016    2    1    2    0    0 -0.39175532836E+03  0.67671094708E+02  0.74963723119E+03  0.23776962862E+04  0.22211330525E+04 0.  0.
        -24    2    3    3    0    0 -0.59935790430E+02 -0.95931122168E+03  0.77326369165E+03  0.12363925292E+04  0.82821678858E+02 0.  0.
        -15    1    3    3    0    0 -0.33763986235E+03  0.10026230540E+04 -0.83621196310E+02  0.10612474592E+04  0.00000000000E+00 0.  1.
        -15    1    3    3    0    0  0.96529815968E+01 -0.54949256076E+01 -0.18646279350E+01  0.11262819295E+02  0.00000000000E+00 0. -1.
         15    1    3    3    0    0 -0.38326571763E+01  0.29854187964E+02  0.61859363777E+02  0.68793478520E+02  0.00000000000E+00 0.  1.
         15    1    4    4    0    0 -0.20598824762E+02 -0.17115796431E+03  0.17907293208E+03  0.24856885431E+03  0.00000000000E+00 0. -1.
        -16    1    4    4    0    0 -0.39336965668E+02 -0.78815325737E+03  0.59419075957E+03  0.98782367492E+03  0.00000000000E+00 0.  1.
         16    1    1    2    0    0  0.47638751468E+03 -0.82735701225E+02  0.18875455372E+04  0.19484913177E+04  0.00000000000E+00 0. -1.
    9900018    1    1    2    0    0 -0.84632186321E+02  0.15064606517E+02 -0.95719248739E+02  0.15769242944E+03  0.91187600000E+02 0.  0.
<mgrwt>
<rscale>  0 0.36940687E+04</rscale>
<asrwt>0</asrwt>
<pdfrwt beam="1">  1        1 0.54041104E+00 0.36940687E+04</pdfrwt>
<pdfrwt beam="2">  1       -1 0.14941666E+00 0.36940687E+04</pdfrwt>
<totfact> 0.69004716E-02</totfact>
</mgrwt>
</event>
<event>
11    1  0.3092267E-010  0.4127966E+04  0.7818608E-02  0.7979218E-01
          2   -1    0    0  501    0  0.00000000000E+00  0.00000000000E+00  0.36841473438E+04  0.36841473438E+04  0.00000000000E+00 0. -1.
         -2   -1    0    0    0  501 -0.00000000000E+00 -0.00000000000E+00 -0.11563128138E+04  0.11563128138E+04  0.00000000000E+00 0.  1.
    9900016    2    1    2    0    0 -0.43942194090E+03  0.10046427243E+03  0.18366865032E+03  0.22512407635E+04  0.21979913762E+04 0.  0.
        -24    2    3    3    0    0 -0.85871650125E+03  0.72138186748E+03  0.21195364084E+03  0.11441353247E+04  0.79595647952E+02 0.  0.
        -15    1    3    3    0    0  0.52995589130E+03 -0.53833377280E+03 -0.52358683519E+02  0.75723043349E+03  0.00000000000E+00 0.  1.
        -15    1    3    3    0    0 -0.12281375856E+03 -0.19480057914E+03 -0.14118188610E+02  0.23071586026E+03  0.00000000000E+00 0.  1.
         15    1    3    3    0    0  0.12152427603E+02  0.11221675689E+03  0.38191881603E+02  0.11915914503E+03  0.00000000000E+00 0. -1.
         15    1    4    4    0    0 -0.63227097299E+03  0.56383997235E+03  0.13595525352E+03  0.85800112393E+03  0.00000000000E+00 0. -1.
        -16    1    4    4    0    0 -0.22644552826E+03  0.15754189513E+03  0.75998387323E+02  0.28613420080E+03  0.00000000000E+00 0.  1.
         16    1    1    2    0    0  0.15008090318E+03 -0.37868102208E+03  0.20324892681E+04  0.20729052605E+04  0.00000000000E+00 0. -1.
    9900018    1    1    2    0    0  0.28934103772E+03  0.27821674965E+03  0.31167661162E+03  0.51631413357E+03  0.91187600000E+02 0.  0.
<mgrwt>
<rscale>  0 0.41279665E+04</rscale>
<asrwt>0</asrwt>
<pdfrwt beam="1">  1        2 0.56679189E+00 0.41279665E+04</pdfrwt>
<pdfrwt beam="2">  1       -2 0.17789428E+00 0.41279665E+04</pdfrwt>
<totfact> 0.87581689E-02</totfact>
</mgrwt>
</event>
<event>
11    1  0.3092267E-010  0.3122303E+04  0.7818608E-02  0.8209643E-01
         -2   -1    0    0    0  501 -0.00000000000E+00  0.00000000000E+00  0.14758416516E+04  0.14758416516E+04  0.00000000000E+00 0.  1.
          2   -1    0    0  501    0  0.00000000000E+00 -0.00000000000E+00 -0.16513931240E+04  0.16513931240E+04  0.00000000000E+00 0. -1.
    9900016    2    1    2    0    0 -0.57479272200E+03  0.34545439753E+03 -0.86091384067E+02  0.22887381188E+04  0.21865921056E+04 0.  0.
        -24    2    3    3    0    0 -0.87931709202E+03  0.95380456629E+03 -0.19406239107E+03  0.13140616225E+04  0.78460417961E+02 0.  0.
        -15    1    3    3    0    0  0.97189558342E+02 -0.48598692155E+03 -0.18826453273E+03  0.53016283579E+03  0.00000000000E+00 0.  1.
        -15    1    3    3    0    0  0.14122369088E+03  0.44036186629E+02  0.98317030166E+02  0.17762194408E+03  0.00000000000E+00 0.  1.
         15    1    4    4    0    0 -0.79265459722E+03  0.83125441487E+03 -0.15540324287E+03  0.11590665989E+04  0.00000000000E+00 0. -1.
         15    1    3    3    0    0  0.66111120799E+02 -0.16639943384E+03  0.19791850956E+03  0.26689171644E+03  0.00000000000E+00 0. -1.
        -16    1    4    4    0    0 -0.86662494794E+02  0.12255015143E+03 -0.38659148198E+02  0.15499502366E+03  0.00000000000E+00 0.  1.
         16    1    1    2    0    0  0.54647786333E+03 -0.43268901370E+03 -0.11558206379E+03  0.70655293585E+03  0.00000000000E+00 0. -1.
    9900018    1    1    2    0    0  0.28314858664E+02  0.87234616169E+02  0.26121975482E+02  0.13194372087E+03  0.91187600000E+02 0.  0.
<mgrwt>
<rscale>  0 0.31223035E+04</rscale>
<asrwt>0</asrwt>
<pdfrwt beam="1">  1        2 0.25406048E+00 0.31223035E+04</pdfrwt>
<pdfrwt beam="2">  1       -2 0.22705256E+00 0.31223035E+04</pdfrwt>
<totfact> 0.78924513E-01</totfact>
</mgrwt>
</event>
<event>
11    1  0.3092267E-010  0.3047493E+04  0.7818608E-02  0.8230297E-01
         -1   -1    0    0    0  501 -0.00000000000E+00  0.00000000000E+00  0.98775429754E+03  0.98775429754E+03  0.00000000000E+00 0.  1.
          1   -1    0    0  501    0  0.00000000000E+00 -0.00000000000E+00 -0.23505883060E+04  0.23505883060E+04  0.00000000000E+00 0. -1.
    9900016    2    1    2    0    0  0.11977410852E+03 -0.31606929977E+03 -0.76497042682E+03  0.23504226848E+04  0.21966022407E+04 0.  0.
        -24    2    3    3    0    0 -0.23782038826E+03 -0.23421215430E+03 -0.13321075932E+04  0.13756170725E+04  0.79986375018E+02 0.  0.
        -15    1    3    3    0    0 -0.10234782897E+03 -0.41385771657E+02  0.63821657027E+02  0.12751887741E+03  0.00000000000E+00 0. -1.
        -15    1    3    3    0    0  0.55817735665E+03 -0.10113255113E+02  0.49148614644E+03  0.74378953444E+03  0.00000000000E+00 0.  1.
         15    1    4    4    0    0 -0.20639760890E+03 -0.20239761772E+03 -0.12397174215E+04  0.12729744906E+04  0.00000000000E+00 0. -1.
         15    1    3    3    0    0 -0.98235030891E+02 -0.30358118706E+02  0.11829362869E+02  0.10349720040E+03  0.00000000000E+00 0.  1.
        -16    1    4    4    0    0 -0.31422779364E+02 -0.31814536577E+02 -0.92390171679E+02  0.10264258192E+03  0.00000000000E+00 0.  1.
         16    1    1    2    0    0 -0.31636487113E+03  0.41376801257E+03 -0.52440243665E+03  0.73911339825E+03  0.00000000000E+00 0. -1.
    9900018    1    1    2    0    0  0.19659076261E+03 -0.97698712797E+02 -0.73461144983E+02  0.24880652050E+03  0.91187600000E+02 0.  0.
<mgrwt>
<rscale>  0 0.30474932E+04</rscale>
<asrwt>0</asrwt>
<pdfrwt beam="1">  1        1 0.36162897E+00 0.30474932E+04</pdfrwt>
<pdfrwt beam="2">  1       -1 0.15196220E+00 0.30474932E+04</pdfrwt>
<totfact> 0.49041569E-01</totfact>
</mgrwt>
</event>
<event>
11    1  0.3274722E-010  0.4052820E+04  0.7818608E-02  0.7993975E-01
          2   -1    0    0  501    0  0.00000000000E+00  0.00000000000E+00  0.18042173181E+04  0.18042173181E+04  0.00000000000E+00 0. -1.
         -2   -1    0    0    0  501 -0.00000000000E+00 -0.00000000000E+00 -0.22759656085E+04  0.22759656085E+04  0.00000000000E+00 0.  1.
    9900016    2    1    2    0    0  0.16483496788E+03 -0.45346564189E+03  0.32207352481E+03  0.22767037358E+04  0.22015555615E+04 0.  0.
         24    2    3    3    0    0  0.93895504336E+01 -0.49876561888E+03 -0.86949422652E+03  0.10049415156E+04  0.70936123029E+02 0.  0.
        -15    1    4    4    0    0  0.39546741735E+02 -0.23485518634E+03 -0.42015099824E+03  0.48295731142E+03  0.00000000000E+00 0.  1.
        -15    1    3    3    0    0 -0.61842804174E+02 -0.27853137098E+02  0.90873499290E+02  0.11339454373E+03  0.00000000000E+00 0. -1.
         15    1    3    3    0    0 -0.50455956804E+02 -0.36239976370E+02  0.31643333091E+03  0.32247355299E+03  0.00000000000E+00 0.  1.
         15    1    3    3    0    0  0.26774417843E+03  0.10939309046E+03  0.78426092113E+03  0.83589412352E+03  0.00000000000E+00 0. -1.
        -16    1    1    2    0    0  0.11348135538E+01  0.24938917556E+03 -0.12469573330E+04  0.12716520117E+04  0.00000000000E+00 0.  1.
         16    1    4    4    0    0 -0.30157191301E+02 -0.26391043255E+03 -0.44934322828E+03  0.52198420416E+03  0.00000000000E+00 0. -1.
    9900018    1    1    2    0    0 -0.16596978144E+03  0.20407646633E+03  0.45313551785E+03  0.53182717906E+03  0.91187600000E+02 0.  0.
<mgrwt>
<rscale>  0 0.40528195E+04</rscale>
<asrwt>0</asrwt>
<pdfrwt beam="1">  1        2 0.27757189E+00 0.40528195E+04</pdfrwt>
<pdfrwt beam="2">  1       -2 0.35014856E+00 0.40528195E+04</pdfrwt>
<totfact> 0.10463924E-01</totfact>
</mgrwt>
</event>
<event>
11    1  0.3092267E-010  0.3889591E+04  0.7818608E-02  0.8027198E-01
         -2   -1    0    0    0  501 -0.00000000000E+00  0.00000000000E+00  0.12604799022E+04  0.12604799022E+04  0.00000000000E+00 0. -1.
          2   -1    0    0  501    0  0.00000000000E+00 -0.00000000000E+00 -0.30006270563E+04  0.30006270563E+04  0.00000000000E+00 0.  1.
    9900016    2    1    2    0    0 -0.11209473249E+04 -0.21525392577E+03 -0.17109783056E+04  0.30121171988E+04  0.22005785829E+04 0.  0.
        -24    2    3    3    0    0 -0.94684786877E+03 -0.73456147261E+03 -0.15785549601E+03  0.12116809183E+04  0.84562678683E+02 0.  0.
        -15    1    3    3    0    0  0.17342138542E+01 -0.15865245286E+02  0.25404186403E+02  0.30001436507E+02  0.00000000000E+00 0. -1.
        -15    1    3    3    0    0 -0.15457710339E+03  0.55215754124E+03 -0.16213201491E+04  0.17197241224E+04  0.00000000000E+00 0.  1.
         15    1    3    3    0    0 -0.21256566645E+02 -0.16984749119E+02  0.42793153138E+02  0.50710721584E+02  0.00000000000E+00 0.  1.
         15    1    4    4    0    0 -0.30388532128E+03 -0.23065446612E+03 -0.89930423538E+02  0.39196333031E+03  0.00000000000E+00 0. -1.
        -16    1    4    4    0    0 -0.64296254749E+03 -0.50390700648E+03 -0.67925072476E+02  0.81971758803E+03  0.00000000000E+00 0.  1.
         16    1    1    2    0    0  0.93762362156E+03  0.23383486990E+02  0.93865321051E+02  0.94260041463E+03  0.00000000000E+00 0. -1.
    9900018    1    1    2    0    0  0.18332370338E+03  0.19187043878E+03 -0.12303416954E+03  0.30638934507E+03  0.91187600000E+02 0.  0.
<mgrwt>
<rscale>  0 0.38895913E+04</rscale>
<asrwt>0</asrwt>
<pdfrwt beam="1">  1        2 0.46163492E+00 0.38895913E+04</pdfrwt>
<pdfrwt beam="2">  1       -2 0.19391999E+00 0.38895913E+04</pdfrwt>
<totfact> 0.20191046E-01</totfact>
</mgrwt>
</event>
<event>
11    1  0.3092267E-010  0.3651279E+04  0.7818608E-02  0.8078846E-01
          2   -1    0    0  501    0  0.00000000000E+00  0.00000000000E+00  0.76332757403E+03  0.76332757403E+03  0.00000000000E+00 0. -1.
         -2   -1    0    0    0  501 -0.00000000000E+00 -0.00000000000E+00 -0.43663558373E+04  0.43663558373E+04  0.00000000000E+00 0.  1.
    9900016    2    1    2    0    0  0.82643401363E+03 -0.11971620986E+03 -0.23010302400E+04  0.32898737297E+04  0.21979999641E+04 0.  0.
         24    2    3    3    0    0  0.12370057436E+04  0.16646663476E+03 -0.41978757446E+03  0.13189071763E+04  0.73485928858E+02 0.  0.
        -15    1    4    4    0    0  0.36940085384E+03  0.73562789919E+02 -0.15208916737E+03  0.40620141520E+03  0.00000000000E+00 0.  1.
        -15    1    3    3    0    0  0.87441701838E+01 -0.77694665541E+01 -0.15881574065E+02  0.19724338202E+02  0.00000000000E+00 0.  1.
         15    1    3    3    0    0 -0.36540446248E+03 -0.93064258149E+02 -0.13160110176E+04  0.13689654400E+04  0.00000000000E+00 0. -1.
         15    1    3    3    0    0 -0.53911437673E+02 -0.18534911992E+03 -0.54935007387E+03  0.58227677528E+03  0.00000000000E+00 0. -1.
        -16    1    1    2    0    0 -0.64617767237E+03  0.35630306792E+03 -0.31035056459E+03  0.80050917135E+03  0.00000000000E+00 0.  1.
         16    1    4    4    0    0  0.86760488976E+03  0.92903844839E+02 -0.26769840709E+03  0.91270576107E+03  0.00000000000E+00 0. -1.
    9900018    1    1    2    0    0 -0.18025634126E+03 -0.23658685806E+03 -0.99164745870E+03  0.10393005103E+04  0.91187600000E+02 0.  0.
<mgrwt>
<rscale>  0 0.36512791E+04</rscale>
<asrwt>0</asrwt>
<pdfrwt beam="1">  1        2 0.11743501E+00 0.36512791E+04</pdfrwt>
<pdfrwt beam="2">  1       -2 0.67174704E+00 0.36512791E+04</pdfrwt>
<totfact> 0.84206753E-03</totfact>
</mgrwt>
</event>
<event>
11    1  0.3092267E-010  0.3589234E+04  0.7818608E-02  0.8092962E-01
         -1   -1    0    0    0  501 -0.00000000000E+00  0.00000000000E+00  0.12655135621E+04  0.12655135621E+04  0.00000000000E+00 0.  1.
          1   -1    0    0  501    0  0.00000000000E+00 -0.00000000000E+00 -0.25449347564E+04  0.25449347564E+04  0.00000000000E+00 0. -1.
    9900016    2    1    2    0    0  0.36259797218E+03 -0.87634032261E+03 -0.61212999607E+03  0.24709944750E+04  0.21981039359E+04 0.  0.
         24    2    3    3    0    0  0.15105286633E+03  0.43742774649E+02  0.49007451345E+03  0.52086106637E+03  0.79955130934E+02 0.  0.
        -15    1    4    4    0    0  0.53762228925E+02  0.54642810060E+02  0.17838044455E+03  0.19415405468E+03  0.00000000000E+00 0.  1.
        -15    1    3    3    0    0  0.30375804633E+03 -0.38484116077E+03  0.92152696292E+02  0.49886249525E+03  0.00000000000E+00 0.  1.
         15    1    3    3    0    0  0.65857480355E+02 -0.60795852859E+02  0.55265875746E+02  0.10529796041E+03  0.00000000000E+00 0. -1.
         15    1    3    3    0    0 -0.15807042084E+03 -0.47444608364E+03 -0.12496230816E+04  0.13459729530E+04  0.00000000000E+00 0. -1.
        -16    1    1    2    0    0 -0.46030156621E+03  0.88031203345E+03 -0.46467785187E+03  0.10967006493E+04  0.00000000000E+00 0.  1.
         16    1    4    4    0    0  0.97290637407E+02 -0.10900035411E+02  0.31169406890E+03  0.32670701168E+03  0.00000000000E+00 0. -1.
    9900018    1    1    2    0    0  0.97703594033E+02 -0.39717108388E+01 -0.20261334636E+03  0.24275319420E+03  0.91187600000E+02 0.  0.
<mgrwt>
<rscale>  0 0.35892336E+04</rscale>
<asrwt>0</asrwt>
<pdfrwt beam="1">  1        1 0.39152842E+00 0.35892336E+04</pdfrwt>
<pdfrwt beam="2">  1       -1 0.19469439E+00 0.35892336E+04</pdfrwt>
<totfact> 0.16721141E-01</totfact>
</mgrwt>
</event>
<event>
11    1  0.3092267E-010  0.3541910E+04  0.7818608E-02  0.8103929E-01
         -2   -1    0    0    0  501 -0.00000000000E+00  0.00000000000E+00  0.12449024315E+04  0.12449024315E+04  0.00000000000E+00 0.  1.
          2   -1    0    0  501    0  0.00000000000E+00 -0.00000000000E+00 -0.25192997933E+04  0.25192997933E+04  0.00000000000E+00 0. -1.
    9900016    2    1    2    0    0  0.58682450814E+03  0.60481851277E+03 -0.51546881568E+03  0.23899776281E+04  0.21762620536E+04 0.  0.
        -24    2    3    3    0    0 -0.69613318917E+03  0.16384213070E+03 -0.53837856550E+03  0.89888566044E+03  0.81843080953E+02 0.  0.
        -15    1    3    3    0    0  0.11271519925E+04  0.57041494164E+03  0.11271545458E+03  0.12682860851E+04  0.00000000000E+00 0.  1.
        -15    1    3    3    0    0  0.58358369297E+01 -0.96340602462E+01 -0.99430921655E+00  0.11307553242E+02  0.00000000000E+00 0.  1.
         15    1    4    4    0    0 -0.15763107540E+03  0.37607456263E+02 -0.81001179044E+02  0.18117137662E+03  0.00000000000E+00 0. -1.
         15    1    3    3    0    0  0.14996986787E+03 -0.11980449933E+03 -0.88811395547E+02  0.21149832932E+03  0.00000000000E+00 0. -1.
        -16    1    4    4    0    0 -0.53850211377E+03  0.12623467443E+03 -0.45737738645E+03  0.71771428382E+03  0.00000000000E+00 0.  1.
         16    1    1    2    0    0 -0.58960810470E+03 -0.75500616269E+03 -0.70824434438E+03  0.11913362557E+04  0.00000000000E+00 0. -1.
    9900018    1    1    2    0    0  0.27835965680E+01  0.15018764992E+03 -0.50684201701E+02  0.18288834106E+03  0.91187600000E+02 0.  0.
<mgrwt>
<rscale>  0 0.35419105E+04</rscale>
<asrwt>0</asrwt>
<pdfrwt beam="1">  1        2 0.38758457E+00 0.35419105E+04</pdfrwt>
<pdfrwt beam="2">  1       -2 0.19152346E+00 0.35419105E+04</pdfrwt>
<totfact> 0.42054720E-01</totfact>
</mgrwt>
</event>
<event>
11    1  0.3092267E-010  0.3065744E+04  0.7818608E-02  0.8225202E-01
          1   -1    0    0  501    0  0.00000000000E+00  0.00000000000E+00  0.20368549084E+04  0.20368549084E+04  0.00000000000E+00 0. -1.
         -1   -1    0    0    0  501 -0.00000000000E+00 -0.00000000000E+00 -0.11535907670E+04  0.11535907670E+04  0.00000000000E+00 0.  1.
    9900016    2    1    2    0    0  0.35892621377E+03 -0.57509446286E+03  0.62396905455E+03  0.23782787605E+04  0.21925580525E+04 0.  0.
        -24    2    3    3    0    0  0.67489368008E+02 -0.32744103782E+03 -0.65197911860E+03  0.73727115901E+03  0.81972817275E+02 0.  0.
        -15    1    3    3    0    0  0.58072795501E+03 -0.37168375617E+03  0.75562595232E+03  0.10229195238E+04  0.00000000000E+00 0.  1.
        -15    1    3    3    0    0 -0.52431016123E+02  0.50948066122E+02  0.20076660552E+03  0.21366316197E+03  0.00000000000E+00 0.  1.
         15    1    3    3    0    0 -0.23686009313E+03  0.73082265014E+02  0.31955561532E+03  0.40442491572E+03  0.00000000000E+00 0. -1.
         15    1    4    4    0    0  0.27873556426E+02 -0.24637602236E+03 -0.41155751951E+03  0.48047650453E+03  0.00000000000E+00 0. -1.
        -16    1    4    4    0    0  0.39615811582E+02 -0.81065015464E+02 -0.24042159910E+03  0.25679465448E+03  0.00000000000E+00 0.  1.
         16    1    1    2    0    0 -0.25269065597E+03  0.57671322165E+03  0.21087085579E+03  0.66401598284E+03  0.00000000000E+00 0. -1.
    9900018    1    1    2    0    0 -0.10623555780E+03 -0.16187587974E+01  0.48424231014E+02  0.14815093204E+03  0.91187600000E+02 0.  0.
<mgrwt>
<rscale>  0 0.30657443E+04</rscale>
<asrwt>0</asrwt>
<pdfrwt beam="1">  1        1 0.31336229E+00 0.30657443E+04</pdfrwt>
<pdfrwt beam="2">  1       -1 0.17747550E+00 0.30657443E+04</pdfrwt>
<totfact> 0.51666204E-01</totfact>
</mgrwt>
</event>
<event>
11    1  0.3092267E-010  0.3478923E+04  0.7818608E-02  0.8118803E-01
         -2   -1    0    0    0  501 -0.00000000000E+00  0.00000000000E+00  0.15728153400E+04  0.15728153400E+04  0.00000000000E+00 0.  1.
          2   -1    0    0  501    0  0.00000000000E+00 -0.00000000000E+00 -0.19237650450E+04  0.19237650450E+04  0.00000000000E+00 0. -1.
    9900016    2    1    2    0    0 -0.89063540084E+01  0.21848424878E+03  0.23629467054E+02  0.22189878970E+04  0.22080611960E+04 0.  0.
        -24    2    3    3    0    0 -0.55095986056E+03  0.70430390186E+03 -0.56628126748E+02  0.89920260657E+03  0.75880358396E+02 0.  0.
        -15    1    3    3    0    0 -0.26837492998E+02  0.73168983790E+02  0.14586246340E+02  0.79288774751E+02  0.00000000000E+00 0.  1.
        -15    1    3    3    0    0  0.76518911264E+03 -0.65825961033E+03  0.11243403849E+03  0.10156089335E+04  0.00000000000E+00 0.  1.
         15    1    3    3    0    0 -0.19629811309E+03  0.99270973463E+02 -0.46762691028E+02  0.22488758224E+03  0.00000000000E+00 0. -1.
         15    1    4    4    0    0 -0.18338205222E+03  0.27144774878E+03 -0.49363347272E+02  0.33128476791E+03  0.00000000000E+00 0. -1.
        -16    1    4    4    0    0 -0.36757780834E+03  0.43285615309E+03 -0.72647794758E+01  0.56791783866E+03  0.00000000000E+00 0.  1.
         16    1    1    2    0    0  0.10036658348E+02  0.27977361902E+02 -0.78754320370E+03  0.78810390494E+03  0.00000000000E+00 0. -1.
    9900018    1    1    2    0    0 -0.11303043401E+01 -0.24646161069E+03  0.41296403168E+03  0.48948858310E+03  0.91187600000E+02 0.  0.
<mgrwt>
<rscale>  0 0.34789235E+04</rscale>
<asrwt>0</asrwt>
<pdfrwt beam="1">  1        2 0.29596385E+00 0.34789235E+04</pdfrwt>
<pdfrwt beam="2">  1       -2 0.24197159E+00 0.34789235E+04</pdfrwt>
<totfact> 0.43672234E-01</totfact>
</mgrwt>
</event>
<event>
11    1  0.3092267E-010  0.3267227E+04  0.7818608E-02  0.8171285E-01
          2   -1    0    0  501    0  0.00000000000E+00  0.00000000000E+00  0.23318451122E+04  0.23318451122E+04  0.00000000000E+00 0. -1.
         -2   -1    0    0    0  501 -0.00000000000E+00 -0.00000000000E+00 -0.11444557393E+04  0.11444557393E+04  0.00000000000E+00 0.  1.
    9900016    2    1    2    0    0 -0.24071622992E+03  0.26209683952E+03  0.74240817121E+03  0.23481635847E+04  0.21991051069E+04 0.  0.
         24    2    3    3    0    0 -0.57040248344E+03  0.22138054199E+03 -0.62357738076E+02  0.61999957662E+03  0.78375059957E+02 0.  0.
        -15    1    4    4    0    0 -0.65444884220E+02  0.51094441960E+02  0.31695681976E+01  0.83088633593E+02  0.00000000000E+00 0.  1.
        -15    1    3    3    0    0  0.72603549630E+02 -0.83113995090E+02 -0.18946177407E+03  0.21926006347E+03  0.00000000000E+00 0.  1.
         15    1    3    3    0    0  0.40942813663E+03  0.52261876945E+03  0.80084735158E+03  0.10402491326E+04  0.00000000000E+00 0. -1.
         15    1    3    3    0    0 -0.15234543274E+03 -0.39878847683E+03  0.19338033177E+03  0.46865481204E+03  0.00000000000E+00 0. -1.
        -16    1    1    2    0    0  0.29638714914E+03  0.30023670956E+03  0.33546010455E+02  0.42321715320E+03  0.00000000000E+00 0.  1.
         16    1    4    4    0    0 -0.50495759922E+03  0.17028610003E+03 -0.65527306273E+02  0.53691094303E+03  0.00000000000E+00 0. -1.
    9900018    1    1    2    0    0 -0.55670919217E+02 -0.56233354907E+03  0.41143519118E+03  0.70492011362E+03  0.91187600000E+02 0.  0.
<mgrwt>
<rscale>  0 0.32672273E+04</rscale>
<asrwt>0</asrwt>
<pdfrwt beam="1">  1        2 0.35874540E+00 0.32672273E+04</pdfrwt>
<pdfrwt beam="2">  1       -2 0.17607011E+00 0.32672273E+04</pdfrwt>
<totfact> 0.70319108E-01</totfact>
</mgrwt>
</event>
<event>
11    1  0.3092267E-010  0.3135257E+04  0.7818608E-02  0.8206128E-01
         -1   -1    0    0    0  501 -0.00000000000E+00  0.00000000000E+00  0.95749503204E+03  0.95749503204E+03  0.00000000000E+00 0.  1.
          1   -1    0    0  501    0  0.00000000000E+00 -0.00000000000E+00 -0.25665508468E+04  0.25665508468E+04  0.00000000000E+00 0. -1.
    9900016    2    1    2    0    0 -0.65812654776E+02 -0.14876497855E+03 -0.12928062161E+04  0.25556271443E+04  0.21985040059E+04 0.  0.
         24    2    3    3    0    0 -0.80637468030E+03 -0.94943374692E+02 -0.60642959316E+03  0.10169142009E+04  0.84280905457E+02 0.  0.
        -15    1    4    4    0    0 -0.23460347758E+03  0.10054908185E+02 -0.16551607836E+03  0.28728986245E+03  0.00000000000E+00 0.  1.
        -15    1    3    3    0    0 -0.82738390583E+02 -0.57245030468E+02 -0.34680139386E+03  0.36110087451E+03  0.00000000000E+00 0. -1.
         15    1    3    3    0    0  0.92521306934E+03  0.34979770273E+02 -0.12016540586E+03  0.93363940189E+03  0.00000000000E+00 0. -1.
         15    1    3    3    0    0 -0.10191265323E+03 -0.31556343660E+02 -0.21940982326E+03  0.24397266703E+03  0.00000000000E+00 0.  1.
        -16    1    1    2    0    0  0.29673659656E+03  0.61133820831E+02  0.21770820223E+03  0.37307748941E+03  0.00000000000E+00 0.  1.
         16    1    4    4    0    0 -0.57177120272E+03 -0.10499828288E+03 -0.44091351480E+03  0.72962433841E+03  0.00000000000E+00 0. -1.
    9900018    1    1    2    0    0 -0.23092394179E+03  0.87631157717E+02 -0.53395780089E+03  0.59534124518E+03  0.91187600000E+02 0.  0.
<mgrwt>
<rscale>  0 0.31352574E+04</rscale>
<asrwt>0</asrwt>
<pdfrwt beam="1">  1        1 0.39485397E+00 0.31352574E+04</pdfrwt>
<pdfrwt beam="2">  1       -1 0.14730693E+00 0.31352574E+04</pdfrwt>
<totfact> 0.37510369E-01</totfact>
</mgrwt>
</event>
