<event>
11    1  0.2467949E-013  0.3002912E+04  0.7818608E-02  0.8612480E-01
         -1   -1    0    0    0  501 -0.00000000000E+00  0.00000000000E+00  0.74624190776E+03  0.74624190776E+03  0.00000000000E+00 0.  1.
          1   -1    0    0  501    0  0.00000000000E+00 -0.00000000000E+00 -0.43167311250E+04  0.43167311250E+04  0.00000000000E+00 0. -1.
    9900016    2    1    2    0    0  0.47313019263E+03 -0.37085259506E+03 -0.22856523260E+04  0.30239146952E+04  0.18863906547E+04 0.  0.
        -24    2    3    3    0    0 -0.62708550079E+02  0.29484055660E+03 -0.30698564832E+03  0.43770992977E+03  0.80538675677E+02 0.  0.
        -15    1    1    2    0    0  0.83047910362E+02 -0.27906924532E+03 -0.94834956178E+02  0.30621931358E+03  0.00000000000E+00 0.  1.
        -15    1    3    3    0    0  0.59330333332E+03 -0.50224357544E+03 -0.21745125693E+04  0.23092774559E+04  0.00000000000E+00 0.  1.
         15    1    4    4    0    0  0.66740536242E+01  0.11779436424E+03 -0.15185906524E+03  0.19230504656E+03  0.00000000000E+00 0. -1.
         15    1    1    2    0    0 -0.64685824630E+02 -0.22833025450E+03 -0.34486141104E+03  0.41862674765E+03  0.00000000000E+00 0. -1.
        -16    1    4    4    0    0 -0.69382603704E+02  0.17704619236E+03 -0.15512658308E+03  0.24540488321E+03  0.00000000000E+00 0.  1.
         16    1    1    2    0    0 -0.49149227836E+03  0.87825209487E+03 -0.84514052408E+03  0.13142122763E+04  0.00000000000E+00 0. -1.
    9900018    1    3    3    0    0 -0.57464590620E+02 -0.16344957621E+03  0.19584589159E+03  0.27692730957E+03  0.91187600000E+02 0.  0.
<mgrwt>
<rscale>  0 0.19875154E+04</rscale>
<asrwt>0</asrwt>
<pdfrwt beam="1">  1        1 0.66411249E+00 0.30029122E+04</pdfrwt>
<pdfrwt beam="2">  1       -1 0.11480645E+00 0.30029122E+04</pdfrwt>
<totfact> 0.28293581E-02</totfact>
</mgrwt>
</event>
<event>
10    1  0.2467949E-013  0.2855100E+04  0.7818608E-02  0.8286363E-01
          2   -1    0    0  501    0  0.00000000000E+00  0.00000000000E+00  0.25135445659E+04  0.25135445659E+04  0.00000000000E+00 0. -1.
         -2   -1    0    0    0  501 -0.00000000000E+00 -0.00000000000E+00 -0.81076693207E+03  0.81076693207E+03  0.00000000000E+00 0.  1.
        -24    2    1    2    0    0 -0.46627470450E+03  0.57234280175E+03  0.32337211789E+03  0.80985502992E+03  0.79418260445E+02 0.  0.
        -15    1    1    2    0    0 -0.33048981905E+03  0.71657826550E+02  0.65664883325E+03  0.73861089541E+03  0.00000000000E+00 0.  1.
        -15    1    1    2    0    0 -0.11345361587E+02 -0.49609450259E+03  0.15870386331E+03  0.52098501798E+03  0.00000000000E+00 0.  1.
         15    1    1    2    0    0  0.35483985204E+03  0.25453840638E+03  0.37581734894E+02  0.43830754923E+03  0.00000000000E+00 0. -1.
         15    1    3    3    0    0 -0.21788545477E+03  0.28043291327E+03  0.19793442814E+03  0.40656454357E+03  0.00000000000E+00 0. -1.
        -16    1    3    3    0    0 -0.24838924972E+03  0.29190988848E+03  0.12543768975E+03  0.40329048635E+03  0.00000000000E+00 0.  1.
         16    1    1    2    0    0  0.23234785944E+03 -0.22541292455E+03  0.23419025502E+03  0.39955173619E+03  0.00000000000E+00 0. -1.
    9900018    1    1    2    0    0  0.22092217365E+03 -0.17703160754E+03  0.29228082942E+03  0.41700126920E+03  0.91187600000E+02 0.  0.
<mgrwt>
<rscale>  0 0.28550999E+04</rscale>
<asrwt>0</asrwt>
<pdfrwt beam="1">  1        2 0.38669916E+00 0.28550999E+04</pdfrwt>
<pdfrwt beam="2">  1       -2 0.12473338E+00 0.28550999E+04</pdfrwt>
<totfact> 0.14272258E+00</totfact>
</mgrwt>
</event>
<event>
10    1  0.2467949E-013  0.1998148E+04  0.7818608E-02  0.9255737E-01
         -5   -1    0    0    0  501 -0.00000000000E+00  0.00000000000E+00  0.11537569347E+04  0.11537569347E+04  0.00000000000E+00 0.  1.
          5   -1    0    0  501    0  0.00000000000E+00 -0.00000000000E+00 -0.18255751548E+04  0.18255751548E+04  0.00000000000E+00 0. -1.
        -24    2    1    2    0    0 -0.12846490639E+03  0.82044267844E+01 -0.94982893026E+03  0.96193638916E+03  0.81093003582E+02 0.  0.
        -15    1    1    2    0    0 -0.13478953524E+03 -0.13804169506E+03 -0.19821721539E+03  0.27661126669E+03  0.00000000000E+00 0.  1.
        -15    1    1    2    0    0 -0.17804644589E+03  0.28293060993E+03  0.13662696505E+03  0.36113320881E+03  0.00000000000E+00 0.  1.
         15    1    3    3    0    0 -0.23130328095E+02  0.44700900157E+01 -0.43241033814E+02  0.49242063197E+02  0.00000000000E+00 0. -1.
         15    1    1    2    0    0  0.18400664583E+03  0.20788331410E+03 -0.23359582774E+03  0.36282355041E+03  0.00000000000E+00 0. -1.
        -16    1    3    3    0    0 -0.10533457830E+03  0.37343367686E+01 -0.90658789645E+03  0.91269432596E+03  0.00000000000E+00 0.  1.
         16    1    1    2    0    0  0.39932994771E+03 -0.41989573473E+03  0.21788043203E+03  0.61907085042E+03  0.00000000000E+00 0. -1.
    9900018    1    1    2    0    0 -0.14203570601E+03  0.58919078980E+02  0.35531635625E+03  0.39775682403E+03  0.91187600000E+02 0.  0.
<mgrwt>
<rscale>  0 0.10496190E+04</rscale>
<asrwt>0</asrwt>
<pdfrwt beam="1">  1        5 0.28085772E+00 0.19981480E+04</pdfrwt>
<pdfrwt beam="2">  1       -5 0.17750107E+00 0.19981480E+04</pdfrwt>
<totfact> 0.44282320E-03</totfact>
</mgrwt>
</event>
<event>
11    1  0.2467949E-013  0.5347100E+04  0.7818608E-02  0.7777086E-01
          2   -1    0    0  501    0  0.00000000000E+00  0.00000000000E+00  0.25560898240E+04  0.25560898240E+04  0.00000000000E+00 0. -1.
         -2   -1    0    0    0  501 -0.00000000000E+00 -0.00000000000E+00 -0.27964073400E+04  0.27964073400E+04  0.00000000000E+00 0.  1.
    9900016    2    1    2    0    0 -0.80674938667E+02  0.95821447870E+03 -0.78096850813E+03  0.25186351898E+04  0.21929268058E+04 0.  0.
         24    2    3    3    0    0  0.16566976771E+03  0.10362817534E+04 -0.11213589205E+04  0.15379277359E+04  0.80309078096E+02 0.  0.
        -15    1    4    4    0    0  0.16125701433E+03  0.79697803632E+03 -0.86095769018E+03  0.11842406678E+04  0.00000000000E+00 0.  1.
        -15    1    1    2    0    0 -0.54572453004E+03  0.32827682778E+02  0.17610008829E+03  0.57437284105E+03  0.00000000000E+00 0.  1.
         15    1    1    2    0    0  0.92102283369E+03 -0.13784645975E+04  0.53773548895E+03  0.17428732492E+04  0.00000000000E+00 0. -1.
         15    1    3    3    0    0  0.14507936726E+03  0.51536499265E+02  0.50464004138E+03  0.52760364378E+03  0.00000000000E+00 0. -1.
        -16    1    1    2    0    0 -0.29462336498E+03  0.38742243603E+03 -0.17318458511E+03  0.51661588405E+03  0.00000000000E+00 0.  1.
         16    1    4    4    0    0  0.44127533812E+01  0.23930371711E+03 -0.26040123028E+03  0.35368706811E+03  0.00000000000E+00 0. -1.
    9900018    1    3    3    0    0 -0.39142407364E+03 -0.12960377400E+03 -0.16424962905E+03  0.45310381006E+03  0.91187600000E+02 0.  0.
<mgrwt>
<rscale>  0 0.53470995E+04</rscale>
<asrwt>0</asrwt>
<pdfrwt beam="1">  1        2 0.39324459E+00 0.53470995E+04</pdfrwt>
<pdfrwt beam="2">  1       -2 0.43021652E+00 0.53470995E+04</pdfrwt>
<totfact> 0.10757657E-02</totfact>
</mgrwt>
</event>
<event>
11    1  0.2467949E-013  0.3574195E+04  0.7818608E-02  0.8096428E-01
         -1   -1    0    0    0  501 -0.00000000000E+00  0.00000000000E+00  0.20742610324E+04  0.20742610324E+04  0.00000000000E+00 0.  1.
          1   -1    0    0  501    0  0.00000000000E+00 -0.00000000000E+00 -0.15396896152E+04  0.15396896152E+04  0.00000000000E+00 0. -1.
    9900016    2    1    2    0    0 -0.47225956610E+03 -0.16852485314E+03  0.29039032307E+03  0.22167405359E+04  0.21396687454E+04 0.  0.
         24    2    3    3    0    0  0.17466730022E+03 -0.28312417783E+03  0.21858457821E+03  0.40638965822E+03  0.81886327538E+02 0.  0.
        -15    1    1    2    0    0  0.59845232923E+03 -0.10652164332E+03  0.27306546227E+03  0.66637586807E+03  0.00000000000E+00 0.  1.
        -15    1    4    4    0    0  0.15114469030E+03 -0.20715077128E+03  0.13054623691E+03  0.28774724920E+03  0.00000000000E+00 0.  1.
         15    1    3    3    0    0 -0.46942134750E+03 -0.36932206034E+03 -0.67311198047E+03  0.89990828644E+03  0.00000000000E+00 0. -1.
         15    1    1    2    0    0 -0.16750933952E+03  0.10552059317E+03 -0.32883048066E+03  0.38382738233E+03  0.00000000000E+00 0. -1.
        -16    1    1    2    0    0  0.41316576389E+02  0.16952590328E+03  0.29994611255E+03  0.34700686132E+03  0.00000000000E+00 0.  1.
         16    1    4    4    0    0  0.23522609922E+02 -0.75973406552E+02  0.88038341300E+02  0.11864240903E+03  0.00000000000E+00 0. -1.
    9900018    1    3    3    0    0 -0.17750551882E+03  0.48392138504E+03  0.74491772532E+03  0.91044259127E+03  0.91187600000E+02 0.  0.
<mgrwt>
<rscale>  0 0.35741954E+04</rscale>
<asrwt>0</asrwt>
<pdfrwt beam="1">  1        1 0.23687533E+00 0.35741954E+04</pdfrwt>
<pdfrwt beam="2">  1       -1 0.31911708E+00 0.35741954E+04</pdfrwt>
<totfact> 0.12345478E-01</totfact>
</mgrwt>
</event>
<event>
11    1  0.2467949E-013  0.3432888E+04  0.7818608E-02  0.8129881E-01
         -1   -1    0    0    0  501 -0.00000000000E+00  0.00000000000E+00  0.10350953936E+04  0.10350953936E+04  0.00000000000E+00 0.  1.
          1   -1    0    0  501    0  0.00000000000E+00 -0.00000000000E+00 -0.28462878398E+04  0.28462878398E+04  0.00000000000E+00 0. -1.
    9900016    2    1    2    0    0 -0.10650064949E+03  0.32334380706E+03 -0.49677702863E+03  0.19458725842E+04  0.18503348594E+04 0.  0.
        -24    2    3    3    0    0 -0.94698678916E+03  0.39010175200E+03 -0.37709854401E+03  0.10942878768E+04  0.79368064818E+02 0.  0.
        -15    1    3    3    0    0  0.84048613967E+03 -0.66757944944E+02 -0.11967848462E+03  0.85158470740E+03  0.00000000000E+00 0.  1.
        -15    1    1    2    0    0  0.57886380027E+03 -0.21134831226E+03 -0.82394696876E+03  0.10289023354E+04  0.00000000000E+00 0.  1.
         15    1    1    2    0    0 -0.13325633764E+03 -0.59946024117E+02  0.38132240688E+02  0.15101273161E+03  0.00000000000E+00 0. -1.
         15    1    4    4    0    0 -0.58895896503E+03  0.21782062881E+03 -0.26396911139E+03  0.68117411914E+03  0.00000000000E+00 0. -1.
        -16    1    4    4    0    0 -0.35802782413E+03  0.17228112320E+03 -0.11312943262E+03  0.41311375768E+03  0.00000000000E+00 0.  1.
         16    1    1    2    0    0 -0.25052290423E+03 -0.15967902783E+02 -0.45978277476E+02  0.25520717361E+03  0.00000000000E+00 0. -1.
    9900018    1    1    2    0    0 -0.88583908910E+02 -0.36081567895E+02 -0.48262241204E+03  0.50038840859E+03  0.91187600000E+02 0.  0.
<mgrwt>
<rscale>  0 0.34328877E+04</rscale>
<asrwt>0</asrwt>
<pdfrwt beam="1">  1        1 0.43789043E+00 0.34328877E+04</pdfrwt>
<pdfrwt beam="2">  1       -1 0.15924545E+00 0.34328877E+04</pdfrwt>
<totfact> 0.18749834E-01</totfact>
</mgrwt>
</event>
<event>
11    1  0.2467949E-013  0.5550306E+04  0.7818608E-02  0.7748805E-01
          2   -1    0    0  501    0  0.00000000000E+00  0.00000000000E+00  0.27061654059E+04  0.27061654059E+04  0.00000000000E+00 0. -1.
         -2   -1    0    0    0  501 -0.00000000000E+00 -0.00000000000E+00 -0.28458996588E+04  0.28458996588E+04  0.00000000000E+00 0.  1.
    9900016    2    1    2    0    0 -0.96392532785E+03  0.83566440272E+03  0.82993043820E+01  0.23182900564E+04  0.19356944168E+04 0.  0.
        -24    2    3    3    0    0 -0.14449216573E+03  0.92199797458E+03  0.66680920793E+03  0.11491374850E+04  0.70172562554E+02 0.  0.
        -15    1    3    3    0    0 -0.74262210928E+03  0.59776010582E+02 -0.63536153539E+03  0.97915527333E+03  0.00000000000E+00 0.  1.
        -15    1    1    2    0    0  0.10266451694E+04 -0.23721589645E+03 -0.12032600760E+04  0.15994081705E+04  0.00000000000E+00 0.  1.
         15    1    1    2    0    0 -0.40762057044E+03 -0.31940664655E+03  0.31697488349E+02  0.51882546783E+03  0.00000000000E+00 0. -1.
         15    1    4    4    0    0 -0.76398593767E+02  0.37637570610E+03  0.31122421172E+03  0.49432370693E+03  0.00000000000E+00 0. -1.
        -16    1    4    4    0    0 -0.68093571962E+02  0.54562226849E+03  0.35558499621E+03  0.65481377807E+03  0.00000000000E+00 0.  1.
         16    1    1    2    0    0  0.34490072890E+03 -0.27904185973E+03  0.10235290304E+04  0.11155413700E+04  0.00000000000E+00 0. -1.
    9900018    1    3    3    0    0 -0.76811052833E+02 -0.14610958245E+03 -0.23148368159E+02  0.18999729804E+03  0.91187600000E+02 0.  0.
<mgrwt>
<rscale>  0 0.55503064E+04</rscale>
<asrwt>0</asrwt>
<pdfrwt beam="1">  1        2 0.41633314E+00 0.55503064E+04</pdfrwt>
<pdfrwt beam="2">  1       -2 0.43783072E+00 0.55503064E+04</pdfrwt>
<totfact> 0.76916183E-03</totfact>
</mgrwt>
</event>
<event>
10    1  0.2467949E-013  0.5479315E+04  0.7818608E-02  0.8524602E-01
         -1   -1    0    0    0  501 -0.00000000000E+00  0.00000000000E+00  0.35722927937E+04  0.35722927937E+04  0.00000000000E+00 0.  1.
          1   -1    0    0  501    0  0.00000000000E+00 -0.00000000000E+00 -0.22609525021E+04  0.22609525021E+04  0.00000000000E+00 0. -1.
        -24    2    1    2    0    0  0.10472384104E+03 -0.49081071521E+02  0.19842946968E+03  0.24204995403E+03  0.76406094957E+02 0.  0.
        -15    1    1    2    0    0 -0.18510914297E+03  0.34626357920E+03  0.82661441928E+03  0.91512581608E+03  0.00000000000E+00 0.  1.
        -15    1    1    2    0    0 -0.76735332376E+02  0.61504409514E+03  0.28898798285E+03  0.68387250598E+03  0.00000000000E+00 0.  1.
         15    1    3    3    0    0  0.64920606567E+02  0.77594550345E+01  0.68146104167E+02  0.94439323444E+02  0.00000000000E+00 0. -1.
         15    1    1    2    0    0 -0.88301520107E+03  0.11400527442E+04  0.17916545551E+02  0.14421362999E+04  0.00000000000E+00 0. -1.
        -16    1    3    3    0    0  0.39803234473E+02 -0.56840526555E+02  0.13028336551E+03  0.14761063059E+03  0.00000000000E+00 0.  1.
         16    1    1    2    0    0  0.10651110319E+04 -0.11908745840E+04 -0.32717421951E+03  0.16308546088E+04  0.00000000000E+00 0. -1.
    9900018    1    1    2    0    0 -0.24975196538E+02 -0.86140476297E+03  0.30656609377E+03  0.91920611092E+03  0.91187600000E+02 0.  0.
<mgrwt>
<rscale>  0 0.21852281E+04</rscale>
<asrwt>0</asrwt>
<pdfrwt beam="1">  1        1 0.34783885E+00 0.54793152E+04</pdfrwt>
<pdfrwt beam="2">  1       -1 0.54958350E+00 0.54793152E+04</pdfrwt>
<totfact> 0.10455693E-03</totfact>
</mgrwt>
</event>
<event>
10    1  0.2467949E-013  0.2369626E+04  0.7818608E-02  0.8450964E-01
         -2   -1    0    0    0  501 -0.00000000000E+00  0.00000000000E+00  0.57235932101E+03  0.57235932101E+03  0.00000000000E+00 0.  1.
          2   -1    0    0  501    0  0.00000000000E+00 -0.00000000000E+00 -0.24526226870E+04  0.24526226870E+04  0.00000000000E+00 0. -1.
        -24    2    1    2    0    0 -0.16449962436E+03 -0.47741723598E+03 -0.52192991679E+03  0.73056984713E+03  0.79587184102E+02 0.  0.
        -15    1    1    2    0    0  0.27921596590E+03 -0.23387032144E+03 -0.50444517368E+03  0.62219114114E+03  0.00000000000E+00 0.  1.
        -15    1    1    2    0    0 -0.15919960926E+03 -0.40289415927E+02 -0.18638013438E+03  0.24840552956E+03  0.00000000000E+00 0.  1.
         15    1    1    2    0    0 -0.41929639768E+02 -0.83651576713E+02 -0.19836876264E+03  0.21933045153E+03  0.00000000000E+00 0. -1.
         15    1    3    3    0    0 -0.90488754206E+02 -0.20909493181E+03 -0.18462522784E+03  0.29324968867E+03  0.00000000000E+00 0. -1.
        -16    1    3    3    0    0 -0.74010870159E+02 -0.26832230417E+03 -0.33730468894E+03  0.43732015846E+03  0.00000000000E+00 0.  1.
         16    1    1    2    0    0 -0.27277917067E+03  0.13523126006E+03 -0.21480971622E+03  0.37261130395E+03  0.00000000000E+00 0. -1.
    9900018    1    1    2    0    0  0.35919207816E+03  0.69999729000E+03 -0.25432966230E+03  0.83187373473E+03  0.91187600000E+02 0.  0.
<mgrwt>
<rscale>  0 0.23696257E+04</rscale>
<asrwt>0</asrwt>
<pdfrwt beam="1">  1        2 0.37732657E+00 0.23696257E+04</pdfrwt>
<pdfrwt beam="2">  1       -2 0.88055280E-01 0.23696257E+04</pdfrwt>
<totfact> 0.37143412E+00</totfact>
</mgrwt>
</event>
<event>
11    1  0.2467949E-013  0.6848847E+04  0.7818608E-02  0.7593228E-01
         -2   -1    0    0    0  501 -0.00000000000E+00  0.00000000000E+00  0.40811640049E+04  0.40811640049E+04  0.00000000000E+00 0.  1.
          2   -1    0    0  501    0  0.00000000000E+00 -0.00000000000E+00 -0.28733651926E+04  0.28733651926E+04  0.00000000000E+00 0. -1.
    9900016    2    1    2    0    0  0.68241692261E+03  0.58088784641E+03 -0.10601713417E+04  0.23259760969E+04  0.18663006144E+04 0.  0.
         24    2    3    3    0    0  0.49659979175E+03 -0.30032065713E+03 -0.88225665505E+03  0.10592668480E+04  0.82858913565E+02 0.  0.
        -15    1    1    2    0    0  0.10395063273E+04  0.18427181587E+03  0.18449698023E+04  0.21256629737E+04  0.00000000000E+00 0.  1.
        -15    1    4    4    0    0  0.33162180176E+03 -0.17088574980E+03 -0.61866095732E+03  0.72243777517E+03  0.00000000000E+00 0.  1.
         15    1    1    2    0    0 -0.18451687746E+03 -0.98005223081E+02 -0.53369168830E+03  0.57313028186E+03  0.00000000000E+00 0. -1.
         15    1    3    3    0    0 -0.93173863663E+02  0.31726314047E+03  0.31926040309E+03  0.45963515330E+03  0.00000000000E+00 0. -1.
        -16    1    1    2    0    0 -0.15374063724E+04 -0.66715443920E+03  0.95669204006E+03  0.19297598450E+04  0.00000000000E+00 0.  1.
         16    1    4    4    0    0  0.16497798999E+03 -0.12943490733E+03 -0.26359569773E+03  0.33682907280E+03  0.00000000000E+00 0. -1.
    9900018    1    3    3    0    0  0.27899099453E+03  0.56394536308E+03 -0.49717508973E+03  0.80707409561E+03  0.91187600000E+02 0.  0.
<mgrwt>
<rscale>  0 0.68488465E+04</rscale>
<asrwt>0</asrwt>
<pdfrwt beam="1">  1        2 0.44205618E+00 0.68488465E+04</pdfrwt>
<pdfrwt beam="2">  1       -2 0.62787139E+00 0.68488465E+04</pdfrwt>
<totfact> 0.54165101E-04</totfact>
</mgrwt>
</event>
<event>
11    1  0.2467949E-013  0.2772890E+04  0.7818608E-02  0.8659158E-01
          1   -1    0    0  501    0  0.00000000000E+00  0.00000000000E+00  0.18669693967E+04  0.18669693967E+04  0.00000000000E+00 0. -1.
         -1   -1    0    0    0  501 -0.00000000000E+00 -0.00000000000E+00 -0.17135315044E+04  0.17135315044E+04  0.00000000000E+00 0.  1.
    9900016    2    1    2    0    0 -0.54350490838E+03 -0.30732398787E+02  0.22824970775E+03  0.19488907339E+04  0.18573462515E+04 0.  0.
         24    2    3    3    0    0 -0.12947471911E+03  0.81422612316E+02  0.48748248861E+03  0.51700696689E+03  0.79143429476E+02 0.  0.
        -15    1    4    4    0    0 -0.99404829339E+02  0.25105601086E+02  0.23157039271E+03  0.25325176817E+03  0.00000000000E+00 0.  1.
        -15    1    1    2    0    0 -0.14387331579E+03 -0.10416349299E+03 -0.36920903335E+03  0.40971316134E+03  0.00000000000E+00 0.  1.
         15    1    1    2    0    0 -0.10108813725E+03  0.31122086830E+03 -0.71526873658E+02  0.33495273400E+03  0.00000000000E+00 0. -1.
         15    1    3    3    0    0  0.21072976461E+03 -0.21353367945E+03 -0.62637663014E+03  0.69451518971E+03  0.00000000000E+00 0. -1.
        -16    1    1    2    0    0  0.78846636143E+03 -0.17632497652E+03  0.36592409162E+03  0.88694427180E+03  0.00000000000E+00 0.  1.
         16    1    4    4    0    0 -0.30069889769E+02  0.56317011231E+02  0.25591209590E+03  0.26375519872E+03  0.00000000000E+00 0. -1.
    9900018    1    3    3    0    0 -0.62475995389E+03  0.10137866834E+03  0.36714384928E+03  0.73736857733E+03  0.91187600000E+02 0.  0.
<mgrwt>
<rscale>  0 0.18913824E+04</rscale>
<asrwt>0</asrwt>
<pdfrwt beam="1">  1        1 0.28722606E+00 0.27728898E+04</pdfrwt>
<pdfrwt beam="2">  1       -1 0.26362023E+00 0.27728898E+04</pdfrwt>
<totfact> 0.17654808E-01</totfact>
</mgrwt>
</event>
