<event>
11    1  0.1120713E-015  0.5706543E+04  0.7818608E-02  0.8093102E-01
         -2   -1    0    0    0  501 -0.00000000000E+00  0.00000000000E+00  0.29982098110E+04  0.29982098110E+04  0.00000000000E+00 0.  1.
          2   -1    0    0  501    0  0.00000000000E+00 -0.00000000000E+00 -0.37445287050E+04  0.37445287050E+04  0.00000000000E+00 0. -1.
    9900016    2    1    2    0    0 -0.17796534758E+04 -0.54521316920E+03 -0.34469838795E+03  0.28742057837E+04  0.21628263949E+04 0.  0.
         23    2    3    3    0    0 -0.27757487947E+03  0.23259442723E+02 -0.10707269157E+04  0.11116738994E+04  0.10850767290E+03 0.  0.
        -15    1    1    2    0    0 -0.55691599041E+02  0.47217627444E+03  0.13881610464E+03  0.49529980745E+03  0.00000000000E+00 0.  1.
        -15    1    4    4    0    0 -0.74472229444E+02  0.55920331007E+02 -0.34671718208E+03  0.35900696473E+03  0.00000000000E+00 0.  1.
         15    1    4    4    0    0 -0.20310265003E+03 -0.32660888284E+02 -0.72400973367E+03  0.75266693465E+03  0.00000000000E+00 0. -1.
         15    1    1    2    0    0  0.22146886647E+04  0.16699852696E+03 -0.61466230186E+03  0.23044617885E+04  0.00000000000E+00 0. -1.
        -16    1    3    3    0    0 -0.15020785963E+04 -0.56847261192E+03  0.72602852779E+03  0.17625318843E+04  0.00000000000E+00 0.  1.
         16    1    1    2    0    0 -0.41551961561E+02  0.41408007115E+03  0.16022530707E+03  0.44593835881E+03  0.00000000000E+00 0. -1.
    9900018    1    1    2    0    0 -0.33779162829E+03 -0.50804170335E+03 -0.85999615856E+02  0.62283277756E+03  0.91187600000E+02 0.  0.
<mgrwt>
<rscale>  0 0.35886269E+04</rscale>
<asrwt>0</asrwt>
<pdfrwt beam="1">  1        2 0.57608134E+00 0.57065426E+04</pdfrwt>
<pdfrwt beam="2">  1       -2 0.46126305E+00 0.57065426E+04</pdfrwt>
<totfact> 0.10539027E-03</totfact>
</mgrwt>
</event>
<event>
12    1  0.1120713E-015  0.4105152E+04  0.7818608E-02  0.8404150E-01
         -3   -1    0    0    0  501 -0.00000000000E+00  0.00000000000E+00  0.27440206405E+04  0.27440206405E+04  0.00000000000E+00 0.  1.
          3   -1    0    0  501    0  0.00000000000E+00 -0.00000000000E+00 -0.24288395527E+04  0.24288395527E+04  0.00000000000E+00 0. -1.
        -24    2    1    2    0    0 -0.27141644559E+03  0.48821359061E+03  0.86467070001E+03  0.10310954774E+04  0.59017514452E+02 0.  0.
    9900016    2    1    2    0    0 -0.71261584035E+03  0.25596216817E+03 -0.97503399966E+03  0.25178544363E+04  0.21944388108E+04 0.  0.
         23    2    4    4    0    0  0.47225989873E+03  0.75240870668E+03  0.22454213919E+02  0.89139434797E+03  0.70224055948E+02 0.  0.
        -15    1    1    2    0    0 -0.11387662365E+03 -0.35130583095E+03 -0.25806931088E+02  0.37020220146E+03  0.00000000000E+00 0.  1.
        -15    1    5    5    0    0  0.25559030253E+01  0.19269799857E+02  0.66781692003E+01  0.20553728875E+02  0.00000000000E+00 0.  1.
         15    1    5    5    0    0  0.46970399570E+03  0.73313890682E+03  0.15776044718E+02  0.87084061909E+03  0.00000000000E+00 0. -1.
         15    1    3    3    0    0 -0.28292097260E+02  0.95936036806E+02  0.16376230658E+03  0.19189126864E+03  0.00000000000E+00 0. -1.
        -16    1    3    3    0    0 -0.24312434833E+03  0.39227755381E+03  0.70090839343E+03  0.83920420873E+03  0.00000000000E+00 0.  1.
         16    1    4    4    0    0 -0.11848757391E+04 -0.49644653851E+03 -0.99748821358E+03  0.16264600883E+04  0.00000000000E+00 0. -1.
    9900018    1    1    2    0    0  0.10979089096E+04 -0.39286992783E+03  0.45135131845E+03  0.12537080781E+04  0.91187600000E+02 0.  0.
<mgrwt>
<rscale>  0 0.24967345E+04</rscale>
<asrwt>0</asrwt>
<pdfrwt beam="1">  1        3 0.37366763E+00 0.41051524E+04</pdfrwt>
<pdfrwt beam="2">  1       -3 0.42215702E+00 0.41051524E+04</pdfrwt>
<totfact> 0.23637549E-04</totfact>
</mgrwt>
</event>
<event>
10    1  0.1120713E-015  0.3827861E+04  0.7818608E-02  0.8285985E-01
         -1   -1    0    0    0  501 -0.00000000000E+00  0.00000000000E+00  0.28928749870E+04  0.28928749870E+04  0.00000000000E+00 0.  1.
          1   -1    0    0  501    0  0.00000000000E+00 -0.00000000000E+00 -0.26282993868E+04  0.26282993868E+04  0.00000000000E+00 0. -1.
    9900016    2    1    2    0    0  0.56062157925E+03  0.26086805595E+03  0.16791915756E+04  0.28295663704E+04  0.21918970778E+04 0.  0.
        -15    1    1    2    0    0 -0.50055507645E+02 -0.55958344437E+02  0.28964708058E+02  0.80472631811E+02  0.00000000000E+00 0.  1.
        -15    1    3    3    0    0 -0.30004263032E+03 -0.16215451050E+03 -0.18218314063E+03  0.38666569801E+03  0.00000000000E+00 0. -1.
         15    1    1    2    0    0  0.45796534841E+03  0.13174641869E+03 -0.75380089375E+03  0.89179883752E+03  0.00000000000E+00 0. -1.
         15    1    3    3    0    0 -0.29159991744E+02 -0.70587630953E+02 -0.16142372140E+03  0.17857921658E+03  0.00000000000E+00 0.  1.
        -16    1    3    3    0    0  0.88982420132E+03  0.49361019740E+03  0.20227984376E+04  0.22643214558E+04  0.00000000000E+00 0.  1.
         16    1    1    2    0    0 -0.10015679643E+04 -0.33739781536E+03 -0.96275607011E+03  0.14296415367E+04  0.00000000000E+00 0. -1.
    9900018    1    1    2    0    0  0.33036544322E+02  0.74168515851E+00  0.27297628046E+03  0.28969499727E+03  0.91187600000E+02 0.  0.
<mgrwt>
<rscale>  0 0.28563470E+04</rscale>
<asrwt>0</asrwt>
<pdfrwt beam="1">  1        1 0.40435375E+00 0.38278611E+04</pdfrwt>
<pdfrwt beam="2">  1       -1 0.44505769E+00 0.38278611E+04</pdfrwt>
<totfact> 0.29128714E-03</totfact>
</mgrwt>
</event>
