<event>
11    1  0.4160993E-012  0.2006675E+04  0.7818608E-02  0.8603506E-01
         -2   -1    0    0    0  501 -0.00000000000E+00  0.00000000000E+00  0.28213640215E+04  0.28213640215E+04  0.00000000000E+00 0. -1.
          2   -1    0    0  501    0  0.00000000000E+00 -0.00000000000E+00 -0.35680846187E+03  0.35680846187E+03  0.00000000000E+00 0.  1.
    9900016    2    1    2    0    0 -0.26806210376E+03  0.87880352370E+02  0.93307862938E+03  0.12025128413E+04  0.70414569312E+03 0.  0.
         23    2    3    3    0    0  0.16815682064E+03 -0.13949827595E+03  0.47265366241E+03  0.52873309924E+03  0.91764482936E+02 0.  0.
        -15    1    4    4    0    0  0.59227030916E+02 -0.41180964673E+02  0.12323642932E+03  0.14279681563E+03  0.00000000000E+00 0. -1.
        -15    1    4    4    0    0  0.31089040630E+02 -0.52714603112E+02  0.84734203088E+02  0.10452388723E+03  0.00000000000E+00 0. -1.
         15    1    4    4    0    0  0.34078043822E+02 -0.37586432827E+02  0.12885554737E+03  0.13848395247E+03  0.00000000000E+00 0.  1.
         15    1    4    4    0    0  0.43762705273E+02 -0.80162753387E+01  0.13582748262E+03  0.14292844391E+03  0.00000000000E+00 0.  1.
        -16    1    1    2    0    0  0.13497000056E+03 -0.64295501707E+03  0.67114729416E+03  0.93917343738E+03  0.00000000000E+00 0.  1.
         16    1    3    3    0    0 -0.43621892440E+03  0.22737862832E+03  0.46042496697E+03  0.67377974208E+03  0.00000000000E+00 0. -1.
    9900018    1    1    2    0    0  0.13309210321E+03  0.55507466470E+03  0.86032963615E+03  0.10364862047E+04  0.91187600000E+02 0.  0.
<mgrwt>
<rscale>  0 0.20066754E+04</rscale>
<asrwt>0</asrwt>
<pdfrwt beam="1">  1        2 0.54893611E-01 0.20066754E+04</pdfrwt>
<pdfrwt beam="2">  1       -2 0.43405599E+00 0.20066754E+04</pdfrwt>
<totfact> 0.37251165E-01</totfact>
</mgrwt>
</event>
<event>
11    1  0.4385762E-012  0.2388442E+04  0.7818608E-02  0.8443843E-01
          1   -1    0    0  501    0  0.00000000000E+00  0.00000000000E+00  0.15417906474E+04  0.15417906474E+04  0.00000000000E+00 0. -1.
         -1   -1    0    0    0  501 -0.00000000000E+00 -0.00000000000E+00 -0.92500504533E+03  0.92500504533E+03  0.00000000000E+00 0.  1.
    9900016    2    1    2    0    0  0.21608840066E+03 -0.22695913117E+03 -0.38745906904E+02  0.76682765041E+03  0.69879807957E+03 0.  0.
         23    2    3    3    0    0 -0.20035515437E+03  0.76067916168E+02  0.63533165744E+02  0.24174514771E+03  0.92063768891E+02 0.  0.
        -15    1    4    4    0    0 -0.10070537234E+02  0.22764019560E+01 -0.29518018946E+01  0.10738289458E+02  0.00000000000E+00 0. -1.
        -15    1    4    4    0    0 -0.28914339701E+02 -0.83679960562E+01  0.32437711425E+02  0.44252316559E+02  0.00000000000E+00 0. -1.
         15    1    4    4    0    0 -0.89456885466E+01  0.87742730717E+01 -0.43811242558E+01  0.13274315849E+02  0.00000000000E+00 0.  1.
         15    1    4    4    0    0 -0.15242458888E+03  0.73385237196E+02  0.38428380470E+02  0.17348022585E+03  0.00000000000E+00 0.  1.
        -16    1    3    3    0    0  0.41644355502E+03 -0.30302704734E+03 -0.10227907265E+03  0.52508250270E+03  0.00000000000E+00 0.  1.
         16    1    1    2    0    0 -0.16388233804E+03 -0.60465183170E+03  0.58773599945E+03  0.85900806943E+03  0.00000000000E+00 0. -1.
    9900018    1    1    2    0    0 -0.52206062615E+02  0.83161096287E+03  0.67795509536E+02  0.84095997291E+03  0.91187600000E+02 0.  0.
<mgrwt>
<rscale>  0 0.23884423E+04</rscale>
<asrwt>0</asrwt>
<pdfrwt beam="1">  1        1 0.23719856E+00 0.23884423E+04</pdfrwt>
<pdfrwt beam="2">  1       -1 0.14230847E+00 0.23884423E+04</pdfrwt>
<totfact> 0.22043003E+00</totfact>
</mgrwt>
</event>
<event>
11    1  0.4160993E-012  0.1327686E+04  0.7818608E-02  0.9007893E-01
          1   -1    0    0  501    0  0.00000000000E+00  0.00000000000E+00  0.56905692617E+03  0.56905692617E+03  0.00000000000E+00 0. -1.
         -1   -1    0    0    0  501 -0.00000000000E+00 -0.00000000000E+00 -0.77441763128E+03  0.77441763128E+03  0.00000000000E+00 0.  1.
    9900016    2    1    2    0    0  0.74356412840E+01  0.23872670096E+03 -0.13476276087E+03  0.74959735672E+03  0.69763132740E+03 0.  0.
         23    2    3    3    0    0  0.31127563793E+03 -0.35048259049E+02 -0.29784208530E+02  0.32735102016E+03  0.90281161349E+02 0.  0.
        -15    1    4    4    0    0  0.21381743377E+03 -0.13370008285E+02 -0.54162951660E+02  0.22097573947E+03  0.00000000000E+00 0.  1.
        -15    1    4    4    0    0  0.29709895899E+02  0.14765226060E+01  0.14083929816E+02  0.32912233476E+02  0.00000000000E+00 0.  1.
         15    1    4    4    0    0  0.58702146382E+02 -0.17373858398E+02  0.12552020432E+02  0.62492768881E+02  0.00000000000E+00 0. -1.
         15    1    4    4    0    0  0.90461618794E+01 -0.57809149728E+01 -0.22572071182E+01  0.10970278330E+02  0.00000000000E+00 0. -1.
        -16    1    3    3    0    0 -0.30383999664E+03  0.27377496001E+03 -0.10497855234E+03  0.42224633656E+03  0.00000000000E+00 0.  1.
         16    1    1    2    0    0  0.14469035245E+03 -0.30959941113E+03  0.79608018586E+02  0.35089105159E+03  0.00000000000E+00 0. -1.
    9900018    1    1    2    0    0 -0.15212599373E+03  0.70872710167E+02 -0.15020596283E+03  0.24298614915E+03  0.91187600000E+02 0.  0.
<mgrwt>
<rscale>  0 0.13276863E+04</rscale>
<asrwt>0</asrwt>
<pdfrwt beam="1">  1        1 0.87547220E-01 0.13276863E+04</pdfrwt>
<pdfrwt beam="2">  1       -1 0.11914117E+00 0.13276863E+04</pdfrwt>
<totfact> 0.22840556E+01</totfact>
</mgrwt>
</event>
<event>
11    1  0.4160993E-012  0.3562667E+04  0.7818608E-02  0.8099097E-01
         -1   -1    0    0    0  501 -0.00000000000E+00  0.00000000000E+00  0.23192656599E+04  0.23192656599E+04  0.00000000000E+00 0.  1.
          1   -1    0    0  501    0  0.00000000000E+00 -0.00000000000E+00 -0.13681700109E+04  0.13681700109E+04  0.00000000000E+00 0. -1.
    9900016    2    1    2    0    0 -0.46040295071E+02 -0.23010155344E+03 -0.66353985065E+03  0.99394155069E+03  0.70183205907E+03 0.  0.
         23    2    3    3    0    0 -0.14040004210E+03 -0.11000715853E+03  0.94041047324E+02  0.22111864568E+03  0.90752356081E+02 0.  0.
        -15    1    4    4    0    0 -0.17367146111E+02 -0.16914611977E+02  0.47065978154E+01  0.24695625632E+02  0.00000000000E+00 0.  1.
        -15    1    4    4    0    0  0.83184997624E-01 -0.10981598845E+02  0.10212290110E+02  0.14996442986E+02  0.00000000000E+00 0. -1.
         15    1    4    4    0    0 -0.78181589164E+02 -0.75149685910E+02  0.81864275587E+02  0.13587345507E+03  0.00000000000E+00 0.  1.
         15    1    4    4    0    0 -0.44934491823E+02 -0.69612617984E+01 -0.27421161887E+01  0.45553121983E+02  0.00000000000E+00 0. -1.
        -16    1    1    2    0    0  0.76061736401E+03 -0.15650864948E+03  0.17024870101E+04  0.18712284071E+04  0.00000000000E+00 0.  1.
         16    1    3    3    0    0  0.94359747029E+02 -0.12009439491E+03 -0.75758089797E+03  0.77282290502E+03  0.00000000000E+00 0. -1.
    9900018    1    1    2    0    0 -0.71457706894E+03  0.38661020291E+03 -0.87851510532E+02  0.82226571298E+03  0.91187600000E+02 0.  0.
<mgrwt>
<rscale>  0 0.35626674E+04</rscale>
<asrwt>0</asrwt>
<pdfrwt beam="1">  1        1 0.21048770E+00 0.35626674E+04</pdfrwt>
<pdfrwt beam="2">  1       -1 0.35681010E+00 0.35626674E+04</pdfrwt>
<totfact> 0.91876691E-02</totfact>
</mgrwt>
</event>
<event>
11    1  0.4160993E-012  0.1076169E+04  0.7818608E-02  0.9228735E-01
         -2   -1    0    0    0  501 -0.00000000000E+00  0.00000000000E+00  0.14493666653E+03  0.14493666653E+03  0.00000000000E+00 0.  1.
          2   -1    0    0  501    0  0.00000000000E+00 -0.00000000000E+00 -0.19976658539E+04  0.19976658539E+04  0.00000000000E+00 0. -1.
    9900016    2    1    2    0    0 -0.86877878640E+02 -0.19515234565E+03 -0.12331241961E+04  0.14376505558E+04  0.70753913928E+03 0.  0.
         23    2    3    3    0    0  0.35613858420E+02  0.10730362620E+03  0.16814672264E+02  0.14581813039E+03  0.90541586240E+02 0.  0.
        -15    1    4    4    0    0  0.27130378740E+02  0.18952485222E+02  0.25504579080E+02  0.41782026049E+02  0.00000000000E+00 0. -1.
        -15    1    4    4    0    0 -0.48953532693E+01  0.64629917088E+02 -0.23074656096E+02  0.68799930380E+02  0.00000000000E+00 0.  1.
         15    1    4    4    0    0  0.10591386018E+02  0.26698880340E+01  0.52694472185E+01  0.12127358899E+02  0.00000000000E+00 0.  1.
         15    1    4    4    0    0  0.27874469314E+01  0.21051335855E+02  0.91153020612E+01  0.23108815057E+02  0.00000000000E+00 0. -1.
        -16    1    1    2    0    0  0.66112725036E+01  0.13125794547E+03 -0.93640012866E+02  0.16137164925E+03  0.00000000000E+00 0.  1.
         16    1    3    3    0    0 -0.12249173706E+03 -0.30245597185E+03 -0.12499388684E+04  0.12918324254E+04  0.00000000000E+00 0. -1.
    9900018    1    1    2    0    0  0.80266606136E+02  0.63894400181E+02 -0.52596497838E+03  0.54358031542E+03  0.91187600000E+02 0.  0.
<mgrwt>
<rscale>  0 0.10761692E+04</rscale>
<asrwt>0</asrwt>
<pdfrwt beam="1">  1        2 0.30733319E+00 0.10761692E+04</pdfrwt>
<pdfrwt beam="2">  1       -2 0.22297950E-01 0.10761692E+04</pdfrwt>
<totfact> 0.11773033E+02</totfact>
</mgrwt>
</event>
<event>
11    1  0.4160993E-012  0.1261167E+04  0.7818608E-02  0.9060940E-01
          1   -1    0    0  501    0  0.00000000000E+00  0.00000000000E+00  0.12447602262E+04  0.12447602262E+04  0.00000000000E+00 0. -1.
         -1   -1    0    0    0  501 -0.00000000000E+00 -0.00000000000E+00 -0.31944745613E+03  0.31944745613E+03  0.00000000000E+00 0.  1.
    9900016    2    1    2    0    0  0.12943724431E+03 -0.12333365834E+03  0.57098346471E+03  0.92783434584E+03  0.70914685704E+03 0.  0.
         23    2    3    3    0    0  0.18648758461E+01  0.23287764294E+03  0.47607290898E+03  0.53774562011E+03  0.91046487799E+02 0.  0.
        -15    1    4    4    0    0 -0.49243632606E+01  0.10233164878E+02  0.31110632023E+02  0.33118551324E+02  0.00000000000E+00 0. -1.
        -15    1    4    4    0    0 -0.87707175338E+01  0.72380133432E+01  0.34095352373E+02  0.35941721949E+02  0.00000000000E+00 0. -1.
         15    1    4    4    0    0  0.31048381479E+02  0.20380512712E+03  0.37598218274E+03  0.42879264635E+03  0.00000000000E+00 0.  1.
         15    1    4    4    0    0 -0.15488424839E+02  0.11601337600E+02  0.34884741849E+02  0.39892700485E+02  0.00000000000E+00 0.  1.
        -16    1    1    2    0    0 -0.13318448030E+03  0.28540058083E+03  0.31663036758E+03  0.44659420843E+03  0.00000000000E+00 0.  1.
         16    1    3    3    0    0  0.12757236846E+03 -0.35621130128E+03  0.94910555732E+02  0.39008872573E+03  0.00000000000E+00 0. -1.
    9900018    1    1    2    0    0  0.37472359923E+01 -0.16206692249E+03  0.37698937789E+02  0.18977912806E+03  0.91187600000E+02 0.  0.
<mgrwt>
<rscale>  0 0.12611669E+04</rscale>
<asrwt>0</asrwt>
<pdfrwt beam="1">  1        1 0.19150157E+00 0.12611669E+04</pdfrwt>
<pdfrwt beam="2">  1       -1 0.49145763E-01 0.12611669E+04</pdfrwt>
<totfact> 0.40503640E+01</totfact>
</mgrwt>
</event>
<event>
11    1  0.4160993E-012  0.2398532E+04  0.7818608E-02  0.8440053E-01
          2   -1    0    0  501    0  0.00000000000E+00  0.00000000000E+00  0.17864439812E+04  0.17864439812E+04  0.00000000000E+00 0. -1.
         -2   -1    0    0    0  501 -0.00000000000E+00 -0.00000000000E+00 -0.80508482298E+03  0.80508482298E+03  0.00000000000E+00 0.  1.
    9900016    2    1    2    0    0  0.62515172559E+02 -0.24625558435E+03 -0.36558871730E+03  0.82679386213E+03  0.69669435237E+03 0.  0.
         23    2    3    3    0    0  0.21153178240E+03  0.55148040839E+02 -0.42363977593E+03  0.48559008036E+03  0.92412472218E+02 0.  0.
        -15    1    4    4    0    0  0.20773729754E+02 -0.35742260080E+01 -0.27210033121E+02  0.34419599677E+02  0.00000000000E+00 0.  1.
        -15    1    4    4    0    0  0.45727708516E+02 -0.55552415439E+01 -0.15122645912E+03  0.15808645094E+03  0.00000000000E+00 0.  1.
         15    1    4    4    0    0  0.13308471406E+03  0.55960070357E+02 -0.20854576297E+03  0.25364227928E+03  0.00000000000E+00 0. -1.
         15    1    4    4    0    0  0.11945630075E+02  0.83174380342E+01 -0.36657520725E+02  0.39441750456E+02  0.00000000000E+00 0. -1.
        -16    1    3    3    0    0 -0.14901660984E+03 -0.30140362519E+03  0.58051058634E+02  0.34120378177E+03  0.00000000000E+00 0.  1.
         16    1    1    2    0    0  0.13006845305E+03  0.49249596091E+03  0.13459327227E+04  0.14390986651E+04  0.00000000000E+00 0. -1.
    9900018    1    1    2    0    0 -0.19258362561E+03 -0.24624037657E+03  0.10151528136E+01  0.32563627690E+03  0.91187600000E+02 0.  0.
<mgrwt>
<rscale>  0 0.23985320E+04</rscale>
<asrwt>0</asrwt>
<pdfrwt beam="1">  1        2 0.27483753E+00 0.23985320E+04</pdfrwt>
<pdfrwt beam="2">  1       -2 0.12385920E+00 0.23985320E+04</pdfrwt>
<totfact> 0.38744136E+00</totfact>
</mgrwt>
</event>
<event>
11    1  0.4160993E-012  0.1338690E+04  0.7818608E-02  0.8999434E-01
         -2   -1    0    0    0  501 -0.00000000000E+00  0.00000000000E+00  0.35957775197E+03  0.35957775197E+03  0.00000000000E+00 0.  1.
          2   -1    0    0  501    0  0.00000000000E+00 -0.00000000000E+00 -0.12459698676E+04  0.12459698676E+04  0.00000000000E+00 0. -1.
    9900016    2    1    2    0    0  0.96146311876E+02 -0.98944976309E+02 -0.78613118120E+03  0.10692126274E+04  0.71146270951E+03 0.  0.
         23    2    3    3    0    0 -0.28046465828E+03  0.78167999921E+02 -0.35816570062E+03  0.47225426897E+03  0.99853716509E+02 0.  0.
        -15    1    4    4    0    0 -0.23662459570E+03  0.94765389979E+02 -0.28897186647E+03  0.38532637859E+03  0.00000000000E+00 0. -1.
        -15    1    4    4    0    0 -0.15572878651E+02 -0.29072739431E+01 -0.15591197566E+02  0.22227285772E+02  0.00000000000E+00 0. -1.
         15    1    4    4    0    0 -0.17626847398E+02  0.11405425601E+01 -0.30643984134E+02  0.35370331495E+02  0.00000000000E+00 0.  1.
         15    1    4    4    0    0 -0.10640336538E+02 -0.14830658675E+02 -0.22958652459E+02  0.29330273117E+02  0.00000000000E+00 0.  1.
        -16    1    1    2    0    0 -0.12012463278E+03  0.21062386880E+03  0.12113453329E+03  0.27104596781E+03  0.00000000000E+00 0.  1.
         16    1    3    3    0    0  0.37661097016E+03 -0.17711297623E+03 -0.42796548057E+03  0.59695835848E+03  0.00000000000E+00 0. -1.
    9900018    1    1    2    0    0  0.23978320905E+02 -0.11167889249E+03 -0.22139546776E+03  0.26528902435E+03  0.91187600000E+02 0.  0.
<mgrwt>
<rscale>  0 0.13386905E+04</rscale>
<asrwt>0</asrwt>
<pdfrwt beam="1">  1        2 0.19168767E+00 0.13386905E+04</pdfrwt>
<pdfrwt beam="2">  1       -2 0.55319655E-01 0.13386905E+04</pdfrwt>
<totfact> 0.53396779E+01</totfact>
</mgrwt>
</event>
<event>
11    1  0.4160993E-012  0.2319583E+04  0.7818608E-02  0.8470240E-01
         -2   -1    0    0    0  501 -0.00000000000E+00  0.00000000000E+00  0.64029451389E+03  0.64029451389E+03  0.00000000000E+00 0.  1.
          2   -1    0    0  501    0  0.00000000000E+00 -0.00000000000E+00 -0.21007780099E+04  0.21007780099E+04  0.00000000000E+00 0. -1.
    9900016    2    1    2    0    0  0.18741865952E+03  0.32855853572E+03 -0.81271038278E+03  0.11538063353E+04  0.72642578965E+03 0.  0.
         23    2    3    3    0    0 -0.15824291278E+03 -0.12832423541E+03 -0.36430167891E+03  0.42628028438E+03  0.86551942508E+02 0.  0.
        -15    1    4    4    0    0 -0.42724102712E+02 -0.30612294261E+02 -0.64107748752E+02  0.82899125221E+02  0.00000000000E+00 0.  1.
        -15    1    4    4    0    0 -0.50234002322E+02 -0.73948067339E+02 -0.18040189991E+03  0.20133707345E+03  0.00000000000E+00 0.  1.
         15    1    4    4    0    0 -0.18420123157E+02 -0.31417308177E+01 -0.10696669326E+02  0.21531143591E+02  0.00000000000E+00 0. -1.
         15    1    4    4    0    0 -0.46864684592E+02 -0.20622142997E+02 -0.10909536092E+03  0.12051294212E+03  0.00000000000E+00 0. -1.
        -16    1    3    3    0    0  0.34566157230E+03  0.45688277113E+03 -0.44840870386E+03  0.72752605096E+03  0.00000000000E+00 0.  1.
         16    1    1    2    0    0  0.42368100314E+03 -0.61006261990E+03 -0.49117710254E+03  0.89047006613E+03  0.00000000000E+00 0. -1.
    9900018    1    1    2    0    0 -0.61109966266E+03  0.28150408419E+03 -0.15659601070E+03  0.69679612232E+03  0.91187600000E+02 0.  0.
<mgrwt>
<rscale>  0 0.23195833E+04</rscale>
<asrwt>0</asrwt>
<pdfrwt beam="1">  1        2 0.32319662E+00 0.23195833E+04</pdfrwt>
<pdfrwt beam="2">  1       -2 0.98506849E-01 0.23195833E+04</pdfrwt>
<totfact> 0.45473200E+00</totfact>
</mgrwt>
</event>
<event>
11    1  0.4160993E-012  0.2198419E+04  0.7818608E-02  0.8519086E-01
          1   -1    0    0  501    0  0.00000000000E+00  0.00000000000E+00  0.19282867797E+04  0.19282867797E+04  0.00000000000E+00 0. -1.
         -1   -1    0    0    0  501 -0.00000000000E+00 -0.00000000000E+00 -0.62659868415E+03  0.62659868415E+03  0.00000000000E+00 0.  1.
    9900016    2    1    2    0    0 -0.31091646634E+03 -0.73783748466E+02  0.83197034333E+03  0.11170682065E+04  0.67346390788E+03 0.  0.
         23    2    3    3    0    0 -0.17810501543E+02 -0.13705210749E+02 -0.10095652180E+03  0.13733708371E+03  0.90356009761E+02 0.  0.
        -15    1    4    4    0    0  0.12740902135E+02 -0.16179501432E+02 -0.44326251246E+02  0.48876614074E+02  0.00000000000E+00 0.  1.
        -15    1    4    4    0    0  0.24754316067E+01 -0.10404433518E+02 -0.94749277499E+01  0.14288255818E+02  0.00000000000E+00 0. -1.
         15    1    4    4    0    0  0.79471380545E+01 -0.79499077970E+01 -0.80846145836E+01  0.13846264124E+02  0.00000000000E+00 0.  1.
         15    1    4    4    0    0 -0.40973973340E+02  0.20828631999E+02 -0.39070728223E+02  0.60325949690E+02  0.00000000000E+00 0. -1.
        -16    1    1    2    0    0 -0.38260536542E+03 -0.20534430397E+03 -0.15320029092E+03  0.46046007205E+03  0.00000000000E+00 0.  1.
         16    1    3    3    0    0 -0.29310596480E+03 -0.60078537717E+02  0.93292686513E+03  0.97973112280E+03  0.00000000000E+00 0. -1.
    9900018    1    1    2    0    0  0.69352183176E+03  0.27912805243E+03  0.62291804316E+03  0.97735718531E+03  0.91187600000E+02 0.  0.
<mgrwt>
<rscale>  0 0.21984194E+04</rscale>
<asrwt>0</asrwt>
<pdfrwt beam="1">  1        1 0.29665950E+00 0.21984194E+04</pdfrwt>
<pdfrwt beam="2">  1       -1 0.96399798E-01 0.21984194E+04</pdfrwt>
<totfact> 0.31485537E+00</totfact>
</mgrwt>
</event>
<event>
11    1  0.4160993E-012  0.1372115E+04  0.7818608E-02  0.8974254E-01
         -2   -1    0    0    0  501 -0.00000000000E+00  0.00000000000E+00  0.44149054744E+03  0.44149054744E+03  0.00000000000E+00 0.  1.
          2   -1    0    0  501    0  0.00000000000E+00 -0.00000000000E+00 -0.10661039312E+04  0.10661039312E+04  0.00000000000E+00 0. -1.
    9900016    2    1    2    0    0 -0.17251435974E+01  0.17589501666E+03 -0.13823197820E+03  0.74449502790E+03  0.71008642697E+03 0.  0.
         23    2    3    3    0    0 -0.17115858609E+03 -0.10995026873E+03 -0.30029983321E+03  0.37479081066E+03  0.94360154403E+02 0.  0.
        -15    1    4    4    0    0 -0.13063552868E+03 -0.62174080196E+02 -0.14432373290E+03  0.20435409827E+03  0.00000000000E+00 0.  1.
        -15    1    4    4    0    0  0.54810482512E+00 -0.15436519707E+02 -0.33430751442E+02  0.36826643908E+02  0.00000000000E+00 0. -1.
         15    1    4    4    0    0 -0.31217527748E+02 -0.18714196839E+02 -0.85730818972E+02  0.93137148999E+02  0.00000000000E+00 0. -1.
         15    1    4    4    0    0 -0.98536344882E+01 -0.13625471992E+02 -0.36814529902E+02  0.40472919483E+02  0.00000000000E+00 0.  1.
        -16    1    3    3    0    0  0.16943344249E+03  0.28584528539E+03  0.16206785501E+03  0.36970421724E+03  0.00000000000E+00 0.  1.
         16    1    1    2    0    0  0.38983267374E+02 -0.31920231790E+03 -0.49353410584E+03  0.58905494524E+03  0.00000000000E+00 0. -1.
    9900018    1    1    2    0    0 -0.37258123777E+02  0.14330730124E+03  0.71527002859E+01  0.17404450549E+03  0.91187600000E+02 0.  0.
<mgrwt>
<rscale>  0 0.13721149E+04</rscale>
<asrwt>0</asrwt>
<pdfrwt beam="1">  1        2 0.16401599E+00 0.13721149E+04</pdfrwt>
<pdfrwt beam="2">  1       -2 0.67921623E-01 0.13721149E+04</pdfrwt>
<totfact> 0.44283355E+01</totfact>
</mgrwt>
</event>
<event>
11    1  0.4160993E-012  0.2471450E+04  0.7818608E-02  0.8413228E-01
          2   -1    0    0  501    0  0.00000000000E+00  0.00000000000E+00  0.18483146159E+04  0.18483146159E+04  0.00000000000E+00 0. -1.
         -2   -1    0    0    0  501 -0.00000000000E+00 -0.00000000000E+00 -0.82616681457E+03  0.82616681457E+03  0.00000000000E+00 0.  1.
    9900016    2    1    2    0    0 -0.17922840236E+03  0.42920936861E+03 -0.26804376777E+03  0.90034874082E+03  0.72279796025E+03 0.  0.
         23    2    3    3    0    0 -0.18883127420E+03 -0.16266178127E+03 -0.51018660105E+02  0.26986989854E+03  0.90059720506E+02 0.  0.
        -15    1    4    4    0    0 -0.87095095628E+02 -0.78705930493E+02 -0.18274876227E+02  0.11880298935E+03  0.00000000000E+00 0.  1.
        -15    1    4    4    0    0 -0.19076283288E+02 -0.62634750210E+01  0.73824655160E+01  0.21392440266E+02  0.00000000000E+00 0.  1.
         15    1    4    4    0    0 -0.28140818443E+02 -0.25136908695E+02  0.97834242851E+01  0.38980575062E+02  0.00000000000E+00 0. -1.
         15    1    4    4    0    0 -0.54519076843E+02 -0.52555467059E+02 -0.49909673679E+02  0.90693893865E+02  0.00000000000E+00 0. -1.
        -16    1    3    3    0    0  0.96028718409E+01  0.59187114987E+03 -0.21702510767E+03  0.63047884228E+03  0.00000000000E+00 0.  1.
         16    1    1    2    0    0  0.84490997033E+02 -0.73811757132E+03  0.12241685538E+04  0.14319723901E+04  0.00000000000E+00 0. -1.
    9900018    1    1    2    0    0  0.94737405329E+02  0.30890820271E+03  0.66023015249E+02  0.34216029958E+03  0.91187600000E+02 0.  0.
<mgrwt>
<rscale>  0 0.24714499E+04</rscale>
<asrwt>0</asrwt>
<pdfrwt beam="1">  1        2 0.28435609E+00 0.24714499E+04</pdfrwt>
<pdfrwt beam="2">  1       -2 0.12710259E+00 0.24714499E+04</pdfrwt>
<totfact> 0.33344902E+00</totfact>
</mgrwt>
</event>
<event>
11    1  0.4160993E-012  0.1233178E+04  0.7818608E-02  0.9084301E-01
         -2   -1    0    0    0  501 -0.00000000000E+00  0.00000000000E+00  0.47310297370E+03  0.47310297370E+03  0.00000000000E+00 0.  1.
          2   -1    0    0  501    0  0.00000000000E+00 -0.00000000000E+00 -0.80359272854E+03  0.80359272854E+03  0.00000000000E+00 0. -1.
    9900016    2    1    2    0    0  0.45854719326E+01  0.25211250937E+03 -0.34112733902E+03  0.82061932257E+03  0.70247168428E+03 0.  0.
         23    2    3    3    0    0  0.11489163458E+03 -0.17664786173E+03 -0.29738179331E+03  0.37574116159E+03  0.91328718226E+02 0.  0.
        -15    1    4    4    0    0  0.10270455382E+02  0.22289566974E+01 -0.23452229945E+02  0.25699369469E+02  0.00000000000E+00 0. -1.
        -15    1    4    4    0    0 -0.63823069378E+00 -0.17347428056E+02 -0.24974753200E+02  0.30415109666E+02  0.00000000000E+00 0. -1.
         15    1    4    4    0    0  0.39711917813E+02 -0.54428178474E+02 -0.13117401845E+03  0.14746554223E+03  0.00000000000E+00 0.  1.
         15    1    4    4    0    0  0.65547492076E+02 -0.10710121190E+03 -0.11778079171E+03  0.17216114022E+03  0.00000000000E+00 0.  1.
        -16    1    1    2    0    0  0.14310112439E+03 -0.16425353454E+03 -0.91584262188E+02  0.23631511270E+03  0.00000000000E+00 0.  1.
         16    1    3    3    0    0 -0.11030616264E+03  0.42876037111E+03 -0.43745545708E+02  0.44487816098E+03  0.00000000000E+00 0. -1.
    9900018    1    1    2    0    0 -0.14768659632E+03 -0.87858974835E+02  0.10222184636E+03  0.21976126697E+03  0.91187600000E+02 0.  0.
<mgrwt>
<rscale>  0 0.12331782E+04</rscale>
<asrwt>0</asrwt>
<pdfrwt beam="1">  1        2 0.12362965E+00 0.12331782E+04</pdfrwt>
<pdfrwt beam="2">  1       -2 0.72785073E-01 0.12331782E+04</pdfrwt>
<totfact> 0.57550764E+01</totfact>
</mgrwt>
</event>
<event>
11    1  0.4160993E-012  0.2928993E+04  0.7818608E-02  0.8264303E-01
          1   -1    0    0  501    0  0.00000000000E+00  0.00000000000E+00  0.12977697897E+04  0.12977697897E+04  0.00000000000E+00 0. -1.
         -1   -1    0    0    0  501 -0.00000000000E+00 -0.00000000000E+00 -0.16526424493E+04  0.16526424493E+04  0.00000000000E+00 0.  1.
    9900016    2    1    2    0    0 -0.21517819056E+03 -0.23985475917E+03  0.82570406452E+03  0.11332629530E+04  0.70616270026E+03 0.  0.
         23    2    3    3    0    0 -0.18918983642E+03  0.10572170637E+03 -0.34874594651E+01  0.23456552251E+03  0.89660183883E+02 0.  0.
        -15    1    4    4    0    0 -0.17755143768E+02  0.17423146096E+02 -0.58724328093E+00  0.24882845593E+02  0.00000000000E+00 0. -1.
        -15    1    4    4    0    0 -0.14657189187E+02  0.16659798571E+02  0.20051560312E+02  0.29907309378E+02  0.00000000000E+00 0. -1.
         15    1    4    4    0    0 -0.45342864776E+02  0.15294252253E+02  0.13452040944E+02  0.49707614543E+02  0.00000000000E+00 0.  1.
         15    1    4    4    0    0 -0.11143463869E+03  0.56344509452E+02 -0.36403817440E+02  0.13006775299E+03  0.00000000000E+00 0.  1.
        -16    1    3    3    0    0 -0.25988354146E+02 -0.34557646554E+03  0.82919152399E+03  0.89869743047E+03  0.00000000000E+00 0.  1.
         16    1    1    2    0    0  0.42146958199E+03  0.48411667058E+03 -0.13112480227E+04  0.14599236063E+04  0.00000000000E+00 0. -1.
    9900018    1    1    2    0    0 -0.20629139143E+03 -0.24426191142E+03  0.13067129860E+03  0.35722567967E+03  0.91187600000E+02 0.  0.
<mgrwt>
<rscale>  0 0.29289926E+04</rscale>
<asrwt>0</asrwt>
<pdfrwt beam="1">  1        1 0.19965689E+00 0.29289926E+04</pdfrwt>
<pdfrwt beam="2">  1       -1 0.25425268E+00 0.29289926E+04</pdfrwt>
<totfact> 0.50839337E-01</totfact>
</mgrwt>
</event>
<event>
11    1  0.4160993E-012  0.1790613E+04  0.7818608E-02  0.8711307E-01
          1   -1    0    0  501    0  0.00000000000E+00  0.00000000000E+00  0.19541892964E+04  0.19541892964E+04  0.00000000000E+00 0. -1.
         -1   -1    0    0    0  501 -0.00000000000E+00 -0.00000000000E+00 -0.41018217254E+03  0.41018217254E+03  0.00000000000E+00 0.  1.
    9900016    2    1    2    0    0 -0.13825613879E+02 -0.18928154294E+03  0.49576070193E+03  0.87851303932E+03  0.69999131179E+03 0.  0.
         23    2    3    3    0    0 -0.86409331874E+02 -0.18722225518E+03  0.66023957308E+03  0.69871889082E+03  0.98858732822E+02 0.  0.
        -15    1    4    4    0    0 -0.16375484913E+02 -0.15292022234E+02  0.57194314207E+02  0.61426313805E+02  0.00000000000E+00 0.  1.
        -15    1    4    4    0    0 -0.11454130590E+02 -0.10682104968E+02  0.12950395295E+02  0.20322824913E+02  0.00000000000E+00 0.  1.
         15    1    4    4    0    0 -0.22963094451E+02 -0.45877308441E+02  0.10217316315E+03  0.11433016402E+03  0.00000000000E+00 0. -1.
         15    1    4    4    0    0 -0.35616621921E+02 -0.11537081954E+03  0.48792170043E+03  0.50263958808E+03  0.00000000000E+00 0. -1.
        -16    1    3    3    0    0  0.72583717995E+02 -0.20592877643E+01 -0.16447887114E+03  0.17979414850E+03  0.00000000000E+00 0.  1.
         16    1    1    2    0    0 -0.16754792704E+03 -0.37805260343E+03  0.62534953105E+03  0.74970535199E+03  0.00000000000E+00 0. -1.
    9900018    1    1    2    0    0  0.18137354092E+03  0.56733414637E+03  0.42289689083E+03  0.73615307759E+03  0.91187600000E+02 0.  0.
<mgrwt>
<rscale>  0 0.17906129E+04</rscale>
<asrwt>0</asrwt>
<pdfrwt beam="1">  1        1 0.30064450E+00 0.17906129E+04</pdfrwt>
<pdfrwt beam="2">  1       -1 0.63104951E-01 0.17906129E+04</pdfrwt>
<totfact> 0.77002232E+00</totfact>
</mgrwt>
</event>
<event>
11    1  0.4160993E-012  0.1917032E+04  0.7818608E-02  0.8646425E-01
          2   -1    0    0  501    0  0.00000000000E+00  0.00000000000E+00  0.12177098895E+04  0.12177098895E+04  0.00000000000E+00 0.  1.
         -2   -1    0    0    0  501 -0.00000000000E+00 -0.00000000000E+00 -0.75449245367E+03  0.75449245367E+03  0.00000000000E+00 0. -1.
    9900016    2    1    2    0    0 -0.69837908758E+02  0.20951931679E+03  0.20535988715E+03  0.77096240517E+03  0.70953130257E+03 0.  0.
         23    2    3    3    0    0 -0.30022659476E+03  0.25139403157E+03  0.31526308139E+03  0.51229050782E+03  0.98568689755E+02 0.  0.
        -15    1    4    4    0    0 -0.27023657285E+02  0.12439726564E+02  0.33710668760E+02  0.44960360744E+02  0.00000000000E+00 0. -1.
        -15    1    4    4    0    0 -0.22552088611E+03  0.22387819275E+03  0.24146512820E+03  0.39910715779E+03  0.00000000000E+00 0. -1.
         15    1    4    4    0    0 -0.34221233923E+02  0.14464160436E+02  0.15644241860E+02  0.40311872838E+02  0.00000000000E+00 0.  1.
         15    1    4    4    0    0 -0.13460817441E+02  0.61195182231E+00  0.24443042566E+02  0.27911116443E+02  0.00000000000E+00 0.  1.
        -16    1    1    2    0    0 -0.39732965745E+03 -0.22877009006E+03  0.49022694019E+03  0.67121461820E+03  0.00000000000E+00 0.  1.
         16    1    3    3    0    0  0.23038868600E+03 -0.41874714785E+02 -0.10990319424E+03  0.25867189735E+03  0.00000000000E+00 0. -1.
    9900018    1    1    2    0    0  0.46716756621E+03  0.19250773275E+02 -0.23236939146E+03  0.53002531984E+03  0.91187600000E+02 0.  0.
<mgrwt>
<rscale>  0 0.19170320E+04</rscale>
<asrwt>0</asrwt>
<pdfrwt beam="1">  1        2 0.18733998E+00 0.19170320E+04</pdfrwt>
<pdfrwt beam="2">  1       -2 0.11607576E+00 0.19170320E+04</pdfrwt>
<totfact> 0.99665688E+00</totfact>
</mgrwt>
</event>
<event>
11    1  0.4160993E-012  0.2030582E+04  0.7818608E-02  0.8592454E-01
          1   -1    0    0  501    0  0.00000000000E+00  0.00000000000E+00  0.12080301549E+04  0.12080301549E+04  0.00000000000E+00 0. -1.
         -1   -1    0    0    0  501 -0.00000000000E+00 -0.00000000000E+00 -0.85330336679E+03  0.85330336679E+03  0.00000000000E+00 0.  1.
    9900016    2    1    2    0    0 -0.25651361462E+03  0.35053511431E+03  0.28617775073E+03  0.88366545688E+03  0.71434783811E+03 0.  0.
         23    2    3    3    0    0  0.53920338874E+02  0.81402964020E+02  0.42860802499E+03  0.44882325926E+03  0.90573911623E+02 0.  0.
        -15    1    4    4    0    0  0.17954314307E+02  0.88619371759E+02  0.29639531140E+03  0.30988051096E+03  0.00000000000E+00 0. -1.
        -15    1    4    4    0    0  0.86865361311E+01 -0.61690149744E+01  0.60745467808E+02  0.61672720995E+02  0.00000000000E+00 0. -1.
         15    1    4    4    0    0  0.11844824432E+02  0.38396470709E+01  0.22771678411E+02  0.25953652789E+02  0.00000000000E+00 0.  1.
         15    1    4    4    0    0  0.15434664004E+02 -0.48870398350E+01  0.48695567371E+02  0.51316374510E+02  0.00000000000E+00 0.  1.
        -16    1    3    3    0    0 -0.31043395350E+03  0.26913215029E+03 -0.14243027427E+03  0.43484219762E+03  0.00000000000E+00 0.  1.
         16    1    1    2    0    0 -0.12011547077E+03  0.10503403542E+03  0.44379679310E+03  0.47160944486E+03  0.00000000000E+00 0. -1.
    9900018    1    1    2    0    0  0.37662908539E+03 -0.45556914973E+03 -0.37524775576E+03  0.70605861991E+03  0.91187600000E+02 0.  0.
<mgrwt>
<rscale>  0 0.20305824E+04</rscale>
<asrwt>0</asrwt>
<pdfrwt beam="1">  1        1 0.18585079E+00 0.20305824E+04</pdfrwt>
<pdfrwt beam="2">  1       -1 0.13127744E+00 0.20305824E+04</pdfrwt>
<totfact> 0.48258649E+00</totfact>
</mgrwt>
</event>
<event>
11    1  0.4160993E-012  0.1416424E+04  0.7818608E-02  0.8942015E-01
         -2   -1    0    0    0  501 -0.00000000000E+00  0.00000000000E+00  0.17250564652E+04  0.17250564652E+04  0.00000000000E+00 0.  1.
          2   -1    0    0  501    0  0.00000000000E+00 -0.00000000000E+00 -0.29075250999E+03  0.29075250999E+03  0.00000000000E+00 0. -1.
    9900016    2    1    2    0    0  0.57717139597E+02 -0.31773694927E+03  0.82725468190E+03  0.11500279768E+04  0.73070240281E+03 0.  0.
         23    2    3    3    0    0  0.19125294870E+03  0.91471539242E+02  0.64063829126E+03  0.68087013910E+03  0.90675207220E+02 0.  0.
        -15    1    4    4    0    0  0.31407453364E+02 -0.94922316068E+01  0.11941985596E+03  0.12384519605E+03  0.00000000000E+00 0. -1.
        -15    1    4    4    0    0  0.68327986792E+01  0.96060542985E+01  0.55538285574E+02  0.56775563242E+02  0.00000000000E+00 0.  1.
         15    1    4    4    0    0  0.14106571319E+03  0.87305581974E+02  0.45273862566E+03  0.48217638189E+03  0.00000000000E+00 0.  1.
         15    1    4    4    0    0  0.11946983464E+02  0.40521345766E+01  0.12941524066E+02  0.18072997916E+02  0.00000000000E+00 0. -1.
        -16    1    3    3    0    0 -0.13353580910E+03 -0.40920848852E+03  0.18661639063E+03  0.46915783766E+03  0.00000000000E+00 0.  1.
         16    1    1    2    0    0  0.18704444864E+03  0.27667914451E+03  0.23097301940E+03  0.40606096890E+03  0.00000000000E+00 0. -1.
    9900018    1    1    2    0    0 -0.24476158824E+03  0.41057804765E+02  0.37607625396E+03  0.45972002957E+03  0.91187600000E+02 0.  0.
<mgrwt>
<rscale>  0 0.14164244E+04</rscale>
<asrwt>0</asrwt>
<pdfrwt beam="1">  1        2 0.44731156E-01 0.14164244E+04</pdfrwt>
<pdfrwt beam="2">  1       -2 0.26539330E+00 0.14164244E+04</pdfrwt>
<totfact> 0.57273715E+00</totfact>
</mgrwt>
</event>
<event>
11    1  0.4160993E-012  0.1442414E+04  0.7818608E-02  0.8923676E-01
          2   -1    0    0  501    0  0.00000000000E+00  0.00000000000E+00  0.94637458650E+03  0.94637458650E+03  0.00000000000E+00 0.  1.
         -2   -1    0    0    0  501 -0.00000000000E+00 -0.00000000000E+00 -0.54961293235E+03  0.54961293235E+03  0.00000000000E+00 0. -1.
    9900016    2    1    2    0    0 -0.20750142173E+03  0.17808699021E+03  0.84672506487E+02  0.76475313050E+03  0.70915872775E+03 0.  0.
         23    2    3    3    0    0  0.12232549111E+03 -0.17901431080E+03  0.14251029384E+03  0.27521013824E+03  0.91770295280E+02 0.  0.
        -15    1    4    4    0    0  0.38491999266E+02 -0.14807931212E+02  0.44413616383E+02  0.60609224995E+02  0.00000000000E+00 0.  1.
        -15    1    4    4    0    0  0.17884316416E+02 -0.17667464514E+02  0.29093595573E+02  0.38450297520E+02  0.00000000000E+00 0.  1.
         15    1    4    4    0    0  0.56131025630E+02 -0.13826359281E+03  0.63020311319E+02  0.16198479180E+03  0.00000000000E+00 0. -1.
         15    1    4    4    0    0  0.98181497940E+01 -0.82753222620E+01  0.59827705639E+01  0.14165823927E+02  0.00000000000E+00 0. -1.
        -16    1    3    3    0    0 -0.32982691284E+03  0.35710130102E+03 -0.57837787352E+02  0.48954299225E+03  0.00000000000E+00 0.  1.
         16    1    1    2    0    0  0.13364261979E+03 -0.25508702802E+03 -0.92919831181E+02  0.30259516968E+03  0.00000000000E+00 0. -1.
    9900018    1    1    2    0    0  0.73858801937E+02  0.77000037806E+02  0.40500897884E+03  0.42863921867E+03  0.91187600000E+02 0.  0.
<mgrwt>
<rscale>  0 0.14424142E+04</rscale>
<asrwt>0</asrwt>
<pdfrwt beam="1">  1        2 0.14559609E+00 0.14424142E+04</pdfrwt>
<pdfrwt beam="2">  1       -2 0.84555836E-01 0.14424142E+04</pdfrwt>
<totfact> 0.32309920E+01</totfact>
</mgrwt>
</event>
<event>
11    1  0.4160993E-012  0.1320563E+04  0.7818608E-02  0.9013416E-01
          2   -1    0    0  501    0  0.00000000000E+00  0.00000000000E+00  0.97319492635E+03  0.97319492635E+03  0.00000000000E+00 0.  1.
         -2   -1    0    0    0  501 -0.00000000000E+00 -0.00000000000E+00 -0.44797946109E+03  0.44797946109E+03  0.00000000000E+00 0. -1.
    9900016    2    1    2    0    0 -0.12009332484E+03  0.42387602154E+03  0.23963370132E+03  0.86478422810E+03  0.70450987364E+03 0.  0.
         23    2    3    3    0    0  0.73487096679E+02 -0.51602428044E+02 -0.16650687774E+03  0.21018258926E+03  0.91591574589E+02 0.  0.
        -15    1    4    4    0    0  0.29349842328E+02 -0.23800055900E+02 -0.25273403310E+02  0.45459881439E+02  0.00000000000E+00 0. -1.
        -15    1    4    4    0    0 -0.60716311923E+01 -0.13965286436E+02 -0.31076708629E+02  0.34607163273E+02  0.00000000000E+00 0. -1.
         15    1    4    4    0    0  0.45848340084E+02  0.10002048139E+01 -0.10364188056E+03  0.11333450536E+03  0.00000000000E+00 0.  1.
         15    1    4    4    0    0  0.43605454589E+01 -0.14837290521E+02 -0.65148852385E+01  0.16781039193E+02  0.00000000000E+00 0.  1.
        -16    1    1    2    0    0  0.43172729417E+02 -0.28909694547E+03  0.13616904584E+03  0.32246385455E+03  0.00000000000E+00 0.  1.
         16    1    3    3    0    0 -0.19358042152E+03  0.47547844958E+03  0.40614057906E+03  0.65460163884E+03  0.00000000000E+00 0. -1.
    9900018    1    1    2    0    0  0.76920595427E+02 -0.13477907606E+03  0.14941271809E+03  0.23392630478E+03  0.91187600000E+02 0.  0.
<mgrwt>
<rscale>  0 0.13205625E+04</rscale>
<asrwt>0</asrwt>
<pdfrwt beam="1">  1        2 0.14972230E+00 0.13205625E+04</pdfrwt>
<pdfrwt beam="2">  1       -2 0.68919917E-01 0.13205625E+04</pdfrwt>
<totfact> 0.49358734E+01</totfact>
</mgrwt>
</event>
<event>
11    1  0.4160993E-012  0.1089278E+04  0.7818608E-02  0.9215706E-01
          1   -1    0    0  501    0  0.00000000000E+00  0.00000000000E+00  0.17172143776E+04  0.17172143776E+04  0.00000000000E+00 0. -1.
         -1   -1    0    0    0  501 -0.00000000000E+00 -0.00000000000E+00 -0.17273999430E+03  0.17273999430E+03  0.00000000000E+00 0.  1.
    9900016    2    1    2    0    0  0.24155895529E+02  0.21715262296E+02  0.65932700552E+03  0.95116140703E+03  0.68479256868E+03 0.  0.
         23    2    3    3    0    0  0.17628541732E+03 -0.11129892958E+03  0.70791584840E+03  0.74332242539E+03  0.88990896050E+02 0.  0.
        -15    1    4    4    0    0  0.72096136196E+01 -0.15629792049E+02  0.35265546164E+02  0.39241912215E+02  0.00000000000E+00 0. -1.
        -15    1    4    4    0    0  0.14738301890E+02 -0.12409118364E+02  0.59146747590E+02  0.62205638905E+02  0.00000000000E+00 0.  1.
         15    1    4    4    0    0  0.12887715307E+03 -0.35991230825E+02  0.40306247488E+03  0.42469288661E+03  0.00000000000E+00 0.  1.
         15    1    4    4    0    0  0.25460348741E+02 -0.47268788341E+02  0.21044107977E+03  0.21718198766E+03  0.00000000000E+00 0. -1.
        -16    1    1    2    0    0 -0.95945507532E+02 -0.67703203699E+02  0.13760488649E+03  0.18089878107E+03  0.00000000000E+00 0.  1.
         16    1    3    3    0    0 -0.15212952179E+03  0.13301419187E+03 -0.48588842884E+02  0.20783898165E+03  0.00000000000E+00 0. -1.
    9900018    1    1    2    0    0  0.71789612002E+02  0.45987941403E+02  0.74754249128E+03  0.75789418378E+03  0.91187600000E+02 0.  0.
<mgrwt>
<rscale>  0 0.10892779E+04</rscale>
<asrwt>0</asrwt>
<pdfrwt beam="1">  1        1 0.26418682E+00 0.10892779E+04</pdfrwt>
<pdfrwt beam="2">  1       -1 0.26575385E-01 0.10892779E+04</pdfrwt>
<totfact> 0.58361163E+01</totfact>
</mgrwt>
</event>
<event>
11    1  0.4160993E-012  0.1674860E+04  0.7818608E-02  0.8775834E-01
          2   -1    0    0  501    0  0.00000000000E+00  0.00000000000E+00  0.94177636920E+03  0.94177636920E+03  0.00000000000E+00 0.  1.
         -2   -1    0    0    0  501 -0.00000000000E+00 -0.00000000000E+00 -0.74464493638E+03  0.74464493638E+03  0.00000000000E+00 0. -1.
    9900016    2    1    2    0    0 -0.61088984732E+01 -0.97471099168E+02  0.64232682231E+03  0.96255458187E+03  0.71020394437E+03 0.  0.
         23    2    3    3    0    0 -0.23705633765E+03  0.17460694155E+03  0.47846723078E+03  0.56985476568E+03  0.95500114027E+02 0.  0.
        -15    1    4    4    0    0 -0.46351968179E+02  0.61748138966E+02  0.84153217205E+02  0.11420639906E+03  0.00000000000E+00 0. -1.
        -15    1    4    4    0    0 -0.53235229404E+01  0.99885870402E+01  0.27041542561E+02  0.29314787934E+02  0.00000000000E+00 0. -1.
         15    1    4    4    0    0 -0.11318913843E+03  0.71452822886E+02  0.19054554434E+03  0.23286238732E+03  0.00000000000E+00 0.  1.
         15    1    4    4    0    0 -0.72191708094E+02  0.31417392653E+02  0.17672692667E+03  0.19347119137E+03  0.00000000000E+00 0.  1.
        -16    1    1    2    0    0 -0.13064454345E+03 -0.19249359240E+03 -0.13745268735E+03  0.27021291810E+03  0.00000000000E+00 0.  1.
         16    1    3    3    0    0  0.23094743918E+03 -0.27207804071E+03  0.16385959154E+03  0.39269981619E+03  0.00000000000E+00 0. -1.
    9900018    1    1    2    0    0  0.13675344192E+03  0.28996469157E+03 -0.30774270215E+03  0.45365380562E+03  0.91187600000E+02 0.  0.
<mgrwt>
<rscale>  0 0.16748600E+04</rscale>
<asrwt>0</asrwt>
<pdfrwt beam="1">  1        2 0.14488867E+00 0.16748600E+04</pdfrwt>
<pdfrwt beam="2">  1       -2 0.11456076E+00 0.16748600E+04</pdfrwt>
<totfact> 0.15601757E+01</totfact>
</mgrwt>
</event>
<event>
11    1  0.4160993E-012  0.1073989E+04  0.7818608E-02  0.9230921E-01
          2   -1    0    0  501    0  0.00000000000E+00  0.00000000000E+00  0.26724364765E+04  0.26724364765E+04  0.00000000000E+00 0. -1.
         -2   -1    0    0    0  501 -0.00000000000E+00 -0.00000000000E+00 -0.10790273825E+03  0.10790273825E+03  0.00000000000E+00 0.  1.
    9900016    2    1    2    0    0 -0.72511067018E+02  0.18690050866E+03  0.17738420127E+04  0.19252895383E+04  0.72113429054E+03 0.  0.
         23    2    3    3    0    0 -0.25043057256E+03 -0.18999742398E+03  0.65375251713E+03  0.73017118418E+03  0.83325336853E+02 0.  0.
        -15    1    4    4    0    0 -0.86627307119E+02 -0.53530346424E+02  0.15108198817E+03  0.18219647493E+03  0.00000000000E+00 0.  1.
        -15    1    4    4    0    0 -0.12875420803E+02 -0.16869636289E+01  0.18411574865E+02  0.22530166358E+02  0.00000000000E+00 0.  1.
         15    1    4    4    0    0 -0.14490096711E+03 -0.12620131093E+03  0.46985866225E+03  0.50763197658E+03  0.00000000000E+00 0. -1.
         15    1    4    4    0    0 -0.60268775202E+01 -0.85788029989E+01  0.14400291839E+02  0.17812566311E+02  0.00000000000E+00 0. -1.
        -16    1    1    2    0    0  0.66328827362E+02  0.21352414747E+02  0.67783538645E+02  0.97211352557E+02  0.00000000000E+00 0.  1.
         16    1    3    3    0    0  0.17791950554E+03  0.37689793264E+03  0.11200894956E+04  0.11951183541E+04  0.00000000000E+00 0. -1.
    9900018    1    1    2    0    0  0.61822396560E+01 -0.20825292340E+03  0.72290818691E+03  0.75783832397E+03  0.91187600000E+02 0.  0.
<mgrwt>
<rscale>  0 0.10739892E+04</rscale>
<asrwt>0</asrwt>
<pdfrwt beam="1">  1        2 0.41114403E+00 0.10739892E+04</pdfrwt>
<pdfrwt beam="2">  1       -2 0.16600423E-01 0.10739892E+04</pdfrwt>
<totfact> 0.82053283E+01</totfact>
</mgrwt>
</event>
<event>
11    1  0.4160993E-012  0.1612833E+04  0.7818608E-02  0.8812703E-01
         -1   -1    0    0    0  501 -0.00000000000E+00  0.00000000000E+00  0.12611104514E+04  0.12611104514E+04  0.00000000000E+00 0.  1.
          1   -1    0    0  501    0  0.00000000000E+00 -0.00000000000E+00 -0.51566268873E+03  0.51566268873E+03  0.00000000000E+00 0. -1.
    9900016    2    1    2    0    0 -0.22672164291E+03 -0.99030013978E+02  0.36417718588E+03  0.83147656955E+03  0.70534999536E+03 0.  0.
         23    2    3    3    0    0 -0.69994927923E+02 -0.18267318461E+03 -0.16637763247E+03  0.27196977025E+03  0.89539136875E+02 0.  0.
        -15    1    4    4    0    0 -0.57329761559E+02 -0.89902273115E+02 -0.67620182387E+02  0.12626008608E+03  0.00000000000E+00 0.  1.
        -15    1    4    4    0    0 -0.25794433356E+01 -0.19021682874E+02 -0.11884238501E+02  0.22576825996E+02  0.00000000000E+00 0. -1.
         15    1    4    4    0    0  0.98296615428E+01 -0.10917610892E+02 -0.78784534243E+00  0.14711803897E+02  0.00000000000E+00 0.  1.
         15    1    4    4    0    0 -0.19915384571E+02 -0.62831617732E+02 -0.86085366238E+02  0.10842105427E+03  0.00000000000E+00 0. -1.
        -16    1    1    2    0    0 -0.56486745930E+02 -0.22942421929E+03  0.43883354592E+03  0.49839854121E+03  0.00000000000E+00 0.  1.
         16    1    3    3    0    0 -0.15672671499E+03  0.83643170634E+02  0.53055481835E+03  0.55950679930E+03  0.00000000000E+00 0. -1.
    9900018    1    1    2    0    0  0.28320838884E+03  0.32845423326E+03 -0.57562969111E+02  0.44689802938E+03  0.91187600000E+02 0.  0.
<mgrwt>
<rscale>  0 0.16128330E+04</rscale>
<asrwt>0</asrwt>
<pdfrwt beam="1">  1        1 0.79332722E-01 0.16128330E+04</pdfrwt>
<pdfrwt beam="2">  1       -1 0.19401699E+00 0.16128330E+04</pdfrwt>
<totfact> 0.67397189E+00</totfact>
</mgrwt>
</event>
<event>
11    1  0.4160993E-012  0.1588364E+04  0.7818608E-02  0.8827728E-01
         -2   -1    0    0    0  501 -0.00000000000E+00  0.00000000000E+00  0.77376080452E+03  0.77376080452E+03  0.00000000000E+00 0.  1.
          2   -1    0    0  501    0  0.00000000000E+00 -0.00000000000E+00 -0.81514248649E+03  0.81514248649E+03  0.00000000000E+00 0. -1.
    9900016    2    1    2    0    0 -0.11703702141E+03 -0.23871841284E+03 -0.10441154193E+02  0.75457125299E+03  0.70610524225E+03 0.  0.
         23    2    3    3    0    0  0.14909288564E+03  0.17492117295E+03 -0.72943040388E+02  0.25875947405E+03  0.93859858172E+02 0.  0.
        -15    1    4    4    0    0  0.85585266932E+00  0.10253163148E+02 -0.57286822728E+01  0.11776147032E+02  0.00000000000E+00 0.  1.
        -15    1    4    4    0    0  0.56695173470E+02  0.14195080487E+02 -0.28698910499E+02  0.65111216151E+02  0.00000000000E+00 0.  1.
         15    1    4    4    0    0  0.85865796157E+02  0.13901436174E+03 -0.29037318955E+02  0.16595509517E+03  0.00000000000E+00 0. -1.
         15    1    4    4    0    0  0.56760633416E+01  0.11458567574E+02 -0.94781286611E+01  0.15917015701E+02  0.00000000000E+00 0. -1.
        -16    1    1    2    0    0  0.17387676033E+03  0.48972373374E+03  0.10367030680E+03  0.52991508346E+03  0.00000000000E+00 0.  1.
         16    1    3    3    0    0 -0.26612990705E+03 -0.41363958579E+03  0.62501886195E+02  0.49581177894E+03  0.00000000000E+00 0. -1.
    9900018    1    1    2    0    0 -0.56839738916E+02 -0.25100532090E+03 -0.13461083458E+03  0.30441695455E+03  0.91187600000E+02 0.  0.
<mgrwt>
<rscale>  0 0.15883643E+04</rscale>
<asrwt>0</asrwt>
<pdfrwt beam="1">  1        2 0.12540654E+00 0.15883643E+04</pdfrwt>
<pdfrwt beam="2">  1       -2 0.11904012E+00 0.15883643E+04</pdfrwt>
<totfact> 0.17464789E+01</totfact>
</mgrwt>
</event>
<event>
11    1  0.4160993E-012  0.9242749E+03  0.7818608E-02  0.9395735E-01
          1   -1    0    0  501    0  0.00000000000E+00  0.00000000000E+00  0.12031701838E+04  0.12031701838E+04  0.00000000000E+00 0. -1.
         -1   -1    0    0    0  501 -0.00000000000E+00 -0.00000000000E+00 -0.17750689213E+03  0.17750689213E+03  0.00000000000E+00 0.  1.
    9900016    2    1    2    0    0 -0.14290235678E+03  0.21333698356E+02  0.88221781706E+03  0.11507405672E+04  0.72458220098E+03 0.  0.
         23    2    3    3    0    0 -0.17037125917E+03  0.14638451696E+03 -0.16443710533E+02  0.24300448825E+03  0.91246879041E+02 0.  0.
        -15    1    4    4    0    0 -0.11082643503E+03  0.55744687822E+02 -0.23626583114E+02  0.12628612098E+03  0.00000000000E+00 0.  1.
        -15    1    4    4    0    0 -0.46760982380E+01  0.20226876863E+02 -0.54352871641E+01  0.21460074299E+02  0.00000000000E+00 0.  1.
         15    1    4    4    0    0 -0.57053356822E+02  0.57117653652E+02  0.13043350687E+02  0.81777997533E+02  0.00000000000E+00 0. -1.
         15    1    4    4    0    0  0.21846309188E+01  0.13295298624E+02 -0.42519094163E+00  0.13480295438E+02  0.00000000000E+00 0. -1.
        -16    1    3    3    0    0  0.27468902390E+02 -0.12505081860E+03  0.89866152760E+03  0.90773607894E+03  0.00000000000E+00 0.  1.
         16    1    1    2    0    0  0.29234408499E+02 -0.59702027243E+01  0.42781777063E+02  0.52159125851E+02  0.00000000000E+00 0. -1.
    9900018    1    1    2    0    0  0.11366794828E+03 -0.15363495631E+02  0.10066369751E+03  0.17777738285E+03  0.91187600000E+02 0.  0.
<mgrwt>
<rscale>  0 0.92427485E+03</rscale>
<asrwt>0</asrwt>
<pdfrwt beam="1">  1        1 0.18510310E+00 0.92427485E+03</pdfrwt>
<pdfrwt beam="2">  1       -1 0.27308753E-01 0.92427485E+03</pdfrwt>
<totfact> 0.12851025E+02</totfact>
</mgrwt>
</event>
<event>
11    1  0.4160993E-012  0.2012597E+04  0.7818608E-02  0.8600754E-01
         -3   -1    0    0    0  501 -0.00000000000E+00  0.00000000000E+00  0.10374508697E+04  0.10374508697E+04  0.00000000000E+00 0.  1.
          3   -1    0    0  501    0  0.00000000000E+00 -0.00000000000E+00 -0.97608129679E+03  0.97608129679E+03  0.00000000000E+00 0. -1.
    9900016    2    1    2    0    0  0.15053745377E+03 -0.74100975433E+02  0.39929503159E+03  0.83387135680E+03  0.71256749708E+03 0.  0.
         23    2    3    3    0    0  0.17901900056E+03  0.16242145777E+03 -0.10319063468E+03  0.27777253040E+03  0.89892931062E+02 0.  0.
        -15    1    4    4    0    0  0.25623407934E+02  0.31065859073E+02  0.12229492696E+02  0.42085711657E+02  0.00000000000E+00 0.  1.
        -15    1    4    4    0    0  0.56655111940E+01  0.12867271201E+02 -0.66026241383E+01  0.15532524932E+02  0.00000000000E+00 0. -1.
         15    1    4    4    0    0  0.13113276349E+03  0.10645211938E+03 -0.10612695322E+03  0.19947627824E+03  0.00000000000E+00 0. -1.
         15    1    4    4    0    0  0.16597317936E+02  0.12036208114E+02 -0.26905500203E+01  0.20678015568E+02  0.00000000000E+00 0.  1.
        -16    1    1    2    0    0  0.58303129599E+02 -0.87511615072E+02  0.38791369129E+03  0.40191363448E+03  0.00000000000E+00 0.  1.
         16    1    3    3    0    0 -0.28481546788E+02 -0.23652243320E+03  0.50248566627E+03  0.55609882640E+03  0.00000000000E+00 0. -1.
    9900018    1    1    2    0    0 -0.20884058337E+03  0.16161259051E+03 -0.72583914992E+03  0.77774717526E+03  0.91187600000E+02 0.  0.
<mgrwt>
<rscale>  0 0.20125967E+04</rscale>
<asrwt>0</asrwt>
<pdfrwt beam="1">  1        3 0.15016635E+00 0.20125967E+04</pdfrwt>
<pdfrwt beam="2">  1       -3 0.15960783E+00 0.20125967E+04</pdfrwt>
<totfact> 0.21435018E-01</totfact>
</mgrwt>
</event>
<event>
11    1  0.4160993E-012  0.1740356E+04  0.7818608E-02  0.8738677E-01
         -2   -1    0    0    0  501 -0.00000000000E+00  0.00000000000E+00  0.82092148695E+03  0.82092148695E+03  0.00000000000E+00 0. -1.
          2   -1    0    0  501    0  0.00000000000E+00 -0.00000000000E+00 -0.92238988600E+03  0.92238988600E+03  0.00000000000E+00 0.  1.
    9900016    2    1    2    0    0  0.34058304406E+03 -0.21180210400E+03 -0.30560488790E+03  0.86532693551E+03  0.70323496547E+03 0.  0.
         23    2    3    3    0    0  0.24662451329E+03 -0.19353448899E+03  0.18003219907E+03  0.37034684349E+03  0.80411086275E+02 0.  0.
        -15    1    4    4    0    0  0.73983682410E+02 -0.26227471018E+02  0.29698321691E+02  0.83925298988E+02  0.00000000000E+00 0.  1.
        -15    1    4    4    0    0  0.15353244271E+02 -0.65676283528E+01  0.16124388043E+02  0.23213180342E+02  0.00000000000E+00 0. -1.
         15    1    4    4    0    0  0.14990331967E+02 -0.13075689928E+02  0.39893902188E+01  0.20287901663E+02  0.00000000000E+00 0.  1.
         15    1    4    4    0    0  0.14229725464E+03 -0.14766369969E+03  0.13022009911E+03  0.24292046250E+03  0.00000000000E+00 0. -1.
        -16    1    3    3    0    0  0.93958530765E+02 -0.18267615003E+02 -0.48563708697E+03  0.49498009202E+03  0.00000000000E+00 0.  1.
         16    1    1    2    0    0 -0.29605572654E+03  0.16801488448E+03  0.47560807660E+03  0.58487694189E+03  0.00000000000E+00 0. -1.
    9900018    1    1    2    0    0 -0.44527317515E+02  0.43787219511E+02 -0.27147158775E+03  0.29310749555E+03  0.91187600000E+02 0.  0.
<mgrwt>
<rscale>  0 0.17403559E+04</rscale>
<asrwt>0</asrwt>
<pdfrwt beam="1">  1        2 0.14190614E+00 0.17403559E+04</pdfrwt>
<pdfrwt beam="2">  1       -2 0.12629561E+00 0.17403559E+04</pdfrwt>
<totfact> 0.12550432E+01</totfact>
</mgrwt>
</event>
<event>
11    1  0.4160993E-012  0.2576225E+04  0.7818608E-02  0.8376322E-01
          1   -1    0    0  501    0  0.00000000000E+00  0.00000000000E+00  0.89231755468E+03  0.89231755468E+03  0.00000000000E+00 0. -1.
         -1   -1    0    0    0  501 -0.00000000000E+00 -0.00000000000E+00 -0.18594657610E+04  0.18594657610E+04  0.00000000000E+00 0.  1.
    9900016    2    1    2    0    0 -0.14764015117E+03  0.35989315036E+03 -0.91160598177E+03  0.12149637812E+04  0.70270251872E+03 0.  0.
         23    2    3    3    0    0 -0.33888089421E+03  0.48408190979E+01 -0.22727294710E+03  0.42064213223E+03  0.10209366748E+03 0.  0.
        -15    1    4    4    0    0 -0.85473862200E+02  0.21564481182E+02 -0.70685347363E+02  0.11299215150E+03  0.00000000000E+00 0.  1.
        -15    1    4    4    0    0 -0.83802846935E+01 -0.59117628052E+01 -0.46251929942E+01  0.11250356494E+02  0.00000000000E+00 0.  1.
         15    1    4    4    0    0 -0.18503186752E+03 -0.32168870659E+02 -0.13237991680E+03  0.22977395546E+03  0.00000000000E+00 0. -1.
         15    1    4    4    0    0 -0.59994879797E+02  0.21356971380E+02 -0.19582489939E+02  0.66625668781E+02  0.00000000000E+00 0. -1.
        -16    1    3    3    0    0  0.19124074304E+03  0.35505233126E+03 -0.68433303467E+03  0.79432164900E+03  0.00000000000E+00 0.  1.
         16    1    1    2    0    0  0.98359970793E+02 -0.43368499406E+03  0.66782980314E+03  0.80234282193E+03  0.00000000000E+00 0. -1.
    9900018    1    1    2    0    0  0.49280180374E+02  0.73791843705E+02 -0.72337202773E+03  0.73447671254E+03  0.91187600000E+02 0.  0.
<mgrwt>
<rscale>  0 0.25762251E+04</rscale>
<asrwt>0</asrwt>
<pdfrwt beam="1">  1        1 0.13727963E+00 0.25762251E+04</pdfrwt>
<pdfrwt beam="2">  1       -1 0.28607165E+00 0.25762251E+04</pdfrwt>
<totfact> 0.66247319E-01</totfact>
</mgrwt>
</event>
<event>
11    1  0.4160993E-012  0.1312450E+04  0.7818608E-02  0.9019750E-01
         -2   -1    0    0    0  501 -0.00000000000E+00  0.00000000000E+00  0.12015803022E+04  0.12015803022E+04  0.00000000000E+00 0.  1.
          2   -1    0    0  501    0  0.00000000000E+00 -0.00000000000E+00 -0.35838756232E+03  0.35838756232E+03  0.00000000000E+00 0. -1.
    9900016    2    1    2    0    0  0.20744473559E+03 -0.33168652344E+01  0.62108325263E+03  0.96799839745E+03  0.71290404042E+03 0.  0.
         23    2    3    3    0    0 -0.13499898436E+03  0.18345434901E+03  0.50430313919E+03  0.56082671044E+03  0.91239898084E+02 0.  0.
        -15    1    4    4    0    0 -0.48048037803E+02  0.40830160714E+02  0.10876608004E+03  0.12572102500E+03  0.00000000000E+00 0.  1.
        -15    1    4    4    0    0 -0.10358608788E+02  0.18652393069E+02  0.29558094995E+02  0.36453991866E+02  0.00000000000E+00 0. -1.
         15    1    4    4    0    0 -0.51183154626E+02  0.12230517076E+03  0.30879434729E+03  0.33605389305E+03  0.00000000000E+00 0.  1.
         15    1    4    4    0    0 -0.25409183145E+02  0.16666244635E+01  0.57184616866E+02  0.62597800531E+02  0.00000000000E+00 0. -1.
        -16    1    1    2    0    0  0.11027426317E+03  0.13839549436E+03  0.13982080477E+03  0.22552956220E+03  0.00000000000E+00 0.  1.
         16    1    3    3    0    0  0.34244371995E+03 -0.18677121424E+03  0.11678011344E+03  0.40717168700E+03  0.00000000000E+00 0. -1.
    9900018    1    1    2    0    0 -0.31771899875E+03 -0.13507862913E+03  0.82288682451E+02  0.36643990485E+03  0.91187600000E+02 0.  0.
<mgrwt>
<rscale>  0 0.13124503E+04</rscale>
<asrwt>0</asrwt>
<pdfrwt beam="1">  1        2 0.55136548E-01 0.13124503E+04</pdfrwt>
<pdfrwt beam="2">  1       -2 0.18485851E+00 0.13124503E+04</pdfrwt>
<totfact> 0.14781888E+01</totfact>
</mgrwt>
</event>
<event>
11    1  0.4160993E-012  0.2271097E+04  0.7818608E-02  0.8489405E-01
         -2   -1    0    0    0  501 -0.00000000000E+00  0.00000000000E+00  0.40905868053E+03  0.40905868053E+03  0.00000000000E+00 0. -1.
          2   -1    0    0  501    0  0.00000000000E+00 -0.00000000000E+00 -0.31522874774E+04  0.31522874774E+04  0.00000000000E+00 0.  1.
    9900016    2    1    2    0    0  0.13476315377E+03  0.19879237203E+03 -0.12223872043E+04  0.14281170539E+04  0.69828957280E+03 0.  0.
         23    2    3    3    0    0 -0.27226041837E+03  0.63160882403E+01 -0.44428692016E+03  0.52914243782E+03  0.91843473872E+02 0.  0.
        -15    1    4    4    0    0 -0.15612454111E+03 -0.36756359061E+02 -0.24986026930E+03  0.29691085606E+03  0.00000000000E+00 0.  1.
        -15    1    4    4    0    0 -0.12725762913E+02  0.37703543726E+01 -0.31882095641E+02  0.34534455784E+02  0.00000000000E+00 0.  1.
         15    1    4    4    0    0 -0.89373720636E+02  0.26342166817E+02 -0.12966518528E+03  0.15967038537E+03  0.00000000000E+00 0. -1.
         15    1    4    4    0    0 -0.14036393710E+02  0.12959926112E+02 -0.32879369941E+02  0.38026740603E+02  0.00000000000E+00 0. -1.
        -16    1    3    3    0    0  0.40702357214E+03  0.19247628379E+03 -0.77810028416E+03  0.89897461605E+03  0.00000000000E+00 0.  1.
         16    1    1    2    0    0  0.33189456974E+03  0.27657100378E+02 -0.15693932989E+04  0.16043423098E+04  0.00000000000E+00 0. -1.
    9900018    1    1    2    0    0 -0.46665772351E+03 -0.22644947241E+03  0.48551706370E+02  0.52888679417E+03  0.91187600000E+02 0.  0.
<mgrwt>
<rscale>  0 0.22710971E+04</rscale>
<asrwt>0</asrwt>
<pdfrwt beam="1">  1        2 0.48496728E+00 0.22710971E+04</pdfrwt>
<pdfrwt beam="2">  1       -2 0.62932107E-01 0.22710971E+04</pdfrwt>
<totfact> 0.29656994E+00</totfact>
</mgrwt>
</event>
