<event>
11    1  0.2244245E-011  0.4361731E+04  0.7818608E-02  0.8114073E-01
         -2   -1    0    0    0  501 -0.00000000000E+00  0.00000000000E+00  0.57365908434E+04  0.57365908434E+04  0.00000000000E+00 0.  1.
          2   -1    0    0  501    0  0.00000000000E+00 -0.00000000000E+00 -0.17078965741E+04  0.17078965741E+04  0.00000000000E+00 0. -1.
    9900016    2    1    2    0    0 -0.65533402788E+03  0.27424329909E+03  0.19441596554E+04  0.30119087361E+04  0.21879591847E+04 0.  0.
         24    2    3    3    0    0 -0.11945846459E+04  0.41225548959E+03  0.20834971862E+04  0.24381025482E+04  0.79977782077E+02 0.  0.
        -15    1    1    2    0    0  0.14680272365E+03 -0.89924782670E+02  0.16859569741E+02  0.17297904873E+03  0.00000000000E+00 0.  1.
        -15    1    4    4    0    0 -0.66860174868E+03  0.24126403850E+03  0.10973087104E+04  0.13074108155E+04  0.00000000000E+00 0.  1.
         15    1    1    2    0    0  0.22287364496E+03 -0.16129290328E+04  0.60522315944E+03  0.17370975215E+04  0.00000000000E+00 0. -1.
         15    1    3    3    0    0  0.53925061803E+03 -0.13801219050E+03 -0.13933753085E+03  0.57380618790E+03  0.00000000000E+00 0. -1.
        -16    1    1    2    0    0 -0.79701428087E+02  0.16264305865E+04  0.11986322111E+04  0.20219663567E+04  0.00000000000E+00 0.  1.
         16    1    4    4    0    0 -0.52598289723E+03  0.17099145109E+03  0.98618847583E+03  0.11306917327E+04  0.00000000000E+00 0. -1.
    9900018    1    1    2    0    0  0.36535908735E+03 -0.19782007009E+03  0.26381967370E+03  0.50053575443E+03  0.91187600000E+02 0.  0.
<mgrwt>
<rscale>  0 0.34988054E+04</rscale>
<asrwt>0</asrwt>
<pdfrwt beam="1">  1        2 0.26275332E+00 0.43617314E+04</pdfrwt>
<pdfrwt beam="2">  1       -2 0.88255243E+00 0.43617314E+04</pdfrwt>
<totfact> 0.10496978E-04</totfact>
</mgrwt>
</event>
<event>
11    1  0.2244245E-011  0.3546778E+04  0.7818608E-02  0.8477022E-01
          2   -1    0    0  501    0  0.00000000000E+00  0.00000000000E+00  0.33053781728E+04  0.33053781728E+04  0.00000000000E+00 0.  1.
         -2   -1    0    0    0  501 -0.00000000000E+00 -0.00000000000E+00 -0.16228172967E+04  0.16228172967E+04  0.00000000000E+00 0. -1.
    9900016    2    1    2    0    0  0.89797717066E+02 -0.29227934434E+03  0.10185646697E+04  0.24385898683E+04  0.21944830176E+04 0.  0.
        -24    2    3    3    0    0  0.95213650952E+03  0.37001942995E+03  0.86409637622E+03  0.13403511360E+04  0.80001932123E+02 0.  0.
        -15    1    3    3    0    0 -0.86233879245E+03 -0.66229877428E+03  0.15446829344E+03  0.10982387323E+04  0.00000000000E+00 0.  1.
        -15    1    1    2    0    0 -0.69936517964E+02  0.16049701453E+03  0.74401477616E+03  0.76433526372E+03  0.00000000000E+00 0.  1.
         15    1    1    2    0    0 -0.37111184885E+03  0.47836706219E+02  0.44738140941E+03  0.58323449856E+03  0.00000000000E+00 0. -1.
         15    1    4    4    0    0  0.39892105862E+03  0.17607683233E+03  0.32392127555E+03  0.54319982939E+03  0.00000000000E+00 0. -1.
        -16    1    4    4    0    0  0.55321545089E+03  0.19394259761E+03  0.54017510067E+03  0.79715130663E+03  0.00000000000E+00 0.  1.
         16    1    1    2    0    0  0.27531633631E+03  0.47288579030E+03 -0.48853416423E+03  0.73354324026E+03  0.00000000000E+00 0. -1.
    9900018    1    1    2    0    0  0.75934313443E+02 -0.38894016672E+03 -0.38865814927E+02  0.40849259872E+03  0.91187600000E+02 0.  0.
<mgrwt>
<rscale>  0 0.23022825E+04</rscale>
<asrwt>0</asrwt>
<pdfrwt beam="1">  1        2 0.50851972E+00 0.35467785E+04</pdfrwt>
<pdfrwt beam="2">  1       -2 0.24966420E+00 0.35467785E+04</pdfrwt>
<totfact> 0.56323028E-02</totfact>
</mgrwt>
</event>
<event>
11    1  0.2244245E-011  0.7791568E+04  0.7818608E-02  0.7500889E-01
         -2   -1    0    0    0  501 -0.00000000000E+00  0.00000000000E+00  0.43736959541E+04  0.43736959541E+04  0.00000000000E+00 0. -1.
          2   -1    0    0  501    0  0.00000000000E+00 -0.00000000000E+00 -0.34700935427E+04  0.34700935427E+04  0.00000000000E+00 0.  1.
    9900016    2    1    2    0    0 -0.70097775777E+03  0.56426049177E+03  0.51396220925E+03  0.24222833631E+04  0.21894154058E+04 0.  0.
        -24    2    3    3    0    0  0.86318112062E+02 -0.61222471004E+03 -0.39708092710E+03  0.73884883418E+03  0.77164921207E+02 0.  0.
        -15    1    1    2    0    0 -0.23688814552E+03 -0.12949312016E+04 -0.15028917934E+04  0.19979105469E+04  0.00000000000E+00 0.  1.
        -15    1    3    3    0    0 -0.78729586983E+03  0.11764852018E+04  0.91104313634E+03  0.16834345289E+04  0.00000000000E+00 0.  1.
         15    1    1    2    0    0  0.93819056760E+03  0.48153275556E+03  0.34783716761E+02  0.10551233306E+04  0.00000000000E+00 0. -1.
         15    1    4    4    0    0  0.69302076630E+02 -0.22981475861E+03 -0.14285552676E+03  0.27933009617E+03  0.00000000000E+00 0. -1.
        -16    1    4    4    0    0  0.17016035432E+02 -0.38240995142E+03 -0.25422540034E+03  0.45951873801E+03  0.00000000000E+00 0.  1.
         16    1    1    2    0    0 -0.45830941067E+03  0.15638077679E+03  0.18284328938E+04  0.18914727887E+04  0.00000000000E+00 0. -1.
    9900018    1    1    2    0    0  0.45798474636E+03  0.92757177506E+02  0.29315385062E+02  0.47699946758E+03  0.91187600000E+02 0.  0.
<mgrwt>
<rscale>  0 0.77915683E+04</rscale>
<asrwt>0</asrwt>
<pdfrwt beam="1">  1        2 0.53386054E+00 0.77915683E+04</pdfrwt>
<pdfrwt beam="2">  1       -2 0.67287630E+00 0.77915683E+04</pdfrwt>
<totfact> 0.14595110E-04</totfact>
</mgrwt>
</event>
<event>
11    1  0.2244245E-011  0.3585326E+04  0.7818608E-02  0.8160880E-01
          1   -1    0    0  501    0  0.00000000000E+00  0.00000000000E+00  0.26075155247E+04  0.26075155247E+04  0.00000000000E+00 0. -1.
         -1   -1    0    0    0  501 -0.00000000000E+00 -0.00000000000E+00 -0.39251671441E+04  0.39251671441E+04  0.00000000000E+00 0.  1.
    9900016    2    1    2    0    0  0.53171838507E+03 -0.83002597731E+03 -0.70671073214E+03  0.25062469391E+04  0.21932090864E+04 0.  0.
         24    2    3    3    0    0  0.33519597333E+03 -0.10440289093E+04  0.54086719467E+03  0.12252828503E+04  0.80175039322E+02 0.  0.
        -15    1    1    2    0    0 -0.35187763412E+03  0.10275308911E+04 -0.76442183492E+03  0.13281484643E+04  0.00000000000E+00 0.  1.
        -15    1    4    4    0    0  0.32584474666E+03 -0.96717295496E+03  0.48603953574E+03  0.11304126477E+04  0.00000000000E+00 0.  1.
         15    1    3    3    0    0  0.19652241174E+03  0.21400293202E+03 -0.12475779268E+04  0.12809640888E+04  0.00000000000E+00 0. -1.
         15    1    1    2    0    0  0.47724022450E+02  0.75997799259E+03  0.10335445316E+04  0.12837672804E+04  0.00000000000E+00 0. -1.
        -16    1    1    2    0    0  0.19004786809E+02 -0.69604231453E+03 -0.38386059941E+03  0.79510065106E+03  0.00000000000E+00 0.  1.
         16    1    4    4    0    0  0.93512266656E+01 -0.76855954371E+02  0.54827658934E+02  0.94870202627E+02  0.00000000000E+00 0. -1.
    9900018    1    1    2    0    0 -0.24656956020E+03 -0.26144059181E+03 -0.49620298451E+03  0.61941933397E+03  0.91187600000E+02 0.  0.
<mgrwt>
<rscale>  0 0.33079340E+04</rscale>
<asrwt>0</asrwt>
<pdfrwt beam="1">  1        1 0.40115623E+00 0.35853257E+04</pdfrwt>
<pdfrwt beam="2">  1       -1 0.60387187E+00 0.35853257E+04</pdfrwt>
<totfact> 0.36426294E-04</totfact>
</mgrwt>
</event>
<event>
11    1  0.2244245E-011  0.3448185E+04  0.7818608E-02  0.8448365E-01
         -2   -1    0    0    0  501 -0.00000000000E+00  0.00000000000E+00  0.23497403766E+04  0.23497403766E+04  0.00000000000E+00 0.  1.
          2   -1    0    0  501    0  0.00000000000E+00 -0.00000000000E+00 -0.19830200909E+04  0.19830200909E+04  0.00000000000E+00 0. -1.
    9900016    2    1    2    0    0  0.68784680942E+02  0.72359227156E+03  0.36738069657E+03  0.23375982548E+04  0.21911366723E+04 0.  0.
         24    2    3    3    0    0  0.95495795120E+03  0.86064415454E+03 -0.15862730844E+03  0.12979970308E+04  0.83550102462E+02 0.  0.
        -15    1    4    4    0    0  0.67602309672E+03  0.62340694071E+03 -0.76816425141E+02  0.92279152803E+03  0.00000000000E+00 0.  1.
        -15    1    1    2    0    0 -0.15404056685E+03 -0.17623774992E+03 -0.90710732645E+02  0.25103122863E+03  0.00000000000E+00 0.  1.
         15    1    3    3    0    0 -0.88617327026E+03 -0.13705188298E+03  0.52600800501E+03  0.10396012240E+04  0.00000000000E+00 0. -1.
         15    1    1    2    0    0  0.24960936366E+03  0.48304889321E+03 -0.18474200834E+03  0.57425663018E+03  0.00000000000E+00 0. -1.
        -16    1    1    2    0    0 -0.10707190411E+03 -0.98936152432E+03  0.32112304938E+03  0.10456675529E+04  0.00000000000E+00 0.  1.
         16    1    4    4    0    0  0.27893485448E+03  0.23723721384E+03 -0.81810883301E+02  0.37520550275E+03  0.00000000000E+00 0. -1.
    9900018    1    1    2    0    0 -0.57281573653E+02 -0.41041890534E+02 -0.46330719243E+02  0.12420680093E+03  0.91187600000E+02 0.  0.
<mgrwt>
<rscale>  0 0.23764713E+04</rscale>
<asrwt>0</asrwt>
<pdfrwt beam="1">  1        2 0.30508001E+00 0.34481847E+04</pdfrwt>
<pdfrwt beam="2">  1       -2 0.36149852E+00 0.34481847E+04</pdfrwt>
<totfact> 0.71979671E-02</totfact>
</mgrwt>
</event>
<event>
11    1  0.2244245E-011  0.3662321E+04  0.7818608E-02  0.8197078E-01
         -2   -1    0    0    0  501 -0.00000000000E+00  0.00000000000E+00  0.57773963330E+04  0.57773963330E+04  0.00000000000E+00 0.  1.
          2   -1    0    0  501    0  0.00000000000E+00 -0.00000000000E+00 -0.15766586916E+04  0.15766586916E+04  0.00000000000E+00 0. -1.
    9900016    2    1    2    0    0 -0.10179388203E+04  0.94735930366E+03  0.29259861726E+04  0.39185436045E+04  0.22045180438E+04 0.  0.
         24    2    3    3    0    0 -0.13997751597E+04  0.11322917220E+04  0.12591018267E+04  0.21985138337E+04  0.81673897906E+02 0.  0.
        -15    1    4    4    0    0 -0.76953709129E+03  0.61564326875E+03  0.63990313315E+03  0.11750233994E+04  0.00000000000E+00 0.  1.
        -15    1    1    2    0    0  0.12732214007E+04 -0.73589944965E+03  0.82097714961E+03  0.16842340145E+04  0.00000000000E+00 0.  1.
         15    1    3    3    0    0  0.38183633942E+03 -0.18493241834E+03  0.16668843460E+04  0.17200297708E+04  0.00000000000E+00 0. -1.
         15    1    1    2    0    0 -0.10938707152E+03 -0.75970253218E+02 -0.39113225298E+03  0.41318452307E+03  0.00000000000E+00 0. -1.
        -16    1    1    2    0    0 -0.12297876029E+03 -0.21994857023E+03  0.10594953114E+04  0.10890507168E+04  0.00000000000E+00 0.  1.
         16    1    4    4    0    0 -0.63023806845E+03  0.51664845325E+03  0.61919869352E+03  0.10234904344E+04  0.00000000000E+00 0. -1.
    9900018    1    1    2    0    0 -0.22916748607E+02  0.84458969436E+02 -0.21458873929E+03  0.24904216572E+03  0.91187600000E+02 0.  0.
<mgrwt>
<rscale>  0 0.31689052E+04</rscale>
<asrwt>0</asrwt>
<pdfrwt beam="1">  1        2 0.24256288E+00 0.36623210E+04</pdfrwt>
<pdfrwt beam="2">  1       -2 0.88883020E+00 0.36623210E+04</pdfrwt>
<totfact> 0.10983394E-04</totfact>
</mgrwt>
</event>
<event>
11    1  0.2244245E-011  0.4438991E+04  0.7818608E-02  0.8141792E-01
          1   -1    0    0  501    0  0.00000000000E+00  0.00000000000E+00  0.26672880433E+04  0.26672880433E+04  0.00000000000E+00 0. -1.
         -1   -1    0    0    0  501 -0.00000000000E+00 -0.00000000000E+00 -0.33971152810E+04  0.33971152810E+04  0.00000000000E+00 0.  1.
    9900016    2    1    2    0    0 -0.53617453522E+03  0.13411142262E+04 -0.16275826536E+02  0.26315366935E+04  0.21996931529E+04 0.  0.
         24    2    3    3    0    0 -0.10784044928E+04  0.11597230452E+03 -0.51321251994E+03  0.12025747862E+04  0.79957490588E+02 0.  0.
        -15    1    1    2    0    0  0.56611236076E+03  0.45997195251E+03 -0.50882086119E+03  0.88935711100E+03  0.00000000000E+00 0.  1.
        -15    1    4    4    0    0 -0.82348440856E+03  0.98611900735E+02 -0.35578631901E+03  0.90246040517E+03  0.00000000000E+00 0.  1.
         15    1    3    3    0    0  0.54222995760E+03  0.12251419217E+04  0.49693669340E+03  0.14289619073E+04  0.00000000000E+00 0. -1.
         15    1    1    2    0    0 -0.69936880819E+03 -0.19389333609E+03 -0.11489505917E+03  0.73478720067E+03  0.00000000000E+00 0. -1.
        -16    1    1    2    0    0  0.70999385429E+03 -0.14912883281E+04 -0.10506455364E+03  0.16550138099E+04  0.00000000000E+00 0.  1.
         16    1    4    4    0    0 -0.25492008426E+03  0.17360403787E+02 -0.15742620092E+03  0.30011438105E+03  0.00000000000E+00 0. -1.
    9900018    1    1    2    0    0 -0.40562871635E+02 -0.11590451453E+03  0.15229062869E+02  0.15370850918E+03  0.91187600000E+02 0.  0.
<mgrwt>
<rscale>  0 0.33842124E+04</rscale>
<asrwt>0</asrwt>
<pdfrwt beam="1">  1        1 0.41035201E+00 0.44389909E+04</pdfrwt>
<pdfrwt beam="2">  1       -1 0.52263311E+00 0.44389909E+04</pdfrwt>
<totfact> 0.80449152E-04</totfact>
</mgrwt>
</event>
<event>
11    1  0.2244245E-011  0.4305301E+04  0.7818608E-02  0.8162318E-01
         -2   -1    0    0    0  501 -0.00000000000E+00  0.00000000000E+00  0.28072675989E+04  0.28072675989E+04  0.00000000000E+00 0.  1.
          2   -1    0    0  501    0  0.00000000000E+00 -0.00000000000E+00 -0.30066301048E+04  0.30066301048E+04  0.00000000000E+00 0. -1.
    9900016    2    1    2    0    0  0.26598516287E+03  0.58140077961E+03  0.79109086805E+03  0.24209385733E+04  0.21968941351E+04 0.  0.
        -24    2    3    3    0    0  0.17056211723E+03  0.12621661803E+04 -0.11803630979E+03  0.12811757410E+04  0.72964417340E+02 0.  0.
        -15    1    1    2    0    0  0.16103990900E+03 -0.45933885586E+01  0.59660840884E+03  0.61797778682E+03  0.00000000000E+00 0.  1.
        -15    1    3    3    0    0  0.95423045648E+02 -0.68076540074E+03  0.90912717784E+03  0.11397628323E+04  0.00000000000E+00 0.  1.
         15    1    1    2    0    0 -0.49598862277E+03 -0.55505043768E+03 -0.46553456679E+03  0.87795679573E+03  0.00000000000E+00 0. -1.
         15    1    4    4    0    0  0.83686839384E+01  0.23895579892E+03 -0.37999746221E+02  0.24210305537E+03  0.00000000000E+00 0. -1.
        -16    1    4    4    0    0  0.16219343329E+03  0.10232103814E+04 -0.80036563569E+02  0.10390726856E+04  0.00000000000E+00 0.  1.
         16    1    1    2    0    0 -0.41625951733E+03  0.40523435284E+03 -0.10999327709E+04  0.12439208041E+04  0.00000000000E+00 0. -1.
    9900018    1    1    2    0    0  0.48522306823E+03 -0.42699130621E+03 -0.21594445156E+02  0.65310374366E+03  0.91187600000E+02 0.  0.
<mgrwt>
<rscale>  0 0.33022687E+04</rscale>
<asrwt>0</asrwt>
<pdfrwt beam="1">  1        2 0.46255848E+00 0.43053011E+04</pdfrwt>
<pdfrwt beam="2">  1       -2 0.43188732E+00 0.43053011E+04</pdfrwt>
<totfact> 0.57807201E-03</totfact>
</mgrwt>
</event>
<event>
11    1  0.2244245E-011  0.5089131E+04  0.7818608E-02  0.8028031E-01
          2   -1    0    0  501    0  0.00000000000E+00  0.00000000000E+00  0.30718865409E+04  0.30718865409E+04  0.00000000000E+00 0. -1.
         -2   -1    0    0    0  501 -0.00000000000E+00 -0.00000000000E+00 -0.42416512279E+04  0.42416512279E+04  0.00000000000E+00 0.  1.
    9900016    2    1    2    0    0  0.13121645680E+02 -0.12368592101E+04 -0.20624732213E+02  0.25301334023E+04  0.22070697249E+04 0.  0.
        -24    2    3    3    0    0 -0.78609112299E+03 -0.60977228583E+03  0.75551323434E+03  0.12517089018E+04  0.78825335169E+02 0.  0.
        -15    1    1    2    0    0 -0.59346062227E+03 -0.88519658074E+03 -0.60619812069E+03  0.12260687820E+04  0.00000000000E+00 0.  1.
        -15    1    3    3    0    0  0.79921276867E+03 -0.62708692427E+03 -0.77613796656E+03  0.12784245004E+04  0.00000000000E+00 0.  1.
         15    1    4    4    0    0 -0.44954527518E+03 -0.29936441830E+03  0.40296916255E+03  0.67386508690E+03  0.00000000000E+00 0. -1.
         15    1    1    2    0    0 -0.24802506699E+03  0.55606880312E+03 -0.78508107083E+03  0.99351962006E+03  0.00000000000E+00 0. -1.
        -16    1    4    4    0    0 -0.33654584781E+03 -0.31040786753E+03  0.35254407180E+03  0.57784381494E+03  0.00000000000E+00 0.  1.
         16    1    1    2    0    0 -0.36198831196E+03  0.11872330540E+04  0.39384799249E+03  0.13021805189E+04  0.00000000000E+00 0. -1.
    9900018    1    1    2    0    0  0.11903523555E+04  0.37875393369E+03 -0.15170875572E+03  0.12616354456E+04  0.91187600000E+02 0.  0.
<mgrwt>
<rscale>  0 0.38856011E+04</rscale>
<asrwt>0</asrwt>
<pdfrwt beam="1">  1        2 0.47259793E+00 0.50891307E+04</pdfrwt>
<pdfrwt beam="2">  1       -2 0.65256173E+00 0.50891307E+04</pdfrwt>
<totfact> 0.35346664E-04</totfact>
</mgrwt>
</event>
<event>
11    1  0.2244245E-011  0.3598867E+04  0.7818608E-02  0.8211749E-01
          1   -1    0    0  501    0  0.00000000000E+00  0.00000000000E+00  0.21775949209E+04  0.21775949209E+04  0.00000000000E+00 0. -1.
         -1   -1    0    0    0  501 -0.00000000000E+00 -0.00000000000E+00 -0.37733116537E+04  0.37733116537E+04  0.00000000000E+00 0.  1.
    9900016    2    1    2    0    0  0.57649331857E+03  0.63559622331E+03 -0.11442355260E+04  0.25973843415E+04  0.21681336152E+04 0.  0.
        -24    2    3    3    0    0 -0.80611241520E+03  0.52583158131E+02 -0.24428862975E+03  0.84769657935E+03  0.79563443667E+02 0.  0.
        -15    1    3    3    0    0  0.13826057338E+04  0.58301306518E+03 -0.89994689620E+03  0.17496877622E+04  0.00000000000E+00 0.  1.
        -15    1    1    2    0    0  0.88996337031E+03 -0.66038880198E+03 -0.55177767251E+03  0.12379849636E+04  0.00000000000E+00 0.  1.
         15    1    4    4    0    0 -0.52219161090E+03  0.40995763313E+02 -0.11900721248E+03  0.53714751021E+03  0.00000000000E+00 0. -1.
         15    1    1    2    0    0 -0.41748272273E+03 -0.37916664421E+03  0.54009515316E+03  0.78087255191E+03  0.00000000000E+00 0. -1.
        -16    1    4    4    0    0 -0.28392080430E+03  0.11587394817E+02 -0.12528141727E+03  0.31054906914E+03  0.00000000000E+00 0.  1.
         16    1    1    2    0    0 -0.99344556456E+03  0.20548728045E+03 -0.26241738000E+03  0.10478654463E+04  0.00000000000E+00 0. -1.
    9900018    1    1    2    0    0 -0.55528401593E+02  0.19847194244E+03 -0.17738130752E+03  0.28679927122E+03  0.91187600000E+02 0.  0.
<mgrwt>
<rscale>  0 0.31145763E+04</rscale>
<asrwt>0</asrwt>
<pdfrwt beam="1">  1        1 0.33501461E+00 0.35988672E+04</pdfrwt>
<pdfrwt beam="2">  1       -1 0.58050947E+00 0.35988672E+04</pdfrwt>
<totfact> 0.91490306E-04</totfact>
</mgrwt>
</event>
