<event>
12    1  0.1447544E-014  0.5885537E+04  0.7818608E-02  0.7704758E-01
          2   -1    0    0  501    0  0.00000000000E+00  0.00000000000E+00  0.16712432879E+04  0.16712432879E+04  0.00000000000E+00 0.  1.
         -2   -1    0    0    0  501 -0.00000000000E+00 -0.00000000000E+00 -0.51817025095E+04  0.51817025095E+04  0.00000000000E+00 0. -1.
    9900016    2    1    2    0    0 -0.16030704964E+04 -0.82425161422E+03 -0.11300766914E+04  0.31073325678E+04  0.22647773882E+04 0.  0.
         23    2    3    3    0    0 -0.14228759981E+03  0.54487913875E+03 -0.93511866866E+03  0.10957624545E+04  0.95443152814E+02 0.  0.
    9900016    2    1    2    0    0  0.15435207990E+04  0.80549655227E+03 -0.22041653601E+04  0.35376094118E+04  0.21505939327E+04 0.  0.
        -15    1    4    4    0    0 -0.14358398132E+03  0.50768470897E+03 -0.82267724711E+03  0.97732183866E+03  0.00000000000E+00 0.  1.
        -15    1    5    5    0    0  0.48663487942E+03 -0.28712618296E+03 -0.81701270100E+03  0.99336030946E+03  0.00000000000E+00 0.  1.
         15    1    5    5    0    0  0.63554211613E+03  0.13705583229E+04 -0.63577473035E+03  0.16390708970E+04  0.00000000000E+00 0. -1.
         15    1    4    4    0    0  0.12963815025E+01  0.37194429778E+02 -0.11244142155E+03  0.11844061589E+03  0.00000000000E+00 0. -1.
        -16    1    3    3    0    0 -0.14607828966E+04 -0.13691307530E+04 -0.19495802276E+03  0.20115701132E+04  0.00000000000E+00 0.  1.
         16    1    5    5    0    0  0.42134380342E+03 -0.27793558764E+03 -0.75137792876E+03  0.90517820532E+03  0.00000000000E+00 0. -1.
    9900018    1    1    2    0    0  0.59549697456E+02  0.18755061948E+02 -0.17621717002E+03  0.20800381780E+03  0.91187600000E+02 0.  0.
<mgrwt>
<rscale>  0 0.58855367E+04</rscale>
<asrwt>0</asrwt>
<pdfrwt beam="1">  1        2 0.25711436E+00 0.58855367E+04</pdfrwt>
<pdfrwt beam="2">  1       -2 0.79718499E+00 0.58855367E+04</pdfrwt>
<totfact> 0.56589719E-04</totfact>
</mgrwt>
</event>
<event>
13    1  0.1447544E-014  0.6903703E+04  0.7818608E-02  0.7587449E-01
          2   -1    0    0  501    0  0.00000000000E+00  0.00000000000E+00  0.38636965914E+04  0.38636965914E+04  0.00000000000E+00 0. -1.
         -2   -1    0    0    0  501 -0.00000000000E+00 -0.00000000000E+00 -0.30839067252E+04  0.30839067252E+04  0.00000000000E+00 0.  1.
    9900016    2    1    2    0    0 -0.16172741742E+04  0.91628339567E+03 -0.15399545774E+04  0.32215356215E+04  0.21334668135E+04 0.  0.
         23    2    3    3    0    0  0.21719679711E+03  0.46375792643E+03  0.28647278900E+03  0.59362771415E+03  0.89896280085E+02 0.  0.
    9900016    2    1    2    0    0  0.16172741742E+04 -0.91628339567E+03  0.23197444435E+04  0.37260676951E+04  0.22466008034E+04 0.  0.
         24    2    5    5    0    0 -0.51544766642E+03 -0.17897184061E+03  0.81651842625E+03  0.98370051193E+03  0.56983683660E+02 0.  0.
        -15    1    6    6    0    0 -0.48830226233E+03 -0.17360200349E+03  0.79330887722E+03  0.94758415441E+03  0.00000000000E+00 0.  1.
        -15    1    4    4    0    0  0.19319457511E+03  0.38286867986E+03  0.20132482756E+03  0.47375548130E+03  0.00000000000E+00 0.  1.
         15    1    4    4    0    0  0.24002221997E+02  0.80889246568E+02  0.85147961444E+02  0.11987223285E+03  0.00000000000E+00 0. -1.
         15    1    5    5    0    0  0.20462697663E+04 -0.69510026607E+03  0.14166579099E+04  0.25840479814E+04  0.00000000000E+00 0. -1.
        -16    1    3    3    0    0 -0.18344709713E+04  0.45252546923E+03 -0.18264273664E+04  0.26279079073E+04  0.00000000000E+00 0.  1.
         16    1    6    6    0    0 -0.27145404093E+02 -0.53698371208E+01  0.23209549036E+02  0.36116357520E+02  0.00000000000E+00 0. -1.
    9900018    1    5    5    0    0  0.86452074315E+02 -0.42211288988E+02  0.86568107364E+02  0.15831920186E+03  0.91187600000E+02 0.  0.
<mgrwt>
<rscale>  0 0.69037033E+04</rscale>
<asrwt>0</asrwt>
<pdfrwt beam="1">  1        2 0.59441486E+00 0.69037033E+04</pdfrwt>
<pdfrwt beam="2">  1       -2 0.47444719E+00 0.69037033E+04</pdfrwt>
<totfact> 0.66450343E-04</totfact>
</mgrwt>
</event>
<event>
12    1  0.1447544E-014  0.3162356E+04  0.7818608E-02  0.8693453E-01
         -2   -1    0    0    0  501 -0.00000000000E+00  0.00000000000E+00  0.99476846914E+03  0.99476846914E+03  0.00000000000E+00 0.  1.
          2   -1    0    0  501    0  0.00000000000E+00 -0.00000000000E+00 -0.31191428075E+04  0.31191428075E+04  0.00000000000E+00 0. -1.
         23    2    1    2    0    0 -0.33381058049E+03 -0.57640344741E+02 -0.12196690553E+03  0.37090044824E+03  0.89102769164E+02 0.  0.
    9900016    2    1    2    0    0  0.74455055223E+02  0.23971823833E+03 -0.67609859994E+03  0.22681438131E+04  0.21504322010E+04 0.  0.
        -24    2    4    4    0    0  0.57839348674E+03 -0.48714857643E+03 -0.10602799478E+04  0.13038385620E+04  0.62838420137E+02 0.  0.
        -15    1    4    4    0    0 -0.50393843151E+03  0.72686681476E+03  0.38418134788E+03  0.96430525106E+03  0.00000000000E+00 0.  1.
        -15    1    3    3    0    0 -0.15275725264E+03 -0.71545302855E+02 -0.59715573884E+02  0.17893981770E+03  0.00000000000E+00 0. -1.
         15    1    3    3    0    0 -0.18105332785E+03  0.13904958115E+02 -0.62251331651E+02  0.19196063054E+03  0.00000000000E+00 0.  1.
         15    1    5    5    0    0  0.15632703138E+03 -0.96518950224E+02 -0.25616040794E+03  0.31523356910E+03  0.00000000000E+00 0. -1.
        -16    1    5    5    0    0  0.42206645535E+03 -0.39062962621E+03 -0.80411953989E+03  0.98860499293E+03  0.00000000000E+00 0.  1.
         16    1    1    2    0    0  0.28808377372E+03 -0.22464053030E+03 -0.13204483693E+04  0.13700509205E+04  0.00000000000E+00 0. -1.
    9900018    1    1    2    0    0 -0.28728248455E+02  0.42562636717E+02 -0.58604634878E+01  0.10481609480E+03  0.91187600000E+02 0.  0.
<mgrwt>
<rscale>  0 0.18243566E+04</rscale>
<asrwt>0</asrwt>
<pdfrwt beam="1">  1        2 0.47986812E+00 0.31623559E+04</pdfrwt>
<pdfrwt beam="2">  1       -2 0.15304131E+00 0.31623559E+04</pdfrwt>
<totfact> 0.34666335E-01</totfact>
</mgrwt>
</event>
