<event>
11    1  0.5205922E-024  0.1629313E+04  0.7818608E-02  0.8802739E-01
         -2   -1    0    0    0  501 -0.00000000000E+00  0.00000000000E+00  0.55158526763E+03  0.55158526763E+03  0.00000000000E+00 0. -1.
          2   -1    0    0  501    0  0.00000000000E+00 -0.00000000000E+00 -0.12031966552E+04  0.12031966552E+04  0.00000000000E+00 0.  1.
         24    2    1    2    0    0 -0.11812079430E+03 -0.40783460189E+02 -0.10878489485E+03  0.18844809570E+03  0.89792643097E+02 0.  0.
        -24    2    3    3    0    0 -0.82768461628E+02 -0.27330759518E+02 -0.92576570011E+02  0.14646407982E+03  0.72689178734E+02 0.  0.
        -15    1    3    3    0    0 -0.24360372680E+02 -0.51453253272E+01 -0.11481780255E+02  0.27417757159E+02  0.00000000000E+00 0. -1.
        -15    1    3    3    0    0 -0.10991959988E+02 -0.83073753431E+01 -0.47265445847E+01  0.14566258723E+02  0.00000000000E+00 0.  1.
         15    1    1    2    0    0  0.26191758994E+03  0.96875917626E+02 -0.90722236275E+02  0.29362610833E+03  0.00000000000E+00 0.  1.
         15    1    4    4    0    0 -0.59485779420E+02 -0.49779922444E+02 -0.80901266653E+02  0.11207860446E+03  0.00000000000E+00 0. -1.
        -16    1    4    4    0    0 -0.23282682208E+02  0.22449162926E+02 -0.11675303357E+02  0.34385475354E+02  0.00000000000E+00 0.  1.
         16    1    1    2    0    0  0.49470997880E+03 -0.17190461432E+03 -0.11674778587E+03  0.53658103307E+03  0.00000000000E+00 0. -1.
    9900018    1    1    2    0    0 -0.63850677444E+03  0.11581215688E+03 -0.33535647057E+03  0.73612668573E+03  0.91187600000E+02 0.  0.
<mgrwt>
<rscale>  0 0.16293134E+04</rscale>
<asrwt>0</asrwt>
<pdfrwt beam="1">  1        2 0.18510718E+00 0.16293134E+04</pdfrwt>
<pdfrwt beam="2">  1       -2 0.84859273E-01 0.16293134E+04</pdfrwt>
<totfact> 0.21825099E+01</totfact>
</mgrwt>
</event>
<event>
11    1  0.5205922E-024  0.1328201E+04  0.7818608E-02  0.9007496E-01
         -2   -1    0    0    0  501 -0.00000000000E+00  0.00000000000E+00  0.91020080156E+03  0.91020080156E+03  0.00000000000E+00 0.  1.
          2   -1    0    0  501    0  0.00000000000E+00 -0.00000000000E+00 -0.48454088162E+03  0.48454088162E+03  0.00000000000E+00 0. -1.
         24    2    1    2    0    0 -0.20853820542E+03 -0.32662336934E+03  0.52808165142E+03  0.66107180977E+03  0.89301167948E+02 0.  0.
        -24    2    3    3    0    0 -0.19502582599E+03 -0.28923955630E+03  0.46979749175E+03  0.58976052693E+03  0.73574466631E+02 0.  0.
        -15    1    3    3    0    0 -0.12605394117E+02 -0.27023022499E+02  0.49053223902E+02  0.57405213013E+02  0.00000000000E+00 0.  1.
        -15    1    3    3    0    0 -0.90698530685E+00 -0.10360790542E+02  0.92309357633E+01  0.13906069828E+02  0.00000000000E+00 0.  1.
         15    1    4    4    0    0 -0.22342204296E+02 -0.58454458401E+01  0.46161994095E+02  0.51616596446E+02  0.00000000000E+00 0. -1.
         15    1    1    2    0    0  0.46955963162E+02  0.11971346048E+03  0.10888232043E+03  0.16849787773E+03  0.00000000000E+00 0. -1.
        -16    1    4    4    0    0 -0.17268362170E+03 -0.28339411046E+03  0.42363549766E+03  0.53814393049E+03  0.00000000000E+00 0.  1.
         16    1    1    2    0    0  0.25882820659E+03  0.26728200350E+02 -0.22017869719E+03  0.34085934917E+03  0.00000000000E+00 0. -1.
    9900018    1    1    2    0    0 -0.97245964335E+02  0.18018170851E+03  0.88746452845E+01  0.22431264651E+03  0.91187600000E+02 0.  0.
<mgrwt>
<rscale>  0 0.13282010E+04</rscale>
<asrwt>0</asrwt>
<pdfrwt beam="1">  1        2 0.74544751E-01 0.13282010E+04</pdfrwt>
<pdfrwt beam="2">  1       -2 0.14003089E+00 0.13282010E+04</pdfrwt>
<totfact> 0.22410512E+01</totfact>
</mgrwt>
</event>
<event>
11    1  0.5205922E-024  0.7134703E+03  0.7818608E-02  0.9694469E-01
          1   -1    0    0  501    0  0.00000000000E+00  0.00000000000E+00  0.18048915736E+04  0.18048915736E+04  0.00000000000E+00 0. -1.
         -1   -1    0    0    0  501 -0.00000000000E+00 -0.00000000000E+00 -0.70508380431E+02  0.70508380431E+02  0.00000000000E+00 0.  1.
        -24    2    1    2    0    0 -0.11621756640E+03  0.82069265416E+02  0.10144001384E+03  0.19501131788E+03  0.86587820320E+02 0.  0.
         24    2    3    3    0    0 -0.93706669605E+02  0.66539377894E+02  0.79479602340E+02  0.15857040026E+03  0.74960895891E+02 0.  0.
        -15    1    4    4    0    0 -0.36221362121E+02  0.43774246536E+02 -0.13154705978E+01  0.56832228503E+02  0.00000000000E+00 0.  1.
        -15    1    1    2    0    0  0.97280652154E+02  0.63933066336E+02  0.57735253717E+03  0.58897106417E+03  0.00000000000E+00 0. -1.
         15    1    3    3    0    0 -0.12827400188E+02  0.36201700340E+01  0.72139726512E+01  0.15155501578E+02  0.00000000000E+00 0. -1.
         15    1    3    3    0    0 -0.96834966017E+01  0.11909717487E+02  0.14746438851E+02  0.21285416036E+02  0.00000000000E+00 0.  1.
        -16    1    1    2    0    0  0.28331379346E+02 -0.62375183035E+02  0.83906706189E+03  0.84185917163E+03  0.00000000000E+00 0.  1.
         16    1    4    4    0    0 -0.57485307484E+02  0.22765131359E+02  0.80795072938E+02  0.10173817176E+03  0.00000000000E+00 0. -1.
    9900018    1    1    2    0    0 -0.93944651047E+01 -0.83627148717E+02  0.21652358023E+03  0.24955840032E+03  0.91187600000E+02 0.  0.
<mgrwt>
<rscale>  0 0.71347034E+03</rscale>
<asrwt>0</asrwt>
<pdfrwt beam="1">  1        1 0.27767559E+00 0.71347034E+03</pdfrwt>
<pdfrwt beam="2">  1       -1 0.10847445E-01 0.71347034E+03</pdfrwt>
<totfact> 0.23035481E+02</totfact>
</mgrwt>
</event>
<event>
11    1  0.5205922E-024  0.1363583E+04  0.7818608E-02  0.8980609E-01
         -2   -1    0    0    0  501 -0.00000000000E+00  0.00000000000E+00  0.64304515156E+03  0.64304515156E+03  0.00000000000E+00 0.  1.
          2   -1    0    0  501    0  0.00000000000E+00 -0.00000000000E+00 -0.72287294630E+03  0.72287294630E+03  0.00000000000E+00 0. -1.
         24    2    1    2    0    0 -0.50135672893E+02  0.26074204201E+03  0.19330933808E+03  0.34046011974E+03  0.89691665037E+02 0.  0.
        -24    2    3    3    0    0 -0.50566546640E+02  0.23250753210E+03  0.18497486893E+03  0.31038987371E+03  0.74225625238E+02 0.  0.
        -15    1    3    3    0    0 -0.82981588177E-01  0.18003632222E+02  0.83035828465E+01  0.19826425478E+02  0.00000000000E+00 0.  1.
        -15    1    3    3    0    0  0.51385533437E+00  0.10230877689E+02  0.30886299940E-01  0.10243820555E+02  0.00000000000E+00 0. -1.
         15    1    4    4    0    0 -0.59357441808E+02  0.12008090608E+03  0.12224742725E+03  0.18134818271E+03  0.00000000000E+00 0. -1.
         15    1    1    2    0    0 -0.10582689573E+03  0.81943471012E+01 -0.17474765122E+02  0.10757251787E+03  0.00000000000E+00 0.  1.
        -16    1    4    4    0    0  0.87908951686E+01  0.11242662601E+03  0.62727441687E+02  0.12904169100E+03  0.00000000000E+00 0.  1.
         16    1    1    2    0    0  0.89932876252E+02 -0.53677877473E+03 -0.30391355891E+03  0.62336412034E+03  0.00000000000E+00 0. -1.
    9900018    1    1    2    0    0  0.66029692375E+02  0.26784238563E+03  0.48251191213E+02  0.29452133991E+03  0.91187600000E+02 0.  0.
<mgrwt>
<rscale>  0 0.13635834E+04</rscale>
<asrwt>0</asrwt>
<pdfrwt beam="1">  1        2 0.11121122E+00 0.13635834E+04</pdfrwt>
<pdfrwt beam="2">  1       -2 0.98930024E-01 0.13635834E+04</pdfrwt>
<totfact> 0.32524634E+01</totfact>
</mgrwt>
</event>
<event>
11    1  0.5205922E-024  0.1111543E+04  0.7818608E-02  0.9194013E-01
         -1   -1    0    0    0  501 -0.00000000000E+00  0.00000000000E+00  0.39325711429E+03  0.39325711429E+03  0.00000000000E+00 0.  1.
          1   -1    0    0  501    0  0.00000000000E+00 -0.00000000000E+00 -0.78544579192E+03  0.78544579192E+03  0.00000000000E+00 0. -1.
         24    2    1    2    0    0  0.21586352028E+03  0.47844171637E+02  0.11591224586E+03  0.26497291222E+03  0.88819318388E+02 0.  0.
        -24    2    3    3    0    0  0.17874595129E+03  0.32074366407E+02  0.10661113867E+03  0.22230562496E+03  0.71238865215E+02 0.  0.
        -15    1    3    3    0    0  0.12771522109E+02  0.90778583164E+01 -0.25305723251E+00  0.15671098448E+02  0.00000000000E+00 0.  1.
        -15    1    3    3    0    0  0.24346046884E+02  0.66919469126E+01  0.95541644264E+01  0.26996188810E+02  0.00000000000E+00 0.  1.
         15    1    1    2    0    0  0.20012557937E+03 -0.13149892227E+03 -0.18386154741E+03  0.30190608257E+03  0.00000000000E+00 0. -1.
         15    1    4    4    0    0  0.34712615797E+02  0.36134759046E+02  0.18515283929E+02  0.53418182726E+02  0.00000000000E+00 0. -1.
        -16    1    4    4    0    0  0.14403333549E+03 -0.40603926387E+01  0.88095854740E+02  0.16888744223E+03  0.00000000000E+00 0.  1.
         16    1    1    2    0    0 -0.26903867641E+03  0.13071015200E+03 -0.81370065751E+02  0.30998071043E+03  0.00000000000E+00 0. -1.
    9900018    1    1    2    0    0 -0.14695042325E+03 -0.47055401365E+02 -0.24286931033E+03  0.30184320099E+03  0.91187600000E+02 0.  0.
<mgrwt>
<rscale>  0 0.11115433E+04</rscale>
<asrwt>0</asrwt>
<pdfrwt beam="1">  1        1 0.12083782E+00 0.11115433E+04</pdfrwt>
<pdfrwt beam="2">  1       -1 0.60501094E-01 0.11115433E+04</pdfrwt>
<totfact> 0.62818278E+01</totfact>
</mgrwt>
</event>
