<event>
13    1  0.1288947E-008  0.4906958E+04  0.7818608E-02  0.7843022E-01
          2   -1    0    0  501    0  0.00000000000E+00  0.00000000000E+00  0.31719100478E+04  0.31719100478E+04  0.00000000000E+00 0. -1.
         -2   -1    0    0    0  501 -0.00000000000E+00 -0.00000000000E+00 -0.18977711136E+04  0.18977711136E+04  0.00000000000E+00 0.  1.
    9900016    2    1    2    0    0  0.25122418634E+03  0.62989418801E+03  0.17658356422E+04  0.26453105856E+04  0.18492193756E+04 0.  0.
        -24    2    3    3    0    0 -0.70517873479E+03  0.71879251691E+03  0.90677863861E+03  0.13566723913E+04  0.66126752865E+02 0.  0.
    9900016    2    1    2    0    0 -0.41833751317E+02 -0.72511416421E+03 -0.12378708736E+03  0.19809927849E+04  0.18388769825E+04 0.  0.
         23    2    5    5    0    0 -0.29841802816E+03 -0.41615162853E+02 -0.87744974695E+03  0.93170074715E+03  0.85808405749E+02 0.  0.
        -15    1    3    3    0    0  0.95640292113E+03 -0.88898328895E+02  0.85905700363E+03  0.12886381943E+04  0.00000000000E+00 0.  1.
        -15    1    6    6    0    0 -0.20909387548E+03 -0.59389374619E+02 -0.68754038516E+03  0.72108191477E+03  0.00000000000E+00 0.  1.
         15    1    6    6    0    0 -0.89324152681E+02  0.17774211766E+02 -0.18990936179E+03  0.21061883238E+03  0.00000000000E+00 0. -1.
         15    1    4    4    0    0 -0.91560380313E+02  0.66439697972E+02  0.11391744489E+03  0.16054507454E+03  0.00000000000E+00 0. -1.
        -16    1    4    4    0    0 -0.61361835447E+03  0.65235281894E+03  0.79286119371E+03  0.11961273167E+04  0.00000000000E+00 0.  1.
         16    1    5    5    0    0  0.25658427685E+03 -0.68349900136E+03  0.75366265960E+03  0.10492920377E+04  0.00000000000E+00 0. -1.
    9900018    1    1    2    0    0 -0.20939043503E+03  0.95219976201E+02 -0.36790962063E+03  0.44337779094E+03  0.91187600000E+02 0.  0.
<mgrwt>
<rscale>  0 0.49069580E+04</rscale>
<asrwt>0</asrwt>
<pdfrwt beam="1">  1        2 0.48798616E+00 0.49069580E+04</pdfrwt>
<pdfrwt beam="2">  1       -2 0.29196479E+00 0.49069580E+04</pdfrwt>
<totfact> 0.35275122E-02</totfact>
</mgrwt>
</event>
<event>
13    1  0.1288947E-008  0.5013254E+04  0.7818608E-02  0.7826466E-01
         -1   -1    0    0    0  501 -0.00000000000E+00  0.00000000000E+00  0.47130032682E+04  0.47130032682E+04  0.00000000000E+00 0.  1.
          1   -1    0    0  501    0  0.00000000000E+00 -0.00000000000E+00 -0.13331582184E+04  0.13331582184E+04  0.00000000000E+00 0. -1.
    9900016    2    1    2    0    0 -0.11475349845E+02  0.14279650827E+04  0.12942021779E+04  0.26680623187E+04  0.18450965553E+04 0.  0.
        -24    2    3    3    0    0  0.26406464048E+03 -0.36490950801E+03  0.27200560195E+02  0.45545872040E+03  0.61755097938E+02 0.  0.
    9900016    2    1    2    0    0 -0.15910172528E+03 -0.84438797041E+03  0.14800532881E+04  0.25151317832E+04  0.18431022076E+04 0.  0.
         23    2    5    5    0    0 -0.61344590702E+03 -0.36023012874E+03 -0.16912689869E+03  0.73731493673E+03  0.94592714125E+02 0.  0.
        -15    1    3    3    0    0 -0.27553999033E+03  0.17928745907E+04  0.12670016177E+04  0.22126035984E+04  0.00000000000E+00 0.  1.
        -15    1    6    6    0    0 -0.12983596799E+02 -0.27912811831E+02 -0.13438656878E+02  0.33590122787E+02  0.00000000000E+00 0.  1.
         15    1    6    6    0    0 -0.60046231022E+03 -0.33231731691E+03 -0.15568824182E+03  0.70372481394E+03  0.00000000000E+00 0. -1.
         15    1    4    4    0    0  0.10598838492E+03 -0.14488975243E+03  0.41178522727E+02  0.18417993601E+03  0.00000000000E+00 0. -1.
        -16    1    4    4    0    0  0.15807625556E+03 -0.22001975558E+03 -0.13977962532E+02  0.27127878438E+03  0.00000000000E+00 0.  1.
         16    1    5    5    0    0  0.45434418174E+03 -0.48415784166E+03  0.16491801868E+04  0.17778168465E+04  0.00000000000E+00 0. -1.
    9900018    1    1    2    0    0  0.17057707513E+03 -0.58357711229E+03  0.60558958382E+03  0.86296738465E+03  0.91187600000E+02 0.  0.
<mgrwt>
<rscale>  0 0.50132540E+04</rscale>
<asrwt>0</asrwt>
<pdfrwt beam="1">  1        1 0.20510127E+00 0.50132540E+04</pdfrwt>
<pdfrwt beam="2">  1       -1 0.72507742E+00 0.50132540E+04</pdfrwt>
<totfact> 0.10078012E-03</totfact>
</mgrwt>
</event>
<event>
13    1  0.1288947E-008  0.5712743E+04  0.7818608E-02  0.7727075E-01
          2   -1    0    0  501    0  0.00000000000E+00  0.00000000000E+00  0.17104486393E+04  0.17104486393E+04  0.00000000000E+00 0.  1.
         -2   -1    0    0    0  501 -0.00000000000E+00 -0.00000000000E+00 -0.47700108700E+04  0.47700108700E+04  0.00000000000E+00 0. -1.
    9900016    2    1    2    0    0 -0.16908008162E+04 -0.30106328887E+03 -0.23562700180E+04  0.34493495158E+04  0.18429750896E+04 0.  0.
        -24    2    3    3    0    0  0.18558820868E+03 -0.58208316819E+03 -0.65921770796E+03  0.90380547021E+03  0.95039694951E+02 0.  0.
    9900016    2    1    2    0    0  0.15983636212E+04 -0.35032829245E+02 -0.92533175310E+03  0.26078819562E+04  0.18408736728E+04 0.  0.
         23    2    5    5    0    0  0.32768059583E+03  0.16292800059E+03  0.53965427808E+03  0.65852105765E+03  0.92212457175E+02 0.  0.
        -15    1    6    6    0    0  0.17529791434E+03  0.10007992961E+03  0.21806911931E+03  0.29715230418E+03  0.00000000000E+00 0. -1.
        -15    1    3    3    0    0 -0.18763890249E+04  0.28101987932E+03 -0.16970523100E+04  0.25455440456E+04  0.00000000000E+00 0.  1.
         15    1    6    6    0    0  0.15238268149E+03  0.62848070987E+02  0.32158515877E+03  0.36136875348E+03  0.00000000000E+00 0.  1.
         15    1    4    4    0    0  0.99286060723E+02 -0.28753605261E+03 -0.39681636464E+03  0.49999793064E+03  0.00000000000E+00 0. -1.
        -16    1    4    4    0    0  0.86302147956E+02 -0.29454711558E+03 -0.26240134332E+03  0.40380753957E+03  0.00000000000E+00 0.  1.
         16    1    5    5    0    0  0.12706830254E+04 -0.19796082984E+03 -0.14649860312E+04  0.19493608985E+04  0.00000000000E+00 0. -1.
    9900018    1    1    2    0    0  0.92437194989E+02  0.33609611811E+03  0.22203954041E+03  0.42322803726E+03  0.91187600000E+02 0.  0.
<mgrwt>
<rscale>  0 0.57127432E+04</rscale>
<asrwt>0</asrwt>
<pdfrwt beam="1">  1        2 0.26314595E+00 0.57127432E+04</pdfrwt>
<pdfrwt beam="2">  1       -2 0.73384782E+00 0.57127432E+04</pdfrwt>
<totfact> 0.11361257E-03</totfact>
</mgrwt>
</event>
<event>
12    1  0.1288947E-008  0.4963162E+04  0.7818608E-02  0.7834215E-01
          2   -1    0    0  501    0  0.00000000000E+00  0.00000000000E+00  0.23026532034E+04  0.23026532034E+04  0.00000000000E+00 0. -1.
         -2   -1    0    0    0  501 -0.00000000000E+00 -0.00000000000E+00 -0.26744122846E+04  0.26744122846E+04  0.00000000000E+00 0.  1.
    9900016    2    1    2    0    0 -0.97627819266E+03 -0.86297592409E+02  0.94779615301E+03  0.23032176157E+04  0.18563209457E+04 0.  0.
    9900016    2    1    2    0    0  0.67571504507E+03  0.20773865291E+02 -0.92628580372E+03  0.21662972956E+04  0.18378836218E+04 0.  0.
         23    2    4    4    0    0  0.42652242837E+03 -0.19504938068E+03  0.50638775729E+03  0.69618499849E+03  0.90990925859E+02 0.  0.
        -15    1    5    5    0    0  0.28093935928E+03 -0.17405756827E+03  0.34172531894E+03  0.47539368345E+03  0.00000000000E+00 0.  1.
        -15    1    3    3    0    0 -0.29779862060E+02  0.29919570763E+03 -0.61806976249E+02  0.30696093231E+03  0.00000000000E+00 0.  1.
         15    1    3    3    0    0 -0.10913985955E+04 -0.74771517922E+03  0.86266640516E+03  0.15793739931E+04  0.00000000000E+00 0. -1.
         15    1    5    5    0    0  0.14558306909E+03 -0.20991812417E+02  0.16466243835E+03  0.22079131504E+03  0.00000000000E+00 0. -1.
        -16    1    4    4    0    0  0.24919261670E+03  0.21582324597E+03 -0.14326735610E+04  0.14701122971E+04  0.00000000000E+00 0.  1.
         16    1    3    3    0    0  0.14490026492E+03  0.36222187918E+03  0.14693672411E+03  0.41688269024E+03  0.00000000000E+00 0. -1.
    9900018    1    1    2    0    0  0.30056314759E+03  0.65523727118E+02 -0.39326943058E+03  0.50755057671E+03  0.91187600000E+02 0.  0.
<mgrwt>
<rscale>  0 0.49631619E+04</rscale>
<asrwt>0</asrwt>
<pdfrwt beam="1">  1        2 0.35425434E+00 0.49631619E+04</pdfrwt>
<pdfrwt beam="2">  1       -2 0.41144804E+00 0.49631619E+04</pdfrwt>
<totfact> 0.20615315E-02</totfact>
</mgrwt>
</event>
<event>
13    1  0.1288947E-008  0.5649941E+04  0.7818608E-02  0.7735388E-01
         -2   -1    0    0    0  501 -0.00000000000E+00  0.00000000000E+00  0.22129237671E+04  0.22129237671E+04  0.00000000000E+00 0.  1.
          2   -1    0    0  501    0  0.00000000000E+00 -0.00000000000E+00 -0.36062960227E+04  0.36062960227E+04  0.00000000000E+00 0. -1.
    9900016    2    1    2    0    0 -0.12870161631E+04 -0.10749402973E+04 -0.28961613653E+02  0.24917871058E+04  0.18428936374E+04 0.  0.
         24    2    3    3    0    0 -0.73313281480E+02  0.20775783719E+03  0.58027168252E+03  0.62375220295E+03  0.61752967521E+02 0.  0.
    9900016    2    1    2    0    0  0.49749158605E+03  0.32858397751E+03 -0.10260030514E+04  0.21858409490E+04  0.18356887221E+04 0.  0.
         23    2    5    5    0    0  0.27853665480E+03 -0.50532833563E+03 -0.11737349771E+04  0.13110977125E+04  0.91564296748E+02 0.  0.
        -15    1    4    4    0    0 -0.79360148841E+02  0.15407486112E+03  0.47054947566E+03  0.50145179738E+03  0.00000000000E+00 0.  1.
        -15    1    6    6    0    0  0.17996829362E+02 -0.84871477972E+02 -0.22530908869E+03  0.24143578667E+03  0.00000000000E+00 0. -1.
         15    1    6    6    0    0  0.26053982544E+03 -0.42045685765E+03 -0.94842588839E+03  0.10696619258E+04  0.00000000000E+00 0.  1.
         15    1    3    3    0    0 -0.12137028816E+04 -0.12826981345E+04 -0.60923329617E+03  0.18680349028E+04  0.00000000000E+00 0. -1.
        -16    1    5    5    0    0  0.21895493125E+03  0.83391231314E+03  0.14773192567E+03  0.87474323649E+03  0.00000000000E+00 0.  1.
         16    1    4    4    0    0  0.60468673613E+01  0.53682976068E+02  0.10972220687E+03  0.12230040558E+03  0.00000000000E+00 0. -1.
    9900018    1    1    2    0    0  0.78952457700E+03  0.74635631983E+03 -0.33840759051E+03  0.11415917351E+04  0.91187600000E+02 0.  0.
<mgrwt>
<rscale>  0 0.56499409E+04</rscale>
<asrwt>0</asrwt>
<pdfrwt beam="1">  1        2 0.55481477E+00 0.56499409E+04</pdfrwt>
<pdfrwt beam="2">  1       -2 0.34044981E+00 0.56499409E+04</pdfrwt>
<totfact> 0.84197324E-03</totfact>
</mgrwt>
</event>
<event>
13    1  0.1288947E-008  0.4906809E+04  0.7818608E-02  0.7843046E-01
          2   -1    0    0  501    0  0.00000000000E+00  0.00000000000E+00  0.26089507000E+04  0.26089507000E+04  0.00000000000E+00 0. -1.
         -2   -1    0    0    0  501 -0.00000000000E+00 -0.00000000000E+00 -0.23071324230E+04  0.23071324230E+04  0.00000000000E+00 0.  1.
    9900016    2    1    2    0    0  0.76006585362E+03  0.42507765770E+03  0.46294763526E+03  0.20910100512E+04  0.18438035157E+04 0.  0.
         24    2    3    3    0    0 -0.44541265291E+03  0.66850194214E+03  0.17739911692E+03  0.82848410367E+03  0.98123316958E+02 0.  0.
    9900016    2    1    2    0    0 -0.50021223791E+03 -0.65153264901E+03 -0.73810220888E+03  0.21468263515E+04  0.18410218459E+04 0.  0.
         23    2    5    5    0    0 -0.20552596843E+03  0.30862149610E+02  0.58609922544E+03  0.62827042651E+03  0.89543457509E+02 0.  0.
        -15    1    6    6    0    0 -0.88175539936E+02  0.57815289516E+02  0.25386843806E+03  0.27489401119E+03  0.00000000000E+00 0.  1.
        -15    1    4    4    0    0 -0.37807585266E+03  0.52129814917E+03  0.17190597314E+03  0.66651689723E+03  0.00000000000E+00 0.  1.
         15    1    6    6    0    0 -0.11735042849E+03 -0.26953139906E+02  0.33223078738E+03  0.35337641532E+03  0.00000000000E+00 0. -1.
         15    1    3    3    0    0  0.12054785065E+04 -0.24342428444E+03  0.28554851834E+03  0.12625259476E+04  0.00000000000E+00 0. -1.
        -16    1    5    5    0    0 -0.29468626948E+03 -0.68239479862E+03 -0.13242014343E+04  0.15185559250E+04  0.00000000000E+00 0.  1.
         16    1    4    4    0    0 -0.67336800254E+02  0.14720379298E+03  0.54931437770E+01  0.16196720644E+03  0.00000000000E+00 0. -1.
    9900018    1    1    2    0    0 -0.25985361572E+03  0.22645499131E+03  0.57697285067E+03  0.67824672023E+03  0.91187600000E+02 0.  0.
<mgrwt>
<rscale>  0 0.49068095E+04</rscale>
<asrwt>0</asrwt>
<pdfrwt beam="1">  1        2 0.40137703E+00 0.49068095E+04</pdfrwt>
<pdfrwt beam="2">  1       -2 0.35494345E+00 0.49068095E+04</pdfrwt>
<totfact> 0.31928332E-02</totfact>
</mgrwt>
</event>
<event>
13    1  0.1288947E-008  0.4804120E+04  0.7818608E-02  0.7859455E-01
          2   -1    0    0  501    0  0.00000000000E+00  0.00000000000E+00  0.39347940484E+04  0.39347940484E+04  0.00000000000E+00 0. -1.
         -2   -1    0    0    0  501 -0.00000000000E+00 -0.00000000000E+00 -0.14663771601E+04  0.14663771601E+04  0.00000000000E+00 0.  1.
    9900016    2    1    2    0    0 -0.99839689613E+03 -0.60558519679E+02  0.39024183299E+03  0.21332990708E+04  0.18434241348E+04 0.  0.
        -24    2    3    3    0    0 -0.11819184204E+04  0.46245175204E+03 -0.24074781534E+03  0.12934372783E+04  0.65020817684E+02 0.  0.
    9900016    2    1    2    0    0  0.11046852871E+04 -0.25214819699E+03  0.18622945962E+04  0.28629002082E+04  0.18558416265E+04 0.  0.
         23    2    5    5    0    0  0.12869374017E+03  0.47500529599E+03 -0.13993598187E+03  0.51977430684E+03  0.91603171661E+02 0.  0.
        -15    1    3    3    0    0  0.18352152429E+03 -0.52301027171E+03  0.63098964834E+03  0.83986179250E+03  0.00000000000E+00 0.  1.
        -15    1    6    6    0    0  0.35612609661E+02  0.11435362117E+03 -0.76022900672E+02  0.14186081230E+03  0.00000000000E+00 0. -1.
         15    1    4    4    0    0 -0.63900191063E+03  0.21518286454E+03 -0.12722257692E+03  0.68615791991E+03  0.00000000000E+00 0. -1.
         15    1    6    6    0    0  0.93081130504E+02  0.36065167482E+03 -0.63913081199E+02  0.37791349454E+03  0.00000000000E+00 0.  1.
        -16    1    4    4    0    0 -0.54291650979E+03  0.24726888750E+03 -0.11352523843E+03  0.60727935836E+03  0.00000000000E+00 0.  1.
         16    1    5    5    0    0  0.97599154691E+03 -0.72715349298E+03  0.20022305781E+04  0.23431259014E+04  0.00000000000E+00 0. -1.
    9900018    1    1    2    0    0 -0.10628839094E+03  0.31270671667E+03  0.21588045912E+03  0.40497192955E+03  0.91187600000E+02 0.  0.
<mgrwt>
<rscale>  0 0.48041199E+04</rscale>
<asrwt>0</asrwt>
<pdfrwt beam="1">  1        2 0.60535293E+00 0.48041199E+04</pdfrwt>
<pdfrwt beam="2">  1       -2 0.22559649E+00 0.48041199E+04</pdfrwt>
<totfact> 0.25891820E-02</totfact>
</mgrwt>
</event>
<event>
13    1  0.1288947E-008  0.4371893E+04  0.7818608E-02  0.7933457E-01
         -2   -1    0    0    0  501 -0.00000000000E+00  0.00000000000E+00  0.21651758874E+04  0.21651758874E+04  0.00000000000E+00 0.  1.
          2   -1    0    0  501    0  0.00000000000E+00 -0.00000000000E+00 -0.22069164401E+04  0.22069164401E+04  0.00000000000E+00 0. -1.
    9900016    2    1    2    0    0 -0.36883932004E+03 -0.80715960787E+03 -0.60969294982E+03  0.21311998077E+04  0.18392221319E+04 0.  0.
        -24    2    3    3    0    0 -0.23534685421E+03  0.94104909505E+02  0.57475092862E+03  0.63687545536E+03  0.10501352255E+03 0.  0.
    9900016    2    1    2    0    0  0.32640397466E+03  0.70152507982E+03  0.56652921529E+03  0.20950274593E+04  0.18626614590E+04 0.  0.
         23    2    5    5    0    0 -0.34283603916E+03 -0.23032579390E+03 -0.40920749002E+03  0.58894301108E+03  0.93896641728E+02 0.  0.
        -15    1    3    3    0    0 -0.13349246583E+03 -0.90126451738E+03 -0.11844438784E+04  0.14943243523E+04  0.00000000000E+00 0.  1.
        -15    1    6    6    0    0 -0.16202482846E+02 -0.10514873867E+00 -0.46599848619E+02  0.49336369931E+02  0.00000000000E+00 0.  1.
         15    1    4    4    0    0 -0.32039595105E+02  0.42437428715E+02  0.55541340394E+02  0.76891556774E+02  0.00000000000E+00 0. -1.
         15    1    6    6    0    0 -0.32663355632E+03 -0.23022064516E+03 -0.36260764140E+03  0.53960664115E+03  0.00000000000E+00 0. -1.
        -16    1    4    4    0    0 -0.20330725911E+03  0.51667480790E+02  0.51920958822E+03  0.55998389859E+03  0.00000000000E+00 0.  1.
         16    1    5    5    0    0  0.66924001383E+03  0.93185087372E+03  0.97573670531E+03  0.15060844482E+04  0.00000000000E+00 0. -1.
    9900018    1    1    2    0    0  0.42435345381E+02  0.10563452805E+03  0.14231818091E+01  0.14586506057E+03  0.91187600000E+02 0.  0.
<mgrwt>
<rscale>  0 0.43718931E+04</rscale>
<asrwt>0</asrwt>
<pdfrwt beam="1">  1        2 0.33952561E+00 0.43718931E+04</pdfrwt>
<pdfrwt beam="2">  1       -2 0.33310398E+00 0.43718931E+04</pdfrwt>
<totfact> 0.77791684E-02</totfact>
</mgrwt>
</event>
<event>
12    1  0.1288947E-008  0.4515796E+04  0.7818608E-02  0.7907877E-01
          1   -1    0    0  501    0  0.00000000000E+00  0.00000000000E+00  0.24563286970E+04  0.24563286970E+04  0.00000000000E+00 0. -1.
         -1   -1    0    0    0  501 -0.00000000000E+00 -0.00000000000E+00 -0.20754972603E+04  0.20754972603E+04  0.00000000000E+00 0.  1.
    9900016    2    1    2    0    0 -0.21118295032E+03  0.11691723907E+03 -0.15665571879E+03  0.18725260069E+04  0.18502823441E+04 0.  0.
    9900016    2    1    2    0    0 -0.20787109497E+03 -0.53804574974E+03  0.11648676241E+03  0.19254661648E+04  0.18333431662E+04 0.  0.
         23    2    4    4    0    0  0.30253346838E+03 -0.18835667792E+03 -0.76476226942E+03  0.84871404789E+03  0.91920991915E+02 0.  0.
        -15    1    5    5    0    0  0.21754798655E+03 -0.16210918798E+03 -0.64326963203E+03  0.69814205916E+03  0.00000000000E+00 0.  1.
        -15    1    3    3    0    0 -0.90632752374E+02  0.18448816983E+03  0.13583679907E+03  0.24637738653E+03  0.00000000000E+00 0.  1.
         15    1    3    3    0    0  0.29854604871E+03 -0.64237231636E+03 -0.52062069529E+03  0.87910058832E+03  0.00000000000E+00 0. -1.
         15    1    5    5    0    0  0.84985481831E+02 -0.26247489945E+02 -0.12149263738E+03  0.15057198873E+03  0.00000000000E+00 0. -1.
        -16    1    4    4    0    0 -0.51040456335E+03 -0.34968907182E+03  0.88124903183E+03  0.10767521169E+04  0.00000000000E+00 0.  1.
         16    1    3    3    0    0 -0.41909624665E+03  0.57480138560E+03  0.22812817743E+03  0.74704803204E+03  0.00000000000E+00 0. -1.
    9900018    1    1    2    0    0  0.41905404529E+03  0.42112851067E+03  0.42100039312E+03  0.73383378552E+03  0.91187600000E+02 0.  0.
<mgrwt>
<rscale>  0 0.45157960E+04</rscale>
<asrwt>0</asrwt>
<pdfrwt beam="1">  1        1 0.37789672E+00 0.45157960E+04</pdfrwt>
<pdfrwt beam="2">  1       -1 0.31930727E+00 0.45157960E+04</pdfrwt>
<totfact> 0.26960923E-02</totfact>
</mgrwt>
</event>
<event>
13    1  0.1679270E-008  0.4216765E+04  0.7818608E-02  0.7962191E-01
         -2   -1    0    0    0  501 -0.00000000000E+00  0.00000000000E+00  0.18968935959E+04  0.18968935959E+04  0.00000000000E+00 0.  1.
          2   -1    0    0  501    0  0.00000000000E+00 -0.00000000000E+00 -0.23434513041E+04  0.23434513041E+04  0.00000000000E+00 0. -1.
    9900016    2    1    2    0    0  0.33392831740E+03 -0.41782407742E+03  0.45734521878E+02  0.19198511587E+04  0.18432720212E+04 0.  0.
        -24    2    3    3    0    0  0.10034280189E+03  0.61633183159E+03  0.46334360579E+03  0.78036092876E+03  0.65895960306E+02 0.  0.
    9900016    2    1    2    0    0 -0.34700479809E+03  0.61972874908E+03 -0.24407048176E+03  0.19875287198E+04  0.18401695465E+04 0.  0.
         23    2    5    5    0    0  0.64797609061E+02 -0.32024852536E+03 -0.76468937934E+03  0.83679741519E+03  0.93392821174E+02 0.  0.
        -15    1    6    6    0    0  0.33468009066E+02 -0.12270518088E+03 -0.41380660215E+03  0.43291173815E+03  0.00000000000E+00 0.  1.
        -15    1    3    3    0    0  0.23358551550E+03 -0.10341559090E+04 -0.41760908391E+03  0.11394902300E+04  0.00000000000E+00 0.  1.
         15    1    4    4    0    0  0.72884343285E+02  0.26749433698E+03  0.18593750253E+03  0.33382346032E+03  0.00000000000E+00 0. -1.
         15    1    6    6    0    0  0.31329599994E+02 -0.19754334448E+03 -0.35088277719E+03  0.40388567703E+03  0.00000000000E+00 0. -1.
        -16    1    4    4    0    0  0.27458458609E+02  0.34883749461E+03  0.27740610326E+03  0.44653746844E+03  0.00000000000E+00 0.  1.
         16    1    5    5    0    0 -0.41180240715E+03  0.93997727444E+03  0.52061889758E+03  0.11507313047E+04  0.00000000000E+00 0. -1.
    9900018    1    1    2    0    0  0.13076480695E+02 -0.20190467166E+03 -0.24822174826E+03  0.33296502142E+03  0.91187600000E+02 0.  0.
<mgrwt>
<rscale>  0 0.42167655E+04</rscale>
<asrwt>0</asrwt>
<pdfrwt beam="1">  1        2 0.36053097E+00 0.42167655E+04</pdfrwt>
<pdfrwt beam="2">  1       -2 0.29182979E+00 0.42167655E+04</pdfrwt>
<totfact> 0.11839783E-01</totfact>
</mgrwt>
</event>
<event>
13    1  0.1288947E-008  0.5144105E+04  0.7818608E-02  0.7806654E-01
         -2   -1    0    0    0  501 -0.00000000000E+00  0.00000000000E+00  0.18921701472E+04  0.18921701472E+04  0.00000000000E+00 0.  1.
          2   -1    0    0  501    0  0.00000000000E+00 -0.00000000000E+00 -0.34962256272E+04  0.34962256272E+04  0.00000000000E+00 0. -1.
    9900016    2    1    2    0    0 -0.14042935361E+04 -0.90349603196E+03 -0.76967531039E+03  0.26073641047E+04  0.18486757628E+04 0.  0.
         24    2    3    3    0    0  0.27380822475E+03 -0.64768461462E+03  0.72075535015E+02  0.71263206911E+03  0.90461479189E+02 0.  0.
    9900016    2    1    2    0    0  0.10359558070E+04  0.74421457978E+03 -0.74323344162E+03  0.23595270219E+04  0.18406281655E+04 0.  0.
         23    2    5    5    0    0  0.33528990048E+03  0.19197234287E+03 -0.12653330484E+04  0.13258480581E+04  0.86790852732E+02 0.  0.
        -15    1    6    6    0    0  0.26789148453E+03  0.18000634423E+03 -0.95530559720E+03  0.10083535667E+04  0.00000000000E+00 0. -1.
        -15    1    4    4    0    0  0.11947974733E+03 -0.39707161439E+03  0.42124908277E+02  0.41679225626E+03  0.00000000000E+00 0.  1.
         15    1    3    3    0    0 -0.16781017609E+04 -0.25581141734E+03 -0.84175084540E+03  0.18947320356E+04  0.00000000000E+00 0. -1.
         15    1    6    6    0    0  0.67398415951E+02  0.11965998641E+02 -0.31002745117E+03  0.31749449141E+03  0.00000000000E+00 0.  1.
        -16    1    5    5    0    0  0.70066590654E+03  0.55224223691E+03  0.52209960674E+03  0.10336789638E+04  0.00000000000E+00 0.  1.
         16    1    4    4    0    0  0.15432847742E+03 -0.25061300023E+03  0.29950626738E+02  0.29583981285E+03  0.00000000000E+00 0. -1.
    9900018    1    1    2    0    0  0.36833772909E+03  0.15928145218E+03 -0.91146728058E+02  0.42150464779E+03  0.91187600000E+02 0.  0.
<mgrwt>
<rscale>  0 0.51441049E+04</rscale>
<asrwt>0</asrwt>
<pdfrwt beam="1">  1        2 0.53788087E+00 0.51441049E+04</pdfrwt>
<pdfrwt beam="2">  1       -2 0.29110310E+00 0.51441049E+04</pdfrwt>
<totfact> 0.21167225E-02</totfact>
</mgrwt>
</event>
<event>
12    1  0.1288947E-008  0.4716244E+04  0.7818608E-02  0.7873835E-01
          4   -1    0    0  501    0  0.00000000000E+00  0.00000000000E+00  0.27122004632E+04  0.27122004632E+04  0.00000000000E+00 0. -1.
         -4   -1    0    0    0  501 -0.00000000000E+00 -0.00000000000E+00 -0.20502683966E+04  0.20502683966E+04  0.00000000000E+00 0.  1.
    9900016    2    1    2    0    0 -0.49013375346E+03 -0.52056799706E+03 -0.74160093239E+03  0.21126444385E+04  0.18444707763E+04 0.  0.
    9900016    2    1    2    0    0  0.29809803496E+03  0.50813580000E+03  0.97743714358E+03  0.21734788187E+04  0.18497465707E+04 0.  0.
         23    2    4    4    0    0 -0.41782665256E+03  0.29315270385E+03 -0.36664169633E+03  0.63552114121E+03  0.94569382301E+02 0.  0.
        -15    1    5    5    0    0  0.17223914895E+01  0.16332126311E+02 -0.10431709557E+02  0.19455733000E+02  0.00000000000E+00 0.  1.
        -15    1    3    3    0    0 -0.61115185173E+03 -0.81963801840E+03 -0.11708626658E+04  0.15544235102E+04  0.00000000000E+00 0.  1.
         15    1    5    5    0    0 -0.41954904405E+03  0.27682057754E+03 -0.35620998677E+03  0.61606540821E+03  0.00000000000E+00 0. -1.
         15    1    3    3    0    0  0.63499562909E+02  0.13790933884E+02  0.64066250592E+02  0.91251678406E+02  0.00000000000E+00 0. -1.
        -16    1    3    3    0    0  0.57518535359E+02  0.28527908745E+03  0.36519548281E+03  0.46696924985E+03  0.00000000000E+00 0.  1.
         16    1    4    4    0    0  0.71592468752E+03  0.21498309616E+03  0.13440788399E+04  0.15379576775E+04  0.00000000000E+00 0. -1.
    9900018    1    1    2    0    0  0.19203571850E+03  0.12432197058E+02  0.42609585544E+03  0.47634560260E+03  0.91187600000E+02 0.  0.
<mgrwt>
<rscale>  0 0.47162438E+04</rscale>
<asrwt>0</asrwt>
<pdfrwt beam="1">  1        4 0.41726161E+00 0.47162438E+04</pdfrwt>
<pdfrwt beam="2">  1       -4 0.31542591E+00 0.47162438E+04</pdfrwt>
<totfact> 0.18310094E-04</totfact>
</mgrwt>
</event>
<event>
12    1  0.1288947E-008  0.4399302E+04  0.7818608E-02  0.7928507E-01
          2   -1    0    0  501    0  0.00000000000E+00  0.00000000000E+00  0.34656896958E+04  0.34656896958E+04  0.00000000000E+00 0. -1.
         -2   -1    0    0    0  501 -0.00000000000E+00 -0.00000000000E+00 -0.13961044785E+04  0.13961044785E+04  0.00000000000E+00 0.  1.
    9900016    2    1    2    0    0 -0.40597793546E+03 -0.60444529581E+03  0.78100145271E+03  0.21234494930E+04  0.18354569677E+04 0.  0.
    9900016    2    1    2    0    0 -0.84677221115E-01  0.34811625865E+03  0.78142045109E+03  0.20339859477E+04  0.18453444062E+04 0.  0.
         23    2    4    4    0    0  0.17893406271E+03 -0.26186581988E+03  0.12185772973E+04  0.12624731782E+04  0.91196435884E+02 0.  0.
        -15    1    5    5    0    0  0.14994290004E+03 -0.14424133548E+03  0.72675783218E+03  0.75595329404E+03  0.00000000000E+00 0.  1.
        -15    1    3    3    0    0  0.10966957796E+03 -0.75849824869E+03  0.20699791071E+03  0.79384831337E+03  0.00000000000E+00 0.  1.
         15    1    5    5    0    0  0.28991162670E+02 -0.11762448439E+03  0.49181946508E+03  0.50651988419E+03  0.00000000000E+00 0. -1.
         15    1    3    3    0    0 -0.59320417633E+03  0.53728532683E+03  0.45618930745E+03  0.92123580123E+03  0.00000000000E+00 0. -1.
        -16    1    4    4    0    0 -0.17901873993E+03  0.60998207853E+03 -0.43715684618E+03  0.77151276952E+03  0.00000000000E+00 0.  1.
         16    1    3    3    0    0  0.77556662906E+02 -0.38323237395E+03  0.11781423455E+03  0.40836537839E+03  0.00000000000E+00 0. -1.
    9900018    1    1    2    0    0  0.40606261268E+03  0.25632903716E+03  0.50716331350E+03  0.70435873364E+03  0.91187600000E+02 0.  0.
<mgrwt>
<rscale>  0 0.43993022E+04</rscale>
<asrwt>0</asrwt>
<pdfrwt beam="1">  1        2 0.53318303E+00 0.43993022E+04</pdfrwt>
<pdfrwt beam="2">  1       -2 0.21478531E+00 0.43993022E+04</pdfrwt>
<totfact> 0.69885884E-02</totfact>
</mgrwt>
</event>
<event>
12    1  0.1288947E-008  0.7080626E+04  0.7818608E-02  0.7569177E-01
         -2   -1    0    0    0  501 -0.00000000000E+00  0.00000000000E+00  0.26968021469E+04  0.26968021469E+04  0.00000000000E+00 0. -1.
          2   -1    0    0  501    0  0.00000000000E+00 -0.00000000000E+00 -0.46476583507E+04  0.46476583507E+04  0.00000000000E+00 0.  1.
    9900016    2    1    2    0    0 -0.14452762629E+04 -0.61474337153E+03 -0.19431808028E+04  0.31077398344E+04  0.18480699005E+04 0.  0.
    9900016    2    1    2    0    0 -0.58577823798E+03 -0.34831897105E+03 -0.24928761989E+03  0.19741197033E+04  0.18359036020E+04 0.  0.
         23    2    4    4    0    0  0.25082965969E+03  0.21940913098E+03  0.57428969164E+03  0.67008459625E+03  0.90270877266E+02 0.  0.
        -15    1    3    3    0    0 -0.38078296430E+03 -0.31886000376E+03 -0.30178685145E+03  0.58115632286E+03  0.00000000000E+00 0.  1.
        -15    1    5    5    0    0  0.18495762141E+03  0.10896226033E+03  0.32348961012E+03  0.38823655643E+03  0.00000000000E+00 0. -1.
         15    1    3    3    0    0 -0.11057254556E+03  0.55565817962E+03 -0.85416663580E+03  0.10249794838E+04  0.00000000000E+00 0. -1.
         15    1    5    5    0    0  0.65872038271E+02  0.11044687065E+03  0.25080008151E+03  0.28184803982E+03  0.00000000000E+00 0.  1.
        -16    1    4    4    0    0 -0.83660789766E+03 -0.56772810203E+03 -0.82357731152E+03  0.13040351070E+04  0.00000000000E+00 0.  1.
         16    1    3    3    0    0 -0.95392075304E+03 -0.85154154739E+03 -0.78722731551E+03  0.15016040278E+04  0.00000000000E+00 0. -1.
    9900018    1    1    2    0    0  0.20310545009E+04  0.96306234258E+03  0.24161221888E+03  0.22626009599E+04  0.91187600000E+02 0.  0.
<mgrwt>
<rscale>  0 0.70806257E+04</rscale>
<asrwt>0</asrwt>
<pdfrwt beam="1">  1        2 0.71502435E+00 0.70806257E+04</pdfrwt>
<pdfrwt beam="2">  1       -2 0.41489264E+00 0.70806257E+04</pdfrwt>
<totfact> 0.31602759E-04</totfact>
</mgrwt>
</event>
<event>
13    1  0.1288947E-008  0.5147132E+04  0.7818608E-02  0.7806203E-01
          1   -1    0    0  501    0  0.00000000000E+00  0.00000000000E+00  0.29773686816E+04  0.29773686816E+04  0.00000000000E+00 0. -1.
         -1   -1    0    0    0  501 -0.00000000000E+00 -0.00000000000E+00 -0.22245290884E+04  0.22245290884E+04  0.00000000000E+00 0.  1.
    9900016    2    1    2    0    0  0.21148149075E+03 -0.10583948143E+04  0.11814090591E+04  0.24406724669E+04  0.18428865189E+04 0.  0.
         24    2    3    3    0    0 -0.42687962552E+03 -0.10125695405E+04  0.45516560592E+01  0.11010463184E+04  0.68985422946E+02 0.  0.
    9900016    2    1    2    0    0  0.22046775892E+02  0.49175052945E+03  0.15417154560E+03  0.19106234799E+04  0.18396762141E+04 0.  0.
         23    2    5    5    0    0  0.26811783367E+03  0.53655299106E+02  0.93708127565E+03  0.98034070474E+03  0.90446206853E+02 0.  0.
        -15    1    4    4    0    0 -0.34926825171E+03 -0.79535393941E+03 -0.21395878632E+02  0.86892691535E+03  0.00000000000E+00 0.  1.
        -15    1    6    6    0    0  0.10534621639E+03  0.60059587804E+00  0.49892140883E+03  0.50992230605E+03  0.00000000000E+00 0. -1.
         15    1    6    6    0    0  0.16277161728E+03  0.53054703228E+02  0.43815986683E+03  0.47041839869E+03  0.00000000000E+00 0.  1.
         15    1    3    3    0    0  0.63836111627E+03 -0.45825273768E+02  0.11768574031E+04  0.13396261485E+04  0.00000000000E+00 0. -1.
        -16    1    5    5    0    0 -0.24607105778E+03  0.43809523035E+03 -0.78290973005E+03  0.93028277515E+03  0.00000000000E+00 0.  1.
         16    1    4    4    0    0 -0.77611373811E+02 -0.21721560114E+03  0.25947534692E+02  0.23211940306E+03  0.00000000000E+00 0. -1.
    9900018    1    1    2    0    0 -0.23352826664E+03  0.56664428486E+03 -0.58274101147E+03  0.85060182326E+03  0.91187600000E+02 0.  0.
<mgrwt>
<rscale>  0 0.51471325E+04</rscale>
<asrwt>0</asrwt>
<pdfrwt beam="1">  1        1 0.45805672E+00 0.51471325E+04</pdfrwt>
<pdfrwt beam="2">  1       -1 0.34223524E+00 0.51471325E+04</pdfrwt>
<totfact> 0.77492625E-03</totfact>
</mgrwt>
</event>
<event>
12    1  0.1288947E-008  0.4251165E+04  0.7818608E-02  0.7955710E-01
          2   -1    0    0  501    0  0.00000000000E+00  0.00000000000E+00  0.20334372067E+04  0.20334372067E+04  0.00000000000E+00 0. -1.
         -2   -1    0    0    0  501 -0.00000000000E+00 -0.00000000000E+00 -0.22219029213E+04  0.22219029213E+04  0.00000000000E+00 0.  1.
    9900016    2    1    2    0    0 -0.61453894388E+02  0.38833296424E+03 -0.33361665392E+03  0.19183875743E+04  0.18477910437E+04 0.  0.
    9900016    2    1    2    0    0  0.23881374510E+03 -0.62760393314E+03  0.30403630146E+03  0.19872857839E+04  0.18455210680E+04 0.  0.
         23    2    4    4    0    0  0.38547123665E+03 -0.36785261183E+03 -0.73147836992E+03  0.90966349226E+03  0.92322506392E+02 0.  0.
        -15    1    5    5    0    0  0.29087893499E+03 -0.32684200163E+03 -0.58400319655E+03  0.72972322317E+03  0.00000000000E+00 0. -1.
        -15    1    3    3    0    0 -0.22846985409E+03 -0.17338358236E+01 -0.10554379491E+04  0.10798845979E+04  0.00000000000E+00 0.  1.
         15    1    3    3    0    0  0.11825236154E+03  0.22883462572E+03  0.41341974240E+03  0.48709833744E+03  0.00000000000E+00 0. -1.
         15    1    5    5    0    0  0.94592301660E+02 -0.41010610197E+02 -0.14747517337E+03  0.17994026910E+03  0.00000000000E+00 0.  1.
        -16    1    3    3    0    0  0.48763598166E+02  0.16123217434E+03  0.30840155277E+03  0.35140463898E+03  0.00000000000E+00 0.  1.
         16    1    4    4    0    0 -0.14665749154E+03 -0.25975132132E+03  0.10355146714E+04  0.10776222916E+04  0.00000000000E+00 0. -1.
    9900018    1    1    2    0    0 -0.17735985071E+03  0.23927096891E+03 -0.15888536208E+03  0.34966676977E+03  0.91187600000E+02 0.  0.
<mgrwt>
<rscale>  0 0.42511646E+04</rscale>
<asrwt>0</asrwt>
<pdfrwt beam="1">  1        2 0.31283649E+00 0.42511646E+04</pdfrwt>
<pdfrwt beam="2">  1       -2 0.34183122E+00 0.42511646E+04</pdfrwt>
<totfact> 0.86645149E-02</totfact>
</mgrwt>
</event>
<event>
13    1  0.1288947E-008  0.4658336E+04  0.7818608E-02  0.7883488E-01
         -2   -1    0    0    0  501 -0.00000000000E+00  0.00000000000E+00  0.26973845839E+04  0.26973845839E+04  0.00000000000E+00 0.  1.
          2   -1    0    0  501    0  0.00000000000E+00 -0.00000000000E+00 -0.20112159115E+04  0.20112159115E+04  0.00000000000E+00 0. -1.
    9900016    2    1    2    0    0  0.55615093350E+02  0.26834776022E+03  0.13238828306E+04  0.22833084885E+04  0.18400348762E+04 0.  0.
         24    2    3    3    0    0  0.32772427843E+03 -0.64507617917E+03  0.10774459715E+04  0.12988706656E+04  0.51465569517E+02 0.  0.
    9900016    2    1    2    0    0 -0.22518067197E+03 -0.36944805355E+03 -0.15941747702E+03  0.18998810740E+04  0.18430778508E+04 0.  0.
         23    2    5    5    0    0 -0.12439527919E+03  0.23791302587E+03 -0.89612558977E+03  0.93978523529E+03  0.89880044859E+02 0.  0.
        -15    1    6    6    0    0 -0.62319153725E+02  0.19425693265E+03 -0.71152200097E+03  0.74019118521E+03  0.00000000000E+00 0. -1.
        -15    1    4    4    0    0  0.82420569342E+02 -0.20709625094E+03  0.30958691386E+03  0.38147878662E+03  0.00000000000E+00 0.  1.
         15    1    3    3    0    0 -0.27210918508E+03  0.91342393939E+03  0.24643685905E+03  0.98443782290E+03  0.00000000000E+00 0. -1.
         15    1    6    6    0    0 -0.62076125463E+02  0.43656093217E+02 -0.18460358881E+03  0.19959405008E+03  0.00000000000E+00 0.  1.
        -16    1    5    5    0    0 -0.10078539278E+03 -0.60736107941E+03  0.73670811275E+03  0.96009583874E+03  0.00000000000E+00 0.  1.
         16    1    4    4    0    0  0.24530370908E+03 -0.43797992823E+03  0.76785905766E+03  0.91739187900E+03  0.00000000000E+00 0. -1.
    9900018    1    1    2    0    0  0.16956557862E+03  0.10110029333E+03 -0.47829668120E+03  0.52541093289E+03  0.91187600000E+02 0.  0.
<mgrwt>
<rscale>  0 0.46583357E+04</rscale>
<asrwt>0</asrwt>
<pdfrwt beam="1">  1        2 0.30941783E+00 0.46583357E+04</pdfrwt>
<pdfrwt beam="2">  1       -2 0.41498224E+00 0.46583357E+04</pdfrwt>
<totfact> 0.29171252E-02</totfact>
</mgrwt>
</event>
<event>
13    1  0.1288947E-008  0.4744372E+04  0.7818608E-02  0.7869197E-01
         -1   -1    0    0    0  501 -0.00000000000E+00  0.00000000000E+00  0.29492972317E+04  0.29492972317E+04  0.00000000000E+00 0.  1.
          1   -1    0    0  501    0  0.00000000000E+00 -0.00000000000E+00 -0.19080026170E+04  0.19080026170E+04  0.00000000000E+00 0. -1.
    9900016    2    1    2    0    0  0.45403430334E+03  0.13996618200E+03  0.15764349751E+04  0.24711502929E+04  0.18427422116E+04 0.  0.
        -24    2    3    3    0    0  0.13711446771E+03 -0.74122177548E+03  0.15936649457E+03  0.77261755040E+03  0.57707035037E+02 0.  0.
    9900016    2    1    2    0    0 -0.41178518421E+03 -0.12821782248E+03 -0.61568787310E+02  0.19018890626E+04  0.18513196491E+04 0.  0.
         23    2    5    5    0    0 -0.25919459825E+03  0.25907970063E+03 -0.89419435510E+03  0.97100314349E+03  0.94654260032E+02 0.  0.
        -15    1    3    3    0    0  0.31691983563E+03  0.88118795748E+03  0.14170684805E+04  0.16985327425E+04  0.00000000000E+00 0.  1.
        -15    1    6    6    0    0 -0.88274902279E+02  0.11905546041E+03 -0.46846595032E+03  0.49135222360E+03  0.00000000000E+00 0. -1.
         15    1    4    4    0    0  0.39478740491E+02 -0.26333858606E+03  0.83022362377E+02  0.27892381489E+03  0.00000000000E+00 0. -1.
         15    1    6    6    0    0 -0.17091969597E+03  0.14002424021E+03 -0.42572840477E+03  0.47965091989E+03  0.00000000000E+00 0.  1.
        -16    1    4    4    0    0  0.97635727218E+02 -0.47788318942E+03  0.76344132193E+02  0.49369373551E+03  0.00000000000E+00 0.  1.
         16    1    5    5    0    0 -0.15259058595E+03 -0.38729752310E+03  0.83262556779E+03  0.93088591914E+03  0.00000000000E+00 0. -1.
    9900018    1    1    2    0    0 -0.42249119138E+02 -0.11748359523E+02 -0.47357157308E+03  0.48426049317E+03  0.91187600000E+02 0.  0.
<mgrwt>
<rscale>  0 0.47443722E+04</rscale>
<asrwt>0</asrwt>
<pdfrwt beam="1">  1        1 0.29353886E+00 0.47443722E+04</pdfrwt>
<pdfrwt beam="2">  1       -1 0.45373804E+00 0.47443722E+04</pdfrwt>
<totfact> 0.77439272E-03</totfact>
</mgrwt>
</event>
<event>
12    1  0.1288947E-008  0.5039645E+04  0.7818608E-02  0.7822421E-01
         -2   -1    0    0    0  501 -0.00000000000E+00  0.00000000000E+00  0.20670989825E+04  0.20670989825E+04  0.00000000000E+00 0.  1.
          2   -1    0    0  501    0  0.00000000000E+00 -0.00000000000E+00 -0.30716989071E+04  0.30716989071E+04  0.00000000000E+00 0. -1.
    9900016    2    1    2    0    0  0.46367955387E+03 -0.25998266912E+03 -0.18257779260E+04  0.26495427810E+04  0.18449992403E+04 0.  0.
    9900016    2    1    2    0    0 -0.62204722596E+03  0.40106747238E+02  0.40753129646E+03  0.19864186387E+04  0.18415281556E+04 0.  0.
         23    2    4    4    0    0  0.31264277033E+02 -0.46599858029E+03 -0.54590103431E+03  0.72467709152E+03  0.94956915834E+02 0.  0.
        -15    1    3    3    0    0 -0.27127973580E+03 -0.17724236479E+03  0.15382205014E+03  0.35870429889E+03  0.00000000000E+00 0.  1.
        -15    1    5    5    0    0 -0.87593518556E+01 -0.39384229567E+03 -0.44440034579E+03  0.59386879648E+03  0.00000000000E+00 0.  1.
         15    1    5    5    0    0  0.40023628889E+02 -0.72156284619E+02 -0.10150068852E+03  0.13080829503E+03  0.00000000000E+00 0. -1.
         15    1    3    3    0    0  0.80506130264E+03 -0.80096666284E+01 -0.20246920345E+04  0.21788909312E+04  0.00000000000E+00 0. -1.
        -16    1    4    4    0    0 -0.65331150300E+03  0.50610532752E+03  0.95343233076E+03  0.12617415472E+04  0.00000000000E+00 0.  1.
         16    1    3    3    0    0 -0.70102012969E+02 -0.74730637699E+02  0.45092058342E+02  0.11194755093E+03  0.00000000000E+00 0. -1.
    9900018    1    1    2    0    0  0.15836767209E+03  0.21987592188E+03  0.41364670486E+03  0.50283646986E+03  0.91187600000E+02 0.  0.
<mgrwt>
<rscale>  0 0.50396451E+04</rscale>
<asrwt>0</asrwt>
<pdfrwt beam="1">  1        2 0.47256906E+00 0.50396451E+04</pdfrwt>
<pdfrwt beam="2">  1       -2 0.31801523E+00 0.50396451E+04</pdfrwt>
<totfact> 0.28022730E-02</totfact>
</mgrwt>
</event>
<event>
13    1  0.1288947E-008  0.4834866E+04  0.7818608E-02  0.7854498E-01
          1   -1    0    0  501    0  0.00000000000E+00  0.00000000000E+00  0.28040458267E+04  0.28040458267E+04  0.00000000000E+00 0. -1.
         -1   -1    0    0    0  501 -0.00000000000E+00 -0.00000000000E+00 -0.20841248198E+04  0.20841248198E+04  0.00000000000E+00 0.  1.
    9900016    2    1    2    0    0  0.56591869502E+03 -0.36754277609E+03  0.93674725485E+03  0.21885235864E+04  0.18592440419E+04 0.  0.
         24    2    3    3    0    0 -0.59090523821E+03  0.18831932637E+03  0.59080952099E+03  0.85927673007E+03  0.68318661457E+02 0.  0.
    9900016    2    1    2    0    0 -0.28286645597E+02 -0.26096767700E+03 -0.10771652800E+03  0.18604249681E+04  0.18386609118E+04 0.  0.
         23    2    5    5    0    0 -0.13934245660E+03 -0.37335762458E+03  0.82163215069E+03  0.91774057761E+03  0.91411928651E+02 0.  0.
        -15    1    4    4    0    0 -0.39243788354E+03  0.13288530989E+03  0.35030454262E+03  0.54256729592E+03  0.00000000000E+00 0.  1.
        -15    1    6    6    0    0 -0.55647054354E+02 -0.17304643058E+03  0.47666106923E+03  0.51014452532E+03  0.00000000000E+00 0.  1.
         15    1    3    3    0    0  0.11568239332E+04 -0.55586210247E+03  0.34593773385E+03  0.13292468564E+04  0.00000000000E+00 0. -1.
         15    1    6    6    0    0 -0.83695402243E+02 -0.20031119399E+03  0.34497108146E+03  0.40759605228E+03  0.00000000000E+00 0. -1.
        -16    1    5    5    0    0  0.11105581100E+03  0.11238994758E+03 -0.92934867869E+03  0.94268439048E+03  0.00000000000E+00 0.  1.
         16    1    4    4    0    0 -0.19846735467E+03  0.55434016484E+02  0.24050497837E+03  0.31670943414E+03  0.00000000000E+00 0. -1.
    9900018    1    1    2    0    0 -0.53763204942E+03  0.62851045309E+03 -0.10910971990E+03  0.83922209193E+03  0.91187600000E+02 0.  0.
<mgrwt>
<rscale>  0 0.48348657E+04</rscale>
<asrwt>0</asrwt>
<pdfrwt beam="1">  1        1 0.43139166E+00 0.48348657E+04</pdfrwt>
<pdfrwt beam="2">  1       -1 0.32063459E+00 0.48348657E+04</pdfrwt>
<totfact> 0.14680921E-02</totfact>
</mgrwt>
</event>
<event>
13    1  0.1288947E-008  0.5263016E+04  0.7818608E-02  0.7789167E-01
          2   -1    0    0  501    0  0.00000000000E+00  0.00000000000E+00  0.26052383135E+04  0.26052383135E+04  0.00000000000E+00 0. -1.
         -2   -1    0    0    0  501 -0.00000000000E+00 -0.00000000000E+00 -0.26580430659E+04  0.26580430659E+04  0.00000000000E+00 0.  1.
    9900016    2    1    2    0    0  0.72169105509E+03 -0.65454948925E+03 -0.13518438714E+04  0.24932408800E+04  0.18545876146E+04 0.  0.
         24    2    3    3    0    0  0.12232263543E+04 -0.55178430424E+03 -0.14452482106E+04  0.19728345866E+04  0.50845681041E+02 0.  0.
    9900016    2    1    2    0    0 -0.83496224556E+03  0.71228209677E+03  0.86126459579E+03  0.23051479010E+04  0.18350537879E+04 0.  0.
         23    2    5    5    0    0  0.26443879434E+03  0.20712612573E+03  0.10266265004E+04  0.10839969025E+04  0.90874669130E+02 0.  0.
        -15    1    4    4    0    0  0.54421165971E+03 -0.25050019285E+03 -0.60879697127E+03  0.85413724272E+03  0.00000000000E+00 0.  1.
        -15    1    6    6    0    0  0.14934707232E+03  0.59501287239E+02  0.48078579139E+03  0.50695160360E+03  0.00000000000E+00 0.  1.
         15    1    6    6    0    0  0.11509172202E+03  0.14762483849E+03  0.54584070896E+03  0.57704529890E+03  0.00000000000E+00 0. -1.
         15    1    3    3    0    0 -0.50153529925E+03 -0.10276518502E+03  0.93404339212E+02  0.52040629342E+03  0.00000000000E+00 0. -1.
        -16    1    5    5    0    0 -0.10994010399E+04  0.50515597105E+03 -0.16536190456E+03  0.12211509985E+04  0.00000000000E+00 0.  1.
         16    1    4    4    0    0  0.67901469464E+03 -0.30128411138E+03 -0.83645123936E+03  0.11186973439E+04  0.00000000000E+00 0. -1.
    9900018    1    1    2    0    0  0.11327119047E+03 -0.57732607523E+02  0.43777452319E+03  0.46489259847E+03  0.91187600000E+02 0.  0.
<mgrwt>
<rscale>  0 0.52630165E+04</rscale>
<asrwt>0</asrwt>
<pdfrwt beam="1">  1        2 0.40080589E+00 0.52630165E+04</pdfrwt>
<pdfrwt beam="2">  1       -2 0.40892970E+00 0.52630165E+04</pdfrwt>
<totfact> 0.13991031E-02</totfact>
</mgrwt>
</event>
<event>
13    1  0.1288947E-008  0.4713271E+04  0.7818608E-02  0.7874327E-01
         -1   -1    0    0    0  501 -0.00000000000E+00  0.00000000000E+00  0.22163092556E+04  0.22163092556E+04  0.00000000000E+00 0.  1.
          1   -1    0    0  501    0  0.00000000000E+00 -0.00000000000E+00 -0.25058468095E+04  0.25058468095E+04  0.00000000000E+00 0. -1.
    9900016    2    1    2    0    0 -0.74348826353E+03  0.91047613789E+02  0.37821632824E+03  0.20253961766E+04  0.18433983875E+04 0.  0.
        -24    2    3    3    0    0 -0.77020089610E+03 -0.46869699813E+03 -0.46244673405E+03  0.10150784149E+04  0.60339954657E+02 0.  0.
    9900016    2    1    2    0    0  0.11603560409E+04 -0.13126373277E+03 -0.62210392303E+03  0.22657202416E+04  0.18392440330E+04 0.  0.
         23    2    5    5    0    0 -0.41416307107E+03 -0.18752073253E+03  0.18036377269E+03  0.49760551491E+03  0.91570101018E+02 0.  0.
        -15    1    6    6    0    0 -0.23368909792E+03 -0.11904114138E+03  0.56578855739E+02  0.26829564802E+03  0.00000000000E+00 0. -1.
        -15    1    3    3    0    0  0.26712632577E+02  0.55974461192E+03  0.84066306228E+03  0.10103177617E+04  0.00000000000E+00 0.  1.
         15    1    4    4    0    0 -0.35383152903E+03 -0.24984170168E+03 -0.22871125959E+03  0.48982289360E+03  0.00000000000E+00 0. -1.
         15    1    6    6    0    0 -0.18047397315E+03 -0.68479591148E+02  0.12378491695E+03  0.22930986689E+03  0.00000000000E+00 0.  1.
        -16    1    4    4    0    0 -0.41636936708E+03 -0.21885529645E+03 -0.23373547446E+03  0.52525552129E+03  0.00000000000E+00 0.  1.
         16    1    5    5    0    0  0.15745191120E+04  0.56256999765E+02 -0.80246769572E+03  0.17681147267E+04  0.00000000000E+00 0. -1.
    9900018    1    1    2    0    0 -0.41686777739E+03  0.40216118979E+02 -0.45649959060E+02  0.43103964691E+03  0.91187600000E+02 0.  0.
<mgrwt>
<rscale>  0 0.47132713E+04</rscale>
<asrwt>0</asrwt>
<pdfrwt beam="1">  1        1 0.38551489E+00 0.47132713E+04</pdfrwt>
<pdfrwt beam="2">  1       -1 0.34097066E+00 0.47132713E+04</pdfrwt>
<totfact> 0.17673848E-02</totfact>
</mgrwt>
</event>
<event>
12    1  0.1288947E-008  0.4557698E+04  0.7818608E-02  0.7900613E-01
         -2   -1    0    0    0  501 -0.00000000000E+00  0.00000000000E+00  0.11937558424E+04  0.11937558424E+04  0.00000000000E+00 0.  1.
          2   -1    0    0  501    0  0.00000000000E+00 -0.00000000000E+00 -0.43502638509E+04  0.43502638509E+04  0.00000000000E+00 0. -1.
    9900016    2    1    2    0    0  0.33655445795E+03 -0.38379865706E+03 -0.27008581915E+04  0.33087428507E+04  0.18418941253E+04 0.  0.
    9900016    2    1    2    0    0 -0.25735651201E+03  0.17573530058E+03 -0.59807867008E+03  0.19556988901E+04  0.18357409357E+04 0.  0.
         23    2    4    4    0    0 -0.16120253876E+03  0.33883886400E+03  0.61598837368E+03  0.72695679118E+03  0.90699864792E+02 0.  0.
        -15    1    3    3    0    0 -0.38471504698E+03  0.43448941239E+03 -0.26657565768E+03  0.63863079954E+03  0.00000000000E+00 0.  1.
        -15    1    5    5    0    0 -0.57460978095E+02  0.18448675515E+03  0.38175289497E+03  0.42786960589E+03  0.00000000000E+00 0. -1.
         15    1    3    3    0    0  0.11398287419E+03 -0.20061663947E+03 -0.53410301293E+03  0.58181196280E+03  0.00000000000E+00 0. -1.
         15    1    5    5    0    0 -0.10374156066E+03  0.15435210885E+03  0.23423547871E+03  0.29908718529E+03  0.00000000000E+00 0.  1.
        -16    1    3    3    0    0  0.60728663074E+03 -0.61767142998E+03 -0.19001795209E+04  0.20883000883E+04  0.00000000000E+00 0.  1.
         16    1    4    4    0    0 -0.96153973252E+02 -0.16310356342E+03 -0.12140670438E+04  0.12287420989E+04  0.00000000000E+00 0. -1.
    9900018    1    1    2    0    0 -0.79197945942E+02  0.20806335647E+03  0.14242885308E+03  0.27957795251E+03  0.91187600000E+02 0.  0.
<mgrwt>
<rscale>  0 0.45576981E+04</rscale>
<asrwt>0</asrwt>
<pdfrwt beam="1">  1        2 0.66927136E+00 0.45576981E+04</pdfrwt>
<pdfrwt beam="2">  1       -2 0.18365475E+00 0.45576981E+04</pdfrwt>
<totfact> 0.21875085E-02</totfact>
</mgrwt>
</event>
<event>
13    1  0.1288947E-008  0.4902422E+04  0.7818608E-02  0.7843738E-01
         -1   -1    0    0    0  501 -0.00000000000E+00  0.00000000000E+00  0.16635461290E+04  0.16635461290E+04  0.00000000000E+00 0.  1.
          1   -1    0    0  501    0  0.00000000000E+00 -0.00000000000E+00 -0.36118237834E+04  0.36118237834E+04  0.00000000000E+00 0. -1.
    9900016    2    1    2    0    0  0.71932942778E+03 -0.63587310980E+03 -0.13210692252E+04  0.24528340654E+04  0.18301370487E+04 0.  0.
        -24    2    3    3    0    0 -0.14944587613E+03  0.48845877468E+03 -0.77566675153E+03  0.93087592752E+03  0.62809541796E+02 0.  0.
    9900016    2    1    2    0    0 -0.66038073298E+03  0.26463395946E+03  0.14521091223E+03  0.19586838500E+04  0.18191268153E+04 0.  0.
         23    2    5    5    0    0 -0.39196349573E+03 -0.28915383867E+03  0.87411998216E+03  0.10047251659E+04  0.90230767648E+02 0.  0.
        -15    1    3    3    0    0  0.86877530390E+03 -0.11243318845E+04 -0.54540247370E+03  0.15219581379E+04  0.00000000000E+00 0.  1.
        -15    1    6    6    0    0 -0.28598639479E+03 -0.19294923219E+03  0.53437909279E+03  0.63606496446E+03  0.00000000000E+00 0.  1.
         15    1    4    4    0    0 -0.12832011382E+03  0.44952733083E+03 -0.73293215169E+03  0.86932756298E+03  0.00000000000E+00 0. -1.
         15    1    6    6    0    0 -0.10597710094E+03 -0.96204606479E+02  0.33974088937E+03  0.36866020146E+03  0.00000000000E+00 0. -1.
        -16    1    4    4    0    0 -0.21125762312E+02  0.38931443847E+02 -0.42734599843E+02  0.61548364535E+02  0.00000000000E+00 0.  1.
         16    1    5    5    0    0 -0.26841723725E+03  0.55378779813E+03 -0.72890906993E+03  0.95395868403E+03  0.00000000000E+00 0. -1.
    9900018    1    1    2    0    0 -0.58948694799E+02  0.37123915034E+03 -0.77241934145E+03  0.86385199704E+03  0.91187600000E+02 0.  0.
<mgrwt>
<rscale>  0 0.49024220E+04</rscale>
<asrwt>0</asrwt>
<pdfrwt beam="1">  1        1 0.55566519E+00 0.49024220E+04</pdfrwt>
<pdfrwt beam="2">  1       -1 0.25593018E+00 0.49024220E+04</pdfrwt>
<totfact> 0.94279286E-03</totfact>
</mgrwt>
</event>
<event>
13    1  0.1288947E-008  0.6501921E+04  0.7818608E-02  0.7631104E-01
          2   -1    0    0  501    0  0.00000000000E+00  0.00000000000E+00  0.32873692405E+04  0.32873692405E+04  0.00000000000E+00 0.  1.
         -2   -1    0    0    0  501 -0.00000000000E+00 -0.00000000000E+00 -0.32149554536E+04  0.32149554536E+04  0.00000000000E+00 0. -1.
    9900016    2    1    2    0    0  0.62265476250E+03  0.32572391120E+03  0.20827001162E+04  0.28700399458E+04  0.18454523828E+04 0.  0.
         24    2    3    3    0    0  0.81465434482E+03  0.20848087087E+02  0.23050235709E+04  0.24466715173E+04  0.94718037831E+02 0.  0.
    9900016    2    1    2    0    0 -0.11514859370E+04  0.24168406271E+03 -0.11263997738E+04  0.24527997585E+04  0.18338809000E+04 0.  0.
         23    2    5    5    0    0 -0.34800808220E+03 -0.40048835157E+03  0.35825265438E+03  0.64665610266E+03  0.91206390792E+02 0.  0.
        -15    1    6    6    0    0 -0.10654039842E+03 -0.64430578987E+02  0.80110678306E+02  0.14805362806E+03  0.00000000000E+00 0. -1.
        -15    1    4    4    0    0  0.71892808001E+03 -0.35112679892E+00  0.19480001299E+04  0.20764301611E+04  0.00000000000E+00 0.  1.
         15    1    6    6    0    0 -0.24146768378E+03 -0.33605777258E+03  0.27814197607E+03  0.49860247460E+03  0.00000000000E+00 0.  1.
         15    1    3    3    0    0 -0.19199958232E+03  0.30487582412E+03 -0.22232345476E+03  0.42336842853E+03  0.00000000000E+00 0. -1.
        -16    1    5    5    0    0 -0.80347785485E+03  0.64217241428E+03 -0.14846524282E+04  0.18061436558E+04  0.00000000000E+00 0.  1.
         16    1    4    4    0    0  0.95726264811E+02  0.21199213886E+02  0.35702344099E+03  0.37024135622E+03  0.00000000000E+00 0. -1.
    9900018    1    1    2    0    0  0.52883117454E+03 -0.56740797391E+03 -0.88388655548E+03  0.11794849899E+04  0.91187600000E+02 0.  0.
<mgrwt>
<rscale>  0 0.65019215E+04</rscale>
<asrwt>0</asrwt>
<pdfrwt beam="1">  1        2 0.50574912E+00 0.65019215E+04</pdfrwt>
<pdfrwt beam="2">  1       -2 0.49460853E+00 0.65019215E+04</pdfrwt>
<totfact> 0.13256535E-03</totfact>
</mgrwt>
</event>
<event>
12    1  0.1288947E-008  0.5479674E+04  0.7818608E-02  0.7758492E-01
          2   -1    0    0  501    0  0.00000000000E+00  0.00000000000E+00  0.33300613253E+04  0.33300613253E+04  0.00000000000E+00 0. -1.
         -2   -1    0    0    0  501 -0.00000000000E+00 -0.00000000000E+00 -0.22542249601E+04  0.22542249601E+04  0.00000000000E+00 0.  1.
    9900016    2    1    2    0    0 -0.55150856542E+03  0.14596907021E+04 -0.48094739839E+03  0.24683336795E+04  0.18510813353E+04 0.  0.
    9900016    2    1    2    0    0  0.29023627510E+03 -0.11271317974E+04  0.95047794643E+03  0.23711166795E+04  0.18341545183E+04 0.  0.
         23    2    4    4    0    0 -0.20303515076E+03  0.31573796264E+03  0.73589593872E+03  0.83123509897E+03  0.92169537497E+02 0.  0.
        -15    1    3    3    0    0 -0.52200964474E+03  0.18995116238E+04 -0.47050162838E+03  0.20253420108E+04  0.00000000000E+00 0.  1.
        -15    1    5    5    0    0 -0.13673800121E+03  0.16885206364E+03  0.50401866436E+03  0.54885618735E+03  0.00000000000E+00 0.  1.
         15    1    3    3    0    0 -0.42827126827E+01 -0.30134319858E+03  0.48135310656E+01  0.30141206850E+03  0.00000000000E+00 0. -1.
         15    1    5    5    0    0 -0.66297149555E+02  0.14688589900E+03  0.23187727436E+03  0.28237891162E+03  0.00000000000E+00 0. -1.
        -16    1    3    3    0    0 -0.25216208003E+02 -0.13847772312E+03 -0.15259301074E+02  0.14157960028E+03  0.00000000000E+00 0.  1.
         16    1    4    4    0    0  0.49327142587E+03 -0.14428697601E+04  0.21458200771E+03  0.15398815806E+04  0.00000000000E+00 0. -1.
    9900018    1    1    2    0    0  0.26127229032E+03 -0.33255890469E+03  0.60630581716E+03  0.74483592629E+03  0.91187600000E+02 0.  0.
<mgrwt>
<rscale>  0 0.54796742E+04</rscale>
<asrwt>0</asrwt>
<pdfrwt beam="1">  1        2 0.51231713E+00 0.54796742E+04</pdfrwt>
<pdfrwt beam="2">  1       -2 0.34680384E+00 0.54796742E+04</pdfrwt>
<totfact> 0.12131164E-02</totfact>
</mgrwt>
</event>
<event>
13    1  0.1288947E-008  0.5822922E+04  0.7818608E-02  0.7712753E-01
          2   -1    0    0  501    0  0.00000000000E+00  0.00000000000E+00  0.35281193386E+04  0.35281193386E+04  0.00000000000E+00 0.  1.
         -2   -1    0    0    0  501 -0.00000000000E+00 -0.00000000000E+00 -0.24025846891E+04  0.24025846891E+04  0.00000000000E+00 0. -1.
    9900016    2    1    2    0    0  0.17420298418E+04 -0.61330831067E+03 -0.41437857421E+03  0.26445414219E+04  0.18469094932E+04 0.  0.
         24    2    3    3    0    0  0.77508123829E+03  0.37811528189E+03  0.48462839149E+03  0.99344364589E+03  0.91342801323E+02 0.  0.
    9900016    2    1    2    0    0 -0.11590968035E+04  0.25846610838E+03  0.98286128490E+03  0.24005295234E+04  0.18401672637E+04 0.  0.
         23    2    5    5    0    0  0.78899423625E+02 -0.21499068925E+03 -0.41026401753E+03  0.47761660137E+03  0.85760936955E+02 0.  0.
        -15    1    6    6    0    0  0.12465829255E+02 -0.14136331895E+03 -0.27990432830E+03  0.31382386436E+03  0.00000000000E+00 0.  1.
        -15    1    4    4    0    0  0.43450736768E+03  0.24666934778E+03  0.24246418960E+03  0.55536591805E+03  0.00000000000E+00 0.  1.
         15    1    3    3    0    0  0.96694860346E+03 -0.99142359256E+03 -0.89900696571E+03  0.16510977760E+04  0.00000000000E+00 0. -1.
         15    1    6    6    0    0  0.66433594369E+02 -0.73627370298E+02 -0.13035968923E+03  0.16379273700E+03  0.00000000000E+00 0. -1.
        -16    1    5    5    0    0 -0.12379962271E+04  0.47345679762E+03  0.13931253024E+04  0.19229129221E+04  0.00000000000E+00 0.  1.
         16    1    4    4    0    0  0.34057387061E+03  0.13144593411E+03  0.24216420190E+03  0.43807772783E+03  0.00000000000E+00 0. -1.
    9900018    1    1    2    0    0 -0.58293303824E+03  0.35484220229E+03  0.55705193880E+03  0.88563308233E+03  0.91187600000E+02 0.  0.
<mgrwt>
<rscale>  0 0.58229221E+04</rscale>
<asrwt>0</asrwt>
<pdfrwt beam="1">  1        2 0.54278759E+00 0.58229221E+04</pdfrwt>
<pdfrwt beam="2">  1       -2 0.36962842E+00 0.58229221E+04</pdfrwt>
<totfact> 0.61761953E-03</totfact>
</mgrwt>
</event>
<event>
12    1  0.1288947E-008  0.5464395E+04  0.7818608E-02  0.7760608E-01
          2   -1    0    0  501    0  0.00000000000E+00  0.00000000000E+00  0.40790615423E+04  0.40790615423E+04  0.00000000000E+00 0. -1.
         -2   -1    0    0    0  501 -0.00000000000E+00 -0.00000000000E+00 -0.18300538948E+04  0.18300538948E+04  0.00000000000E+00 0.  1.
    9900016    2    1    2    0    0 -0.86660556132E+03 -0.58090499434E+03  0.33191880351E+03  0.21500398193E+04  0.18504176073E+04 0.  0.
    9900016    2    1    2    0    0  0.42581112267E+03  0.10970344201E+04  0.21229579671E+04  0.30439626229E+04  0.18368337673E+04 0.  0.
         23    2    4    4    0    0 -0.32723532777E+03 -0.11201124340E+03 -0.12858504150E+03  0.37969606484E+03  0.89473517716E+02 0.  0.
        -15    1    3    3    0    0 -0.33303563549E+03  0.21585933883E+02 -0.73868562842E+03  0.81057704426E+03  0.00000000000E+00 0.  1.
        -15    1    5    5    0    0 -0.69088534133E+02 -0.62352279047E+00  0.32512580317E+01  0.69167803262E+02  0.00000000000E+00 0.  1.
         15    1    5    5    0    0 -0.25814679364E+03 -0.11138772061E+03 -0.13183629953E+03  0.31052826158E+03  0.00000000000E+00 0. -1.
         15    1    3    3    0    0 -0.11210894443E+03 -0.11660049236E+03  0.21438840491E+03  0.26856373247E+03  0.00000000000E+00 0. -1.
        -16    1    3    3    0    0 -0.42146098140E+03 -0.48589043587E+03  0.85621602702E+03  0.10708990426E+04  0.00000000000E+00 0.  1.
         16    1    4    4    0    0  0.75304645044E+03  0.12090456635E+04  0.22515430086E+04  0.26642665580E+04  0.00000000000E+00 0. -1.
    9900018    1    1    2    0    0  0.44079443866E+03 -0.51612942571E+03 -0.20586912300E+03  0.71511299487E+03  0.91187600000E+02 0.  0.
<mgrwt>
<rscale>  0 0.54643947E+04</rscale>
<asrwt>0</asrwt>
<pdfrwt beam="1">  1        2 0.62754793E+00 0.54643947E+04</pdfrwt>
<pdfrwt beam="2">  1       -2 0.28154675E+00 0.54643947E+04</pdfrwt>
<totfact> 0.84712386E-03</totfact>
</mgrwt>
</event>
<event>
13    1  0.1288947E-008  0.5522902E+04  0.7818608E-02  0.7752546E-01
         -2   -1    0    0    0  501 -0.00000000000E+00  0.00000000000E+00  0.43363600044E+04  0.43363600044E+04  0.00000000000E+00 0.  1.
          2   -1    0    0  501    0  0.00000000000E+00 -0.00000000000E+00 -0.17585282864E+04  0.17585282864E+04  0.00000000000E+00 0. -1.
    9900016    2    1    2    0    0  0.27667623336E+03 -0.42283250334E+03  0.29928229465E+03  0.19372537568E+04  0.18460891534E+04 0.  0.
         24    2    3    3    0    0 -0.37280177603E+03  0.27848774863E+03  0.74441838741E+03  0.88282598707E+03  0.93200845417E+02 0.  0.
    9900016    2    1    2    0    0 -0.74179624320E+03  0.13396399041E+04  0.19036978151E+04  0.30595902086E+04  0.18417736383E+04 0.  0.
         23    2    5    5    0    0 -0.66410223067E+02 -0.20381459196E+03 -0.23928574485E+03  0.33364512562E+03  0.90059405606E+02 0.  0.
        -15    1    4    4    0    0 -0.14158063853E+03  0.11849105487E+03  0.38060302673E+03  0.42301757794E+03  0.00000000000E+00 0.  1.
        -15    1    6    6    0    0  0.95787385206E+01 -0.75822271241E+02 -0.12277509668E+03  0.14461844077E+03  0.00000000000E+00 0. -1.
         15    1    6    6    0    0 -0.75988961587E+02 -0.12799232072E+03 -0.11651064817E+03  0.18902668485E+03  0.00000000000E+00 0.  1.
         15    1    3    3    0    0  0.64947800938E+03 -0.70132025197E+03 -0.44513609276E+03  0.10544277697E+04  0.00000000000E+00 0. -1.
        -16    1    5    5    0    0 -0.67538602014E+03  0.15434544961E+04  0.21429835599E+04  0.27259450830E+04  0.00000000000E+00 0.  1.
         16    1    4    4    0    0 -0.23122113750E+03  0.15999669376E+03  0.36381536068E+03  0.45980840913E+03  0.00000000000E+00 0. -1.
    9900018    1    1    2    0    0  0.46512000985E+03 -0.91680740075E+03  0.37485160827E+03  0.10980443253E+04  0.91187600000E+02 0.  0.
<mgrwt>
<rscale>  0 0.55229020E+04</rscale>
<asrwt>0</asrwt>
<pdfrwt beam="1">  1        2 0.27054282E+00 0.55229020E+04</pdfrwt>
<pdfrwt beam="2">  1       -2 0.66713230E+00 0.55229020E+04</pdfrwt>
<totfact> 0.19019160E-03</totfact>
</mgrwt>
</event>
<event>
13    1  0.1288947E-008  0.5882688E+04  0.7818608E-02  0.7705120E-01
         -2   -1    0    0    0  501 -0.00000000000E+00  0.00000000000E+00  0.33324734314E+04  0.33324734314E+04  0.00000000000E+00 0. -1.
          2   -1    0    0  501    0  0.00000000000E+00 -0.00000000000E+00 -0.25961207942E+04  0.25961207942E+04  0.00000000000E+00 0.  1.
    9900016    2    1    2    0    0 -0.10296459585E+04 -0.13135097253E+04 -0.28763855700E+03  0.25169372610E+04  0.18619233706E+04 0.  0.
         24    2    3    3    0    0 -0.90451822655E+03 -0.45727632636E+03  0.67744873921E+03  0.12207173445E+04  0.62922015320E+02 0.  0.
    9900016    2    1    2    0    0  0.50547634595E+03  0.10627385659E+03  0.41966731970E+03  0.19605557451E+04  0.18441414538E+04 0.  0.
         23    2    5    5    0    0  0.29421755396E+02  0.20283904027E+03 -0.70259980474E+03  0.73767541307E+03  0.92245398134E+02 0.  0.
        -15    1    4    4    0    0 -0.31701594029E+03 -0.13444660773E+03  0.25276488663E+03  0.42715931997E+03  0.00000000000E+00 0.  1.
        -15    1    6    6    0    0 -0.10347038259E+02  0.17582647232E+03 -0.52961861800E+03  0.55813787732E+03  0.00000000000E+00 0.  1.
         15    1    6    6    0    0  0.39768793655E+02  0.27012567952E+02 -0.17298118675E+03  0.17953753575E+03  0.00000000000E+00 0. -1.
         15    1    3    3    0    0 -0.12512773193E+03 -0.85623339897E+03 -0.96508729621E+03  0.12962199166E+04  0.00000000000E+00 0. -1.
        -16    1    5    5    0    0  0.47605459055E+03 -0.96565183686E+02  0.11222671244E+04  0.12228803320E+04  0.00000000000E+00 0.  1.
         16    1    4    4    0    0 -0.58750228626E+03 -0.32282971863E+03  0.42468385258E+03  0.79355802449E+03  0.00000000000E+00 0. -1.
    9900018    1    1    2    0    0  0.52416961254E+03  0.12072358687E+04  0.60432387443E+03  0.14511012194E+04  0.91187600000E+02 0.  0.
<mgrwt>
<rscale>  0 0.58826877E+04</rscale>
<asrwt>0</asrwt>
<pdfrwt beam="1">  1        2 0.39940320E+00 0.58826877E+04</pdfrwt>
<pdfrwt beam="2">  1       -2 0.51268822E+00 0.58826877E+04</pdfrwt>
<totfact> 0.29049222E-03</totfact>
</mgrwt>
</event>
<event>
13    1  0.1288947E-008  0.5478879E+04  0.7818608E-02  0.7758602E-01
          1   -1    0    0  501    0  0.00000000000E+00  0.00000000000E+00  0.37260036647E+04  0.37260036647E+04  0.00000000000E+00 0. -1.
         -1   -1    0    0    0  501 -0.00000000000E+00 -0.00000000000E+00 -0.20140960405E+04  0.20140960405E+04  0.00000000000E+00 0.  1.
    9900016    2    1    2    0    0  0.13567696718E+04  0.10037981067E+03 -0.20247574487E+03  0.22989882106E+04  0.18421320030E+04 0.  0.
         24    2    3    3    0    0  0.11595737836E+04 -0.47425266227E+03  0.51728253313E+03  0.13571067552E+04  0.68048355808E+02 0.  0.
    9900016    2    1    2    0    0 -0.74897351970E+03  0.18522403579E+03  0.82345033487E+03  0.21568078766E+04  0.18380643313E+04 0.  0.
         23    2    5    5    0    0  0.18993300860E+03 -0.38170859671E+03  0.95732934503E+03  0.10518727346E+04  0.90447633233E+02 0.  0.
        -15    1    4    4    0    0  0.28884647826E+03 -0.15019157827E+03  0.13741044322E+03  0.35337151568E+03  0.00000000000E+00 0.  1.
        -15    1    6    6    0    0  0.44824983860E+02 -0.10241905480E+03  0.35621039418E+03  0.37334272041E+03  0.00000000000E+00 0. -1.
         15    1    6    6    0    0  0.14510802474E+03 -0.27928954191E+03  0.60111895085E+03  0.67853001417E+03  0.00000000000E+00 0.  1.
         15    1    3    3    0    0  0.19719588822E+03  0.57463247293E+03 -0.71975827800E+03  0.94188145540E+03  0.00000000000E+00 0. -1.
        -16    1    5    5    0    0 -0.93890652830E+03  0.56693263250E+03 -0.13387901015E+03  0.11049351420E+04  0.00000000000E+00 0.  1.
         16    1    4    4    0    0  0.87072730532E+03 -0.32406108400E+03  0.37987208991E+03  0.10037352395E+04  0.00000000000E+00 0. -1.
    9900018    1    1    2    0    0 -0.60779615211E+03 -0.28560384646E+03  0.10909330343E+04  0.12843036180E+04  0.91187600000E+02 0.  0.
<mgrwt>
<rscale>  0 0.54788792E+04</rscale>
<asrwt>0</asrwt>
<pdfrwt beam="1">  1        1 0.57323133E+00 0.54788792E+04</pdfrwt>
<pdfrwt beam="2">  1       -1 0.30986093E+00 0.54788792E+04</pdfrwt>
<totfact> 0.32475509E-03</totfact>
</mgrwt>
</event>
<event>
13    1  0.1288947E-008  0.4590598E+04  0.7818608E-02  0.7894965E-01
          2   -1    0    0  501    0  0.00000000000E+00  0.00000000000E+00  0.34995534462E+04  0.34995534462E+04  0.00000000000E+00 0.  1.
         -2   -1    0    0    0  501 -0.00000000000E+00 -0.00000000000E+00 -0.15054488162E+04  0.15054488162E+04  0.00000000000E+00 0. -1.
    9900016    2    1    2    0    0 -0.62074874877E+03  0.31232329561E+02  0.11242527520E+04  0.22427908424E+04  0.18384401119E+04 0.  0.
        -24    2    3    3    0    0  0.13360173981E+03  0.18891527572E+03  0.14009855204E+04  0.14239565514E+04  0.10655245537E+03 0.  0.
    9900016    2    1    2    0    0  0.20248873993E+03 -0.11774073731E+02  0.12141638087E+04  0.22124970007E+04  0.18384256593E+04 0.  0.
         23    2    5    5    0    0  0.53546238682E+03  0.24673187638E+03 -0.28066651084E+03  0.65936646524E+03  0.91618003947E+02 0.  0.
        -15    1    6    6    0    0  0.51049187811E+03  0.24811770256E+03 -0.25114431609E+03  0.62067529308E+03  0.00000000000E+00 0. -1.
        -15    1    3    3    0    0 -0.75435048859E+03 -0.15768294616E+03 -0.27673276830E+03  0.81883429105E+03  0.00000000000E+00 0.  1.
         15    1    6    6    0    0  0.24970508714E+02 -0.13858261794E+01 -0.29522194756E+02  0.38691172156E+02  0.00000000000E+00 0.  1.
         15    1    4    4    0    0  0.29200674590E+02  0.12114765470E+02  0.64944929563E+02  0.72230816241E+02  0.00000000000E+00 0. -1.
        -16    1    4    4    0    0  0.10440106522E+03  0.17680051025E+03  0.13360405908E+04  0.13517257352E+04  0.00000000000E+00 0.  1.
         16    1    5    5    0    0 -0.33297364689E+03 -0.25850595011E+03  0.14948303196E+04  0.15531305354E+04  0.00000000000E+00 0. -1.
    9900018    1    1    2    0    0  0.41826000884E+03 -0.19458255831E+02 -0.34431193071E+03  0.54971441926E+03  0.91187600000E+02 0.  0.
<mgrwt>
<rscale>  0 0.45905985E+04</rscale>
<asrwt>0</asrwt>
<pdfrwt beam="1">  1        2 0.53839283E+00 0.45905985E+04</pdfrwt>
<pdfrwt beam="2">  1       -2 0.23160751E+00 0.45905985E+04</pdfrwt>
<totfact> 0.51025059E-02</totfact>
</mgrwt>
</event>
<event>
12    1  0.1288947E-008  0.4750530E+04  0.7818608E-02  0.7868186E-01
         -1   -1    0    0    0  501 -0.00000000000E+00  0.00000000000E+00  0.19527510859E+04  0.19527510859E+04  0.00000000000E+00 0.  1.
          1   -1    0    0  501    0  0.00000000000E+00 -0.00000000000E+00 -0.28891981501E+04  0.28891981501E+04  0.00000000000E+00 0. -1.
    9900016    2    1    2    0    0  0.91334784998E+03  0.89084317166E+03  0.32951789229E+02  0.22420137749E+04  0.18432943593E+04 0.  0.
    9900016    2    1    2    0    0 -0.92528656082E+03 -0.80938239371E+03 -0.72492986526E+03  0.23263323622E+04  0.18371292472E+04 0.  0.
         23    2    4    4    0    0  0.22940285208E+03 -0.25161669545E+03 -0.96004139463E+03  0.10226116691E+04  0.90102809986E+02 0.  0.
        -15    1    5    5    0    0  0.17615633633E+03 -0.21455581887E+03 -0.85707421713E+03  0.90091146508E+03  0.00000000000E+00 0. -1.
        -15    1    3    3    0    0  0.40677946162E+03 -0.14380444218E+03  0.19046360642E+03  0.47162022153E+03  0.00000000000E+00 0.  1.
         15    1    5    5    0    0  0.53246515747E+02 -0.37060876581E+02 -0.10296717750E+03  0.12170020401E+03  0.00000000000E+00 0.  1.
         15    1    3    3    0    0  0.40043608605E+02  0.11621020872E+04 -0.39963289479E+03  0.12295491866E+04  0.00000000000E+00 0. -1.
        -16    1    4    4    0    0 -0.11546894129E+04 -0.55776569826E+03  0.23511152937E+03  0.13037206931E+04  0.00000000000E+00 0.  1.
         16    1    3    3    0    0  0.46652477975E+03 -0.12745447334E+03  0.24212107760E+03  0.54084436681E+03  0.00000000000E+00 0. -1.
    9900018    1    1    2    0    0  0.11938710845E+02 -0.81460777944E+02 -0.24446898812E+03  0.27360309886E+03  0.91187600000E+02 0.  0.
<mgrwt>
<rscale>  0 0.47505304E+04</rscale>
<asrwt>0</asrwt>
<pdfrwt beam="1">  1        1 0.44449202E+00 0.47505304E+04</pdfrwt>
<pdfrwt beam="2">  1       -1 0.30042324E+00 0.47505304E+04</pdfrwt>
<totfact> 0.17380654E-02</totfact>
</mgrwt>
</event>
