<event>
13    1  0.2211901E-011  0.7535663E+04  0.7818608E-02  0.7524581E-01
          2   -1    0    0  501    0  0.00000000000E+00  0.00000000000E+00  0.46022353594E+04  0.46022353594E+04  0.00000000000E+00 0.  1.
         -2   -1    0    0    0  501 -0.00000000000E+00 -0.00000000000E+00 -0.30847080761E+04  0.30847080761E+04  0.00000000000E+00 0. -1.
    9900016    2    1    2    0    0 -0.78021095214E+03 -0.69109173709E+03  0.37863358465E+04  0.44138144762E+04  0.20147163992E+04 0.  0.
        -24    2    3    3    0    0 -0.80564107845E+02 -0.43129003921E+03 -0.96880236053E+02  0.45952948740E+03  0.96332218144E+02 0.  0.
    9900016    2    1    2    0    0  0.78021095214E+03  0.69109173709E+03 -0.22688085632E+04  0.32731289593E+04  0.21164933188E+04 0.  0.
         23    2    5    5    0    0 -0.15913736878E+03 -0.93784676649E+02  0.23080011975E+03  0.31547607786E+03  0.11016438947E+03 0.  0.
        -15    1    3    3    0    0 -0.69964684430E+03 -0.25980169787E+03  0.38832160826E+04  0.39542849888E+04  0.00000000000E+00 0.  1.
        -15    1    6    6    0    0 -0.75778542466E+02 -0.33163548073E+02  0.18507301601E+03  0.20271711737E+03  0.00000000000E+00 0.  1.
         15    1    6    6    0    0 -0.83358826311E+02 -0.60621128576E+02  0.45727103739E+02  0.11275896049E+03  0.00000000000E+00 0. -1.
         15    1    4    4    0    0 -0.54486732843E+02 -0.38853199470E+03 -0.11055584787E+03  0.40761318729E+03  0.00000000000E+00 0. -1.
        -16    1    4    4    0    0 -0.26077375003E+02 -0.42758044517E+02  0.13675611814E+02  0.51916300103E+02  0.00000000000E+00 0.  1.
         16    1    5    5    0    0  0.78946919028E+02  0.52849164488E+03 -0.38518778221E+03  0.65871516021E+03  0.00000000000E+00 0. -1.
    9900018    1    5    5    0    0  0.86040140189E+03  0.25638476885E+03 -0.21144209008E+04  0.22989377212E+04  0.91187600000E+02 0.  0.
<mgrwt>
<rscale>  0 0.75356626E+04</rscale>
<asrwt>0</asrwt>
<pdfrwt beam="1">  1        2 0.70803621E+00 0.75356626E+04</pdfrwt>
<pdfrwt beam="2">  1       -2 0.47457047E+00 0.75356626E+04</pdfrwt>
<totfact> 0.13880176E-04</totfact>
</mgrwt>
</event>
<event>
12    1  0.2211901E-011  0.5425256E+04  0.7818608E-02  0.7766059E-01
          1   -1    0    0  501    0  0.00000000000E+00  0.00000000000E+00  0.17872900905E+04  0.17872900905E+04  0.00000000000E+00 0. -1.
         -1   -1    0    0    0  501 -0.00000000000E+00 -0.00000000000E+00 -0.41170426487E+04  0.41170426487E+04  0.00000000000E+00 0.  1.
    9900016    2    1    2    0    0  0.33197672968E+03  0.37913922158E+03 -0.26388313372E+04  0.33452003909E+04  0.19932334863E+04 0.  0.
        -24    2    3    3    0    0  0.66034258418E+03 -0.31828171781E+03 -0.17237196929E+03  0.76108701983E+03  0.11038920048E+03 0.  0.
    9900016    2    1    2    0    0 -0.12949823127E+03  0.15224226571E+03  0.13268807776E+03  0.19568096066E+04  0.19420479426E+04 0.  0.
        -15    1    5    5    0    0  0.17268780550E+03 -0.38738336033E+03 -0.48526119543E+03  0.64448845902E+03  0.00000000000E+00 0. -1.
        -15    1    3    3    0    0 -0.32836585449E+03  0.69742093939E+03 -0.24664593679E+04  0.25841133711E+04  0.00000000000E+00 0.  1.
         15    1    5    5    0    0  0.11844134784E+03  0.22820368880E+02 -0.21446196091E+03  0.24605498327E+03  0.00000000000E+00 0.  1.
         15    1    4    4    0    0  0.40211805066E+03 -0.22063695471E+03 -0.15621966619E+03  0.48454532972E+03  0.00000000000E+00 0. -1.
        -16    1    4    4    0    0  0.25822453352E+03 -0.97644763101E+02 -0.16152303098E+02  0.27654169010E+03  0.00000000000E+00 0.  1.
         16    1    5    5    0    0 -0.42062738460E+03  0.51680525716E+03  0.83241123410E+03  0.10662661643E+04  0.00000000000E+00 0. -1.
    9900018    1    1    2    0    0 -0.20247849842E+03 -0.53138148729E+03  0.17639070124E+03  0.60232274176E+03  0.91187600000E+02 0.  0.
<mgrwt>
<rscale>  0 0.54252556E+04</rscale>
<asrwt>0</asrwt>
<pdfrwt beam="1">  1        1 0.27496771E+00 0.54252556E+04</pdfrwt>
<pdfrwt beam="2">  1       -1 0.63339117E+00 0.54252556E+04</pdfrwt>
<totfact> 0.98043194E-04</totfact>
</mgrwt>
</event>
<event>
13    1  0.2211901E-011  0.4896359E+04  0.7818608E-02  0.7844697E-01
         -2   -1    0    0    0  501 -0.00000000000E+00  0.00000000000E+00  0.16621375987E+04  0.16621375987E+04  0.00000000000E+00 0.  1.
          2   -1    0    0  501    0  0.00000000000E+00 -0.00000000000E+00 -0.36059479691E+04  0.36059479691E+04  0.00000000000E+00 0. -1.
    9900016    2    1    2    0    0 -0.56905134744E+02 -0.68357469023E+03  0.23329424315E+03  0.21397454929E+04  0.20133484594E+04 0.  0.
        -24    2    3    3    0    0 -0.15464427550E+03 -0.55858049141E+01 -0.84537002391E+03  0.86195894213E+03  0.66156537404E+02 0.  0.
    9900016    2    1    2    0    0  0.59220170527E+01  0.52855396458E+03 -0.17269151051E+04  0.26408808708E+04  0.19268138545E+04 0.  0.
         23    2    5    5    0    0  0.21174191456E+03  0.23040600478E+03  0.37912321475E+03  0.50390837664E+03  0.11075953535E+03 0.  0.
        -15    1    3    3    0    0  0.97739140757E+02 -0.67798888532E+03  0.10786642671E+04  0.12777865508E+04  0.00000000000E+00 0.  1.
        -15    1    6    6    0    0  0.19748826277E+03  0.17404036871E+03  0.25334480677E+03  0.36534265422E+03  0.00000000000E+00 0. -1.
         15    1    4    4    0    0 -0.29589125222E+01  0.14817491893E+02 -0.66722657547E+02  0.68412179175E+02  0.00000000000E+00 0. -1.
         15    1    6    6    0    0  0.14253651793E+02  0.56365636072E+02  0.12577840797E+03  0.13856572243E+03  0.00000000000E+00 0.  1.
        -16    1    4    4    0    0 -0.15168536298E+03 -0.20403296807E+02 -0.77864736636E+03  0.79354676296E+03  0.00000000000E+00 0.  1.
         16    1    5    5    0    0 -0.20581989751E+03  0.29814795980E+03 -0.21060383198E+04  0.21369724942E+04  0.00000000000E+00 0. -1.
    9900018    1    1    2    0    0  0.50983117691E+02  0.15502072565E+03 -0.45018950851E+03  0.48745920408E+03  0.91187600000E+02 0.  0.
<mgrwt>
<rscale>  0 0.48963585E+04</rscale>
<asrwt>0</asrwt>
<pdfrwt beam="1">  1        2 0.55476123E+00 0.48963585E+04</pdfrwt>
<pdfrwt beam="2">  1       -2 0.25571348E+00 0.48963585E+04</pdfrwt>
<totfact> 0.29670625E-02</totfact>
</mgrwt>
</event>
<event>
13    1  0.2211901E-011  0.5387673E+04  0.7818608E-02  0.7771337E-01
          1   -1    0    0  501    0  0.00000000000E+00  0.00000000000E+00  0.24813361377E+04  0.24813361377E+04  0.00000000000E+00 0. -1.
         -1   -1    0    0    0  501 -0.00000000000E+00 -0.00000000000E+00 -0.29245351447E+04  0.29245351447E+04  0.00000000000E+00 0.  1.
    9900016    2    1    2    0    0 -0.56205910100E+03 -0.54842637944E+03 -0.16997999277E+04  0.27564461420E+04  0.20228676706E+04 0.  0.
        -24    2    3    3    0    0 -0.54066662869E+03  0.69917290601E+03 -0.46289713449E+03  0.99949135182E+03  0.59548714095E+02 0.  0.
    9900016    2    1    2    0    0  0.26474264077E+03  0.25922358337E+03  0.88568152347E+03  0.20855708041E+04  0.18514557208E+04 0.  0.
         23    2    5    5    0    0 -0.23634180193E+03 -0.64680156345E+02 -0.50871083901E+03  0.56888714832E+03  0.69317384849E+02 0.  0.
        -15    1    6    6    0    0 -0.18806531906E+03 -0.67376332405E+02 -0.45316838369E+03  0.49524712859E+03  0.00000000000E+00 0.  1.
        -15    1    3    3    0    0 -0.21392472312E+02 -0.12475992855E+04 -0.12369027932E+04  0.17569547902E+04  0.00000000000E+00 0.  1.
         15    1    4    4    0    0 -0.34208970066E+03  0.39493465933E+03 -0.27746572929E+03  0.59159612859E+03  0.00000000000E+00 0. -1.
         15    1    6    6    0    0 -0.48276482871E+02  0.26961760607E+01 -0.55542455311E+02  0.73640019729E+02  0.00000000000E+00 0. -1.
        -16    1    4    4    0    0 -0.19857692803E+03  0.30423824669E+03 -0.18543140520E+03  0.40789522323E+03  0.00000000000E+00 0.  1.
         16    1    5    5    0    0  0.50108444269E+03  0.32390373972E+03  0.13943923625E+04  0.15166836558E+04  0.00000000000E+00 0. -1.
    9900018    1    1    2    0    0  0.29731646024E+03  0.28920279607E+03  0.37091939726E+03  0.56385433619E+03  0.91187600000E+02 0.  0.
<mgrwt>
<rscale>  0 0.53876729E+04</rscale>
<asrwt>0</asrwt>
<pdfrwt beam="1">  1        1 0.38174402E+00 0.53876729E+04</pdfrwt>
<pdfrwt beam="2">  1       -1 0.44992848E+00 0.53876729E+04</pdfrwt>
<totfact> 0.31763179E-03</totfact>
</mgrwt>
</event>
<event>
13    1  0.2211901E-011  0.5847970E+04  0.7818608E-02  0.7709543E-01
         -2   -1    0    0    0  501 -0.00000000000E+00  0.00000000000E+00  0.41249176305E+04  0.41249176305E+04  0.00000000000E+00 0.  1.
          2   -1    0    0  501    0  0.00000000000E+00 -0.00000000000E+00 -0.20726931263E+04  0.20726931263E+04  0.00000000000E+00 0. -1.
    9900016    2    1    2    0    0 -0.19401969794E+04 -0.92764655794E+03  0.95453014993E+03  0.30993994316E+04  0.20174876887E+04 0.  0.
         24    2    3    3    0    0  0.37673713690E+03 -0.25471262677E+03  0.42108240682E+03  0.62845016669E+03  0.10406645053E+03 0.  0.
    9900016    2    1    2    0    0  0.19401969794E+04  0.92764655794E+03  0.10976943542E+04  0.30982113252E+04  0.19414139345E+04 0.  0.
         23    2    5    5    0    0  0.18655932399E+03  0.69977771254E+02 -0.40215717347E+03  0.46284009776E+03  0.11308976119E+03 0.  0.
        -15    1    6    6    0    0  0.27321369567E+02 -0.25170117272E+02 -0.11613539885E+03  0.12193204216E+03  0.00000000000E+00 0. -1.
        -15    1    4    4    0    0  0.25101072150E+03 -0.17257204957E+03  0.21241911997E+03  0.37136151810E+03  0.00000000000E+00 0.  1.
         15    1    3    3    0    0 -0.23169341163E+04 -0.67293393117E+03  0.53344774311E+03  0.24709492649E+04  0.00000000000E+00 0. -1.
         15    1    6    6    0    0  0.15923795442E+03  0.95147888525E+02 -0.28602177461E+03  0.34090805560E+03  0.00000000000E+00 0.  1.
        -16    1    5    5    0    0  0.12446727832E+04  0.25784294580E+03  0.13009715211E+04  0.18188513465E+04  0.00000000000E+00 0.  1.
         16    1    4    4    0    0  0.12572641540E+03 -0.82140577197E+02  0.20866328686E+03  0.25708864859E+03  0.00000000000E+00 0. -1.
    9900018    1    5    5    0    0  0.50896487228E+03  0.59982584089E+03  0.19888000656E+03  0.81651988097E+03  0.91187600000E+02 0.  0.
<mgrwt>
<rscale>  0 0.58479700E+04</rscale>
<asrwt>0</asrwt>
<pdfrwt beam="1">  1        2 0.31887587E+00 0.58479700E+04</pdfrwt>
<pdfrwt beam="2">  1       -2 0.63460271E+00 0.58479700E+04</pdfrwt>
<totfact> 0.16021133E-03</totfact>
</mgrwt>
</event>
<event>
12    1  0.2211901E-011  0.5569680E+04  0.7818608E-02  0.7746173E-01
          2   -1    0    0  501    0  0.00000000000E+00  0.00000000000E+00  0.25415667985E+04  0.25415667985E+04  0.00000000000E+00 0. -1.
         -2   -1    0    0    0  501 -0.00000000000E+00 -0.00000000000E+00 -0.30513983673E+04  0.30513983673E+04  0.00000000000E+00 0.  1.
    9900016    2    1    2    0    0  0.79650584809E+03  0.36126390892E+03 -0.98583051084E+03  0.24108195961E+04  0.20187263685E+04 0.  0.
    9900016    2    1    2    0    0 -0.12251214033E+04 -0.89888611689E+03  0.33269859936E+03  0.24739089572E+04  0.19236991622E+04 0.  0.
         23    2    4    4    0    0  0.38173305937E+03  0.27541452458E+02  0.46869541693E+03  0.61413896076E+03  0.10494097886E+03 0.  0.
        -15    1    5    5    0    0  0.21456635568E+03  0.38504754574E+02  0.19103408341E+03  0.28985402902E+03  0.00000000000E+00 0. -1.
        -15    1    3    3    0    0  0.22518965468E+03 -0.81803188813E+03 -0.16469115625E+03  0.86429724489E+03  0.00000000000E+00 0.  1.
         15    1    3    3    0    0  0.48770963626E+03  0.10200957453E+04 -0.70611809944E+03  0.13330636853E+04  0.00000000000E+00 0. -1.
         15    1    5    5    0    0  0.16716670369E+03 -0.10963302116E+02  0.27766133353E+03  0.32428493174E+03  0.00000000000E+00 0.  1.
        -16    1    3    3    0    0  0.83606557142E+02  0.15920005178E+03 -0.11502125515E+03  0.21345866583E+03  0.00000000000E+00 0.  1.
         16    1    4    4    0    0 -0.16068544627E+04 -0.92642756935E+03 -0.13599681757E+03  0.18597699965E+04  0.00000000000E+00 0. -1.
    9900018    1    1    2    0    0  0.42861555519E+03  0.53762220796E+03  0.14330034272E+03  0.70823661249E+03  0.91187600000E+02 0.  0.
<mgrwt>
<rscale>  0 0.55696796E+04</rscale>
<asrwt>0</asrwt>
<pdfrwt beam="1">  1        2 0.39101028E+00 0.55696796E+04</pdfrwt>
<pdfrwt beam="2">  1       -2 0.46944590E+00 0.55696796E+04</pdfrwt>
<totfact> 0.59602817E-03</totfact>
</mgrwt>
</event>
<event>
11    1  0.2211901E-011  0.6409740E+04  0.7818608E-02  0.7641576E-01
         -1   -1    0    0    0  501 -0.00000000000E+00  0.00000000000E+00  0.32016195912E+04  0.32016195912E+04  0.00000000000E+00 0.  1.
          1   -1    0    0  501    0  0.00000000000E+00 -0.00000000000E+00 -0.32081235219E+04  0.32081235219E+04  0.00000000000E+00 0. -1.
    9900016    2    1    2    0    0  0.23739088050E+04  0.17909928467E+03  0.82960545188E+03  0.32365409644E+04  0.20296385492E+04 0.  0.
    9900016    2    1    2    0    0 -0.23739088050E+04 -0.17909928467E+03 -0.83610938257E+03  0.31732021486E+04  0.19242176094E+04 0.  0.
        -15    1    4    4    0    0 -0.16471012822E+02  0.90350621174E+02 -0.37073554105E+03  0.38194157983E+03  0.00000000000E+00 0. -1.
        -15    1    3    3    0    0  0.21416616124E+04  0.76076384865E+03  0.11236063804E+04  0.25353436440E+04  0.00000000000E+00 0.  1.
         15    1    4    4    0    0 -0.12962912541E+03  0.20826953495E+02 -0.42917738091E+03  0.44881031231E+03  0.00000000000E+00 0.  1.
         15    1    3    3    0    0  0.38367062099E+02 -0.24098113223E+03 -0.98294999682E+02  0.26307003727E+03  0.00000000000E+00 0. -1.
        -16    1    3    3    0    0  0.19388013052E+03 -0.34068343175E+03 -0.19570592879E+03  0.43812728315E+03  0.00000000000E+00 0.  1.
         16    1    4    4    0    0 -0.74044394754E+03 -0.40292894126E+03  0.58800203053E+02  0.84502451742E+03  0.00000000000E+00 0. -1.
    9900018    1    4    4    0    0 -0.14873647192E+04  0.11265208192E+03 -0.94996663666E+02  0.14974257391E+04  0.91187600000E+02 0.  0.
<mgrwt>
<rscale>  0 0.64097398E+04</rscale>
<asrwt>0</asrwt>
<pdfrwt beam="1">  1        1 0.49355747E+00 0.64097398E+04</pdfrwt>
<pdfrwt beam="2">  1       -1 0.49255686E+00 0.64097398E+04</pdfrwt>
<totfact> 0.45687980E-04</totfact>
</mgrwt>
</event>
<event>
13    1  0.2211901E-011  0.5235914E+04  0.7818608E-02  0.7793111E-01
         -4   -1    0    0    0  501 -0.00000000000E+00  0.00000000000E+00  0.32976968157E+04  0.32976968157E+04  0.00000000000E+00 0.  1.
          4   -1    0    0  501    0  0.00000000000E+00 -0.00000000000E+00 -0.20783292965E+04  0.20783292965E+04  0.00000000000E+00 0. -1.
    9900016    2    1    2    0    0  0.10002942495E+03 -0.32971963961E+03 -0.10980543449E+04  0.23280079849E+04  0.20236543448E+04 0.  0.
        -24    2    3    3    0    0  0.10143261411E+04 -0.37315722635E+03 -0.85834456375E+03  0.13818123983E+04  0.67426092508E+02 0.  0.
    9900016    2    1    2    0    0 -0.10002942495E+03  0.32971963961E+03  0.23174218641E+04  0.30480181273E+04  0.19496793278E+04 0.  0.
         23    2    5    5    0    0  0.95779709325E+02 -0.27478546901E+03 -0.10133628103E+03  0.31690686107E+03  0.74027765333E+02 0.  0.
        -15    1    3    3    0    0 -0.91429671611E+03  0.43437586746E+02 -0.23970978113E+03  0.94619558665E+03  0.00000000000E+00 0.  1.
        -15    1    6    6    0    0 -0.78997752158E+01 -0.42464691065E+02 -0.30327173881E+02  0.52776831198E+02  0.00000000000E+00 0.  1.
         15    1    4    4    0    0  0.77316159477E+03 -0.29908289673E+03 -0.68929394231E+03  0.10781259526E+04  0.00000000000E+00 0. -1.
         15    1    6    6    0    0  0.10367948454E+03 -0.23232077795E+03 -0.71009107144E+02  0.26413002987E+03  0.00000000000E+00 0. -1.
        -16    1    4    4    0    0  0.24116454629E+03 -0.74074329621E+02 -0.16905062144E+03  0.30368644571E+03  0.00000000000E+00 0.  1.
         16    1    5    5    0    0  0.83907703142E+02 -0.20698761062E+03  0.12949209809E+04  0.13140413693E+04  0.00000000000E+00 0. -1.
    9900018    1    5    5    0    0 -0.27971683742E+03  0.81149271923E+03  0.11238371642E+04  0.14170698969E+04  0.91187600000E+02 0.  0.
<mgrwt>
<rscale>  0 0.52359144E+04</rscale>
<asrwt>0</asrwt>
<pdfrwt beam="1">  1        4 0.31974297E+00 0.52359144E+04</pdfrwt>
<pdfrwt beam="2">  1       -4 0.50733797E+00 0.52359144E+04</pdfrwt>
<totfact> 0.33498528E-05</totfact>
</mgrwt>
</event>
