<event>
11    1  0.2355167E-012  0.1304806E+04  0.7818608E-02  0.9025763E-01
          1   -1    0    0  501    0  0.00000000000E+00  0.00000000000E+00  0.94870547174E+03  0.94870547174E+03  0.00000000000E+00 0. -1.
         -1   -1    0    0    0  501 -0.00000000000E+00 -0.00000000000E+00 -0.44864251778E+03  0.44864251778E+03  0.00000000000E+00 0.  1.
    9900016    2    1    2    0    0 -0.12126914109E+03  0.28847733051E+03 -0.37009926736E+02  0.77575917529E+03  0.70887741435E+03 0.  0.
         23    2    3    3    0    0  0.62542917530E+02  0.30432523349E+02  0.41545578470E+02  0.11995507777E+03  0.88461463818E+02 0.  0.
        -15    1    4    4    0    0  0.46549643722E+02  0.51565598348E+02 -0.14085333023E+01  0.69482834065E+02  0.00000000000E+00 0. -1.
        -15    1    3    3    0    0  0.28566352991E+02  0.13106554796E+03  0.14190957601E+02  0.13489105850E+03  0.00000000000E+00 0.  1.
         15    1    4    4    0    0  0.15993273807E+02 -0.21133074999E+02  0.42954111773E+02  0.50472243701E+02  0.00000000000E+00 0.  1.
         15    1    3    3    0    0  0.20347769971E+02 -0.68337519270E+01  0.11605986238E+03  0.11802806261E+03  0.00000000000E+00 0. -1.
        -16    1    3    3    0    0 -0.42046620570E+02 -0.26265874980E+02  0.19226054651E+02  0.53173825020E+02  0.00000000000E+00 0.  1.
         16    1    1    2    0    0  0.12126914109E+03 -0.28847733051E+03  0.53707288070E+03  0.62158881423E+03  0.00000000000E+00 0. -1.
    9900018    1    3    3    0    0 -0.19067956101E+03  0.16007888611E+03 -0.22803237984E+03  0.34971115140E+03  0.91187600000E+02 0.  0.
<mgrwt>
<rscale>  0 0.13048059E+04</rscale>
<asrwt>0</asrwt>
<pdfrwt beam="1">  1        1 0.14595469E+00 0.13048059E+04</pdfrwt>
<pdfrwt beam="2">  1       -1 0.69021926E-01 0.13048059E+04</pdfrwt>
<totfact> 0.34662050E+01</totfact>
</mgrwt>
</event>
<event>
11    1  0.2355167E-012  0.8721796E+03  0.7818608E-02  0.9461042E-01
          2   -1    0    0  501    0  0.00000000000E+00  0.00000000000E+00  0.71693470313E+03  0.71693470313E+03  0.00000000000E+00 0. -1.
         -2   -1    0    0    0  501 -0.00000000000E+00 -0.00000000000E+00 -0.26526027121E+03  0.26526027121E+03  0.00000000000E+00 0.  1.
    9900016    2    1    2    0    0 -0.90731747262E+02  0.52201959981E+02  0.26764620661E+03  0.77047893267E+03  0.71487481365E+03 0.  0.
         23    2    3    3    0    0 -0.98824690704E+02  0.15091530236E+03  0.64081035708E+02  0.21223995678E+03  0.91638813494E+02 0.  0.
        -15    1    3    3    0    0 -0.14217446040E+03 -0.10208244885E+01  0.27992086288E+02  0.14490747451E+03  0.00000000000E+00 0.  1.
        -15    1    4    4    0    0 -0.69829005263E+01  0.67000948334E+02 -0.89926338031E+01  0.67961426119E+02  0.00000000000E+00 0.  1.
         15    1    3    3    0    0  0.10991210567E+03 -0.13270735597E+03  0.13195097636E+03  0.21703219453E+03  0.00000000000E+00 0. -1.
         15    1    4    4    0    0 -0.91841790177E+02  0.83914354023E+02  0.73073669511E+02  0.14427853066E+03  0.00000000000E+00 0. -1.
        -16    1    3    3    0    0 -0.19355149926E+02 -0.37898085384E+02  0.49192409626E+02  0.65044445337E+02  0.00000000000E+00 0.  1.
         16    1    1    2    0    0  0.90731747262E+02 -0.52201959981E+02  0.18402822531E+03  0.21171604166E+03  0.00000000000E+00 0. -1.
    9900018    1    3    3    0    0  0.59710448101E+02  0.72912923465E+02 -0.55703013738E+01  0.13125486152E+03  0.91187600000E+02 0.  0.
<mgrwt>
<rscale>  0 0.87217955E+03</rscale>
<asrwt>0</asrwt>
<pdfrwt beam="1">  1        2 0.11029765E+00 0.87217955E+03</pdfrwt>
<pdfrwt beam="2">  1       -2 0.40809273E-01 0.87217955E+03</pdfrwt>
<totfact> 0.22678798E+02</totfact>
</mgrwt>
</event>
<event>
11    1  0.2355167E-012  0.8231550E+03  0.7818608E-02  0.9527093E-01
          1   -1    0    0  501    0  0.00000000000E+00  0.00000000000E+00  0.15962711192E+04  0.15962711192E+04  0.00000000000E+00 0. -1.
         -1   -1    0    0    0  501 -0.00000000000E+00 -0.00000000000E+00 -0.10611982999E+03  0.10611982999E+03  0.00000000000E+00 0.  1.
    9900016    2    1    2    0    0  0.14375251846E+02 -0.48546147816E+02  0.14911833667E+04  0.16517506341E+04  0.70858235077E+03 0.  0.
         23    2    3    3    0    0 -0.19811849824E+01 -0.87236980988E+02  0.30924325972E+03  0.33307943650E+03  0.87728566560E+02 0.  0.
        -15    1    3    3    0    0 -0.41495187755E+02  0.12516807049E+03  0.48045058039E+03  0.49821848287E+03  0.00000000000E+00 0.  1.
        -15    1    4    4    0    0 -0.11491661927E+02 -0.45298595903E+02  0.27261393760E+03  0.27659063624E+03  0.00000000000E+00 0. -1.
         15    1    3    3    0    0  0.10903643680E+03  0.11022635255E+01  0.83339485300E+02  0.13724295736E+03  0.00000000000E+00 0. -1.
         15    1    4    4    0    0  0.95104769443E+01 -0.41938385086E+02  0.36629322121E+02  0.56488800256E+02  0.00000000000E+00 0.  1.
        -16    1    1    2    0    0 -0.14375251846E+02  0.48546147816E+02 -0.10320774240E+01  0.50640315137E+02  0.00000000000E+00 0.  1.
         16    1    3    3    0    0 -0.15251701430E+02  0.88308108005E+02  0.18829253972E+03  0.20853061370E+03  0.00000000000E+00 0. -1.
    9900018    1    3    3    0    0 -0.35933110784E+02 -0.17588760884E+03  0.42985750154E+03  0.47467914365E+03  0.91187600000E+02 0.  0.
<mgrwt>
<rscale>  0 0.82315495E+03</rscale>
<asrwt>0</asrwt>
<pdfrwt beam="1">  1        1 0.24558015E+00 0.82315495E+03</pdfrwt>
<pdfrwt beam="2">  1       -1 0.16326129E-01 0.82315495E+03</pdfrwt>
<totfact> 0.16319854E+02</totfact>
</mgrwt>
</event>
<event>
11    1  0.2626436E-012  0.1215300E+04  0.7818608E-02  0.9099569E-01
         -2   -1    0    0    0  501 -0.00000000000E+00  0.00000000000E+00  0.55328202981E+03  0.55328202981E+03  0.00000000000E+00 0.  1.
          2   -1    0    0  501    0  0.00000000000E+00 -0.00000000000E+00 -0.66736079662E+03  0.66736079662E+03  0.00000000000E+00 0. -1.
    9900016    2    1    2    0    0 -0.10421560665E+01 -0.25751937492E+03  0.23156878111E+03  0.78960971641E+03  0.70960699638E+03 0.  0.
         23    2    3    3    0    0  0.68719221812E+02 -0.50307239152E+02  0.80139506720E+00  0.12392182173E+03  0.90015698132E+02 0.  0.
        -15    1    4    4    0    0  0.17769571229E+01  0.12960754214E+02  0.25411854531E+02  0.28581481367E+02  0.00000000000E+00 0.  1.
        -15    1    3    3    0    0  0.96675640643E+01 -0.89718935818E+02  0.10763501767E+03  0.14045727559E+03  0.00000000000E+00 0.  1.
         15    1    3    3    0    0 -0.23967638625E+02  0.91745642861E+01 -0.92075567656E+02  0.95585200163E+02  0.00000000000E+00 0. -1.
         15    1    4    4    0    0  0.66942264689E+02 -0.63267993367E+02 -0.24610459463E+02  0.95340340367E+02  0.00000000000E+00 0. -1.
        -16    1    3    3    0    0 -0.13169075037E+03  0.12489585587E+02 -0.17678801547E+02  0.13345779672E+03  0.00000000000E+00 0.  1.
         16    1    1    2    0    0  0.10421560665E+01  0.25751937492E+03 -0.34564754792E+03  0.43103311002E+03  0.00000000000E+00 0. -1.
    9900018    1    3    3    0    0  0.76229447053E+02 -0.13915734982E+03  0.23288673759E+03  0.29618762220E+03  0.91187600000E+02 0.  0.
<mgrwt>
<rscale>  0 0.12153004E+04</rscale>
<asrwt>0</asrwt>
<pdfrwt beam="1">  1        2 0.10267089E+00 0.12153004E+04</pdfrwt>
<pdfrwt beam="2">  1       -2 0.85120312E-01 0.12153004E+04</pdfrwt>
<totfact> 0.51539191E+01</totfact>
</mgrwt>
</event>
<event>
11    1  0.2355167E-012  0.1731765E+04  0.7818608E-02  0.8743452E-01
         -1   -1    0    0    0  501 -0.00000000000E+00  0.00000000000E+00  0.37929086273E+03  0.37929086273E+03  0.00000000000E+00 0.  1.
          1   -1    0    0  501    0  0.00000000000E+00 -0.00000000000E+00 -0.19767227513E+04  0.19767227513E+04  0.00000000000E+00 0. -1.
    9900016    2    1    2    0    0  0.53633489353E+03 -0.37230995724E+03 -0.13518195243E+04  0.16584498135E+04  0.70481907989E+03 0.  0.
         23    2    3    3    0    0  0.27531463678E+03 -0.46197492280E+02 -0.54524070510E+03  0.61903754179E+03  0.89373900730E+02 0.  0.
        -15    1    3    3    0    0  0.80347701095E+02 -0.75073878444E+02 -0.32748050240E+03  0.34544944601E+03  0.00000000000E+00 0.  1.
        -15    1    4    4    0    0  0.15838825801E+03 -0.65553310422E+02 -0.36604822577E+03  0.40419720481E+03  0.00000000000E+00 0. -1.
         15    1    4    4    0    0  0.11692637877E+03  0.19355818143E+02 -0.17919247932E+03  0.21484033698E+03  0.00000000000E+00 0.  1.
         15    1    3    3    0    0  0.17173900585E+03 -0.12590826935E+03 -0.23703484083E+03  0.31864195296E+03  0.00000000000E+00 0. -1.
        -16    1    1    2    0    0 -0.53633489353E+03  0.37230995724E+03 -0.24561236423E+03  0.69756380048E+03  0.00000000000E+00 0.  1.
         16    1    3    3    0    0 -0.85299599154E+01 -0.22983674225E+00 -0.21761655028E+03  0.21778378268E+03  0.00000000000E+00 0. -1.
    9900018    1    3    3    0    0  0.17463509719E+02 -0.12490048042E+03 -0.24446925703E+02  0.15753709008E+03  0.91187600000E+02 0.  0.
<mgrwt>
<rscale>  0 0.17317654E+04</rscale>
<asrwt>0</asrwt>
<pdfrwt beam="1">  1        1 0.30411120E+00 0.17317654E+04</pdfrwt>
<pdfrwt beam="2">  1       -1 0.58352440E-01 0.17317654E+04</pdfrwt>
<totfact> 0.87299561E+00</totfact>
</mgrwt>
</event>
<event>
11    1  0.2355167E-012  0.8320999E+03  0.7818608E-02  0.9514682E-01
          1   -1    0    0  501    0  0.00000000000E+00  0.00000000000E+00  0.54305079332E+03  0.54305079332E+03  0.00000000000E+00 0. -1.
         -1   -1    0    0    0  501 -0.00000000000E+00 -0.00000000000E+00 -0.31875018796E+03  0.31875018796E+03  0.00000000000E+00 0.  1.
    9900016    2    1    2    0    0 -0.72840921888E+02 -0.12326901121E+02  0.27512405609E+03  0.77213060972E+03  0.71765916690E+03 0.  0.
         23    2    3    3    0    0 -0.61671121104E+02  0.47096583867E+02  0.15112280337E+00  0.11960405548E+03  0.91014789227E+02 0.  0.
        -15    1    3    3    0    0  0.25789404623E+02  0.19289859517E+03 -0.53185817676E+02  0.20175156161E+03  0.00000000000E+00 0.  1.
        -15    1    4    4    0    0 -0.62952077014E+02  0.11687917014E+02  0.32342020028E+02  0.71732681979E+02  0.00000000000E+00 0. -1.
         15    1    3    3    0    0 -0.20191927979E+01 -0.82041727139E+02  0.52713176007E+02  0.97537690439E+02  0.00000000000E+00 0. -1.
         15    1    4    4    0    0  0.12809559093E+01  0.35408666852E+02 -0.32190897225E+02  0.47871373496E+02  0.00000000000E+00 0.  1.
        -16    1    1    2    0    0  0.72840921888E+02  0.12326901121E+02 -0.50823450722E+02  0.89670371562E+02  0.00000000000E+00 0.  1.
         16    1    3    3    0    0 -0.13995182269E+02 -0.65046728109E+01 -0.41386431292E+01  0.15978243397E+02  0.00000000000E+00 0. -1.
    9900018    1    3    3    0    0 -0.20944830340E+02 -0.16377568021E+03  0.27958421808E+03  0.33725905880E+03  0.91187600000E+02 0.  0.
<mgrwt>
<rscale>  0 0.83209986E+03</rscale>
<asrwt>0</asrwt>
<pdfrwt beam="1">  1        1 0.83546276E-01 0.83209986E+03</pdfrwt>
<pdfrwt beam="2">  1       -1 0.49038491E-01 0.83209986E+03</pdfrwt>
<totfact> 0.16619302E+02</totfact>
</mgrwt>
</event>
<event>
11    1  0.2355167E-012  0.8014650E+03  0.7818608E-02  0.9557899E-01
         -1   -1    0    0    0  501 -0.00000000000E+00  0.00000000000E+00  0.18656748284E+03  0.18656748284E+03  0.00000000000E+00 0.  1.
          1   -1    0    0  501    0  0.00000000000E+00 -0.00000000000E+00 -0.86074241193E+03  0.86074241193E+03  0.00000000000E+00 0. -1.
    9900016    2    1    2    0    0  0.29426032755E+02  0.36353495309E+02 -0.49966035331E+03  0.86663669480E+03  0.70654881224E+03 0.  0.
         23    2    3    3    0    0  0.53283712351E+02 -0.24860625075E+02 -0.12578702876E+03  0.16684457024E+03  0.92506915059E+02 0.  0.
        -15    1    4    4    0    0  0.71958981851E+02 -0.38471545836E+02 -0.74081479930E+02  0.11020989328E+03  0.00000000000E+00 0.  1.
        -15    1    3    3    0    0  0.50380023074E+02  0.63827519374E+02  0.14891491932E+01  0.81328448403E+02  0.00000000000E+00 0.  1.
         15    1    4    4    0    0 -0.18675269500E+02  0.13610920761E+02 -0.51705548828E+02  0.56634676960E+02  0.00000000000E+00 0. -1.
         15    1    3    3    0    0 -0.68374656148E+02 -0.54661288221E+02 -0.92664826124E+02  0.12747438972E+03  0.00000000000E+00 0. -1.
        -16    1    3    3    0    0  0.68968139743E+02 -0.11114091201E+03 -0.25650992363E+03  0.28793445008E+03  0.00000000000E+00 0.  1.
         16    1    1    2    0    0 -0.29426032755E+02 -0.36353495309E+02 -0.17451457578E+03  0.18067319996E+03  0.00000000000E+00 0. -1.
    9900018    1    3    3    0    0 -0.74831186265E+02  0.16318880124E+03 -0.26187723999E+02  0.20305483637E+03  0.91187600000E+02 0.  0.
<mgrwt>
<rscale>  0 0.80146502E+03</rscale>
<asrwt>0</asrwt>
<pdfrwt beam="1">  1        1 0.13242191E+00 0.80146502E+03</pdfrwt>
<pdfrwt beam="2">  1       -1 0.28702690E-01 0.80146502E+03</pdfrwt>
<totfact> 0.21834481E+02</totfact>
</mgrwt>
</event>
<event>
11    1  0.2355167E-012  0.9209498E+03  0.7818608E-02  0.9399765E-01
          2   -1    0    0  501    0  0.00000000000E+00  0.00000000000E+00  0.47127503780E+03  0.47127503780E+03  0.00000000000E+00 0. -1.
         -2   -1    0    0    0  501 -0.00000000000E+00 -0.00000000000E+00 -0.44992230900E+03  0.44992230900E+03  0.00000000000E+00 0.  1.
    9900016    2    1    2    0    0 -0.28309005554E+02 -0.15741927706E+03 -0.99999284828E+02  0.72042747905E+03  0.69529394290E+03 0.  0.
         23    2    3    3    0    0 -0.10563355431E+03  0.96404245444E+01 -0.85254157870E+01  0.13763041747E+03  0.87281518758E+02 0.  0.
        -15    1    4    4    0    0 -0.33983853949E+02 -0.60473077684E+01  0.37555891466E+02  0.51008991799E+02  0.00000000000E+00 0.  1.
        -15    1    3    3    0    0  0.35196730556E+02 -0.84876641655E+01  0.71568716839E+01  0.36906247399E+02  0.00000000000E+00 0. -1.
         15    1    3    3    0    0  0.16645292975E+03 -0.15216499603E+02 -0.69341307208E+02  0.18095948875E+03  0.00000000000E+00 0.  1.
         15    1    4    4    0    0 -0.71649700366E+02  0.15687732313E+02 -0.46081307253E+02  0.86621425674E+02  0.00000000000E+00 0. -1.
        -16    1    1    2    0    0  0.28309005554E+02  0.15741927706E+03  0.12135201362E+03  0.20076986775E+03  0.00000000000E+00 0.  1.
         16    1    3    3    0    0 -0.16720218088E+02 -0.14415388926E+03  0.97859644214E+02  0.17503262395E+03  0.00000000000E+00 0. -1.
    9900018    1    3    3    0    0 -0.10760489346E+03  0.79835142755E+00 -0.12714907773E+03  0.18989870148E+03  0.91187600000E+02 0.  0.
<mgrwt>
<rscale>  0 0.92094984E+03</rscale>
<asrwt>0</asrwt>
<pdfrwt beam="1">  1        2 0.72503852E-01 0.92094984E+03</pdfrwt>
<pdfrwt beam="2">  1       -2 0.69218817E-01 0.92094984E+03</pdfrwt>
<totfact> 0.12602976E+02</totfact>
</mgrwt>
</event>
<event>
11    1  0.2355167E-012  0.1814543E+04  0.7818608E-02  0.8698604E-01
         -2   -1    0    0    0  501 -0.00000000000E+00  0.00000000000E+00  0.31589060749E+03  0.31589060749E+03  0.00000000000E+00 0.  1.
          2   -1    0    0  501    0  0.00000000000E+00 -0.00000000000E+00 -0.26057807560E+04  0.26057807560E+04  0.00000000000E+00 0. -1.
    9900016    2    1    2    0    0 -0.14665243048E+03 -0.57729670641E+03 -0.21007474614E+04  0.22967286632E+04  0.71207038494E+03 0.  0.
         23    2    3    3    0    0 -0.15337139148E+03  0.27332402868E+02 -0.22844249539E+03  0.29092870052E+03  0.90463755841E+02 0.  0.
        -15    1    4    4    0    0 -0.17975515913E+02  0.32311322249E+02 -0.89620659211E+02  0.96948456796E+02  0.00000000000E+00 0. -1.
        -15    1    3    3    0    0 -0.84468768003E+02 -0.17146774779E+03 -0.29923022904E+03  0.35507026244E+03  0.00000000000E+00 0.  1.
         15    1    3    3    0    0  0.73905720921E+01 -0.20330910281E+03 -0.67125778573E+03  0.70141017011E+03  0.00000000000E+00 0. -1.
         15    1    4    4    0    0 -0.13539587556E+03 -0.49789193810E+01 -0.13882183617E+03  0.19398024373E+03  0.00000000000E+00 0.  1.
        -16    1    1    2    0    0  0.14665243048E+03  0.57729670641E+03 -0.18914268714E+03  0.62494270033E+03  0.00000000000E+00 0.  1.
         16    1    3    3    0    0 -0.31848253459E+02 -0.19655956533E+02 -0.16136746971E+03  0.16565062076E+03  0.00000000000E+00 0. -1.
    9900018    1    3    3    0    0  0.11564541036E+03 -0.21019630216E+03 -0.74044948151E+03  0.78366890933E+03  0.91187600000E+02 0.  0.
<mgrwt>
<rscale>  0 0.18145431E+04</rscale>
<asrwt>0</asrwt>
<pdfrwt beam="1">  1        2 0.40088932E+00 0.18145431E+04</pdfrwt>
<pdfrwt beam="2">  1       -2 0.48598558E-01 0.18145431E+04</pdfrwt>
<totfact> 0.11435237E+01</totfact>
</mgrwt>
</event>
<event>
11    1  0.2355167E-012  0.8752481E+03  0.7818608E-02  0.9457063E-01
          1   -1    0    0  501    0  0.00000000000E+00  0.00000000000E+00  0.18053912511E+04  0.18053912511E+04  0.00000000000E+00 0. -1.
         -1   -1    0    0    0  501 -0.00000000000E+00 -0.00000000000E+00 -0.10607938853E+03  0.10607938853E+03  0.00000000000E+00 0.  1.
    9900016    2    1    2    0    0 -0.89343494403E+02  0.11339003066E+03  0.13402889453E+04  0.15245119672E+04  0.71198505757E+03 0.  0.
         23    2    3    3    0    0 -0.22784601651E+02  0.19019178006E+03  0.51419658488E+03  0.55752587474E+03  0.98716370617E+02 0.  0.
        -15    1    3    3    0    0  0.98446872332E+02 -0.34395684999E+02  0.34180128241E+03  0.35735551832E+03  0.00000000000E+00 0.  1.
        -15    1    4    4    0    0  0.22603839830E+02  0.13782715086E+03  0.27415994294E+03  0.30768641731E+03  0.00000000000E+00 0.  1.
         15    1    3    3    0    0 -0.41184950096E+02  0.70733005277E+02  0.17448989991E+02  0.83688860678E+02  0.00000000000E+00 0. -1.
         15    1    4    4    0    0 -0.45388441481E+02  0.52364629202E+02  0.24003664194E+03  0.24983945742E+03  0.00000000000E+00 0. -1.
        -16    1    1    2    0    0  0.89343494403E+02 -0.11339003066E+03  0.35902291733E+03  0.38695867249E+03  0.00000000000E+00 0.  1.
         16    1    3    3    0    0  0.12028741861E+02 -0.63075246790E+02  0.18931188698E+03  0.19990539748E+03  0.00000000000E+00 0. -1.
    9900018    1    3    3    0    0 -0.13584955685E+03 -0.50063822885E+02  0.27753020100E+03  0.32603631595E+03  0.91187600000E+02 0.  0.
<mgrwt>
<rscale>  0 0.87524808E+03</rscale>
<asrwt>0</asrwt>
<pdfrwt beam="1">  1        1 0.27775248E+00 0.87524808E+03</pdfrwt>
<pdfrwt beam="2">  1       -1 0.16319907E-01 0.87524808E+03</pdfrwt>
<totfact> 0.11748003E+02</totfact>
</mgrwt>
</event>
<event>
11    1  0.2355167E-012  0.1417586E+04  0.7818608E-02  0.8941186E-01
          1   -1    0    0  501    0  0.00000000000E+00  0.00000000000E+00  0.74453747624E+03  0.74453747624E+03  0.00000000000E+00 0. -1.
         -1   -1    0    0    0  501 -0.00000000000E+00 -0.00000000000E+00 -0.67476457094E+03  0.67476457094E+03  0.00000000000E+00 0.  1.
    9900016    2    1    2    0    0 -0.10607482555E+03 -0.31640085689E+03  0.45491582718E+03  0.90969784672E+03  0.71361081245E+03 0.  0.
         23    2    3    3    0    0 -0.11490487794E+03 -0.40796915803E+03  0.18957453892E+03  0.47306902460E+03  0.90630190055E+02 0.  0.
        -15    1    4    4    0    0 -0.57469419935E+02 -0.31268971306E+03  0.16856856000E+03  0.35985128915E+03  0.00000000000E+00 0.  1.
        -15    1    3    3    0    0  0.12506051428E+02 -0.79164549582E+02  0.77165796042E+02  0.11125640346E+03  0.00000000000E+00 0. -1.
         15    1    3    3    0    0  0.66257737142E+02  0.51766885774E+02  0.44672810359E+02  0.95213224813E+02  0.00000000000E+00 0.  1.
         15    1    4    4    0    0 -0.57435458001E+02 -0.95279444972E+02  0.21005978916E+02  0.11321773545E+03  0.00000000000E+00 0. -1.
        -16    1    1    2    0    0  0.10607482555E+03  0.31640085689E+03 -0.38514292187E+03  0.50960420046E+03  0.00000000000E+00 0.  1.
         16    1    3    3    0    0 -0.89800063498E+00  0.42167235327E+02  0.33034891178E+02  0.53574118522E+02  0.00000000000E+00 0. -1.
    9900018    1    3    3    0    0 -0.69035735547E+02  0.76798729623E+02  0.11046779068E+03  0.17658507532E+03  0.91187600000E+02 0.  0.
<mgrwt>
<rscale>  0 0.14175860E+04</rscale>
<asrwt>0</asrwt>
<pdfrwt beam="1">  1        1 0.11454423E+00 0.14175860E+04</pdfrwt>
<pdfrwt beam="2">  1       -1 0.10380993E+00 0.14175860E+04</pdfrwt>
<totfact> 0.21098359E+01</totfact>
</mgrwt>
</event>
<event>
11    1  0.2355167E-012  0.8233019E+03  0.7818608E-02  0.9526888E-01
          2   -1    0    0  501    0  0.00000000000E+00  0.00000000000E+00  0.18943987582E+04  0.18943987582E+04  0.00000000000E+00 0. -1.
         -2   -1    0    0    0  501 -0.00000000000E+00 -0.00000000000E+00 -0.89451342802E+02  0.89451342802E+02  0.00000000000E+00 0.  1.
    9900016    2    1    2    0    0  0.87130686619E+02  0.53031087756E+01  0.15535214327E+04  0.17177018260E+04  0.72763372769E+03 0.  0.
         23    2    3    3    0    0 -0.69128849919E+02  0.86938422053E+02  0.41953328142E+03  0.44320877267E+03  0.89937505135E+02 0.  0.
        -15    1    3    3    0    0  0.17154187765E+03  0.44725776379E+01  0.79513773403E+02  0.18912709986E+03  0.00000000000E+00 0.  1.
        -15    1    4    4    0    0 -0.49019971872E+02  0.10193744927E+03  0.29019446571E+03  0.31145951444E+03  0.00000000000E+00 0.  1.
         15    1    3    3    0    0 -0.95559973640E+02 -0.21291319136E+02  0.31675029404E+03  0.33153548469E+03  0.00000000000E+00 0. -1.
         15    1    4    4    0    0 -0.20108878046E+02 -0.14999027222E+02  0.12933881571E+03  0.13174925823E+03  0.00000000000E+00 0. -1.
        -16    1    1    2    0    0 -0.87130686619E+02 -0.53031087756E+01  0.25142598274E+03  0.26614827505E+03  0.00000000000E+00 0.  1.
         16    1    3    3    0    0  0.37317302473E+02 -0.24948924957E+02  0.16848598672E+03  0.17436329213E+03  0.00000000000E+00 0. -1.
    9900018    1    3    3    0    0  0.42960330052E+02 -0.39867646822E+02  0.56923809712E+03  0.57946717666E+03  0.91187600000E+02 0.  0.
<mgrwt>
<rscale>  0 0.82330192E+03</rscale>
<asrwt>0</asrwt>
<pdfrwt beam="1">  1        2 0.29144593E+00 0.82330192E+03</pdfrwt>
<pdfrwt beam="2">  1       -2 0.13761746E-01 0.82330192E+03</pdfrwt>
<totfact> 0.31465574E+02</totfact>
</mgrwt>
</event>
<event>
11    1  0.2355167E-012  0.1432940E+04  0.7818608E-02  0.8930314E-01
         -2   -1    0    0    0  501 -0.00000000000E+00  0.00000000000E+00  0.60029852381E+03  0.60029852381E+03  0.00000000000E+00 0.  1.
          2   -1    0    0  501    0  0.00000000000E+00 -0.00000000000E+00 -0.85512296460E+03  0.85512296460E+03  0.00000000000E+00 0. -1.
    9900016    2    1    2    0    0  0.30468070076E+03  0.29319091776E+03  0.17138581048E+03  0.85504958536E+03  0.72314967587E+03 0.  0.
         23    2    3    3    0    0  0.24772516081E+02  0.40851068427E+03  0.12188174260E+03  0.43618592053E+03  0.88928855703E+02 0.  0.
        -15    1    4    4    0    0 -0.20153387669E+02  0.29477793528E+03  0.10020193470E+03  0.31199457989E+03  0.00000000000E+00 0.  1.
        -15    1    3    3    0    0  0.10492301339E+03 -0.11355067184E+03  0.21653162490E+02  0.15611359089E+03  0.00000000000E+00 0.  1.
         15    1    3    3    0    0 -0.25537262815E+02  0.22102606647E+02  0.11848460651E+02  0.35791940887E+02  0.00000000000E+00 0. -1.
         15    1    4    4    0    0  0.44925903750E+02  0.11373274899E+03  0.21679807901E+02  0.12419134064E+03  0.00000000000E+00 0. -1.
        -16    1    3    3    0    0  0.37681159980E+02 -0.11190602398E+02  0.16185526009E+01  0.39341061399E+02  0.00000000000E+00 0.  1.
         16    1    1    2    0    0 -0.30468070076E+03 -0.29319091776E+03 -0.42621025128E+03  0.60037190305E+03  0.00000000000E+00 0. -1.
    9900018    1    3    3    0    0  0.16284127413E+03 -0.12681098915E+02  0.14383892141E+02  0.18761707166E+03  0.91187600000E+02 0.  0.
<mgrwt>
<rscale>  0 0.14329397E+04</rscale>
<asrwt>0</asrwt>
<pdfrwt beam="1">  1        2 0.13155738E+00 0.14329397E+04</pdfrwt>
<pdfrwt beam="2">  1       -2 0.92353619E-01 0.14329397E+04</pdfrwt>
<totfact> 0.30435371E+01</totfact>
</mgrwt>
</event>
<event>
11    1  0.2355167E-012  0.1000639E+04  0.7818608E-02  0.9307844E-01
         -1   -1    0    0    0  501 -0.00000000000E+00  0.00000000000E+00  0.10802356246E+04  0.10802356246E+04  0.00000000000E+00 0.  1.
          1   -1    0    0  501    0  0.00000000000E+00 -0.00000000000E+00 -0.23172700427E+03  0.23172700427E+03  0.00000000000E+00 0. -1.
    9900016    2    1    2    0    0 -0.20149334779E+03 -0.93457259418E+02  0.78119729570E+03  0.10798750528E+04  0.71170716334E+03 0.  0.
         23    2    3    3    0    0 -0.66067977186E+01  0.12690486040E+02  0.21822780838E+03  0.23638517040E+03  0.89721091285E+02 0.  0.
        -15    1    4    4    0    0 -0.75657434279E+01 -0.31866326363E+02  0.15857790836E+03  0.16192484753E+03  0.00000000000E+00 0.  1.
        -15    1    3    3    0    0 -0.10162525535E+03  0.64424450116E+02  0.20051348325E+03  0.23384580232E+03  0.00000000000E+00 0.  1.
         15    1    4    4    0    0  0.95894570925E+00  0.44556812402E+02  0.59649900019E+02  0.74460322861E+02  0.00000000000E+00 0. -1.
         15    1    3    3    0    0 -0.83001099355E+02 -0.16772131854E+03  0.64652993556E+02  0.19798897131E+03  0.00000000000E+00 0. -1.
        -16    1    1    2    0    0  0.20149334779E+03  0.93457259418E+02  0.67311324642E+02  0.23208757607E+03  0.00000000000E+00 0.  1.
         16    1    3    3    0    0 -0.88694206966E+02  0.67798216565E+02  0.23190950390E+03  0.25738158154E+03  0.00000000000E+00 0. -1.
    9900018    1    3    3    0    0  0.78434011599E+02 -0.70649093602E+02  0.65893506627E+02  0.15427352726E+03  0.91187600000E+02 0.  0.
<mgrwt>
<rscale>  0 0.10006393E+04</rscale>
<asrwt>0</asrwt>
<pdfrwt beam="1">  1        1 0.35650309E-01 0.10006393E+04</pdfrwt>
<pdfrwt beam="2">  1       -1 0.16619009E+00 0.10006393E+04</pdfrwt>
<totfact> 0.32338219E+01</totfact>
</mgrwt>
</event>
<event>
11    1  0.2355167E-012  0.1729201E+04  0.7818608E-02  0.8744883E-01
         -1   -1    0    0    0  501 -0.00000000000E+00  0.00000000000E+00  0.93425770621E+03  0.93425770621E+03  0.00000000000E+00 0.  1.
          1   -1    0    0  501    0  0.00000000000E+00 -0.00000000000E+00 -0.80013646943E+03  0.80013646943E+03  0.00000000000E+00 0. -1.
    9900016    2    1    2    0    0  0.28668458196E+03 -0.51718090416E+03 -0.30839470444E+03  0.99582495384E+03  0.73952410902E+03 0.  0.
         23    2    3    3    0    0  0.61507785248E+02 -0.13211049251E+02 -0.56906229894E+02  0.12500487429E+03  0.91815903457E+02 0.  0.
        -15    1    4    4    0    0  0.54219767076E+02  0.31339208394E+02 -0.48209890570E+02  0.79032415333E+02  0.00000000000E+00 0. -1.
        -15    1    3    3    0    0  0.14978586682E+03  0.60438932387E+02  0.43587776612E+02  0.16729783238E+03  0.00000000000E+00 0.  1.
         15    1    4    4    0    0  0.72880181721E+01 -0.44550257645E+02 -0.86963393237E+01  0.45972458959E+02  0.00000000000E+00 0.  1.
         15    1    3    3    0    0 -0.16963250703E+02 -0.21571219233E+03 -0.12367444587E+03  0.24922855044E+03  0.00000000000E+00 0. -1.
        -16    1    1    2    0    0 -0.28668458196E+03  0.51718090416E+03  0.44251594122E+03  0.73856922180E+03  0.00000000000E+00 0.  1.
         16    1    3    3    0    0  0.29372249664E+02 -0.51790915093E+02  0.41437738330E+02  0.72540430757E+02  0.00000000000E+00 0. -1.
    9900018    1    3    3    0    0  0.62981930921E+02 -0.29690567987E+03 -0.21283954362E+03  0.38175326597E+03  0.91187600000E+02 0.  0.
<mgrwt>
<rscale>  0 0.17292006E+04</rscale>
<asrwt>0</asrwt>
<pdfrwt beam="1">  1        1 0.12309792E+00 0.17292006E+04</pdfrwt>
<pdfrwt beam="2">  1       -1 0.14373196E+00 0.17292006E+04</pdfrwt>
<totfact> 0.82070499E+00</totfact>
</mgrwt>
</event>
<event>
11    1  0.2355167E-012  0.9804844E+03  0.7818608E-02  0.9330212E-01
         -2   -1    0    0    0  501 -0.00000000000E+00  0.00000000000E+00  0.30752790963E+03  0.30752790963E+03  0.00000000000E+00 0.  1.
          2   -1    0    0  501    0  0.00000000000E+00 -0.00000000000E+00 -0.78151408582E+03  0.78151408582E+03  0.00000000000E+00 0. -1.
    9900016    2    1    2    0    0  0.19584959396E+03  0.52763024344E+02 -0.45209304321E+03  0.88503143331E+03  0.73331542874E+03 0.  0.
         23    2    3    3    0    0 -0.61055085690E+02 -0.72006107116E+02 -0.93045100567E+01  0.13182936511E+03  0.91541272914E+02 0.  0.
        -15    1    3    3    0    0 -0.18041214519E+02  0.14960423490E+02  0.77752691373E+02  0.81208255172E+02  0.00000000000E+00 0.  1.
        -15    1    4    4    0    0 -0.45747410558E+02 -0.87548396123E+02  0.14160842760E+02  0.99790163364E+02  0.00000000000E+00 0.  1.
         15    1    4    4    0    0 -0.15307675132E+02  0.15542289007E+02 -0.23465352817E+02  0.32039201743E+02  0.00000000000E+00 0. -1.
         15    1    3    3    0    0  0.14175523881E+03  0.43918309058E+02 -0.28564503106E+03  0.32189509063E+03  0.00000000000E+00 0. -1.
        -16    1    1    2    0    0 -0.19584959396E+03 -0.52763024344E+02 -0.21893132971E+02  0.20401056214E+03  0.00000000000E+00 0.  1.
         16    1    3    3    0    0  0.82816866681E+02 -0.49344044423E+02 -0.49969824838E+02  0.10858384558E+03  0.00000000000E+00 0. -1.
    9900018    1    3    3    0    0  0.50373788681E+02  0.11523444334E+03 -0.18492636863E+03  0.24151487682E+03  0.91187600000E+02 0.  0.
<mgrwt>
<rscale>  0 0.98048436E+03</rscale>
<asrwt>0</asrwt>
<pdfrwt beam="1">  1        2 0.12023294E+00 0.98048436E+03</pdfrwt>
<pdfrwt beam="2">  1       -2 0.47311986E-01 0.98048436E+03</pdfrwt>
<totfact> 0.15032492E+02</totfact>
</mgrwt>
</event>
<event>
11    1  0.2355167E-012  0.9775853E+03  0.7818608E-02  0.9333476E-01
          1   -1    0    0  501    0  0.00000000000E+00  0.00000000000E+00  0.50584329468E+03  0.50584329468E+03  0.00000000000E+00 0. -1.
         -1   -1    0    0    0  501 -0.00000000000E+00 -0.00000000000E+00 -0.47231669613E+03  0.47231669613E+03  0.00000000000E+00 0.  1.
    9900016    2    1    2    0    0 -0.15451360167E+03  0.16634339006E+03 -0.21505398518E+02  0.74455113563E+03  0.70876606500E+03 0.  0.
         23    2    3    3    0    0  0.37441634174E+01  0.34988153460E+02  0.56119328361E+02  0.11276768768E+03  0.91263260557E+02 0.  0.
        -15    1    4    4    0    0  0.47126696450E+02  0.20171785357E+02  0.22847834436E+02  0.56123524312E+02  0.00000000000E+00 0.  1.
        -15    1    3    3    0    0  0.33151779378E+02 -0.53940362959E+02  0.29780353697E+02  0.69967654658E+02  0.00000000000E+00 0.  1.
         15    1    4    4    0    0 -0.43382533032E+02  0.14816368103E+02  0.33271493925E+02  0.56644163371E+02  0.00000000000E+00 0. -1.
         15    1    3    3    0    0  0.10969459021E+02  0.18009752160E+03 -0.17632356474E+03  0.25228049033E+03  0.00000000000E+00 0. -1.
        -16    1    1    2    0    0  0.15451360167E+03 -0.16634339006E+03  0.55031997067E+02  0.23360885518E+03  0.00000000000E+00 0.  1.
         16    1    3    3    0    0 -0.21617952996E+01 -0.55815176623E+02 -0.26824524256E+02  0.61964202584E+02  0.00000000000E+00 0. -1.
    9900018    1    3    3    0    0 -0.20021720818E+03  0.61013254586E+02  0.95743008423E+02  0.24757110038E+03  0.91187600000E+02 0.  0.
<mgrwt>
<rscale>  0 0.97758526E+03</rscale>
<asrwt>0</asrwt>
<pdfrwt beam="1">  1        1 0.77822045E-01 0.97758526E+03</pdfrwt>
<pdfrwt beam="2">  1       -1 0.72664107E-01 0.97758526E+03</pdfrwt>
<totfact> 0.83666929E+01</totfact>
</mgrwt>
</event>
<event>
11    1  0.2355167E-012  0.8424907E+03  0.7818608E-02  0.9500472E-01
         -1   -1    0    0    0  501 -0.00000000000E+00  0.00000000000E+00  0.16035419055E+04  0.16035419055E+04  0.00000000000E+00 0.  1.
          1   -1    0    0  501    0  0.00000000000E+00 -0.00000000000E+00 -0.11065979973E+03  0.11065979973E+03  0.00000000000E+00 0. -1.
    9900016    2    1    2    0    0  0.52591519329E+02 -0.74464191457E+02  0.11460060748E+04  0.13555462095E+04  0.71823729996E+03 0.  0.
         23    2    3    3    0    0 -0.11966871806E+02  0.54077707311E+02  0.14586463920E+03  0.18061254568E+03  0.90976888479E+02 0.  0.
        -15    1    4    4    0    0  0.96941436589E+01  0.75250810970E+02  0.97458466572E+02  0.12351037883E+03  0.00000000000E+00 0.  1.
        -15    1    3    3    0    0 -0.12091981538E+03  0.31855438378E+02  0.14847669413E+03  0.19411774624E+03  0.00000000000E+00 0.  1.
         15    1    4    4    0    0 -0.21661015465E+02 -0.21173103659E+02  0.48406172628E+02  0.57102166842E+02  0.00000000000E+00 0. -1.
         15    1    3    3    0    0  0.12037655964E+03 -0.42158438705E+02  0.12844999072E+03  0.18101726487E+03  0.00000000000E+00 0. -1.
        -16    1    1    2    0    0 -0.52591519329E+02  0.74464191457E+02  0.34687603104E+03  0.35865549574E+03  0.00000000000E+00 0.  1.
         16    1    3    3    0    0 -0.84119144585E+02  0.45938811287E+02  0.27831224994E+03  0.29435372145E+03  0.00000000000E+00 0. -1.
    9900018    1    3    3    0    0  0.14922079145E+03 -0.16417770973E+03  0.44490250078E+03  0.50544493129E+03  0.91187600000E+02 0.  0.
<mgrwt>
<rscale>  0 0.84249066E+03</rscale>
<asrwt>0</asrwt>
<pdfrwt beam="1">  1        1 0.17024586E-01 0.84249066E+03</pdfrwt>
<pdfrwt beam="2">  1       -1 0.24669874E+00 0.84249066E+03</pdfrwt>
<totfact> 0.24368379E+01</totfact>
</mgrwt>
</event>
<event>
11    1  0.2355167E-012  0.1101925E+04  0.7818608E-02  0.9203317E-01
          1   -1    0    0  501    0  0.00000000000E+00  0.00000000000E+00  0.82134387768E+03  0.82134387768E+03  0.00000000000E+00 0. -1.
         -1   -1    0    0    0  501 -0.00000000000E+00 -0.00000000000E+00 -0.36958923863E+03  0.36958923863E+03  0.00000000000E+00 0.  1.
    9900016    2    1    2    0    0  0.19177507945E+03  0.11988037679E+03  0.74348518958E+02  0.75095088335E+03  0.71221523509E+03 0.  0.
         23    2    3    3    0    0 -0.50930388659E+02  0.96926893031E+01  0.14484292397E+03  0.17882704132E+03  0.91168993473E+02 0.  0.
        -15    1    4    4    0    0 -0.31805795597E+02  0.45565404970E+02  0.11708463517E+03  0.12960179997E+03  0.00000000000E+00 0.  1.
        -15    1    3    3    0    0  0.40471410741E+02  0.43883717315E+02 -0.23458453713E+02  0.64140586085E+02  0.00000000000E+00 0.  1.
         15    1    3    3    0    0  0.21887114055E+03  0.17150238671E+03  0.89904050112E+02  0.29223343929E+03  0.00000000000E+00 0. -1.
         15    1    4    4    0    0 -0.19124593062E+02 -0.35872715667E+02  0.27758288797E+02  0.49225241351E+02  0.00000000000E+00 0. -1.
        -16    1    3    3    0    0  0.18309714391E+02 -0.52764995545E+02 -0.47726514464E+02  0.73465710225E+02  0.00000000000E+00 0.  1.
         16    1    1    2    0    0 -0.19177507945E+03 -0.11988037679E+03  0.37740612009E+03  0.43998223296E+03  0.00000000000E+00 0. -1.
    9900018    1    3    3    0    0 -0.34946797568E+02 -0.52433420985E+02 -0.89213486942E+02  0.14228410643E+03  0.91187600000E+02 0.  0.
<mgrwt>
<rscale>  0 0.11019253E+04</rscale>
<asrwt>0</asrwt>
<pdfrwt beam="1">  1        1 0.12636060E+00 0.11019253E+04</pdfrwt>
<pdfrwt beam="2">  1       -1 0.56859883E-01 0.11019253E+04</pdfrwt>
<totfact> 0.66097893E+01</totfact>
</mgrwt>
</event>
<event>
11    1  0.2355167E-012  0.1293202E+04  0.7818608E-02  0.9034973E-01
          2   -1    0    0  501    0  0.00000000000E+00  0.00000000000E+00  0.12146132224E+04  0.12146132224E+04  0.00000000000E+00 0. -1.
         -2   -1    0    0    0  501 -0.00000000000E+00 -0.00000000000E+00 -0.34421890764E+03  0.34421890764E+03  0.00000000000E+00 0.  1.
    9900016    2    1    2    0    0 -0.97294575150E+02 -0.13529396272E+03  0.10720092863E+04  0.12972613223E+04  0.71127514908E+03 0.  0.
         23    2    3    3    0    0 -0.33618578429E+02 -0.92072492419E+00  0.65530218527E+02  0.11798853648E+03  0.92173904396E+02 0.  0.
        -15    1    3    3    0    0  0.85847073549E+02  0.65698972382E+02  0.19063162850E+02  0.10977011974E+03  0.00000000000E+00 0.  1.
        -15    1    4    4    0    0  0.20379891480E+02  0.80750010858E+01  0.58898473301E+02  0.62845650418E+02  0.00000000000E+00 0.  1.
         15    1    3    3    0    0 -0.10682526634E+03 -0.13995629834E+03  0.70719954753E+03  0.72878707658E+03  0.00000000000E+00 0. -1.
         15    1    4    4    0    0 -0.53998469910E+02 -0.89957260100E+01  0.66317452266E+01  0.55142886067E+02  0.00000000000E+00 0. -1.
        -16    1    1    2    0    0  0.97294575150E+02  0.13529396272E+03 -0.20161497156E+03  0.26157080773E+03  0.00000000000E+00 0.  1.
         16    1    3    3    0    0  0.26024253933E+02  0.35304149819E+02  0.49084437413E+02  0.65824970820E+02  0.00000000000E+00 0. -1.
    9900018    1    3    3    0    0 -0.68722057862E+02 -0.95420061652E+02  0.23113191998E+03  0.27489061867E+03  0.91187600000E+02 0.  0.
<mgrwt>
<rscale>  0 0.12932020E+04</rscale>
<asrwt>0</asrwt>
<pdfrwt beam="1">  1        2 0.18686357E+00 0.12932020E+04</pdfrwt>
<pdfrwt beam="2">  1       -2 0.52956756E-01 0.12932020E+04</pdfrwt>
<totfact> 0.61209093E+01</totfact>
</mgrwt>
</event>
<event>
11    1  0.2355167E-012  0.1676591E+04  0.7818608E-02  0.8774829E-01
         -2   -1    0    0    0  501 -0.00000000000E+00  0.00000000000E+00  0.27155861211E+03  0.27155861211E+03  0.00000000000E+00 0.  1.
          2   -1    0    0  501    0  0.00000000000E+00 -0.00000000000E+00 -0.25878008550E+04  0.25878008550E+04  0.00000000000E+00 0. -1.
    9900016    2    1    2    0    0 -0.32613902776E+03  0.44538967321E+03 -0.20648864171E+04  0.22527967106E+04  0.71175731640E+03 0.  0.
         23    2    3    3    0    0 -0.97087585770E+02  0.26371771794E+02 -0.33690342519E+03  0.36217295122E+03  0.86855391498E+02 0.  0.
        -15    1    3    3    0    0  0.14550224898E+02  0.85485063526E+02 -0.23627123873E+03  0.25168135287E+03  0.00000000000E+00 0.  1.
        -15    1    4    4    0    0 -0.47087254208E+02  0.51451184051E+02 -0.24358504912E+03  0.25337345955E+03  0.00000000000E+00 0. -1.
         15    1    4    4    0    0 -0.50000331562E+02 -0.25079412257E+02 -0.93318376073E+02  0.10879949167E+03  0.00000000000E+00 0.  1.
         15    1    3    3    0    0 -0.18804792832E+03  0.38710359453E+02 -0.39902469556E+03  0.44281059488E+03  0.00000000000E+00 0. -1.
        -16    1    1    2    0    0  0.32613902776E+03 -0.44538967321E+03 -0.25135582583E+03  0.60656275653E+03  0.00000000000E+00 0.  1.
         16    1    3    3    0    0  0.88964252509E+02  0.30233102764E+03 -0.68511949391E+03  0.75412691865E+03  0.00000000000E+00 0. -1.
    9900018    1    3    3    0    0 -0.14451799108E+03 -0.75085492027E+01 -0.40756756366E+03  0.44200489296E+03  0.91187600000E+02 0.  0.
<mgrwt>
<rscale>  0 0.16765913E+04</rscale>
<asrwt>0</asrwt>
<pdfrwt beam="1">  1        2 0.39812322E+00 0.16765913E+04</pdfrwt>
<pdfrwt beam="2">  1       -2 0.41778247E-01 0.16765913E+04</pdfrwt>
<totfact> 0.16047326E+01</totfact>
</mgrwt>
</event>
<event>
11    1  0.2355167E-012  0.8584401E+03  0.7818608E-02  0.9479078E-01
         -1   -1    0    0    0  501 -0.00000000000E+00  0.00000000000E+00  0.17437121083E+03  0.17437121083E+03  0.00000000000E+00 0.  1.
          1   -1    0    0  501    0  0.00000000000E+00 -0.00000000000E+00 -0.10565382291E+04  0.10565382291E+04  0.00000000000E+00 0. -1.
    9900016    2    1    2    0    0  0.13233800907E+03 -0.10438557340E+02 -0.70700316393E+03  0.10111261649E+04  0.71056339294E+03 0.  0.
         23    2    3    3    0    0  0.19247319917E+03 -0.71924478471E+02 -0.21098547103E+03  0.30769162363E+03  0.89107818184E+02 0.  0.
        -15    1    3    3    0    0 -0.45748520578E+02  0.11678602567E+02 -0.14303900641E+03  0.15063025675E+03  0.00000000000E+00 0. -1.
        -15    1    4    4    0    0  0.65093527114E+02 -0.71329014804E+02 -0.89182533297E+02  0.13144778382E+03  0.00000000000E+00 0.  1.
         15    1    4    4    0    0  0.12737967206E+03 -0.59546366702E+00 -0.12180293774E+03  0.17624383981E+03  0.00000000000E+00 0. -1.
         15    1    3    3    0    0 -0.34934701638E+02  0.13036988568E+03 -0.20768311227E+03  0.24768733434E+03  0.00000000000E+00 0.  1.
        -16    1    1    2    0    0 -0.13233800907E+03  0.10438557340E+02 -0.17516385437E+03  0.21978327508E+03  0.00000000000E+00 0.  1.
         16    1    3    3    0    0  0.17662211251E+02 -0.15023667264E+03 -0.10190791140E+03  0.18239581661E+03  0.00000000000E+00 0. -1.
    9900018    1    3    3    0    0  0.28858208637E+01  0.69674105525E+02 -0.43387662811E+02  0.12272113355E+03  0.91187600000E+02 0.  0.
<mgrwt>
<rscale>  0 0.85844010E+03</rscale>
<asrwt>0</asrwt>
<pdfrwt beam="1">  1        1 0.16254434E+00 0.85844010E+03</pdfrwt>
<pdfrwt beam="2">  1       -1 0.26826340E-01 0.85844010E+03</pdfrwt>
<totfact> 0.17102145E+02</totfact>
</mgrwt>
</event>
<event>
11    1  0.2355167E-012  0.1564032E+04  0.7818608E-02  0.8842954E-01
          1   -1    0    0  501    0  0.00000000000E+00  0.00000000000E+00  0.16266119812E+04  0.16266119812E+04  0.00000000000E+00 0. -1.
         -1   -1    0    0    0  501 -0.00000000000E+00 -0.00000000000E+00 -0.37596481395E+03  0.37596481395E+03  0.00000000000E+00 0.  1.
    9900016    2    1    2    0    0 -0.24514739542E+01  0.41618175124E+03  0.13426311830E+04  0.15763440900E+04  0.71343460569E+03 0.  0.
         23    2    3    3    0    0  0.31680257372E+02  0.25809973676E+03  0.73515008060E+03  0.78498080859E+03  0.90167156074E+02 0.  0.
        -15    1    3    3    0    0 -0.75018225744E+02 -0.55567419816E+02  0.19706888783E+02  0.95414012620E+02  0.00000000000E+00 0.  1.
        -15    1    4    4    0    0 -0.30329572810E+02  0.96932099035E+02  0.30480150343E+03  0.32127818368E+03  0.00000000000E+00 0.  1.
         15    1    4    4    0    0  0.62009830182E+02  0.16116763772E+03  0.43034857716E+03  0.46370262491E+03  0.00000000000E+00 0. -1.
         15    1    3    3    0    0 -0.56107687573E+02  0.13611925358E+03  0.19128903505E+03  0.24138769383E+03  0.00000000000E+00 0. -1.
        -16    1    1    2    0    0  0.24514739542E+01 -0.41618175124E+03 -0.91984015781E+02  0.42623270516E+03  0.00000000000E+00 0.  1.
         16    1    3    3    0    0  0.61262832646E+01 -0.16681732799E+02 -0.81983446693E+01  0.19571009456E+02  0.00000000000E+00 0. -1.
    9900018    1    3    3    0    0  0.90867898726E+02  0.94211913518E+02  0.40468352328E+03  0.43499056550E+03  0.91187600000E+02 0.  0.
<mgrwt>
<rscale>  0 0.15640318E+04</rscale>
<asrwt>0</asrwt>
<pdfrwt beam="1">  1        1 0.25024799E+00 0.15640318E+04</pdfrwt>
<pdfrwt beam="2">  1       -1 0.57840741E-01 0.15640318E+04</pdfrwt>
<totfact> 0.15589792E+01</totfact>
</mgrwt>
</event>
<event>
11    1  0.2355167E-012  0.1077211E+04  0.7818608E-02  0.9227692E-01
         -1   -1    0    0    0  501 -0.00000000000E+00  0.00000000000E+00  0.60007487040E+03  0.60007487040E+03  0.00000000000E+00 0.  1.
          1   -1    0    0  501    0  0.00000000000E+00 -0.00000000000E+00 -0.48343304828E+03  0.48343304828E+03  0.00000000000E+00 0. -1.
    9900016    2    1    2    0    0  0.15777003651E+03  0.15869571420E+03 -0.90331318227E+02  0.77869060462E+03  0.74035369692E+03 0.  0.
         23    2    3    3    0    0 -0.78177066286E+02  0.41441245231E+02 -0.38381759053E+02  0.13213103898E+03  0.90312909017E+02 0.  0.
        -15    1    4    4    0    0  0.12249183677E+02  0.13538023957E+02 -0.32546902601E+02  0.37317843753E+02  0.00000000000E+00 0.  1.
        -15    1    3    3    0    0  0.24668452944E+03  0.91466659697E+02 -0.50294597037E+02  0.26785995108E+03  0.00000000000E+00 0.  1.
         15    1    3    3    0    0 -0.12460126473E+02 -0.64115528031E+02 -0.22521251816E+02  0.69088801334E+02  0.00000000000E+00 0. -1.
         15    1    4    4    0    0 -0.90426249963E+02  0.27903221274E+02 -0.58348564520E+01  0.94813195230E+02  0.00000000000E+00 0. -1.
        -16    1    1    2    0    0 -0.15777003651E+03 -0.15869571420E+03  0.20697314034E+03  0.30481731406E+03  0.00000000000E+00 0.  1.
         16    1    3    3    0    0  0.13411646485E+03  0.37213269532E+02  0.22978482726E+00  0.13918371448E+03  0.00000000000E+00 0. -1.
    9900018    1    3    3    0    0 -0.13239376503E+03  0.52690067772E+02  0.20636504852E+02  0.17042709874E+03  0.91187600000E+02 0.  0.
<mgrwt>
<rscale>  0 0.10772113E+04</rscale>
<asrwt>0</asrwt>
<pdfrwt beam="1">  1        1 0.74374315E-01 0.10772113E+04</pdfrwt>
<pdfrwt beam="2">  1       -1 0.92319211E-01 0.10772113E+04</pdfrwt>
<totfact> 0.52929206E+01</totfact>
</mgrwt>
</event>
<event>
11    1  0.2355167E-012  0.8592820E+03  0.7818608E-02  0.9477963E-01
          2   -1    0    0  501    0  0.00000000000E+00  0.00000000000E+00  0.12130059690E+03  0.12130059690E+03  0.00000000000E+00 0. -1.
         -2   -1    0    0    0  501 -0.00000000000E+00 -0.00000000000E+00 -0.15217682882E+04  0.15217682882E+04  0.00000000000E+00 0.  1.
    9900016    2    1    2    0    0 -0.35310312572E+02 -0.26510555215E+02 -0.93664177461E+03  0.11771460281E+04  0.71163567205E+03 0.  0.
         23    2    3    3    0    0  0.13616272591E+03 -0.12163152994E+03 -0.11634195047E+03  0.23499679339E+03  0.91397628315E+02 0.  0.
        -15    1    4    4    0    0  0.89033523703E+02 -0.11111528963E+03 -0.12049841586E+03  0.18653000873E+03  0.00000000000E+00 0. -1.
        -15    1    3    3    0    0  0.29734423959E+01 -0.11843934178E+02 -0.28469748003E+02  0.30978164694E+02  0.00000000000E+00 0.  1.
         15    1    3    3    0    0 -0.50743195667E+02  0.68551383976E+02 -0.14514658013E+03  0.16834991498E+03  0.00000000000E+00 0. -1.
         15    1    4    4    0    0  0.47129202204E+02 -0.10516240315E+02  0.41564653893E+01  0.48466784660E+02  0.00000000000E+00 0.  1.
        -16    1    1    2    0    0  0.35310312572E+02  0.26510555215E+02 -0.46382591672E+03  0.46592285706E+03  0.00000000000E+00 0.  1.
         16    1    3    3    0    0  0.48651058158E+02  0.11746558496E+03 -0.11662511582E+03  0.17252972715E+03  0.00000000000E+00 0. -1.
    9900018    1    3    3    0    0 -0.17235434337E+03 -0.79052060034E+02 -0.53005838018E+03  0.57029142784E+03  0.91187600000E+02 0.  0.
<mgrwt>
<rscale>  0 0.85928203E+03</rscale>
<asrwt>0</asrwt>
<pdfrwt beam="1">  1        2 0.18661630E-01 0.85928203E+03</pdfrwt>
<pdfrwt beam="2">  1       -2 0.23411821E+00 0.85928203E+03</pdfrwt>
<totfact> 0.25231091E+01</totfact>
</mgrwt>
</event>
<event>
11    1  0.2355167E-012  0.9766446E+03  0.7818608E-02  0.9334538E-01
          1   -1    0    0  501    0  0.00000000000E+00  0.00000000000E+00  0.89600771940E+03  0.89600771940E+03  0.00000000000E+00 0. -1.
         -1   -1    0    0    0  501 -0.00000000000E+00 -0.00000000000E+00 -0.26613459318E+03  0.26613459318E+03  0.00000000000E+00 0.  1.
    9900016    2    1    2    0    0 -0.19898733555E+03  0.12349663866E+03  0.44604972897E+03  0.86442025957E+03  0.70243479767E+03 0.  0.
         23    2    3    3    0    0 -0.94781688363E+02  0.83223113556E+02  0.18001045017E+03  0.23816077024E+03  0.91690431518E+02 0.  0.
        -15    1    3    3    0    0 -0.42134834255E+02 -0.30273178408E+01 -0.12443736794E+03  0.13141220435E+03  0.00000000000E+00 0.  1.
        -15    1    4    4    0    0 -0.91230963006E+02  0.28306955513E+02  0.14253072263E+03  0.17157907575E+03  0.00000000000E+00 0. -1.
         15    1    3    3    0    0 -0.13837849146E+02 -0.26795489348E+01  0.70716298947E+02  0.72107288039E+02  0.00000000000E+00 0. -1.
         15    1    4    4    0    0 -0.35507253573E+01  0.54916158043E+02  0.37479727536E+02  0.66581694488E+02  0.00000000000E+00 0.  1.
        -16    1    3    3    0    0  0.26313194398E+02  0.69786406562E+02  0.28932449085E+03  0.29878284380E+03  0.00000000000E+00 0.  1.
         16    1    1    2    0    0  0.19898733555E+03 -0.12349663866E+03  0.18382339725E+03  0.29772205301E+03  0.00000000000E+00 0. -1.
    9900018    1    3    3    0    0 -0.74546158187E+02 -0.23806014683E+02  0.30435856946E+02  0.12395715315E+03  0.91187600000E+02 0.  0.
<mgrwt>
<rscale>  0 0.97664456E+03</rscale>
<asrwt>0</asrwt>
<pdfrwt beam="1">  1        1 0.13784734E+00 0.97664456E+03</pdfrwt>
<pdfrwt beam="2">  1       -1 0.40943784E-01 0.97664456E+03</pdfrwt>
<totfact> 0.10731234E+02</totfact>
</mgrwt>
</event>
<event>
11    1  0.2355167E-012  0.1598425E+04  0.7818608E-02  0.8821516E-01
          1   -1    0    0  501    0  0.00000000000E+00  0.00000000000E+00  0.58803089681E+03  0.58803089681E+03  0.00000000000E+00 0. -1.
         -1   -1    0    0    0  501 -0.00000000000E+00 -0.00000000000E+00 -0.10862370039E+04  0.10862370039E+04  0.00000000000E+00 0.  1.
    9900016    2    1    2    0    0 -0.60728342706E+03  0.12971053092E+03 -0.12439689315E+03  0.94945667628E+03  0.70737218668E+03 0.  0.
         23    2    3    3    0    0 -0.31776856185E+03  0.92874593380E+02 -0.32748648289E+02  0.34477020430E+03  0.90506744565E+02 0.  0.
        -15    1    4    4    0    0 -0.13921272078E+03  0.84275843364E+02 -0.32800416658E+02  0.16600742976E+03  0.00000000000E+00 0. -1.
        -15    1    3    3    0    0  0.84185121947E+02 -0.67504730654E+02 -0.41964296762E+02  0.11578007437E+03  0.00000000000E+00 0.  1.
         15    1    4    4    0    0 -0.17855584107E+03  0.85987500166E+01  0.51768369099E-01  0.17876277454E+03  0.00000000000E+00 0.  1.
         15    1    3    3    0    0 -0.68819161976E+02  0.34577224090E+02  0.37893055431E+02  0.85834405286E+02  0.00000000000E+00 0. -1.
        -16    1    3    3    0    0 -0.14660857458E+03 -0.29152102163E+02  0.45650806059E+02  0.15629432266E+03  0.00000000000E+00 0.  1.
         16    1    1    2    0    0  0.60728342706E+03 -0.12971053092E+03 -0.37380921391E+03  0.72481122440E+03  0.00000000000E+00 0. -1.
    9900018    1    3    3    0    0 -0.15827225060E+03  0.98915546269E+02 -0.13322780959E+03  0.24677766967E+03  0.91187600000E+02 0.  0.
<mgrwt>
<rscale>  0 0.15984254E+04</rscale>
<asrwt>0</asrwt>
<pdfrwt beam="1">  1        1 0.90466293E-01 0.15984254E+04</pdfrwt>
<pdfrwt beam="2">  1       -1 0.16711338E+00 0.15984254E+04</pdfrwt>
<totfact> 0.87447695E+00</totfact>
</mgrwt>
</event>
<event>
11    1  0.2355167E-012  0.9998535E+03  0.7818608E-02  0.9308705E-01
          2   -1    0    0  501    0  0.00000000000E+00  0.00000000000E+00  0.12918089287E+04  0.12918089287E+04  0.00000000000E+00 0.  1.
         -2   -1    0    0    0  501 -0.00000000000E+00 -0.00000000000E+00 -0.19347037257E+03  0.19347037257E+03  0.00000000000E+00 0. -1.
    9900016    2    1    2    0    0 -0.96604621581E+02  0.82224889542E+02  0.51677276897E+03  0.89003804752E+03  0.71345654802E+03 0.  0.
         23    2    3    3    0    0 -0.34912661821E+01 -0.73497438427E+02  0.13212340472E+03  0.17769075202E+03  0.93291729991E+02 0.  0.
        -15    1    4    4    0    0  0.25337559826E+02  0.12386139210E+02  0.29966837914E+02  0.41151181721E+02  0.00000000000E+00 0.  1.
        -15    1    3    3    0    0  0.10667472471E+03  0.70357192075E+02  0.39392371381E+03  0.41413225383E+03  0.00000000000E+00 0.  1.
         15    1    4    4    0    0 -0.28828826008E+02 -0.85883577637E+02  0.10215656680E+03  0.13653957030E+03  0.00000000000E+00 0. -1.
         15    1    3    3    0    0 -0.61922937335E+02  0.27253449087E+02 -0.40093171845E+02  0.78642628923E+02  0.00000000000E+00 0. -1.
        -16    1    1    2    0    0  0.96604621581E+02 -0.82224889542E+02  0.58156578714E+03  0.59524125373E+03  0.00000000000E+00 0.  1.
         16    1    3    3    0    0 -0.26788609317E+02 -0.90011404611E+01  0.52365942395E+02  0.59504974932E+02  0.00000000000E+00 0. -1.
    9900018    1    3    3    0    0 -0.11107653345E+03  0.67112827268E+02 -0.21547120100E+02  0.16006743781E+03  0.91187600000E+02 0.  0.
<mgrwt>
<rscale>  0 0.99985350E+03</rscale>
<asrwt>0</asrwt>
<pdfrwt beam="1">  1        2 0.19873983E+00 0.99985350E+03</pdfrwt>
<pdfrwt beam="2">  1       -2 0.29764674E-01 0.99985350E+03</pdfrwt>
<totfact> 0.17341559E+02</totfact>
</mgrwt>
</event>
<event>
11    1  0.2355167E-012  0.9152866E+03  0.7818608E-02  0.9406672E-01
         -2   -1    0    0    0  501 -0.00000000000E+00  0.00000000000E+00  0.93705371742E+02  0.93705371742E+02  0.00000000000E+00 0.  1.
          2   -1    0    0  501    0  0.00000000000E+00 -0.00000000000E+00 -0.22350628837E+04  0.22350628837E+04  0.00000000000E+00 0. -1.
    9900016    2    1    2    0    0 -0.74876484157E+02  0.12338334184E+03 -0.19183923520E+04  0.20631681811E+04  0.74538834875E+03 0.  0.
         23    2    3    3    0    0  0.67683687575E+02 -0.13575879609E+03 -0.34580387808E+03  0.38897973218E+03  0.93345474816E+02 0.  0.
        -15    1    3    3    0    0 -0.79627323416E+02  0.65780713627E+02 -0.82646560336E+02  0.13228025875E+03  0.00000000000E+00 0.  1.
        -15    1    4    4    0    0  0.54915483396E+02 -0.48630447789E+02 -0.24191468685E+03  0.25279111235E+03  0.00000000000E+00 0.  1.
         15    1    3    3    0    0  0.79255688722E+02 -0.38361980452E+02 -0.44031728797E+03  0.44903498730E+03  0.00000000000E+00 0. -1.
         15    1    4    4    0    0  0.12768204178E+02 -0.87128348305E+02 -0.10388919123E+03  0.13618861983E+03  0.00000000000E+00 0. -1.
        -16    1    3    3    0    0 -0.89201286471E+02  0.12935515224E+03 -0.56634631511E+03  0.58773954568E+03  0.00000000000E+00 0.  1.
         16    1    1    2    0    0  0.74876484157E+02 -0.12338334184E+03 -0.22296515995E+03  0.26560007431E+03  0.00000000000E+00 0. -1.
    9900018    1    3    3    0    0 -0.52987250567E+02  0.10236825252E+03 -0.48327831049E+03  0.50513365720E+03  0.91187600000E+02 0.  0.
<mgrwt>
<rscale>  0 0.91528662E+03</rscale>
<asrwt>0</asrwt>
<pdfrwt beam="1">  1        2 0.34385582E+00 0.91528662E+03</pdfrwt>
<pdfrwt beam="2">  1       -2 0.14416211E-01 0.91528662E+03</pdfrwt>
<totfact> 0.18768397E+02</totfact>
</mgrwt>
</event>
<event>
11    1  0.2355167E-012  0.7997296E+03  0.7818608E-02  0.9560409E-01
          2   -1    0    0  501    0  0.00000000000E+00  0.00000000000E+00  0.17445826753E+04  0.17445826753E+04  0.00000000000E+00 0.  1.
         -2   -1    0    0    0  501 -0.00000000000E+00 -0.00000000000E+00 -0.91650485659E+02  0.91650485659E+02  0.00000000000E+00 0. -1.
    9900016    2    1    2    0    0  0.24207395843E+02  0.47302082921E+02  0.13403805562E+04  0.15191968718E+04  0.71310280805E+03 0.  0.
         23    2    3    3    0    0  0.79435321311E+02 -0.14951726824E+03  0.22580837497E+03  0.29775085817E+03  0.94872375124E+02 0.  0.
        -15    1    4    4    0    0  0.64878128431E+02 -0.12630984914E+03  0.22973381049E+03  0.27007586567E+03  0.00000000000E+00 0.  1.
        -15    1    3    3    0    0 -0.24112081291E+02  0.18264497454E+03  0.39038720332E+03  0.43167435377E+03  0.00000000000E+00 0.  1.
         15    1    4    4    0    0  0.14557192880E+02 -0.23207419105E+02 -0.39254355141E+01  0.27674992503E+02  0.00000000000E+00 0. -1.
         15    1    3    3    0    0 -0.25099494711E+02 -0.21100249769E+02  0.34342262476E+02  0.47482588040E+02  0.00000000000E+00 0. -1.
        -16    1    1    2    0    0 -0.24207395843E+02 -0.47302082921E+02  0.31255163347E+03  0.31703628917E+03  0.00000000000E+00 0.  1.
         16    1    3    3    0    0  0.67777733799E+02 -0.47597955123E+02  0.77841736067E+02  0.11366055782E+03  0.00000000000E+00 0. -1.
    9900018    1    3    3    0    0 -0.73794083266E+02  0.82872581518E+02  0.61200097933E+03  0.62862851398E+03  0.91187600000E+02 0.  0.
<mgrwt>
<rscale>  0 0.79972958E+03</rscale>
<asrwt>0</asrwt>
<pdfrwt beam="1">  1        2 0.26839731E+00 0.79972958E+03</pdfrwt>
<pdfrwt beam="2">  1       -2 0.14100076E-01 0.79972958E+03</pdfrwt>
<totfact> 0.36534015E+02</totfact>
</mgrwt>
</event>
<event>
11    1  0.2355167E-012  0.8830130E+03  0.7818608E-02  0.9447069E-01
          2   -1    0    0  501    0  0.00000000000E+00  0.00000000000E+00  0.84702416045E+03  0.84702416045E+03  0.00000000000E+00 0. -1.
         -2   -1    0    0    0  501 -0.00000000000E+00 -0.00000000000E+00 -0.23013272031E+03  0.23013272031E+03  0.00000000000E+00 0.  1.
    9900016    2    1    2    0    0  0.11458783283E+03  0.10588535526E+03  0.48242683640E+03  0.87118889890E+03  0.70844362175E+03 0.  0.
         23    2    3    3    0    0 -0.24819669230E+01 -0.26249765705E+02  0.18879658935E+03  0.20703576255E+03  0.80774033359E+02 0.  0.
        -15    1    3    3    0    0  0.89437714317E+02  0.12613788126E+03  0.55034869123E+02  0.16413015156E+03  0.00000000000E+00 0.  1.
        -15    1    4    4    0    0  0.23105160273E+02  0.11666218850E+02  0.12994793688E+03  0.13250062412E+03  0.00000000000E+00 0. -1.
         15    1    3    3    0    0  0.77846571879E+02 -0.48558066630E+02  0.52414890798E+02  0.10566596124E+03  0.00000000000E+00 0. -1.
         15    1    4    4    0    0 -0.25587127196E+02 -0.37915984555E+02  0.58848652470E+02  0.74535138428E+02  0.00000000000E+00 0.  1.
        -16    1    3    3    0    0  0.58291064547E+02 -0.39203320328E+02  0.21120889248E+03  0.22258469128E+03  0.00000000000E+00 0.  1.
         16    1    1    2    0    0 -0.11458783283E+03 -0.10588535526E+03  0.13446460375E+03  0.20596798186E+03  0.00000000000E+00 0. -1.
    9900018    1    3    3    0    0 -0.10850555099E+03  0.93758626657E+02 -0.25028405345E+02  0.17177233228E+03  0.91187600000E+02 0.  0.
<mgrwt>
<rscale>  0 0.88301297E+03</rscale>
<asrwt>0</asrwt>
<pdfrwt beam="1">  1        2 0.13031141E+00 0.88301297E+03</pdfrwt>
<pdfrwt beam="2">  1       -2 0.35405034E-01 0.88301297E+03</pdfrwt>
<totfact> 0.23954709E+02</totfact>
</mgrwt>
</event>
<event>
11    1  0.2696937E-012  0.9529535E+03  0.7818608E-02  0.9361705E-01
         -2   -1    0    0    0  501 -0.00000000000E+00  0.00000000000E+00  0.10981441908E+03  0.10981441908E+03  0.00000000000E+00 0.  1.
          2   -1    0    0  501    0  0.00000000000E+00 -0.00000000000E+00 -0.20673978926E+04  0.20673978926E+04  0.00000000000E+00 0. -1.
    9900016    2    1    2    0    0 -0.10605650696E+03 -0.18421325376E+03 -0.11961089363E+04  0.13866264679E+04  0.66848625155E+03 0.  0.
         23    2    3    3    0    0 -0.46538653587E+02  0.69101270336E+01 -0.11479808906E+03  0.15450300107E+03  0.92081376813E+02 0.  0.
        -15    1    4    4    0    0 -0.57688688783E+02  0.34054262054E+02 -0.50719450094E+02  0.84024640406E+02  0.00000000000E+00 0.  1.
        -15    1    3    3    0    0 -0.14326858683E+03 -0.17509906670E+03 -0.21948192382E+03  0.31521085961E+03  0.00000000000E+00 0.  1.
         15    1    3    3    0    0  0.37939447788E+02  0.71085744844E+02 -0.31371693511E+03  0.32389952175E+03  0.00000000000E+00 0. -1.
         15    1    4    4    0    0  0.11150035195E+02 -0.27144135020E+02 -0.64078638961E+02  0.70478360665E+02  0.00000000000E+00 0. -1.
        -16    1    3    3    0    0 -0.11112688266E+01 -0.10761720475E+02 -0.38785147664E+03  0.38800234210E+03  0.00000000000E+00 0.  1.
         16    1    1    2    0    0  0.10605650696E+03  0.18421325376E+03 -0.76147453720E+03  0.79058584375E+03  0.00000000000E+00 0. -1.
    9900018    1    3    3    0    0  0.46922554495E+02 -0.76348338465E+02 -0.16026051170E+03  0.20501074340E+03  0.91187600000E+02 0.  0.
<mgrwt>
<rscale>  0 0.95295351E+03</rscale>
<asrwt>0</asrwt>
<pdfrwt beam="1">  1        2 0.31806123E+00 0.95295351E+03</pdfrwt>
<pdfrwt beam="2">  1       -2 0.16894525E-01 0.95295351E+03</pdfrwt>
<totfact> 0.17680014E+02</totfact>
</mgrwt>
</event>
<event>
11    1  0.2355167E-012  0.8322098E+03  0.7818608E-02  0.9514530E-01
         -2   -1    0    0    0  501 -0.00000000000E+00  0.00000000000E+00  0.11933816920E+03  0.11933816920E+03  0.00000000000E+00 0.  1.
          2   -1    0    0  501    0  0.00000000000E+00 -0.00000000000E+00 -0.14508624689E+04  0.14508624689E+04  0.00000000000E+00 0. -1.
    9900016    2    1    2    0    0 -0.16764462134E+02  0.80114461547E+02 -0.10478993606E+04  0.12750015863E+04  0.72169010029E+03 0.  0.
         23    2    3    3    0    0  0.44195325869E+02  0.12845406111E+03 -0.54414093403E+03  0.56822365818E+03  0.91296752324E+02 0.  0.
        -15    1    3    3    0    0 -0.73039144517E+02  0.68828433326E+02 -0.96385855635E+02  0.13914849274E+03  0.00000000000E+00 0.  1.
        -15    1    4    4    0    0 -0.15012458234E+01  0.26023104498E+02 -0.21813680052E+02  0.33989591703E+02  0.00000000000E+00 0.  1.
         15    1    3    3    0    0 -0.75941486078E+02 -0.14176102186E+03 -0.31902222643E+03  0.35726527621E+03  0.00000000000E+00 0. -1.
         15    1    4    4    0    0  0.45696571692E+02  0.10243095661E+03 -0.52232725398E+03  0.53423406648E+03  0.00000000000E+00 0. -1.
        -16    1    3    3    0    0  0.17424428800E+02 -0.43062477345E+02 -0.56082345475E+02  0.72823191004E+02  0.00000000000E+00 0.  1.
         16    1    1    2    0    0  0.16764462134E+02 -0.80114461547E+02 -0.28362493910E+03  0.29519905186E+03  0.00000000000E+00 0. -1.
    9900018    1    3    3    0    0  0.70596413791E+02  0.67655466313E+02 -0.32267999071E+02  0.13754096815E+03  0.91187600000E+02 0.  0.
<mgrwt>
<rscale>  0 0.83220976E+03</rscale>
<asrwt>0</asrwt>
<pdfrwt beam="1">  1        2 0.22320960E+00 0.83220976E+03</pdfrwt>
<pdfrwt beam="2">  1       -2 0.18359719E-01 0.83220976E+03</pdfrwt>
<totfact> 0.33781790E+02</totfact>
</mgrwt>
</event>
<event>
11    1  0.2355167E-012  0.1506234E+04  0.7818608E-02  0.8880318E-01
          1   -1    0    0  501    0  0.00000000000E+00  0.00000000000E+00  0.73811845584E+03  0.73811845584E+03  0.00000000000E+00 0. -1.
         -1   -1    0    0    0  501 -0.00000000000E+00 -0.00000000000E+00 -0.76842081792E+03  0.76842081792E+03  0.00000000000E+00 0.  1.
    9900016    2    1    2    0    0  0.73295085616E+02  0.50819149404E+03  0.25517760388E+03  0.91906197620E+03  0.71828165951E+03 0.  0.
         23    2    3    3    0    0  0.65675782916E+02  0.36557127787E+03 -0.67216663928E+02  0.38882289706E+03  0.93324689675E+02 0.  0.
        -15    1    4    4    0    0  0.38636402901E+02  0.21144289725E+03  0.82317107693E+01  0.21510144465E+03  0.00000000000E+00 0.  1.
        -15    1    3    3    0    0  0.18084053124E+02 -0.34126479785E+01  0.50876399851E+02  0.54102561912E+02  0.00000000000E+00 0.  1.
         15    1    4    4    0    0  0.27039380016E+02  0.15412838062E+03 -0.75448374697E+02  0.17372145241E+03  0.00000000000E+00 0. -1.
         15    1    3    3    0    0 -0.13695090498E+03  0.91356688435E+02  0.10530030806E+03  0.19542197874E+03  0.00000000000E+00 0. -1.
        -16    1    1    2    0    0 -0.73295085616E+02 -0.50819149404E+03 -0.28547996596E+03  0.58747729757E+03  0.00000000000E+00 0.  1.
         16    1    3    3    0    0  0.91769471666E+02  0.83907779179E+02  0.90131947077E+02  0.15357707909E+03  0.00000000000E+00 0. -1.
    9900018    1    3    3    0    0  0.34716682891E+02 -0.29231603461E+02  0.76085612827E+02  0.12713745941E+03  0.91187600000E+02 0.  0.
<mgrwt>
<rscale>  0 0.15062345E+04</rscale>
<asrwt>0</asrwt>
<pdfrwt beam="1">  1        1 0.11355669E+00 0.15062345E+04</pdfrwt>
<pdfrwt beam="2">  1       -1 0.11821859E+00 0.15062345E+04</pdfrwt>
<totfact> 0.15594970E+01</totfact>
</mgrwt>
</event>
<event>
11    1  0.2355167E-012  0.7995842E+03  0.7818608E-02  0.9560619E-01
          2   -1    0    0  501    0  0.00000000000E+00  0.00000000000E+00  0.16131580277E+04  0.16131580277E+04  0.00000000000E+00 0. -1.
         -2   -1    0    0    0  501 -0.00000000000E+00 -0.00000000000E+00 -0.99081249001E+02  0.99081249001E+02  0.00000000000E+00 0.  1.
    9900016    2    1    2    0    0  0.71800750689E+02 -0.11348181421E+02  0.14504731730E+04  0.16156496930E+04  0.70793175929E+03 0.  0.
         23    2    3    3    0    0  0.12970490260E+01  0.16177561825E+03  0.41267754096E+03  0.45244626908E+03  0.90729491357E+02 0.  0.
        -15    1    3    3    0    0  0.63856714310E+02  0.44259142510E+01  0.14192078870E+03  0.15568808222E+03  0.00000000000E+00 0.  1.
        -15    1    4    4    0    0  0.20297413245E+02  0.13247682525E+03  0.22780959583E+03  0.26430911101E+03  0.00000000000E+00 0.  1.
         15    1    3    3    0    0 -0.10995932394E+03 -0.11976228990E+03  0.10706703114E+03  0.19467256654E+03  0.00000000000E+00 0. -1.
         15    1    4    4    0    0 -0.19000364219E+02  0.29298793001E+02  0.18486794513E+03  0.18813715807E+03  0.00000000000E+00 0. -1.
        -16    1    1    2    0    0 -0.71800750689E+02  0.11348181421E+02  0.63603605609E+02  0.96589583639E+02  0.00000000000E+00 0.  1.
         16    1    3    3    0    0 -0.21849509092E+01  0.24905461777E+02  0.11095766839E+03  0.11373944000E+03  0.00000000000E+00 0. -1.
    9900018    1    3    3    0    0  0.11879126221E+03 -0.82692885793E+02  0.67785014386E+03  0.69910333518E+03  0.91187600000E+02 0.  0.
<mgrwt>
<rscale>  0 0.79958417E+03</rscale>
<asrwt>0</asrwt>
<pdfrwt beam="1">  1        2 0.24817814E+00 0.79958417E+03</pdfrwt>
<pdfrwt beam="2">  1       -2 0.15243270E-01 0.79958417E+03</pdfrwt>
<totfact> 0.37817280E+02</totfact>
</mgrwt>
</event>
<event>
11    1  0.2355167E-012  0.1285218E+04  0.7818608E-02  0.9041370E-01
          2   -1    0    0  501    0  0.00000000000E+00  0.00000000000E+00  0.69707489317E+03  0.69707489317E+03  0.00000000000E+00 0. -1.
         -2   -1    0    0    0  501 -0.00000000000E+00 -0.00000000000E+00 -0.59239897107E+03  0.59239897107E+03  0.00000000000E+00 0.  1.
    9900016    2    1    2    0    0 -0.29923484934E+03 -0.18105691399E+03  0.34449061473E+03  0.86540525191E+03  0.71269163405E+03 0.  0.
         23    2    3    3    0    0 -0.85676719921E+02 -0.17998817259E+03  0.16550147764E+03  0.27443495304E+03  0.90485146515E+02 0.  0.
        -15    1    4    4    0    0 -0.63973291139E+02 -0.14256338021E+03  0.73318757947E+02  0.17260515526E+03  0.00000000000E+00 0. -1.
        -15    1    3    3    0    0 -0.20406928178E+03 -0.66613907336E+02  0.20820390972E+03  0.29904941471E+03  0.00000000000E+00 0. -1.
         15    1    4    4    0    0 -0.21703428782E+02 -0.37424792382E+02  0.92182719692E+02  0.10182979778E+03  0.00000000000E+00 0.  1.
         15    1    3    3    0    0  0.73847495511E+02 -0.35274707568E+02 -0.13983861702E+02  0.83025935558E+02  0.00000000000E+00 0.  1.
        -16    1    1    2    0    0  0.29923484934E+03  0.18105691399E+03 -0.23981469263E+03  0.42406861233E+03  0.00000000000E+00 0.  1.
         16    1    3    3    0    0  0.31351254820E+02  0.32458481650E+02 -0.13851629431E+02  0.47205104043E+02  0.00000000000E+00 0. -1.
    9900018    1    3    3    0    0 -0.11468759797E+03  0.68361391851E+02 -0.13792814966E+01  0.16168984456E+03  0.91187600000E+02 0.  0.
<mgrwt>
<rscale>  0 0.12852182E+04</rscale>
<asrwt>0</asrwt>
<pdfrwt beam="1">  1        2 0.10724229E+00 0.12852182E+04</pdfrwt>
<pdfrwt beam="2">  1       -2 0.91138304E-01 0.12852182E+04</pdfrwt>
<totfact> 0.41503293E+01</totfact>
</mgrwt>
</event>
<event>
11    1  0.2355167E-012  0.1406143E+04  0.7818608E-02  0.8949384E-01
         -2   -1    0    0    0  501 -0.00000000000E+00  0.00000000000E+00  0.59519207456E+03  0.59519207456E+03  0.00000000000E+00 0.  1.
          2   -1    0    0  501    0  0.00000000000E+00 -0.00000000000E+00 -0.83050441315E+03  0.83050441315E+03  0.00000000000E+00 0. -1.
    9900016    2    1    2    0    0 -0.46818337652E+03  0.13110172607E+03  0.39989256573E+02  0.86697087981E+03  0.71669800417E+03 0.  0.
         23    2    3    3    0    0 -0.72989449788E+02  0.37441374167E+02 -0.48331387898E+02  0.13380312945E+03  0.94010840410E+02 0.  0.
        -15    1    4    4    0    0 -0.39881138526E+00  0.49384078391E+02 -0.30710827537E+02  0.58155835279E+02  0.00000000000E+00 0. -1.
        -15    1    3    3    0    0 -0.86878027406E+02  0.43438057947E+02  0.21929495071E+03  0.23984355720E+03  0.00000000000E+00 0.  1.
         15    1    3    3    0    0 -0.11892418638E+03 -0.69393899365E+02 -0.70653407170E+02  0.15475910093E+03  0.00000000000E+00 0. -1.
         15    1    4    4    0    0 -0.72590638403E+02 -0.11942704224E+02 -0.17620560360E+02  0.75647294170E+02  0.00000000000E+00 0.  1.
        -16    1    1    2    0    0  0.46818337652E+03 -0.13110172607E+03 -0.27530159515E+03  0.55872560790E+03  0.00000000000E+00 0.  1.
         16    1    3    3    0    0  0.43118842835E+02  0.68837572213E+01  0.26556191089E+02  0.51106281474E+02  0.00000000000E+00 0. -1.
    9900018    1    3    3    0    0 -0.23251055578E+03  0.11273243610E+03 -0.86877090156E+02  0.28745881076E+03  0.91187600000E+02 0.  0.
<mgrwt>
<rscale>  0 0.14061432E+04</rscale>
<asrwt>0</asrwt>
<pdfrwt beam="1">  1        2 0.12776991E+00 0.14061432E+04</pdfrwt>
<pdfrwt beam="2">  1       -2 0.91568012E-01 0.14061432E+04</pdfrwt>
<totfact> 0.32369251E+01</totfact>
</mgrwt>
</event>
<event>
11    1  0.2355167E-012  0.9420311E+03  0.7818608E-02  0.9374514E-01
          1   -1    0    0  501    0  0.00000000000E+00  0.00000000000E+00  0.43650740696E+03  0.43650740696E+03  0.00000000000E+00 0. -1.
         -1   -1    0    0    0  501 -0.00000000000E+00 -0.00000000000E+00 -0.50825177305E+03  0.50825177305E+03  0.00000000000E+00 0.  1.
    9900016    2    1    2    0    0 -0.19247817739E+03 -0.65010713811E+02 -0.37058677439E+02  0.73865886783E+03  0.70920331060E+03 0.  0.
         23    2    3    3    0    0  0.26751472368E+02  0.86239916480E+01 -0.16654869931E+02  0.97388720974E+02  0.91745102184E+02 0.  0.
        -15    1    4    4    0    0  0.36738622252E+02  0.41900265914E+02  0.57913286174E+01  0.56025870237E+02  0.00000000000E+00 0. -1.
        -15    1    3    3    0    0 -0.57288375209E+02  0.19104312550E+02 -0.70308895882E+02  0.92683728519E+02  0.00000000000E+00 0.  1.
         15    1    3    3    0    0  0.37327591223E+02  0.14806444834E+02  0.90247749927E+02  0.98778723630E+02  0.00000000000E+00 0. -1.
         15    1    4    4    0    0 -0.99871498844E+01 -0.33276274266E+02 -0.22446198549E+02  0.41362850737E+02  0.00000000000E+00 0.  1.
        -16    1    1    2    0    0  0.19247817739E+03  0.65010713811E+02 -0.34685688656E+02  0.20610031218E+03  0.00000000000E+00 0.  1.
         16    1    3    3    0    0 -0.86875013503E+02  0.65410884942E+02 -0.16080734503E+03  0.19412587168E+03  0.00000000000E+00 0. -1.
    9900018    1    3    3    0    0 -0.11239385227E+03 -0.17295634778E+03  0.12046468348E+03  0.25568182303E+03  0.91187600000E+02 0.  0.
<mgrwt>
<rscale>  0 0.94203113E+03</rscale>
<asrwt>0</asrwt>
<pdfrwt beam="1">  1        1 0.67154986E-01 0.94203113E+03</pdfrwt>
<pdfrwt beam="2">  1       -1 0.78192580E-01 0.94203113E+03</pdfrwt>
<totfact> 0.87937666E+01</totfact>
</mgrwt>
</event>
<event>
11    1  0.2355167E-012  0.1478884E+04  0.7818608E-02  0.8898617E-01
         -2   -1    0    0    0  501 -0.00000000000E+00  0.00000000000E+00  0.76699217900E+03  0.76699217900E+03  0.00000000000E+00 0. -1.
          2   -1    0    0  501    0  0.00000000000E+00 -0.00000000000E+00 -0.71288151768E+03  0.71288151768E+03  0.00000000000E+00 0.  1.
    9900016    2    1    2    0    0 -0.21274587653E+03  0.73770157800E+02 -0.46689909644E+03  0.91228756945E+03  0.75071365976E+03 0.  0.
         23    2    3    3    0    0 -0.31508859730E+02  0.16771713157E+03 -0.17032228750E+03  0.25667306772E+03  0.88031458069E+02 0.  0.
        -15    1    4    4    0    0 -0.59748721599E+01  0.15130160317E+03 -0.10388646852E+03  0.18363080504E+03  0.00000000000E+00 0. -1.
        -15    1    3    3    0    0  0.16821561511E+02  0.11934102320E+03  0.31044572211E+01  0.12056070008E+03  0.00000000000E+00 0.  1.
         15    1    3    3    0    0  0.45185115758E+02 -0.25797936762E+02 -0.77666512256E+01  0.52607500402E+02  0.00000000000E+00 0. -1.
         15    1    4    4    0    0 -0.25533987570E+02  0.16415528406E+02 -0.66435818979E+02  0.73042262680E+02  0.00000000000E+00 0.  1.
        -16    1    1    2    0    0  0.21274587653E+03 -0.73770157800E+02  0.52100975775E+03  0.56758612724E+03  0.00000000000E+00 0.  1.
         16    1    3    3    0    0 -0.12345145066E+03 -0.26396343019E+02 -0.13007235649E+02  0.12691026663E+03  0.00000000000E+00 0. -1.
    9900018    1    3    3    0    0 -0.11979224340E+03 -0.16109371719E+03 -0.27890737928E+03  0.35553603462E+03  0.91187600000E+02 0.  0.
<mgrwt>
<rscale>  0 0.14788841E+04</rscale>
<asrwt>0</asrwt>
<pdfrwt beam="1">  1        2 0.10967408E+00 0.14788841E+04</pdfrwt>
<pdfrwt beam="2">  1       -2 0.11799880E+00 0.14788841E+04</pdfrwt>
<totfact> 0.21445204E+01</totfact>
</mgrwt>
</event>
<event>
11    1  0.2355167E-012  0.1225369E+04  0.7818608E-02  0.9090936E-01
         -2   -1    0    0    0  501 -0.00000000000E+00  0.00000000000E+00  0.73305826687E+03  0.73305826687E+03  0.00000000000E+00 0.  1.
          2   -1    0    0  501    0  0.00000000000E+00 -0.00000000000E+00 -0.51207741147E+03  0.51207741147E+03  0.00000000000E+00 0. -1.
    9900016    2    1    2    0    0  0.18149459071E+03 -0.32601006759E+03  0.31307993221E+03  0.86081147851E+03  0.70975665334E+03 0.  0.
         23    2    3    3    0    0  0.47400711164E+02  0.10077592670E+02 -0.12994657480E+03  0.16553743484E+03  0.90377788961E+02 0.  0.
        -15    1    4    4    0    0 -0.53936274801E+01 -0.31001257553E+02 -0.65420427330E+02  0.72594775978E+02  0.00000000000E+00 0.  1.
        -15    1    3    3    0    0  0.10068550542E+02 -0.10231126378E+02  0.41365008514E+02  0.43784878513E+02  0.00000000000E+00 0.  1.
         15    1    3    3    0    0  0.16545221824E+03 -0.37920775649E+02  0.17365088684E+03  0.24283132468E+03  0.00000000000E+00 0. -1.
         15    1    4    4    0    0  0.52794338644E+02  0.41078850224E+02 -0.64526147473E+02  0.92942658862E+02  0.00000000000E+00 0. -1.
        -16    1    3    3    0    0 -0.42255409845E+02 -0.91921783274E+02  0.14559366567E+03  0.17729255310E+03  0.00000000000E+00 0.  1.
         16    1    1    2    0    0 -0.18149459071E+03  0.32601006759E+03 -0.92099076806E+02  0.38432419983E+03  0.00000000000E+00 0. -1.
    9900018    1    3    3    0    0  0.82852060852E+00 -0.19601397496E+03  0.82416945989E+02  0.23136528739E+03  0.91187600000E+02 0.  0.
<mgrwt>
<rscale>  0 0.12253695E+04</rscale>
<asrwt>0</asrwt>
<pdfrwt beam="1">  1        2 0.78781140E-01 0.12253695E+04</pdfrwt>
<pdfrwt beam="2">  1       -2 0.11277820E+00 0.12253695E+04</pdfrwt>
<totfact> 0.36479015E+01</totfact>
</mgrwt>
</event>
<event>
11    1  0.2355167E-012  0.1108615E+04  0.7818608E-02  0.9196835E-01
          2   -1    0    0  501    0  0.00000000000E+00  0.00000000000E+00  0.35698575376E+03  0.35698575376E+03  0.00000000000E+00 0. -1.
         -2   -1    0    0    0  501 -0.00000000000E+00 -0.00000000000E+00 -0.86069780221E+03  0.86069780221E+03  0.00000000000E+00 0.  1.
    9900016    2    1    2    0    0  0.30142456801E+03  0.11170131355E+03 -0.37336221938E+03  0.87080456902E+03  0.71803015043E+03 0.  0.
         23    2    3    3    0    0  0.81110150087E+02  0.22427050217E+02  0.55474693554E+02  0.13052344639E+03  0.82928278676E+02 0.  0.
        -15    1    4    4    0    0  0.39189950061E+02  0.40281850115E+02  0.62909232087E+02  0.84356689813E+02  0.00000000000E+00 0.  1.
        -15    1    3    3    0    0 -0.10693285733E+03 -0.34360690285E+02 -0.21535607131E+02  0.11436378530E+03  0.00000000000E+00 0.  1.
         15    1    4    4    0    0  0.41920200026E+02 -0.17854799898E+02 -0.74345385333E+01  0.46166756577E+02  0.00000000000E+00 0. -1.
         15    1    3    3    0    0  0.10859484970E+03  0.62478066263E+02 -0.11019935712E+03  0.16685397344E+03  0.00000000000E+00 0. -1.
        -16    1    1    2    0    0 -0.30142456801E+03 -0.11170131355E+03 -0.13034982907E+03  0.34687898695E+03  0.00000000000E+00 0.  1.
         16    1    3    3    0    0  0.21696087139E+03  0.11340874205E+03 -0.21070960207E+03  0.32300479701E+03  0.00000000000E+00 0. -1.
    9900018    1    3    3    0    0  0.16915541557E+01 -0.52251854696E+02 -0.86392346612E+02  0.13605856688E+03  0.91187600000E+02 0.  0.
<mgrwt>
<rscale>  0 0.11086151E+04</rscale>
<asrwt>0</asrwt>
<pdfrwt beam="1">  1        2 0.54920886E-01 0.11086151E+04</pdfrwt>
<pdfrwt beam="2">  1       -2 0.13241504E+00 0.11086151E+04</pdfrwt>
<totfact> 0.37146582E+01</totfact>
</mgrwt>
</event>
<event>
11    1  0.2355167E-012  0.1167477E+04  0.7818608E-02  0.9141810E-01
          2   -1    0    0  501    0  0.00000000000E+00  0.00000000000E+00  0.12376753123E+04  0.12376753123E+04  0.00000000000E+00 0. -1.
         -2   -1    0    0    0  501 -0.00000000000E+00 -0.00000000000E+00 -0.27531490948E+03  0.27531490948E+03  0.00000000000E+00 0.  1.
    9900016    2    1    2    0    0 -0.33223504295E+03  0.96391799517E+02  0.48858903212E+03  0.92636358204E+03  0.70693616475E+03 0.  0.
         23    2    3    3    0    0 -0.92110149116E+01  0.12930098507E+03  0.13631470942E+03  0.20913435558E+03  0.91388681706E+02 0.  0.
        -15    1    3    3    0    0 -0.28903257051E+03 -0.86237692675E+01  0.17431752843E+03  0.33764004047E+03  0.00000000000E+00 0. -1.
        -15    1    4    4    0    0 -0.14187637830E+02  0.10752195302E+02  0.72007053587E+02  0.74174891556E+02  0.00000000000E+00 0. -1.
         15    1    3    3    0    0 -0.58206555655E+02 -0.28667890997E+02  0.22949376391E+02  0.68822416204E+02  0.00000000000E+00 0.  1.
         15    1    4    4    0    0  0.49766229182E+01  0.11854878977E+03  0.64307655832E+02  0.13495946402E+03  0.00000000000E+00 0.  1.
        -16    1    3    3    0    0  0.10810195079E+03 -0.52236806832E+02  0.12078851497E+03  0.17030731370E+03  0.00000000000E+00 0.  1.
         16    1    1    2    0    0  0.33223504295E+03 -0.96391799517E+02  0.47377137073E+03  0.58662663979E+03  0.00000000000E+00 0. -1.
    9900018    1    3    3    0    0 -0.83886852666E+02  0.56619281544E+02  0.34218902909E+02  0.14045945608E+03  0.91187600000E+02 0.  0.
<mgrwt>
<rscale>  0 0.11674767E+04</rscale>
<asrwt>0</asrwt>
<pdfrwt beam="1">  1        2 0.19041158E+00 0.11674767E+04</pdfrwt>
<pdfrwt beam="2">  1       -2 0.42356141E-01 0.11674767E+04</pdfrwt>
<totfact> 0.93912546E+01</totfact>
</mgrwt>
</event>
<event>
11    1  0.2355167E-012  0.9649660E+03  0.7818608E-02  0.9347827E-01
         -1   -1    0    0    0  501 -0.00000000000E+00  0.00000000000E+00  0.75663300732E+03  0.75663300732E+03  0.00000000000E+00 0.  1.
          1   -1    0    0  501    0  0.00000000000E+00 -0.00000000000E+00 -0.30766548323E+03  0.30766548323E+03  0.00000000000E+00 0. -1.
    9900016    2    1    2    0    0  0.64434811985E+02  0.18786957136E+03  0.26264760510E+03  0.79197160417E+03  0.72026969706E+03 0.  0.
         23    2    3    3    0    0 -0.25838212627E+02 -0.15848509171E+00  0.19861156177E+02  0.97435457633E+02  0.91823551065E+02 0.  0.
        -15    1    3    3    0    0 -0.40519050094E+02 -0.60014300088E+02  0.11931212756E+03  0.13956680629E+03  0.00000000000E+00 0.  1.
        -15    1    4    4    0    0 -0.25121097542E+02 -0.43358626109E+02  0.55799268416E+00  0.50113384995E+02  0.00000000000E+00 0. -1.
         15    1    3    3    0    0 -0.73815635822E+02  0.95155800173E+02 -0.47976836982E+02  0.12963468396E+03  0.00000000000E+00 0. -1.
         15    1    4    4    0    0 -0.71711508466E+00  0.43200141017E+02  0.19303163493E+02  0.47322072638E+02  0.00000000000E+00 0.  1.
        -16    1    1    2    0    0 -0.64434811985E+02 -0.18786957136E+03  0.18631991899E+03  0.27232688638E+03  0.00000000000E+00 0.  1.
         16    1    3    3    0    0  0.64162446147E+02 -0.18815042421E+02  0.17302275715E+03  0.18549312604E+03  0.00000000000E+00 0. -1.
    9900018    1    3    3    0    0  0.14044526438E+03  0.17170159878E+03 -0.15715988102E+01  0.23984153024E+03  0.91187600000E+02 0.  0.
<mgrwt>
<rscale>  0 0.96496603E+03</rscale>
<asrwt>0</asrwt>
<pdfrwt beam="1">  1        1 0.47333151E-01 0.96496603E+03</pdfrwt>
<pdfrwt beam="2">  1       -1 0.11640508E+00 0.96496603E+03</pdfrwt>
<totfact> 0.56833739E+01</totfact>
</mgrwt>
</event>
<event>
11    1  0.2355167E-012  0.1017030E+04  0.7818608E-02  0.9290061E-01
          2   -1    0    0  501    0  0.00000000000E+00  0.00000000000E+00  0.26673660273E+03  0.26673660273E+03  0.00000000000E+00 0. -1.
         -2   -1    0    0    0  501 -0.00000000000E+00 -0.00000000000E+00 -0.96944877097E+03  0.96944877097E+03  0.00000000000E+00 0.  1.
    9900016    2    1    2    0    0 -0.92863733731E+02 -0.22511481987E+03 -0.62315261748E+03  0.98000169490E+03  0.71608922780E+03 0.  0.
         23    2    3    3    0    0 -0.78571197478E+02 -0.87769758334E+02 -0.11229946738E+03  0.18841382239E+03  0.94929629424E+02 0.  0.
        -15    1    4    4    0    0 -0.31427018024E+02 -0.43630589930E+02  0.55218651574E+01  0.54053462741E+02  0.00000000000E+00 0.  1.
        -15    1    3    3    0    0 -0.18166236532E+02 -0.27624686662E+02  0.45436596731E+02  0.56192702243E+02  0.00000000000E+00 0. -1.
         15    1    3    3    0    0 -0.84357326750E+02 -0.92423450433E+02 -0.90972255903E+02  0.15470683279E+03  0.00000000000E+00 0.  1.
         15    1    4    4    0    0 -0.47144179454E+02 -0.44139168404E+02 -0.11782133254E+03  0.13436035965E+03  0.00000000000E+00 0. -1.
        -16    1    3    3    0    0  0.80482688834E+02 -0.15918553076E+03 -0.24816443041E+03  0.30561917631E+03  0.00000000000E+00 0.  1.
         16    1    1    2    0    0  0.92863733731E+02  0.22511481987E+03 -0.79559550756E+02  0.25618367881E+03  0.00000000000E+00 0. -1.
    9900018    1    3    3    0    0  0.77483381947E+01  0.14188860631E+03 -0.21715306051E+03  0.27506916118E+03  0.91187600000E+02 0.  0.
<mgrwt>
<rscale>  0 0.10170299E+04</rscale>
<asrwt>0</asrwt>
<pdfrwt beam="1">  1        2 0.41036401E-01 0.10170299E+04</pdfrwt>
<pdfrwt beam="2">  1       -2 0.14914596E+00 0.10170299E+04</pdfrwt>
<totfact> 0.37946730E+01</totfact>
</mgrwt>
</event>
<event>
11    1  0.2355167E-012  0.9714169E+03  0.7818608E-02  0.9340462E-01
         -1   -1    0    0    0  501 -0.00000000000E+00  0.00000000000E+00  0.48978490760E+03  0.48978490760E+03  0.00000000000E+00 0.  1.
          1   -1    0    0  501    0  0.00000000000E+00 -0.00000000000E+00 -0.48166594281E+03  0.48166594281E+03  0.00000000000E+00 0. -1.
    9900016    2    1    2    0    0 -0.22937617354E+03 -0.29435305115E+02  0.50645268772E+01  0.74017353686E+03  0.70310123671E+03 0.  0.
         23    2    3    3    0    0 -0.68859573821E+02 -0.62379828610E+02  0.17601177029E+03  0.21696442435E+03  0.86374384094E+02 0.  0.
        -15    1    4    4    0    0 -0.23494851534E+02  0.19199084352E+02  0.24461425421E+02  0.38974019836E+02  0.00000000000E+00 0. -1.
        -15    1    3    3    0    0  0.40565234741E+02  0.68130672324E+02 -0.46391629235E+02  0.91866805997E+02  0.00000000000E+00 0. -1.
         15    1    3    3    0    0 -0.10163728167E+03  0.40316220061E+01 -0.43224564455E+02  0.11052037809E+03  0.00000000000E+00 0.  1.
         15    1    4    4    0    0 -0.45364722287E+02 -0.81578912962E+02  0.15155034487E+03  0.17799040451E+03  0.00000000000E+00 0.  1.
        -16    1    3    3    0    0  0.44970155090E+02 -0.11095179899E+03 -0.61284451653E+02  0.13449312459E+03  0.00000000000E+00 0.  1.
         16    1    1    2    0    0  0.22937617354E+03  0.29435305115E+02  0.30544379133E+01  0.23127731356E+03  0.00000000000E+00 0. -1.
    9900018    1    3    3    0    0 -0.14441470789E+03  0.71734028155E+02 -0.20046598073E+02  0.18632880383E+03  0.91187600000E+02 0.  0.
<mgrwt>
<rscale>  0 0.97141692E+03</rscale>
<asrwt>0</asrwt>
<pdfrwt beam="1">  1        1 0.74102452E-01 0.97141692E+03</pdfrwt>
<pdfrwt beam="2">  1       -1 0.75351525E-01 0.97141692E+03</pdfrwt>
<totfact> 0.83014246E+01</totfact>
</mgrwt>
</event>
<event>
11    1  0.2355167E-012  0.8138268E+03  0.7818608E-02  0.9540216E-01
          3   -1    0    0  501    0  0.00000000000E+00  0.00000000000E+00  0.11055592086E+04  0.11055592086E+04  0.00000000000E+00 0. -1.
         -3   -1    0    0    0  501 -0.00000000000E+00 -0.00000000000E+00 -0.14976900773E+03  0.14976900773E+03  0.00000000000E+00 0.  1.
    9900016    2    1    2    0    0  0.58503631238E+02  0.35396527745E+02  0.72203137972E+03  0.10117737553E+04  0.70546525746E+03 0.  0.
         23    2    3    3    0    0  0.45540923180E+02 -0.11727638472E+03  0.24758393315E+03  0.29217554958E+03  0.90780073362E+02 0.  0.
        -15    1    3    3    0    0  0.85352308444E+01  0.23817783263E+02 -0.25637038426E+02  0.36019365685E+02  0.00000000000E+00 0. -1.
        -15    1    4    4    0    0  0.38892652961E+02 -0.12190466269E+02  0.12010895141E+03  0.12683613890E+03  0.00000000000E+00 0. -1.
         15    1    4    4    0    0  0.66482702183E+01 -0.10508591845E+03  0.12747498174E+03  0.16533941068E+03  0.00000000000E+00 0.  1.
         15    1    3    3    0    0  0.38029023221E+02  0.92574776731E+01  0.68818768851E+02  0.79170262386E+02  0.00000000000E+00 0.  1.
        -16    1    3    3    0    0 -0.18567618010E+03  0.62031699412E+01  0.97473258276E+02  0.20979790098E+03  0.00000000000E+00 0.  1.
         16    1    1    2    0    0 -0.58503631238E+02 -0.35396527745E+02  0.23375882118E+03  0.24355446110E+03  0.00000000000E+00 0. -1.
    9900018    1    3    3    0    0  0.15207463410E+03  0.11339448158E+03  0.33379245786E+03  0.39461067663E+03  0.91187600000E+02 0.  0.
<mgrwt>
<rscale>  0 0.81382678E+03</rscale>
<asrwt>0</asrwt>
<pdfrwt beam="1">  1        3 0.17008603E+00 0.81382678E+03</pdfrwt>
<pdfrwt beam="2">  1       -3 0.23041386E-01 0.81382678E+03</pdfrwt>
<totfact> 0.10877652E+01</totfact>
</mgrwt>
</event>
<event>
11    1  0.2355167E-012  0.8451321E+03  0.7818608E-02  0.9496894E-01
         -1   -1    0    0    0  501 -0.00000000000E+00  0.00000000000E+00  0.20774596183E+03  0.20774596183E+03  0.00000000000E+00 0.  1.
          1   -1    0    0  501    0  0.00000000000E+00 -0.00000000000E+00 -0.85952121900E+03  0.85952121900E+03  0.00000000000E+00 0. -1.
    9900016    2    1    2    0    0  0.89891714892E+02  0.59275781581E+02 -0.55041830807E+03  0.91939098322E+03  0.72850897556E+03 0.  0.
         23    2    3    3    0    0  0.13777754683E+03  0.27253411808E+03 -0.18741932244E+03  0.36991039810E+03  0.91924981767E+02 0.  0.
        -15    1    4    4    0    0  0.70522266329E+02  0.22689280490E+03 -0.13719071735E+03  0.27436294919E+03  0.00000000000E+00 0. -1.
        -15    1    3    3    0    0 -0.27469586589E+02 -0.11982826195E+03 -0.23309731934E+03  0.26352941170E+03  0.00000000000E+00 0.  1.
         15    1    3    3    0    0 -0.65053169929E+02  0.21274003788E+02 -0.71613839718E+02  0.99060790397E+02  0.00000000000E+00 0. -1.
         15    1    4    4    0    0  0.67255280499E+02  0.45641313184E+02 -0.50228605089E+02  0.95547448911E+02  0.00000000000E+00 0.  1.
        -16    1    3    3    0    0 -0.30293296635E+00 -0.63615957265E+02 -0.16921958775E+02  0.65828827089E+02  0.00000000000E+00 0.  1.
         16    1    1    2    0    0 -0.89891714892E+02 -0.59275781581E+02 -0.10135694910E+03  0.14787619760E+03  0.00000000000E+00 0. -1.
    9900018    1    3    3    0    0  0.44939857548E+02 -0.51088121074E+02 -0.41365867804E+02  0.12106155593E+03  0.91187600000E+02 0.  0.
<mgrwt>
<rscale>  0 0.84513209E+03</rscale>
<asrwt>0</asrwt>
<pdfrwt beam="1">  1        1 0.13223403E+00 0.84513209E+03</pdfrwt>
<pdfrwt beam="2">  1       -1 0.31960917E-01 0.84513209E+03</pdfrwt>
<totfact> 0.18090607E+02</totfact>
</mgrwt>
</event>
<event>
11    1  0.2355167E-012  0.8895865E+03  0.7818608E-02  0.9438693E-01
         -2   -1    0    0    0  501 -0.00000000000E+00  0.00000000000E+00  0.10796691766E+03  0.10796691766E+03  0.00000000000E+00 0.  1.
          2   -1    0    0  501    0  0.00000000000E+00 -0.00000000000E+00 -0.18324226202E+04  0.18324226202E+04  0.00000000000E+00 0. -1.
    9900016    2    1    2    0    0  0.54306653557E+02 -0.14368389616E+03 -0.13300803107E+04  0.15171564764E+04  0.71348151082E+03 0.  0.
         23    2    3    3    0    0 -0.29747728381E+02 -0.54928593018E+02 -0.12501313824E+03  0.16678822341E+03  0.91038173634E+02 0.  0.
        -15    1    4    4    0    0 -0.39601705080E+02 -0.73607270413E+02 -0.74223975521E+02  0.11178337911E+03  0.00000000000E+00 0.  1.
        -15    1    3    3    0    0  0.16947040608E+03  0.10968689655E+03 -0.34255516098E+03  0.39761221325E+03  0.00000000000E+00 0.  1.
         15    1    3    3    0    0  0.18423771993E+02 -0.20005377056E+02 -0.13645003815E+03  0.13913397643E+03  0.00000000000E+00 0. -1.
         15    1    4    4    0    0  0.98539766993E+01  0.18678677396E+02 -0.50789162723E+02  0.55004844297E+02  0.00000000000E+00 0. -1.
        -16    1    3    3    0    0 -0.41528039907E+02 -0.23800551918E+03 -0.46947857610E+03  0.52799747980E+03  0.00000000000E+00 0.  1.
         16    1    1    2    0    0 -0.54306653557E+02  0.14368389616E+03 -0.39437539180E+03  0.42323306144E+03  0.00000000000E+00 0. -1.
    9900018    1    3    3    0    0 -0.62311756232E+02  0.59568696534E+02 -0.25658339725E+03  0.28562458352E+03  0.91187600000E+02 0.  0.
<mgrwt>
<rscale>  0 0.88958647E+03</rscale>
<asrwt>0</asrwt>
<pdfrwt beam="1">  1        2 0.28191116E+00 0.88958647E+03</pdfrwt>
<pdfrwt beam="2">  1       -2 0.16610296E-01 0.88958647E+03</pdfrwt>
<totfact> 0.24610270E+02</totfact>
</mgrwt>
</event>
<event>
11    1  0.2355167E-012  0.1028849E+04  0.7818608E-02  0.9277458E-01
         -2   -1    0    0    0  501 -0.00000000000E+00  0.00000000000E+00  0.35308954755E+03  0.35308954755E+03  0.00000000000E+00 0.  1.
          2   -1    0    0  501    0  0.00000000000E+00 -0.00000000000E+00 -0.74947721288E+03  0.74947721288E+03  0.00000000000E+00 0. -1.
    9900016    2    1    2    0    0 -0.23943903630E+02  0.10005414777E+03 -0.54530833122E+03  0.92156535784E+03  0.73575633852E+03 0.  0.
         23    2    3    3    0    0 -0.12482206779E+03 -0.95454799422E+02 -0.10517357161E+03  0.21041583041E+03  0.92310206254E+02 0.  0.
        -15    1    3    3    0    0  0.40756693627E+02  0.10789026184E+03  0.29344039756E+02  0.11900625758E+03  0.00000000000E+00 0.  1.
        -15    1    4    4    0    0 -0.46320719606E+02 -0.38979592289E+02  0.85435427590E+01  0.61139265638E+02  0.00000000000E+00 0. -1.
         15    1    4    4    0    0 -0.78501348186E+02 -0.56475207133E+02 -0.11371711437E+03  0.14927656477E+03  0.00000000000E+00 0.  1.
         15    1    3    3    0    0  0.16874264729E+02  0.18733129360E+03 -0.26132306861E+03  0.32197437873E+03  0.00000000000E+00 0. -1.
        -16    1    1    2    0    0  0.23943903630E+02 -0.10005414777E+03  0.14892066589E+03  0.18100140258E+03  0.00000000000E+00 0.  1.
         16    1    3    3    0    0 -0.13290431799E+02 -0.13565573823E+02  0.18707892099E+01  0.19082982545E+02  0.00000000000E+00 0. -1.
    9900018    1    3    3    0    0  0.56537637604E+02 -0.86147034423E+02 -0.21002651996E+03  0.25108590858E+03  0.91187600000E+02 0.  0.
<mgrwt>
<rscale>  0 0.10288490E+04</rscale>
<asrwt>0</asrwt>
<pdfrwt beam="1">  1        2 0.11530418E+00 0.10288490E+04</pdfrwt>
<pdfrwt beam="2">  1       -2 0.54321470E-01 0.10288490E+04</pdfrwt>
<totfact> 0.11939806E+02</totfact>
</mgrwt>
</event>
<event>
11    1  0.2355167E-012  0.1686389E+04  0.7818608E-02  0.8769165E-01
          2   -1    0    0  501    0  0.00000000000E+00  0.00000000000E+00  0.17815662595E+04  0.17815662595E+04  0.00000000000E+00 0. -1.
         -2   -1    0    0    0  501 -0.00000000000E+00 -0.00000000000E+00 -0.39907432328E+03  0.39907432328E+03  0.00000000000E+00 0.  1.
    9900016    2    1    2    0    0  0.36676462392E+03 -0.38800667723E+03  0.13775927707E+04  0.16467028779E+04  0.72718845912E+03 0.  0.
         23    2    3    3    0    0 -0.34121864935E+02 -0.22240710714E+02  0.32171645971E+02  0.10756268644E+03  0.94211282923E+02 0.  0.
        -15    1    4    4    0    0 -0.38457780474E+02 -0.43784716071E+01  0.61667503061E+02  0.72808329375E+02  0.00000000000E+00 0.  1.
        -15    1    3    3    0    0  0.37649485079E+02 -0.21385024468E+03  0.22601910508E+03  0.31342311136E+03  0.00000000000E+00 0.  1.
         15    1    3    3    0    0  0.51393075301E+02 -0.90299424817E+01  0.30769833103E+03  0.31209141444E+03  0.00000000000E+00 0. -1.
         15    1    4    4    0    0  0.43359155384E+01 -0.17862239107E+02 -0.29495857091E+02  0.34754357065E+02  0.00000000000E+00 0. -1.
        -16    1    1    2    0    0 -0.36676462392E+03  0.38800667723E+03  0.48991655134E+01  0.53393770494E+03  0.00000000000E+00 0.  1.
         16    1    3    3    0    0 -0.17841866002E+02 -0.64052745960E+02  0.16290601783E+03  0.17595299682E+03  0.00000000000E+00 0. -1.
    9900018    1    3    3    0    0  0.32968579448E+03 -0.78833033396E+02  0.64879767082E+03  0.73767266880E+03  0.91187600000E+02 0.  0.
<mgrwt>
<rscale>  0 0.16863895E+04</rscale>
<asrwt>0</asrwt>
<pdfrwt beam="1">  1        2 0.27408711E+00 0.16863895E+04</pdfrwt>
<pdfrwt beam="2">  1       -2 0.61396051E-01 0.16863895E+04</pdfrwt>
<totfact> 0.20755392E+01</totfact>
</mgrwt>
</event>
<event>
11    1  0.2355167E-012  0.8601431E+03  0.7818608E-02  0.9476823E-01
         -1   -1    0    0    0  501 -0.00000000000E+00  0.00000000000E+00  0.52127117024E+02  0.52127117024E+02  0.00000000000E+00 0.  1.
          1   -1    0    0  501    0  0.00000000000E+00 -0.00000000000E+00 -0.35482787236E+04  0.35482787236E+04  0.00000000000E+00 0. -1.
    9900016    2    1    2    0    0 -0.56062500235E+02  0.43220426952E+02 -0.24494950030E+04  0.25513581510E+04  0.71020534766E+03 0.  0.
         23    2    3    3    0    0  0.78713119778E+01 -0.62777996734E+02 -0.47424373374E+03  0.48746761579E+03  0.93351609654E+02 0.  0.
        -15    1    4    4    0    0 -0.39068626330E+00 -0.82793512109E+02 -0.43341501621E+03  0.44125218930E+03  0.00000000000E+00 0. -1.
        -15    1    3    3    0    0 -0.15941382861E+03  0.18224738923E+03 -0.61180646322E+03  0.65797722459E+03  0.00000000000E+00 0.  1.
         15    1    3    3    0    0  0.85576775431E+02  0.28662899751E+02 -0.35037354661E+03  0.36181012766E+03  0.00000000000E+00 0. -1.
         15    1    4    4    0    0  0.82619982411E+01  0.20015515375E+02 -0.40828717528E+02  0.46215426490E+02  0.00000000000E+00 0.  1.
        -16    1    3    3    0    0  0.85556533968E+02 -0.18293934520E+02 -0.58647523122E+03  0.59296524803E+03  0.00000000000E+00 0.  1.
         16    1    1    2    0    0  0.56062500235E+02 -0.43220426952E+02 -0.10466566036E+04  0.10490476896E+04  0.00000000000E+00 0. -1.
    9900018    1    3    3    0    0 -0.75653293002E+02 -0.86617930778E+02 -0.42659602818E+03  0.45113793492E+03  0.91187600000E+02 0.  0.
<mgrwt>
<rscale>  0 0.86014310E+03</rscale>
<asrwt>0</asrwt>
<pdfrwt beam="1">  1        1 0.54588920E+00 0.86014310E+03</pdfrwt>
<pdfrwt beam="2">  1       -1 0.80195541E-02 0.86014310E+03</pdfrwt>
<totfact> 0.21674547E+01</totfact>
</mgrwt>
</event>
<event>
11    1  0.2355167E-012  0.1725286E+04  0.7818608E-02  0.8747073E-01
         -1   -1    0    0    0  501 -0.00000000000E+00  0.00000000000E+00  0.64724779189E+03  0.64724779189E+03  0.00000000000E+00 0.  1.
          1   -1    0    0  501    0  0.00000000000E+00 -0.00000000000E+00 -0.11497189087E+04  0.11497189087E+04  0.00000000000E+00 0. -1.
    9900016    2    1    2    0    0  0.22800409161E+03 -0.61415623895E+03 -0.60267184335E+03  0.11342345245E+04  0.70292307843E+03 0.  0.
         23    2    3    3    0    0 -0.65013486355E+02 -0.13656315614E+03 -0.10266103599E+03  0.20424407728E+03  0.91104916278E+02 0.  0.
        -15    1    3    3    0    0  0.47429344267E+02 -0.66169939460E+02 -0.47736005544E+01  0.81552381008E+02  0.00000000000E+00 0.  1.
        -15    1    4    4    0    0 -0.36669221652E+01 -0.32314307826E+02 -0.72679886924E+02  0.79624285062E+02  0.00000000000E+00 0.  1.
         15    1    4    4    0    0 -0.61346564190E+02 -0.10424884831E+03 -0.29981149065E+02  0.12461979222E+03  0.00000000000E+00 0. -1.
         15    1    3    3    0    0 -0.77526835819E+02 -0.16747842542E+03 -0.24510862987E+03  0.30681863322E+03  0.00000000000E+00 0. -1.
        -16    1    1    2    0    0 -0.22800409161E+03  0.61415623895E+03  0.10020072652E+03  0.66273217609E+03  0.00000000000E+00 0.  1.
         16    1    3    3    0    0  0.18100326072E+02  0.27604884791E+01  0.40838248546E+02  0.44754939893E+02  0.00000000000E+00 0. -1.
    9900018    1    3    3    0    0  0.30501474344E+03 -0.24670520641E+03 -0.29096682548E+03  0.49686449311E+03  0.91187600000E+02 0.  0.
<mgrwt>
<rscale>  0 0.17252861E+04</rscale>
<asrwt>0</asrwt>
<pdfrwt beam="1">  1        1 0.17687983E+00 0.17252861E+04</pdfrwt>
<pdfrwt beam="2">  1       -1 0.99576585E-01 0.17252861E+04</pdfrwt>
<totfact> 0.10637506E+01</totfact>
</mgrwt>
</event>
<event>
11    1  0.2355167E-012  0.8459482E+03  0.7818608E-02  0.9495791E-01
          2   -1    0    0  501    0  0.00000000000E+00  0.00000000000E+00  0.92748685798E+03  0.92748685798E+03  0.00000000000E+00 0. -1.
         -2   -1    0    0    0  501 -0.00000000000E+00 -0.00000000000E+00 -0.19289445142E+03  0.19289445142E+03  0.00000000000E+00 0.  1.
    9900016    2    1    2    0    0  0.11396527155E+03  0.49199451964E+02  0.64005387312E+03  0.96434860930E+03  0.71055654988E+03 0.  0.
         23    2    3    3    0    0  0.54411052106E+02 -0.26438614662E+02  0.99406890170E+01  0.11282936067E+03  0.94721087381E+02 0.  0.
        -15    1    4    4    0    0  0.44925276165E+02 -0.34758511314E+01 -0.37927905451E+02  0.58897266418E+02  0.00000000000E+00 0.  1.
        -15    1    3    3    0    0  0.23536379252E+02 -0.72055760044E+02 -0.15499257990E+02  0.77370670813E+02  0.00000000000E+00 0.  1.
         15    1    3    3    0    0  0.60478407063E+02 -0.69930423724E+02  0.52320091754E+02  0.10623226386E+03  0.00000000000E+00 0. -1.
         15    1    4    4    0    0  0.94857759410E+01 -0.22962763530E+02  0.47868594468E+02  0.53932094252E+02  0.00000000000E+00 0. -1.
        -16    1    1    2    0    0 -0.11396527155E+03 -0.49199451964E+02  0.94538533437E+02  0.15603270009E+03  0.00000000000E+00 0.  1.
         16    1    3    3    0    0 -0.89838044570E+02  0.57160400999E+02  0.26607822954E+03  0.28659345759E+03  0.00000000000E+00 0. -1.
    9900018    1    3    3    0    0  0.65377477700E+02  0.16046384939E+03  0.32721412080E+03  0.38132285638E+03  0.91187600000E+02 0.  0.
<mgrwt>
<rscale>  0 0.84594815E+03</rscale>
<asrwt>0</asrwt>
<pdfrwt beam="1">  1        2 0.14269028E+00 0.84594815E+03</pdfrwt>
<pdfrwt beam="2">  1       -2 0.29676070E-01 0.84594815E+03</pdfrwt>
<totfact> 0.29491223E+02</totfact>
</mgrwt>
</event>
<event>
11    1  0.2355167E-012  0.1935912E+04  0.7818608E-02  0.8637184E-01
          2   -1    0    0  501    0  0.00000000000E+00  0.00000000000E+00  0.14649529970E+04  0.14649529970E+04  0.00000000000E+00 0. -1.
         -2   -1    0    0    0  501 -0.00000000000E+00 -0.00000000000E+00 -0.63956934469E+03  0.63956934469E+03  0.00000000000E+00 0.  1.
    9900016    2    1    2    0    0 -0.47782499485E+03  0.34611104752E+03 -0.17803342765E+03  0.94049681823E+03  0.71044266540E+03 0.  0.
         23    2    3    3    0    0 -0.43154515309E+02  0.40466557146E+02  0.11160826303E+02  0.10939140955E+03  0.91334889289E+02 0.  0.
        -15    1    3    3    0    0 -0.92638927647E+02  0.66110890006E+02 -0.87482922303E+02  0.14354749175E+03  0.00000000000E+00 0.  1.
        -15    1    4    4    0    0  0.20218476425E+01 -0.25335269764E+02  0.14945693134E+02  0.29484529930E+02  0.00000000000E+00 0. -1.
         15    1    3    3    0    0 -0.16144084125E+01  0.11339609625E+03  0.14064375283E+03  0.18067082268E+03  0.00000000000E+00 0. -1.
         15    1    4    4    0    0 -0.45176362951E+02  0.65801826910E+02 -0.37848668311E+01  0.79906879624E+02  0.00000000000E+00 0.  1.
        -16    1    3    3    0    0  0.54960145218E+01  0.34190245949E+02  0.31710979548E+02  0.46954928576E+02  0.00000000000E+00 0.  1.
         16    1    1    2    0    0  0.47782499485E+03 -0.34611104752E+03  0.10034170800E+04  0.11640255235E+04  0.00000000000E+00 0. -1.
    9900018    1    3    3    0    0 -0.34591315800E+03  0.91947258170E+02 -0.27406606403E+03  0.45993216566E+03  0.91187600000E+02 0.  0.
<mgrwt>
<rscale>  0 0.19359122E+04</rscale>
<asrwt>0</asrwt>
<pdfrwt beam="1">  1        2 0.22537738E+00 0.19359122E+04</pdfrwt>
<pdfrwt beam="2">  1       -2 0.98395284E-01 0.19359122E+04</pdfrwt>
<totfact> 0.10650639E+01</totfact>
</mgrwt>
</event>
<event>
11    1  0.2355167E-012  0.1054799E+04  0.7818608E-02  0.9250404E-01
          1   -1    0    0  501    0  0.00000000000E+00  0.00000000000E+00  0.75049972156E+03  0.75049972156E+03  0.00000000000E+00 0. -1.
         -1   -1    0    0    0  501 -0.00000000000E+00 -0.00000000000E+00 -0.37061969621E+03  0.37061969621E+03  0.00000000000E+00 0.  1.
    9900016    2    1    2    0    0 -0.29039103015E+02 -0.20138631178E+03  0.49161566055E+03  0.88898891944E+03  0.71219072244E+03 0.  0.
         23    2    3    3    0    0  0.28246035545E+02 -0.57465721574E+02  0.14716103424E+03  0.18594741433E+03  0.93914446275E+02 0.  0.
        -15    1    3    3    0    0 -0.11505107993E+03 -0.43383254505E+02 -0.44583673530E+02  0.13079205522E+03  0.00000000000E+00 0.  1.
        -15    1    4    4    0    0 -0.17604645423E+01 -0.61928191264E+02  0.38066602515E+02  0.72713591134E+02  0.00000000000E+00 0.  1.
         15    1    4    4    0    0  0.30006500088E+02  0.44624696893E+01  0.10909443172E+03  0.11323382320E+03  0.00000000000E+00 0. -1.
         15    1    3    3    0    0  0.12650107953E+03 -0.82278225333E+02  0.21175466519E+03  0.26002359069E+03  0.00000000000E+00 0. -1.
        -16    1    1    2    0    0  0.29039103015E+02  0.20138631178E+03 -0.11173563520E+03  0.23213049832E+03  0.00000000000E+00 0.  1.
         16    1    3    3    0    0 -0.76042775163E+02  0.28363829336E+02 -0.25380582604E+02  0.85036371292E+02  0.00000000000E+00 0. -1.
    9900018    1    3    3    0    0  0.73076369991E+01 -0.46622939701E+02  0.20266421726E+03  0.22718948791E+03  0.91187600000E+02 0.  0.
<mgrwt>
<rscale>  0 0.10547985E+04</rscale>
<asrwt>0</asrwt>
<pdfrwt beam="1">  1        1 0.11546150E+00 0.10547985E+04</pdfrwt>
<pdfrwt beam="2">  1       -1 0.57018415E-01 0.10547985E+04</pdfrwt>
<totfact> 0.76144920E+01</totfact>
</mgrwt>
</event>
<event>
11    1  0.2355167E-012  0.1690819E+04  0.7818608E-02  0.8766618E-01
          2   -1    0    0  501    0  0.00000000000E+00  0.00000000000E+00  0.71494016063E+03  0.71494016063E+03  0.00000000000E+00 0. -1.
         -2   -1    0    0    0  501 -0.00000000000E+00 -0.00000000000E+00 -0.99968812364E+03  0.99968812364E+03  0.00000000000E+00 0.  1.
    9900016    2    1    2    0    0  0.11457597871E+03 -0.52387953965E+03  0.28265883721E+03  0.93390560374E+03  0.71042679530E+03 0.  0.
         23    2    3    3    0    0  0.91019180888E+02 -0.28831096202E+03  0.27809645096E+02  0.31749152216E+03  0.92842814352E+02 0.  0.
        -15    1    3    3    0    0  0.87659801964E+02 -0.58380301294E+02 -0.37981102003E+02  0.11196010258E+03  0.00000000000E+00 0.  1.
        -15    1    4    4    0    0  0.15981468928E+02 -0.19891317425E+03  0.17948788164E+02  0.20035971959E+03  0.00000000000E+00 0. -1.
         15    1    3    3    0    0 -0.51519427846E+02  0.49332992995E+02  0.39733417861E+02  0.81650108012E+02  0.00000000000E+00 0. -1.
         15    1    4    4    0    0  0.75037711960E+02 -0.89397787768E+02  0.98608569322E+01  0.11713180257E+03  0.00000000000E+00 0.  1.
        -16    1    1    2    0    0 -0.11457597871E+03  0.52387953965E+03 -0.56740680022E+03  0.78072268053E+03  0.00000000000E+00 0.  1.
         16    1    3    3    0    0 -0.43690362064E+02  0.31360552691E+02  0.83067624422E+01  0.54418143157E+02  0.00000000000E+00 0. -1.
    9900018    1    3    3    0    0  0.31106785770E+02 -0.25788182203E+03  0.24479011382E+03  0.36838572783E+03  0.91187600000E+02 0.  0.
<mgrwt>
<rscale>  0 0.16908190E+04</rscale>
<asrwt>0</asrwt>
<pdfrwt beam="1">  1        2 0.10999079E+00 0.16908190E+04</pdfrwt>
<pdfrwt beam="2">  1       -2 0.15379817E+00 0.16908190E+04</pdfrwt>
<totfact> 0.10640241E+01</totfact>
</mgrwt>
</event>
<event>
11    1  0.2355167E-012  0.8214469E+03  0.7818608E-02  0.9529482E-01
         -3   -1    0    0    0  501 -0.00000000000E+00  0.00000000000E+00  0.53512201528E+03  0.53512201528E+03  0.00000000000E+00 0.  1.
          3   -1    0    0  501    0  0.00000000000E+00 -0.00000000000E+00 -0.31524354323E+03  0.31524354323E+03  0.00000000000E+00 0. -1.
    9900016    2    1    2    0    0 -0.92636000344E+02  0.33356365046E+02  0.18292382088E+03  0.74520034615E+03  0.71565938546E+03 0.  0.
         23    2    3    3    0    0  0.54278609694E+02 -0.98686876302E+02  0.77094197915E+02  0.16413349645E+03  0.91164808334E+02 0.  0.
        -15    1    3    3    0    0  0.15811052210E+02 -0.27696188618E+02 -0.33355823766E+02  0.46148447591E+02  0.00000000000E+00 0. -1.
        -15    1    4    4    0    0 -0.58164298351E+01 -0.46862383820E+02  0.70031555443E+02  0.84464978725E+02  0.00000000000E+00 0.  1.
         15    1    4    4    0    0  0.60095039529E+02 -0.51824492482E+02  0.70626424730E+01  0.79668517720E+02  0.00000000000E+00 0.  1.
         15    1    3    3    0    0  0.47284286695E+02  0.28125654076E+02 -0.63650263596E+02  0.84132111832E+02  0.00000000000E+00 0. -1.
        -16    1    1    2    0    0  0.92636000344E+02 -0.33356365046E+02  0.36954651163E+02  0.10516521236E+03  0.00000000000E+00 0.  1.
         16    1    3    3    0    0 -0.81660181865E+02 -0.94721591803E+02  0.43887080097E+02  0.13253920573E+03  0.00000000000E+00 0. -1.
    9900018    1    3    3    0    0 -0.12834976708E+03  0.22633536769E+03  0.15894863023E+03  0.31824708455E+03  0.91187600000E+02 0.  0.
<mgrwt>
<rscale>  0 0.82144692E+03</rscale>
<asrwt>0</asrwt>
<pdfrwt beam="1">  1        3 0.48499007E-01 0.82144692E+03</pdfrwt>
<pdfrwt beam="2">  1       -3 0.82326464E-01 0.82144692E+03</pdfrwt>
<totfact> 0.15161552E+01</totfact>
</mgrwt>
</event>
<event>
11    1  0.2355167E-012  0.1907229E+04  0.7818608E-02  0.8651266E-01
         -1   -1    0    0    0  501 -0.00000000000E+00  0.00000000000E+00  0.32301817878E+03  0.32301817878E+03  0.00000000000E+00 0.  1.
          1   -1    0    0  501    0  0.00000000000E+00 -0.00000000000E+00 -0.28152607984E+04  0.28152607984E+04  0.00000000000E+00 0. -1.
    9900016    2    1    2    0    0  0.12260045281E+03  0.46535165588E+03 -0.31856900274E+03  0.91197261295E+03  0.70613370023E+03 0.  0.
         23    2    3    3    0    0  0.56928613102E+01  0.20862130732E+03  0.80941389593E+02  0.24170484944E+03  0.91183700049E+02 0.  0.
        -15    1    4    4    0    0 -0.48470036997E+01  0.36138955491E+02  0.56409599680E+02  0.67168150822E+02  0.00000000000E+00 0.  1.
        -15    1    3    3    0    0  0.14706934899E+03  0.85709679966E+02 -0.13957876427E+03  0.22013126558E+03  0.00000000000E+00 0.  1.
         15    1    4    4    0    0  0.10539865010E+02  0.17248235183E+03  0.24531789913E+02  0.17453669862E+03  0.00000000000E+00 0. -1.
         15    1    3    3    0    0 -0.52432777681E+02  0.10714333267E+03 -0.10060057043E+03  0.15604282964E+03  0.00000000000E+00 0. -1.
        -16    1    3    3    0    0 -0.68300517013E+02 -0.32126149398E+01 -0.12896036511E+03  0.14596594564E+03  0.00000000000E+00 0.  1.
         16    1    1    2    0    0 -0.12260045281E+03 -0.46535165588E+03 -0.21736736169E+04  0.22263063642E+04  0.00000000000E+00 0. -1.
    9900018    1    3    3    0    0  0.90571537204E+02  0.67089950864E+02 -0.30370692538E+02  0.14812772265E+03  0.91187600000E+02 0.  0.
<mgrwt>
<rscale>  0 0.19072288E+04</rscale>
<asrwt>0</asrwt>
<pdfrwt beam="1">  1        1 0.43311706E+00 0.19072288E+04</pdfrwt>
<pdfrwt beam="2">  1       -1 0.49695103E-01 0.19072288E+04</pdfrwt>
<totfact> 0.30912631E+00</totfact>
</mgrwt>
</event>
<event>
11    1  0.2355167E-012  0.1370559E+04  0.7818608E-02  0.8975409E-01
          2   -1    0    0  501    0  0.00000000000E+00  0.00000000000E+00  0.27900144925E+04  0.27900144925E+04  0.00000000000E+00 0.  1.
         -2   -1    0    0    0  501 -0.00000000000E+00 -0.00000000000E+00 -0.16831745853E+03  0.16831745853E+03  0.00000000000E+00 0. -1.
    9900016    2    1    2    0    0 -0.41673422676E+01  0.20915453982E+03  0.68608676228E+03  0.10114497994E+04  0.71312878441E+03 0.  0.
         23    2    3    3    0    0 -0.15909361915E+03  0.73333566822E+02  0.58192272281E+03  0.61474265559E+03  0.92660054013E+02 0.  0.
        -15    1    4    4    0    0 -0.57843280167E+02  0.77094601332E+02  0.30501403352E+03  0.31987963870E+03  0.00000000000E+00 0.  1.
        -15    1    3    3    0    0 -0.43047655672E+02  0.52796957001E+02  0.66762287871E+01  0.68448457676E+02  0.00000000000E+00 0.  1.
         15    1    3    3    0    0  0.88539171509E+02  0.10776836038E+02  0.79198350851E+02  0.11927993907E+03  0.00000000000E+00 0. -1.
         15    1    4    4    0    0 -0.10125033898E+03 -0.37610345104E+01  0.27690868929E+03  0.29486301689E+03  0.00000000000E+00 0. -1.
        -16    1    1    2    0    0  0.41673422676E+01 -0.20915453982E+03  0.19356102716E+04  0.19468821515E+04  0.00000000000E+00 0.  1.
         16    1    3    3    0    0  0.42177138923E+02 -0.12572448458E+02 -0.36528675981E+02  0.57195469025E+02  0.00000000000E+00 0. -1.
    9900018    1    3    3    0    0  0.67257622122E+02  0.84819628419E+02  0.54818135818E+02  0.15178327809E+03  0.91187600000E+02 0.  0.
<mgrwt>
<rscale>  0 0.13705592E+04</rscale>
<asrwt>0</asrwt>
<pdfrwt beam="1">  1        2 0.42923296E+00 0.13705592E+04</pdfrwt>
<pdfrwt beam="2">  1       -2 0.25894996E-01 0.13705592E+04</pdfrwt>
<totfact> 0.30991727E+01</totfact>
</mgrwt>
</event>
<event>
11    1  0.2355167E-012  0.1256453E+04  0.7818608E-02  0.9064830E-01
         -1   -1    0    0    0  501 -0.00000000000E+00  0.00000000000E+00  0.22839580598E+03  0.22839580598E+03  0.00000000000E+00 0.  1.
          1   -1    0    0  501    0  0.00000000000E+00 -0.00000000000E+00 -0.17280018815E+04  0.17280018815E+04  0.00000000000E+00 0. -1.
    9900016    2    1    2    0    0  0.15972574704E+03  0.38051943214E+03 -0.10646883436E+04  0.13568472008E+04  0.73291589211E+03 0.  0.
         23    2    3    3    0    0  0.36442947269E+02  0.58491014729E+02 -0.27338912026E+03  0.29674472717E+03  0.92555576922E+02 0.  0.
        -15    1    4    4    0    0  0.16864877756E+02  0.77010839254E+02 -0.14009519597E+03  0.16075371659E+03  0.00000000000E+00 0.  1.
        -15    1    3    3    0    0 -0.26189983736E+02  0.23514808776E+03 -0.23866368999E+03  0.33606680191E+03  0.00000000000E+00 0.  1.
         15    1    3    3    0    0  0.76384705182E+01 -0.40003276432E+02 -0.22245379683E+03  0.22615105589E+03  0.00000000000E+00 0. -1.
         15    1    4    4    0    0  0.19578069513E+02 -0.18519824525E+02 -0.13329392429E+03  0.13599101059E+03  0.00000000000E+00 0. -1.
        -16    1    1    2    0    0 -0.15972574704E+03 -0.38051943214E+03 -0.43491773190E+03  0.59955048664E+03  0.00000000000E+00 0.  1.
         16    1    3    3    0    0  0.61832089132E+02  0.15208918815E+03 -0.21893648314E+02  0.16563109682E+03  0.00000000000E+00 0. -1.
    9900018    1    3    3    0    0  0.80002223855E+02 -0.25205582059E+02 -0.30828808823E+03  0.33225351905E+03  0.91187600000E+02 0.  0.
<mgrwt>
<rscale>  0 0.12564528E+04</rscale>
<asrwt>0</asrwt>
<pdfrwt beam="1">  1        1 0.26584645E+00 0.12564528E+04</pdfrwt>
<pdfrwt beam="2">  1       -1 0.35137815E-01 0.12564528E+04</pdfrwt>
<totfact> 0.34650725E+01</totfact>
</mgrwt>
</event>
