<event>
12    1  0.7292260E-014  0.4312784E+04  0.7818608E-02  0.8542263E-01
         -2   -1    0    0    0  501 -0.00000000000E+00  0.00000000000E+00  0.34419909668E+04  0.34419909668E+04  0.00000000000E+00 0.  1.
          2   -1    0    0  501    0  0.00000000000E+00 -0.00000000000E+00 -0.19227359399E+04  0.19227359399E+04  0.00000000000E+00 0. -1.
        -24    2    1    2    0    0 -0.21986593832E+03  0.12087609371E+03  0.98430387961E+03  0.10188924949E+04  0.79597285456E+02 0.  0.
    9900016    2    1    2    0    0 -0.11212265969E+04  0.87154870751E+03  0.14519626760E+03  0.26325495434E+04  0.22118971294E+04 0.  0.
         23    2    4    4    0    0 -0.97949633548E+02 -0.60241210070E+02  0.56662438239E+03  0.59006952162E+03  0.11788008958E+03 0.  0.
        -15    1    5    5    0    0 -0.98201878232E+02 -0.90771711485E+02  0.44401414661E+03  0.46371507942E+03  0.00000000000E+00 0. -1.
        -15    1    1    2    0    0  0.13410925352E+04 -0.99242480122E+03  0.38975487972E+03  0.17132848684E+04  0.00000000000E+00 0.  1.
         15    1    5    5    0    0  0.25224468336E+00  0.30530501415E+02  0.12261023579E+03  0.12635444220E+03  0.00000000000E+00 0.  1.
         15    1    3    3    0    0 -0.15451725664E+03  0.68188512787E+02  0.77884260452E+03  0.79694482776E+03  0.00000000000E+00 0. -1.
        -16    1    3    3    0    0 -0.65348681680E+02  0.52687580925E+02  0.20546127509E+03  0.22194766713E+03  0.00000000000E+00 0.  1.
         16    1    4    4    0    0  0.25037430717E+03  0.10603905947E+03 -0.44517930656E+03  0.52164757338E+03  0.00000000000E+00 0. -1.
    9900018    1    4    4    0    0 -0.12736512705E+04  0.82575085811E+03  0.23751191767E+02  0.15208324484E+04  0.91187600000E+02 0.  0.
<mgrwt>
<rscale>  0 0.21436326E+04</rscale>
<asrwt>0</asrwt>
<pdfrwt beam="1">  1        2 0.29580553E+00 0.43127838E+04</pdfrwt>
<pdfrwt beam="2">  1       -2 0.52953707E+00 0.43127838E+04</pdfrwt>
<totfact> 0.61013832E-03</totfact>
</mgrwt>
</event>
<event>
12    1  0.7292260E-014  0.4015535E+04  0.7818608E-02  0.8840206E-01
         -1   -1    0    0    0  501 -0.00000000000E+00  0.00000000000E+00  0.17766535633E+04  0.17766535633E+04  0.00000000000E+00 0.  1.
          1   -1    0    0  501    0  0.00000000000E+00 -0.00000000000E+00 -0.25537275199E+04  0.25537275199E+04  0.00000000000E+00 0. -1.
         24    2    1    2    0    0 -0.13281601198E+01  0.47621602982E+02  0.17959967057E+03  0.20245795575E+03  0.80396524163E+02 0.  0.
    9900016    2    1    2    0    0 -0.12535671112E+04 -0.33481340164E+03 -0.50290156142E+02  0.25535114063E+04  0.21987180097E+04 0.  0.
         23    2    4    4    0    0 -0.15175143452E+03  0.50666493701E+03  0.63587115136E+03  0.83373932924E+03  0.10512512410E+03 0.  0.
        -15    1    3    3    0    0  0.26102107207E+02 -0.10345648348E+02  0.70806447136E+02  0.76170239572E+02  0.00000000000E+00 0.  1.
        -15    1    5    5    0    0 -0.31344088540E+02  0.19843465426E+03  0.30930895165E+03  0.36882352348E+03  0.00000000000E+00 0.  1.
         15    1    5    5    0    0 -0.12040734598E+03  0.30823028275E+03  0.32656219970E+03  0.46491580576E+03  0.00000000000E+00 0. -1.
         15    1    1    2    0    0  0.12548952713E+04  0.28719179866E+03 -0.90638347101E+03  0.15744117212E+04  0.00000000000E+00 0. -1.
        -16    1    4    4    0    0 -0.43514723229E+03 -0.81530787503E+02 -0.53359394193E+03  0.69334181898E+03  0.00000000000E+00 0.  1.
         16    1    3    3    0    0 -0.27430267327E+02  0.57967251329E+02  0.10879322343E+03  0.12628771618E+03  0.00000000000E+00 0. -1.
    9900018    1    4    4    0    0 -0.66666844440E+03 -0.75994755115E+03 -0.15256736557E+03  0.10264302581E+04  0.91187600000E+02 0.  0.
<mgrwt>
<rscale>  0 0.15683904E+04</rscale>
<asrwt>0</asrwt>
<pdfrwt beam="1">  1        1 0.39288116E+00 0.40155354E+04</pdfrwt>
<pdfrwt beam="2">  1       -1 0.27333132E+00 0.40155354E+04</pdfrwt>
<totfact> 0.47355333E-02</totfact>
</mgrwt>
</event>
<event>
12    1  0.7292260E-014  0.3721129E+04  0.7818608E-02  0.8855436E-01
         -2   -1    0    0    0  501 -0.00000000000E+00  0.00000000000E+00  0.15878660558E+04  0.15878660558E+04  0.00000000000E+00 0.  1.
          2   -1    0    0  501    0  0.00000000000E+00 -0.00000000000E+00 -0.30270924270E+04  0.30270924270E+04  0.00000000000E+00 0. -1.
         24    2    1    2    0    0  0.56911124829E+02  0.43225370712E+02 -0.83839517302E+03  0.84563516324E+03  0.84172764994E+02 0.  0.
    9900016    2    1    2    0    0 -0.49261806931E+02 -0.12412138913E+04 -0.31402987992E+03  0.25374588775E+04  0.21902155464E+04 0.  0.
         23    2    4    4    0    0 -0.11935307903E+03 -0.18064551916E+03 -0.78448247348E+03  0.81743146582E+03  0.76834165898E+02 0.  0.
        -15    1    5    5    0    0 -0.90574809804E+02 -0.96726320290E+02 -0.35604208716E+03  0.37990228354E+03  0.00000000000E+00 0. -1.
        -15    1    3    3    0    0 -0.13614634838E+02  0.20089234541E+02 -0.79567248933E+02  0.83185832501E+02  0.00000000000E+00 0.  1.
         15    1    5    5    0    0 -0.28778269224E+02 -0.83919198870E+02 -0.42844038632E+03  0.43752918229E+03  0.00000000000E+00 0.  1.
         15    1    1    2    0    0 -0.76493178982E+01  0.11979885206E+04 -0.28680131821E+03  0.12318644420E+04  0.00000000000E+00 0. -1.
        -16    1    4    4    0    0  0.26258412734E+03  0.21454559349E+03  0.21716393136E+03  0.40266662228E+03  0.00000000000E+00 0.  1.
         16    1    3    3    0    0  0.70525759667E+02  0.23136136172E+02 -0.75882792408E+03  0.76244933074E+03  0.00000000000E+00 0. -1.
    9900018    1    4    4    0    0 -0.19249285524E+03 -0.12751139656E+04  0.25328866221E+03  0.13173607894E+04  0.91187600000E+02 0.  0.
<mgrwt>
<rscale>  0 0.15444257E+04</rscale>
<asrwt>0</asrwt>
<pdfrwt beam="1">  1        2 0.46570652E+00 0.37211289E+04</pdfrwt>
<pdfrwt beam="2">  1       -2 0.24428709E+00 0.37211289E+04</pdfrwt>
<totfact> 0.91963969E-02</totfact>
</mgrwt>
</event>
<event>
11    1  0.7292260E-014  0.5442178E+04  0.7818608E-02  0.8204971E-01
         -2   -1    0    0    0  501 -0.00000000000E+00  0.00000000000E+00  0.23859030821E+04  0.23859030821E+04  0.00000000000E+00 0.  1.
          2   -1    0    0  501    0  0.00000000000E+00 -0.00000000000E+00 -0.38573720457E+04  0.38573720457E+04  0.00000000000E+00 0. -1.
         24    2    1    2    0    0 -0.53982646687E+03 -0.25639748141E+03  0.10778133285E+02  0.60285308533E+03  0.78507270516E+02 0.  0.
    9900016    2    1    2    0    0 -0.53716762074E+03  0.51351415353E+03  0.12830011725E+04  0.26617271539E+04  0.22105324233E+04 0.  0.
        -15    1    3    3    0    0 -0.40766117753E+03 -0.21209327653E+03 -0.20510801408E+02  0.45999118099E+03  0.00000000000E+00 0.  1.
        -15    1    4    4    0    0  0.11348439763E+03 -0.15644264841E+03 -0.26110272099E+03  0.32485018340E+03  0.00000000000E+00 0.  1.
         15    1    1    2    0    0  0.10769940876E+04 -0.25711667212E+03 -0.27652482694E+04  0.29786948886E+04  0.00000000000E+00 0. -1.
         15    1    4    4    0    0  0.12506465210E+03 -0.16608602963E+03 -0.63829943089E+02  0.21748562729E+03  0.00000000000E+00 0. -1.
        -16    1    4    4    0    0 -0.32205292679E+03 -0.76587123984E+02  0.23004995763E+03  0.40312114583E+03  0.00000000000E+00 0.  1.
         16    1    3    3    0    0 -0.13216528935E+03 -0.44304204882E+02  0.31288934693E+02  0.14286190434E+03  0.00000000000E+00 0. -1.
    9900018    1    4    4    0    0 -0.45366374369E+03  0.91262995555E+03  0.13778838789E+04  0.17162701974E+04  0.91187600000E+02 0.  0.
<mgrwt>
<rscale>  0 0.31395337E+04</rscale>
<asrwt>0</asrwt>
<pdfrwt beam="1">  1        2 0.59344184E+00 0.54421783E+04</pdfrwt>
<pdfrwt beam="2">  1       -2 0.36706202E+00 0.54421783E+04</pdfrwt>
<totfact> 0.36842728E-03</totfact>
</mgrwt>
</event>
<event>
12    1  0.7292260E-014  0.3849944E+04  0.7818608E-02  0.8356110E-01
         -2   -1    0    0    0  501 -0.00000000000E+00  0.00000000000E+00  0.20115323539E+04  0.20115323539E+04  0.00000000000E+00 0.  1.
          2   -1    0    0  501    0  0.00000000000E+00 -0.00000000000E+00 -0.33778027240E+04  0.33778027240E+04  0.00000000000E+00 0. -1.
         24    2    1    2    0    0  0.79626740901E+03 -0.27425471275E+03  0.62795671731E+03  0.10535525665E+04  0.79912060156E+02 0.  0.
    9900016    2    1    2    0    0 -0.13199247806E+04 -0.53569481986E+03 -0.65302460880E+03  0.26837960172E+04  0.21787954369E+04 0.  0.
         23    2    4    4    0    0  0.28009661382E+03  0.12997009956E+03  0.45028344167E+03  0.55126812231E+03  0.76125061394E+02 0.  0.
        -15    1    3    3    0    0  0.14615064221E+03 -0.71354826449E+02  0.15259363031E+03  0.22301645115E+03  0.00000000000E+00 0.  1.
        -15    1    5    5    0    0  0.13450182858E+03  0.26918579050E+02  0.23029023522E+03  0.26804653369E+03  0.00000000000E+00 0.  1.
         15    1    1    2    0    0  0.52365737163E+03  0.80994953261E+03 -0.13412024786E+04  0.16519864941E+04  0.00000000000E+00 0. -1.
         15    1    5    5    0    0  0.14559478525E+03  0.10305152051E+03  0.21999320646E+03  0.28322158861E+03  0.00000000000E+00 0. -1.
        -16    1    4    4    0    0 -0.14775233615E+04 -0.55537270280E+03 -0.11314187155E+04  0.19420665366E+04  0.00000000000E+00 0.  1.
         16    1    3    3    0    0  0.65011676680E+03 -0.20289988630E+03  0.47536308700E+03  0.83053611530E+03  0.00000000000E+00 0. -1.
    9900018    1    4    4    0    0 -0.12249803299E+03 -0.11029221662E+03  0.28110665063E+02  0.19046135833E+03  0.91187600000E+02 0.  0.
<mgrwt>
<rscale>  0 0.26358940E+04</rscale>
<asrwt>0</asrwt>
<pdfrwt beam="1">  1        2 0.51966195E+00 0.38499439E+04</pdfrwt>
<pdfrwt beam="2">  1       -2 0.30946652E+00 0.38499439E+04</pdfrwt>
<totfact> 0.20946949E-02</totfact>
</mgrwt>
</event>
<event>
11    1  0.7292260E-014  0.2932780E+04  0.7818608E-02  0.8859869E-01
          2   -1    0    0  501    0  0.00000000000E+00  0.00000000000E+00  0.30477120630E+04  0.30477120630E+04  0.00000000000E+00 0. -1.
         -2   -1    0    0    0  501 -0.00000000000E+00 -0.00000000000E+00 -0.82070701213E+03  0.82070701213E+03  0.00000000000E+00 0.  1.
         24    2    1    2    0    0 -0.52474570539E+02  0.20003535662E+03  0.87611149730E+02  0.23823926205E+03  0.79463878414E+02 0.  0.
    9900016    2    1    2    0    0  0.47620466657E+03  0.71222261892E+02  0.21382637379E+04  0.31270603768E+04  0.22303567634E+04 0.  0.
        -15    1    4    4    0    0  0.25086243378E+02  0.11441677804E+03  0.16800312703E+03  0.20480617519E+03  0.00000000000E+00 0.  1.
        -15    1    3    3    0    0 -0.25694927647E+02  0.12954285176E+02 -0.24679768002E+01  0.28881373248E+02  0.00000000000E+00 0.  1.
         15    1    4    4    0    0 -0.21545047536E+03  0.88645917586E+03  0.13014384651E+04  0.15893303169E+04  0.00000000000E+00 0. -1.
         15    1    1    2    0    0 -0.42373009603E+03 -0.27125761851E+03  0.11301632291E+01  0.50311943627E+03  0.00000000000E+00 0. -1.
        -16    1    4    4    0    0  0.28188167140E+03 -0.33116390184E+03  0.22829149544E+03  0.49116576982E+03  0.00000000000E+00 0.  1.
         16    1    3    3    0    0 -0.26779642892E+02  0.18708107145E+03  0.90079126530E+02  0.20935788880E+03  0.00000000000E+00 0. -1.
    9900018    1    4    4    0    0  0.38468722715E+03 -0.59848979017E+03  0.44053065029E+03  0.84175811484E+03  0.91187600000E+02 0.  0.
<mgrwt>
<rscale>  0 0.15375357E+04</rscale>
<asrwt>0</asrwt>
<pdfrwt beam="1">  1        2 0.46887877E+00 0.29327801E+04</pdfrwt>
<pdfrwt beam="2">  1       -2 0.12626262E+00 0.29327801E+04</pdfrwt>
<totfact> 0.64879998E-01</totfact>
</mgrwt>
</event>
<event>
12    1  0.7292260E-014  0.3708453E+04  0.7818608E-02  0.8429127E-01
          2   -1    0    0  501    0  0.00000000000E+00  0.00000000000E+00  0.37052621943E+04  0.37052621943E+04  0.00000000000E+00 0. -1.
         -2   -1    0    0    0  501 -0.00000000000E+00 -0.00000000000E+00 -0.18350764729E+04  0.18350764729E+04  0.00000000000E+00 0.  1.
        -24    2    1    2    0    0  0.12389051061E+03  0.66552771538E+03  0.16960699984E+04  0.18278001614E+04  0.76967473055E+02 0.  0.
    9900016    2    1    2    0    0  0.67226052294E+03  0.33801383796E+03 -0.33584022205E+03  0.23337683352E+04  0.21834601948E+04 0.  0.
         23    2    4    4    0    0  0.14994834554E+03 -0.17202238778E+03  0.83024879985E+03  0.86382694361E+03  0.69337656654E+02 0.  0.
        -15    1    5    5    0    0  0.91955029357E+02 -0.78325642621E+02  0.32549768964E+03  0.34718781614E+03  0.00000000000E+00 0.  1.
        -15    1    1    2    0    0 -0.79615103355E+03 -0.10035415533E+04  0.50995594510E+03  0.13787701706E+04  0.00000000000E+00 0.  1.
         15    1    3    3    0    0 -0.71747951036E+01  0.12128713366E+03  0.30827622647E+03  0.33135521466E+03  0.00000000000E+00 0. -1.
         15    1    5    5    0    0  0.57993316179E+02 -0.93696745159E+02  0.50475111021E+03  0.51663912747E+03  0.00000000000E+00 0. -1.
        -16    1    3    3    0    0  0.13106530572E+03  0.54424058172E+03  0.13877937719E+04  0.14964449467E+04  0.00000000000E+00 0.  1.
         16    1    4    4    0    0  0.17689977421E+03  0.16682391719E+03 -0.49153632727E+02  0.24807222552E+03  0.00000000000E+00 0. -1.
    9900018    1    4    4    0    0  0.34541240318E+03  0.34321230856E+03 -0.11169353892E+04  0.12218691661E+04  0.91187600000E+02 0.  0.
<mgrwt>
<rscale>  0 0.24279112E+04</rscale>
<asrwt>0</asrwt>
<pdfrwt beam="1">  1        2 0.57004034E+00 0.37084533E+04</pdfrwt>
<pdfrwt beam="2">  1       -2 0.28231946E+00 0.37084533E+04</pdfrwt>
<totfact> 0.18144841E-02</totfact>
</mgrwt>
</event>
