<event>
13    1  0.4759131E-010  0.5918891E+04  0.7818608E-02  0.7700540E-01
         -2   -1    0    0    0  501 -0.00000000000E+00  0.00000000000E+00  0.25927495925E+04  0.25927495925E+04  0.00000000000E+00 0.  1.
          2   -1    0    0  501    0  0.00000000000E+00 -0.00000000000E+00 -0.33780042512E+04  0.33780042512E+04  0.00000000000E+00 0. -1.
    9900016    2    1    2    0    0  0.77185414130E+03 -0.81238471492E+03 -0.75087752877E+03  0.25786046854E+04  0.21976481338E+04 0.  0.
         23    2    3    3    0    0 -0.45177897607E+03 -0.13460211041E+02 -0.99408406130E+03  0.10971500671E+04  0.10606473618E+03 0.  0.
    9900016    2    1    2    0    0 -0.90553154898E+03  0.14134132163E+04 -0.49763918232E+02  0.27695282138E+04  0.22022910284E+04 0.  0.
         23    2    5    5    0    0  0.10300800829E+03 -0.52536522056E+03 -0.20037319045E+03  0.57893536747E+03  0.91637762520E+02 0.  0.
        -15    1    6    6    0    0  0.47125267822E+02 -0.42122481781E+03 -0.14112807300E+03  0.44673064703E+03  0.00000000000E+00 0. -1.
        -15    1    4    4    0    0 -0.20569976111E+03  0.44768429988E+02 -0.48516493775E+03  0.52886824528E+03  0.00000000000E+00 0.  1.
         15    1    6    6    0    0  0.55882740467E+02 -0.10414040274E+03 -0.59245117448E+02  0.13220472044E+03  0.00000000000E+00 0.  1.
         15    1    4    4    0    0 -0.24607921496E+03 -0.58228641029E+02 -0.50891912355E+03  0.56828182180E+03  0.00000000000E+00 0. -1.
        -16    1    3    3    0    0  0.12236331174E+04 -0.79892450388E+03  0.24320653253E+03  0.14814546184E+04  0.00000000000E+00 0.  1.
         16    1    5    5    0    0 -0.10085395573E+04  0.19387784368E+04  0.15060927222E+03  0.21905928464E+04  0.00000000000E+00 0. -1.
    9900018    1    1    2    0    0  0.13367740768E+03 -0.60102850136E+03  0.15386788237E+02  0.62262094441E+03  0.91187600000E+02 0.  0.
<mgrwt>
<rscale>  0 0.59188915E+04</rscale>
<asrwt>0</asrwt>
<pdfrwt beam="1">  1        2 0.51969296E+00 0.59188915E+04</pdfrwt>
<pdfrwt beam="2">  1       -2 0.39888455E+00 0.59188915E+04</pdfrwt>
<totfact> 0.50436756E-03</totfact>
</mgrwt>
</event>
<event>
12    1  0.4759131E-010  0.7622601E+04  0.7818608E-02  0.7516426E-01
          2   -1    0    0  501    0  0.00000000000E+00  0.00000000000E+00  0.33219343957E+04  0.33219343957E+04  0.00000000000E+00 0.  1.
         -2   -1    0    0    0  501 -0.00000000000E+00 -0.00000000000E+00 -0.43727564294E+04  0.43727564294E+04  0.00000000000E+00 0. -1.
    9900016    2    1    2    0    0  0.17046668922E+03 -0.15174027246E+04  0.15685196317E+04  0.31057887191E+04  0.22032021722E+04 0.  0.
    9900016    2    1    2    0    0 -0.34858801539E+03  0.54688699586E+02 -0.11708325570E+04  0.25206290723E+04  0.22041364716E+04 0.  0.
         23    2    4    4    0    0  0.73330694168E+03 -0.35108912986E+03  0.75130594462E+02  0.82134201012E+03  0.89193293077E+02 0.  0.
        -15    1    5    5    0    0  0.71287654930E+03 -0.32288388017E+03  0.66181181123E+02  0.78538329710E+03  0.00000000000E+00 0. -1.
        -15    1    3    3    0    0 -0.18570415380E+03  0.66872434224E+02 -0.46144155257E+02  0.20269987238E+03  0.00000000000E+00 0. -1.
         15    1    5    5    0    0  0.20430392376E+02 -0.28205249692E+02  0.89494133387E+01  0.35958713019E+02  0.00000000000E+00 0.  1.
         15    1    3    3    0    0 -0.21290768687E+03  0.11488543904E+03 -0.22825781382E+03  0.33261084889E+03  0.00000000000E+00 0.  1.
        -16    1    3    3    0    0  0.56907852988E+03 -0.16991605979E+04  0.18429216008E+04  0.25704779978E+04  0.00000000000E+00 0.  1.
         16    1    4    4    0    0 -0.10818949571E+04  0.40577782945E+03 -0.12459631514E+04  0.16992870622E+04  0.00000000000E+00 0. -1.
    9900018    1    1    2    0    0  0.17812132618E+03  0.14627140251E+04 -0.14485091085E+04  0.20682730337E+04  0.91187600000E+02 0.  0.
<mgrwt>
<rscale>  0 0.76226006E+04</rscale>
<asrwt>0</asrwt>
<pdfrwt beam="1">  1        2 0.51106683E+00 0.76226006E+04</pdfrwt>
<pdfrwt beam="2">  1       -2 0.67273176E+00 0.76226006E+04</pdfrwt>
<totfact> 0.18670124E-04</totfact>
</mgrwt>
</event>
<event>
13    1  0.4759131E-010  0.5270802E+04  0.7818608E-02  0.7788039E-01
          1   -1    0    0  501    0  0.00000000000E+00  0.00000000000E+00  0.33865082291E+04  0.33865082291E+04  0.00000000000E+00 0. -1.
         -1   -1    0    0    0  501 -0.00000000000E+00 -0.00000000000E+00 -0.20508846044E+04  0.20508846044E+04  0.00000000000E+00 0.  1.
    9900016    2    1    2    0    0  0.82331259777E+03  0.93165733353E+03  0.83680115643E+03  0.26577478247E+04  0.21948936885E+04 0.  0.
         23    2    3    3    0    0 -0.13945649715E+03 -0.88715353796E+02 -0.60991371537E+03  0.64253848787E+03  0.11637198805E+03 0.  0.
    9900016    2    1    2    0    0 -0.53923140545E+03 -0.82813074511E+03  0.35875389826E+03  0.24341681484E+04  0.21954268777E+04 0.  0.
         23    2    5    5    0    0 -0.57277661977E+03  0.65305292267E+03  0.38042061659E+03  0.95244624946E+03  0.88785340121E+02 0.  0.
        -15    1    6    6    0    0 -0.54968399245E+03  0.62584460059E+03  0.34325368991E+03  0.90092011370E+03  0.00000000000E+00 0.  1.
        -15    1    4    4    0    0 -0.44238867331E+02  0.22795615366E+02 -0.22970315253E+03  0.23503245679E+03  0.00000000000E+00 0.  1.
         15    1    4    4    0    0 -0.95217629815E+02 -0.11151096916E+03 -0.38021056284E+03  0.40750603108E+03  0.00000000000E+00 0. -1.
         15    1    6    6    0    0 -0.23092627322E+02  0.27208322080E+02  0.37166926679E+02  0.51526135754E+02  0.00000000000E+00 0. -1.
        -16    1    5    5    0    0  0.33545214320E+02 -0.14811836678E+04 -0.21666718327E+02  0.14817218989E+04  0.00000000000E+00 0.  1.
         16    1    3    3    0    0  0.96276909491E+03  0.10203726873E+04  0.14467148718E+04  0.20152093369E+04  0.00000000000E+00 0. -1.
    9900018    1    1    2    0    0 -0.28408119232E+03 -0.10352658842E+03  0.14006857003E+03  0.34547686036E+03  0.91187600000E+02 0.  0.
<mgrwt>
<rscale>  0 0.52708017E+04</rscale>
<asrwt>0</asrwt>
<pdfrwt beam="1">  1        1 0.52100127E+00 0.52708017E+04</pdfrwt>
<pdfrwt beam="2">  1       -1 0.31552071E+00 0.52708017E+04</pdfrwt>
<totfact> 0.56658202E-03</totfact>
</mgrwt>
</event>
<event>
12    1  0.4759131E-010  0.5656194E+04  0.7818608E-02  0.7734555E-01
         -2   -1    0    0    0  501 -0.00000000000E+00  0.00000000000E+00  0.30202875529E+04  0.30202875529E+04  0.00000000000E+00 0.  1.
          2   -1    0    0  501    0  0.00000000000E+00 -0.00000000000E+00 -0.26481358532E+04  0.26481358532E+04  0.00000000000E+00 0. -1.
    9900016    2    1    2    0    0 -0.31034209584E+03 -0.85939075385E+03  0.10783143812E+04  0.26308858089E+04  0.22189938149E+04 0.  0.
    9900016    2    1    2    0    0 -0.20722492570E+03  0.38815361060E+03 -0.46798107992E+03  0.22925639596E+04  0.22007357457E+04 0.  0.
         23    2    4    4    0    0  0.33003441120E+03  0.63959013199E+03  0.68367034093E+03  0.99712236905E+03  0.94072494740E+02 0.  0.
        -15    1    5    5    0    0  0.31559574514E+03  0.55601838238E+03  0.62433385710E+03  0.89361618216E+03  0.00000000000E+00 0. -1.
        -15    1    3    3    0    0 -0.23090813001E+03  0.15017235426E+03  0.12118839702E+04  0.12427924436E+04  0.00000000000E+00 0.  1.
         15    1    3    3    0    0 -0.49777399173E+02 -0.33285528900E+02  0.30973631642E+03  0.31547155436E+03  0.00000000000E+00 0. -1.
         15    1    5    5    0    0  0.14438666064E+02  0.83571749609E+02  0.59336483829E+02  0.10350618689E+03  0.00000000000E+00 0.  1.
        -16    1    4    4    0    0 -0.53725933690E+03 -0.25143652139E+03 -0.11516514209E+04  0.12954415906E+04  0.00000000000E+00 0.  1.
         16    1    3    3    0    0 -0.29656566658E+02 -0.97627757921E+03 -0.44330590544E+03  0.10726218110E+04  0.00000000000E+00 0. -1.
    9900018    1    1    2    0    0  0.51756702154E+03  0.47123714325E+03 -0.23818160162E+03  0.74497363759E+03  0.91187600000E+02 0.  0.
<mgrwt>
<rscale>  0 0.56561937E+04</rscale>
<asrwt>0</asrwt>
<pdfrwt beam="1">  1        2 0.40740552E+00 0.56561937E+04</pdfrwt>
<pdfrwt beam="2">  1       -2 0.46465962E+00 0.56561937E+04</pdfrwt>
<totfact> 0.55066298E-03</totfact>
</mgrwt>
</event>
<event>
13    1  0.4759131E-010  0.8203642E+04  0.7818608E-02  0.7464622E-01
          2   -1    0    0  501    0  0.00000000000E+00  0.00000000000E+00  0.43821904018E+04  0.43821904018E+04  0.00000000000E+00 0. -1.
         -2   -1    0    0    0  501 -0.00000000000E+00 -0.00000000000E+00 -0.38393896583E+04  0.38393896583E+04  0.00000000000E+00 0.  1.
    9900016    2    1    2    0    0  0.30051677097E+04 -0.29445026666E+03 -0.96248037791E+03  0.38590240314E+04  0.22018092728E+04 0.  0.
         23    2    3    3    0    0 -0.77097254708E+02  0.19855952537E+03  0.38855256705E+03  0.45774398051E+03  0.11483284607E+03 0.  0.
    9900016    2    1    2    0    0 -0.19483588339E+04  0.59270480314E+03  0.11299712458E+04  0.31985227604E+04  0.21923301994E+04 0.  0.
         23    2    5    5    0    0  0.44228379700E+03  0.34917968316E+03  0.36266733464E+03  0.67597802050E+03  0.88754044170E+02 0.  0.
        -15    1    4    4    0    0 -0.27022116197E+02  0.55965171711E+02  0.30762660678E+02  0.69344332865E+02  0.00000000000E+00 0.  1.
        -15    1    6    6    0    0  0.26503525560E+02  0.55105238210E+02  0.36417120018E+02  0.71170434702E+02  0.00000000000E+00 0.  1.
         15    1    4    4    0    0 -0.50075138511E+02  0.14259435366E+03  0.35778990637E+03  0.38839964765E+03  0.00000000000E+00 0. -1.
         15    1    6    6    0    0  0.41578027144E+03  0.29407444495E+03  0.32625021463E+03  0.60480758580E+03  0.00000000000E+00 0. -1.
        -16    1    3    3    0    0  0.30822649644E+04 -0.49300979203E+03 -0.13510329450E+04  0.34012800509E+04  0.00000000000E+00 0.  1.
         16    1    5    5    0    0 -0.23906426309E+04  0.24352511999E+03  0.76730391114E+03  0.25225447399E+04  0.00000000000E+00 0. -1.
    9900018    1    1    2    0    0 -0.10568088759E+04 -0.29825453648E+03  0.37530987559E+03  0.11640332683E+04  0.91187600000E+02 0.  0.
<mgrwt>
<rscale>  0 0.82036422E+04</rscale>
<asrwt>0</asrwt>
<pdfrwt beam="1">  1        2 0.67418314E+00 0.82036422E+04</pdfrwt>
<pdfrwt beam="2">  1       -2 0.59067533E+00 0.82036422E+04</pdfrwt>
<totfact> 0.51603264E-05</totfact>
</mgrwt>
</event>
<event>
13    1  0.4759131E-010  0.6293138E+04  0.7818608E-02  0.7655082E-01
         -2   -1    0    0    0  501 -0.00000000000E+00  0.00000000000E+00  0.34313137641E+04  0.34313137641E+04  0.00000000000E+00 0. -1.
          2   -1    0    0  501    0  0.00000000000E+00 -0.00000000000E+00 -0.28854538800E+04  0.28854538800E+04  0.00000000000E+00 0.  1.
    9900016    2    1    2    0    0 -0.45927156919E+03  0.20704781838E+02  0.53300712408E+02  0.22090807783E+04  0.21600550587E+04 0.  0.
         23    2    3    3    0    0 -0.27721957226E+03  0.96858006007E+02 -0.10463910534E+04  0.10918233223E+04  0.10445939853E+03 0.  0.
    9900016    2    1    2    0    0  0.16777971095E+04 -0.75217957838E+01 -0.60566531153E+02  0.27663287834E+04  0.21986011268E+04 0.  0.
         23    2    5    5    0    0 -0.26163438042E+03  0.37975652568E+03  0.52434834328E+03  0.70392620076E+03  0.88900749143E+02 0.  0.
        -15    1    6    6    0    0 -0.23392402208E+03  0.28006678618E+03  0.42923089671E+03  0.56337999211E+03  0.00000000000E+00 0.  1.
        -15    1    4    4    0    0 -0.13563993354E+03  0.48366345663E+02 -0.69716594318E+03  0.71188331017E+03  0.00000000000E+00 0. -1.
         15    1    4    4    0    0 -0.14157963872E+03  0.48491660344E+02 -0.34922511022E+03  0.37994001215E+03  0.00000000000E+00 0.  1.
         15    1    6    6    0    0 -0.27710358338E+02  0.99689739507E+02  0.95117446577E+02  0.14054620865E+03  0.00000000000E+00 0. -1.
        -16    1    3    3    0    0 -0.18205199693E+03 -0.76153224169E+02  0.10996917658E+04  0.11172574560E+04  0.00000000000E+00 0.  1.
         16    1    5    5    0    0  0.19394314900E+04 -0.38727832147E+03 -0.58491487444E+03  0.20624025826E+04  0.00000000000E+00 0. -1.
    9900018    1    1    2    0    0 -0.12185255403E+04 -0.13182986054E+02  0.55312570292E+03  0.13413580824E+04  0.91187600000E+02 0.  0.
<mgrwt>
<rscale>  0 0.62931384E+04</rscale>
<asrwt>0</asrwt>
<pdfrwt beam="1">  1        2 0.44391598E+00 0.62931384E+04</pdfrwt>
<pdfrwt beam="2">  1       -2 0.52789442E+00 0.62931384E+04</pdfrwt>
<totfact> 0.15441370E-03</totfact>
</mgrwt>
</event>
<event>
12    1  0.4759131E-010  0.6153206E+04  0.7818608E-02  0.7671691E-01
          2   -1    0    0  501    0  0.00000000000E+00  0.00000000000E+00  0.41166560230E+04  0.41166560230E+04  0.00000000000E+00 0. -1.
         -2   -1    0    0    0  501 -0.00000000000E+00 -0.00000000000E+00 -0.22993144132E+04  0.22993144132E+04  0.00000000000E+00 0.  1.
    9900016    2    1    2    0    0 -0.15260295229E+04  0.64584486561E+03  0.44409367453E+03  0.27927443485E+04  0.22037059942E+04 0.  0.
    9900016    2    1    2    0    0  0.15778736699E+04 -0.93321059803E+03  0.84172059681E+03  0.30099534162E+04  0.22340005967E+04 0.  0.
         23    2    4    4    0    0  0.41573829996E+03 -0.10782298794E+03 -0.75219520405E+03  0.87163844749E+03  0.97426009667E+02 0.  0.
        -15    1    3    3    0    0 -0.20249884713E+03 -0.44688562119E+03  0.31200465149E+03  0.58142879535E+03  0.00000000000E+00 0.  1.
        -15    1    5    5    0    0  0.21448352807E+03 -0.10030891220E+03 -0.44981140020E+03  0.50832603458E+03  0.00000000000E+00 0.  1.
         15    1    5    5    0    0  0.20125477189E+03 -0.75140757396E+01 -0.30238380385E+03  0.36331241291E+03  0.00000000000E+00 0. -1.
         15    1    3    3    0    0  0.19141988258E+02 -0.24521471713E+03  0.19637806606E+03  0.31473960355E+03  0.00000000000E+00 0. -1.
        -16    1    3    3    0    0 -0.13426726640E+04  0.13379452039E+04 -0.64289043026E+02  0.18965759496E+04  0.00000000000E+00 0.  1.
         16    1    4    4    0    0  0.11621353700E+04 -0.82538761009E+03  0.15939158009E+04  0.21383149687E+04  0.00000000000E+00 0. -1.
    9900018    1    1    2    0    0 -0.51844147051E+02  0.28736573242E+03  0.53152733842E+03  0.61327267152E+03  0.91187600000E+02 0.  0.
<mgrwt>
<rscale>  0 0.61532062E+04</rscale>
<asrwt>0</asrwt>
<pdfrwt beam="1">  1        2 0.63333169E+00 0.61532062E+04</pdfrwt>
<pdfrwt beam="2">  1       -2 0.35374068E+00 0.61532062E+04</pdfrwt>
<totfact> 0.26683861E-03</totfact>
</mgrwt>
</event>
<event>
13    1  0.4759131E-010  0.5503103E+04  0.7818608E-02  0.7755262E-01
         -2   -1    0    0    0  501 -0.00000000000E+00  0.00000000000E+00  0.23593924831E+04  0.23593924831E+04  0.00000000000E+00 0.  1.
          2   -1    0    0  501    0  0.00000000000E+00 -0.00000000000E+00 -0.32088915368E+04  0.32088915368E+04  0.00000000000E+00 0. -1.
    9900016    2    1    2    0    0  0.98993007898E+03  0.69600201392E+03 -0.12906843040E+04  0.28238849719E+04  0.22009270768E+04 0.  0.
         23    2    3    3    0    0  0.15549976587E+01 -0.22555802409E+03  0.51302099475E+03  0.57010791775E+03  0.10465971804E+03 0.  0.
    9900016    2    1    2    0    0 -0.66236076976E+03 -0.56240923136E+03  0.35657383557E+03  0.23694017763E+04  0.21752916918E+04 0.  0.
         23    2    5    5    0    0  0.37322022171E+03 -0.24273476052E+03 -0.71354396378E+03  0.84632204701E+03  0.94353172399E+02 0.  0.
        -15    1    4    4    0    0 -0.13061096957E+02 -0.13956780308E+03  0.19378307574E+03  0.23916865254E+03  0.00000000000E+00 0. -1.
        -15    1    6    6    0    0  0.19364020005E+03 -0.12216819671E+03 -0.45398113139E+03  0.50844907613E+03  0.00000000000E+00 0. -1.
         15    1    6    6    0    0  0.17958002165E+03 -0.12056656381E+03 -0.25956283240E+03  0.33787297088E+03  0.00000000000E+00 0.  1.
         15    1    4    4    0    0  0.14616094616E+02 -0.85990221009E+02  0.31923791901E+03  0.33093926522E+03  0.00000000000E+00 0.  1.
        -16    1    5    5    0    0 -0.10355809915E+04 -0.31967447084E+03  0.10701177994E+04  0.15230797293E+04  0.00000000000E+00 0.  1.
         16    1    3    3    0    0  0.98837508132E+03  0.92156003801E+03 -0.18037052988E+04  0.22537770542E+04  0.00000000000E+00 0. -1.
    9900018    1    1    2    0    0 -0.32756930922E+03 -0.13359278256E+03  0.84611414689E+02  0.37499727170E+03  0.91187600000E+02 0.  0.
<mgrwt>
<rscale>  0 0.55031026E+04</rscale>
<asrwt>0</asrwt>
<pdfrwt beam="1">  1        2 0.49367562E+00 0.55031026E+04</pdfrwt>
<pdfrwt beam="2">  1       -2 0.36298346E+00 0.55031026E+04</pdfrwt>
<totfact> 0.11514833E-02</totfact>
</mgrwt>
</event>
<event>
12    1  0.4759131E-010  0.6052504E+04  0.7818608E-02  0.7683926E-01
         -2   -1    0    0    0  501 -0.00000000000E+00  0.00000000000E+00  0.30177483942E+04  0.30177483942E+04  0.00000000000E+00 0.  1.
          2   -1    0    0  501    0  0.00000000000E+00 -0.00000000000E+00 -0.30347794161E+04  0.30347794161E+04  0.00000000000E+00 0. -1.
    9900016    2    1    2    0    0  0.84537271347E+03  0.62697200640E+03  0.74205257514E+03  0.25504326060E+04  0.22014348802E+04 0.  0.
    9900016    2    1    2    0    0 -0.14565260920E+04 -0.80507833911E+03 -0.47754287394E+03  0.28000904500E+04  0.22006453469E+04 0.  0.
         23    2    4    4    0    0  0.28786059634E+03 -0.21364638781E+02  0.55103870459E+03  0.62866876218E+03  0.90887776271E+02 0.  0.
        -15    1    5    5    0    0  0.12379192797E+02  0.20413469985E+02  0.38929781489E+02  0.45667078491E+02  0.00000000000E+00 0. -1.
        -15    1    3    3    0    0 -0.20376292128E+02 -0.29220191766E+03  0.43421574386E+03  0.52377520577E+03  0.00000000000E+00 0.  1.
         15    1    5    5    0    0  0.27548140354E+03 -0.41778108766E+02  0.51210892310E+03  0.58300168369E+03  0.00000000000E+00 0.  1.
         15    1    3    3    0    0  0.11794853681E+03 -0.39612969478E+03  0.30494272995E+03  0.51363475444E+03  0.00000000000E+00 0. -1.
        -16    1    3    3    0    0  0.74780046879E+03  0.13153036188E+04  0.28941013308E+01  0.15130226458E+04  0.00000000000E+00 0.  1.
         16    1    4    4    0    0 -0.17443866883E+04 -0.78371370033E+03 -0.10285815785E+04  0.21714216878E+04  0.00000000000E+00 0. -1.
    9900018    1    1    2    0    0  0.61115337854E+03  0.17810633272E+03 -0.28154072311E+03  0.70200475427E+03  0.91187600000E+02 0.  0.
<mgrwt>
<rscale>  0 0.60525038E+04</rscale>
<asrwt>0</asrwt>
<pdfrwt beam="1">  1        2 0.46688914E+00 0.60525038E+04</pdfrwt>
<pdfrwt beam="2">  1       -2 0.46426898E+00 0.60525038E+04</pdfrwt>
<totfact> 0.31209953E-03</totfact>
</mgrwt>
</event>
<event>
12    1  0.4759131E-010  0.6706013E+04  0.7818608E-02  0.7608538E-01
          2   -1    0    0  501    0  0.00000000000E+00  0.00000000000E+00  0.46782607451E+04  0.46782607451E+04  0.00000000000E+00 0. -1.
         -2   -1    0    0    0  501 -0.00000000000E+00 -0.00000000000E+00 -0.24031692209E+04  0.24031692209E+04  0.00000000000E+00 0.  1.
    9900016    2    1    2    0    0  0.55029098621E+03  0.31771397314E+03  0.17501837948E+04  0.28874277946E+04  0.22068832354E+04 0.  0.
    9900016    2    1    2    0    0  0.67196269202E+03 -0.99501309749E+02 -0.73970123128E+03  0.24194397402E+04  0.22011579623E+04 0.  0.
         23    2    4    4    0    0  0.51805874315E+03 -0.11987847477E+03  0.74881982987E+03  0.92284473696E+03  0.90308144023E+02 0.  0.
        -15    1    5    5    0    0  0.43162404011E+03 -0.10245285560E+03  0.55973847288E+03  0.71421499399E+03  0.00000000000E+00 0.  1.
        -15    1    3    3    0    0  0.28258026234E+03 -0.13064612216E+03 -0.19462762934E+03  0.36715109696E+03  0.00000000000E+00 0.  1.
         15    1    3    3    0    0  0.30314037900E+03 -0.22787975787E+03 -0.77956330273E+02  0.38716981139E+03  0.00000000000E+00 0. -1.
         15    1    5    5    0    0  0.86434703037E+02 -0.17425619174E+02  0.18908135699E+03  0.20862974297E+03  0.00000000000E+00 0. -1.
        -16    1    4    4    0    0  0.15390394887E+03  0.20377165021E+02 -0.14885210611E+04  0.14965950033E+04  0.00000000000E+00 0.  1.
         16    1    3    3    0    0 -0.35429655129E+02  0.67623985317E+03  0.20227677545E+04  0.21331068862E+04  0.00000000000E+00 0. -1.
    9900018    1    1    2    0    0 -0.12222536782E+04 -0.21821266339E+03  0.12646089606E+04  0.17745624312E+04  0.91187600000E+02 0.  0.
<mgrwt>
<rscale>  0 0.67060129E+04</rscale>
<asrwt>0</asrwt>
<pdfrwt beam="1">  1        2 0.71973242E+00 0.67060129E+04</pdfrwt>
<pdfrwt beam="2">  1       -2 0.36971834E+00 0.67060129E+04</pdfrwt>
<totfact> 0.59241054E-04</totfact>
</mgrwt>
</event>
<event>
12    1  0.4759131E-010  0.5644234E+04  0.7818608E-02  0.7736149E-01
         -2   -1    0    0    0  501 -0.00000000000E+00  0.00000000000E+00  0.17416937395E+04  0.17416937395E+04  0.00000000000E+00 0.  1.
          2   -1    0    0  501    0  0.00000000000E+00 -0.00000000000E+00 -0.45727574470E+04  0.45727574470E+04  0.00000000000E+00 0. -1.
    9900016    2    1    2    0    0  0.91409555108E+02  0.92442701914E+03 -0.60139867981E+03  0.24564254515E+04  0.21930400375E+04 0.  0.
    9900016    2    1    2    0    0 -0.93345219130E+02 -0.14340802717E+04 -0.18749972495E+04  0.32304473766E+04  0.22033783178E+04 0.  0.
         23    2    4    4    0    0 -0.55297456288E+02  0.13634500685E+03  0.41717298520E+03  0.45164771256E+03  0.91129507367E+02 0.  0.
        -15    1    5    5    0    0 -0.65611598808E+02  0.52055470237E+02  0.15664676739E+03  0.17763125742E+03  0.00000000000E+00 0.  1.
        -15    1    3    3    0    0 -0.29008373902E+03 -0.36469118884E+03 -0.29111465563E+03  0.54945061796E+03  0.00000000000E+00 0. -1.
         15    1    5    5    0    0  0.10314142520E+02  0.84289536612E+02  0.26052621781E+03  0.27401645514E+03  0.00000000000E+00 0. -1.
         15    1    3    3    0    0 -0.37953624404E+02 -0.25935667620E+03 -0.13003716132E+03  0.29260216407E+03  0.00000000000E+00 0.  1.
        -16    1    3    3    0    0  0.41944691853E+03  0.15484748842E+04 -0.18024686287E+03  0.16143726695E+04  0.00000000000E+00 0.  1.
         16    1    4    4    0    0 -0.38047762843E+02 -0.15704252785E+04 -0.22921702347E+04  0.27787996640E+04  0.00000000000E+00 0. -1.
    9900018    1    1    2    0    0  0.19356640228E+01  0.50965325254E+03 -0.35466777820E+03  0.62757835838E+03  0.91187600000E+02 0.  0.
<mgrwt>
<rscale>  0 0.56442335E+04</rscale>
<asrwt>0</asrwt>
<pdfrwt beam="1">  1        2 0.70350113E+00 0.56442335E+04</pdfrwt>
<pdfrwt beam="2">  1       -2 0.26795289E+00 0.56442335E+04</pdfrwt>
<totfact> 0.35515172E-03</totfact>
</mgrwt>
</event>
<event>
12    1  0.4759131E-010  0.6065148E+04  0.7818608E-02  0.7682376E-01
         -2   -1    0    0    0  501 -0.00000000000E+00  0.00000000000E+00  0.29016104940E+04  0.29016104940E+04  0.00000000000E+00 0.  1.
          2   -1    0    0  501    0  0.00000000000E+00 -0.00000000000E+00 -0.31694484703E+04  0.31694484703E+04  0.00000000000E+00 0. -1.
    9900016    2    1    2    0    0  0.10784828000E+04  0.70095085039E+03  0.71931789161E+03  0.26448848766E+04  0.21962560271E+04 0.  0.
    9900016    2    1    2    0    0 -0.71001330608E+03 -0.10517388286E+04 -0.27901676950E+03  0.25494767997E+04  0.21935606070E+04 0.  0.
         23    2    4    4    0    0  0.30102810534E+03  0.19778402662E+03 -0.78151861273E+03  0.86542804637E+03  0.91966950635E+02 0.  0.
        -15    1    5    5    0    0  0.17937328963E+03  0.15144203591E+03 -0.57777447743E+03  0.62364478194E+03  0.00000000000E+00 0. -1.
        -15    1    3    3    0    0 -0.60737312535E+02  0.10688181710E+03  0.18888633050E+03  0.22536812066E+03  0.00000000000E+00 0. -1.
         15    1    5    5    0    0  0.12165481571E+03  0.46341990710E+02 -0.20374413530E+03  0.24178326443E+03  0.00000000000E+00 0.  1.
         15    1    3    3    0    0  0.21712514812E+03  0.64571231936E+03  0.11292557576E+04  0.13188276215E+04  0.00000000000E+00 0.  1.
        -16    1    4    4    0    0 -0.10110414114E+04 -0.12495228552E+04  0.50250184323E+03  0.16840487534E+04  0.00000000000E+00 0.  1.
         16    1    3    3    0    0  0.92209496440E+03 -0.51643286062E+02 -0.59882419646E+03  0.11006891344E+04  0.00000000000E+00 0. -1.
    9900018    1    1    2    0    0 -0.36846949390E+03  0.35078797819E+03 -0.70813909847E+03  0.87669728798E+03  0.91187600000E+02 0.  0.
<mgrwt>
<rscale>  0 0.60651480E+04</rscale>
<asrwt>0</asrwt>
<pdfrwt beam="1">  1        2 0.48760746E+00 0.60651480E+04</pdfrwt>
<pdfrwt beam="2">  1       -2 0.44640161E+00 0.60651480E+04</pdfrwt>
<totfact> 0.33457328E-03</totfact>
</mgrwt>
</event>
<event>
13    1  0.4759131E-010  0.4770075E+04  0.7818608E-02  0.7864988E-01
         -1   -1    0    0    0  501 -0.00000000000E+00  0.00000000000E+00  0.15771586833E+04  0.15771586833E+04  0.00000000000E+00 0.  1.
          1   -1    0    0  501    0  0.00000000000E+00 -0.00000000000E+00 -0.36067410306E+04  0.36067410306E+04  0.00000000000E+00 0. -1.
    9900016    2    1    2    0    0  0.24936497750E+03  0.36097415077E+03 -0.38096140530E+03  0.22766637063E+04  0.22012680004E+04 0.  0.
         23    2    3    3    0    0 -0.11063655641E+03  0.72473578515E+03  0.73849090424E+03  0.10457708984E+04  0.10385350484E+03 0.  0.
    9900016    2    1    2    0    0 -0.98264936344E+02 -0.32899218359E+03 -0.14496898308E+04  0.26393874795E+04  0.21787321558E+04 0.  0.
         23    2    5    5    0    0  0.17910212093E+03 -0.34801180978E+03 -0.19908499342E+04  0.20309891822E+04  0.90795419617E+02 0.  0.
        -15    1    4    4    0    0 -0.12727951114E+03  0.68075639070E+03  0.67832484199E+03  0.96940906160E+03  0.00000000000E+00 0.  1.
        -15    1    6    6    0    0  0.16882668432E+03 -0.24767654530E+03 -0.14189996359E+04  0.14503124101E+04  0.00000000000E+00 0.  1.
         15    1    6    6    0    0  0.10275436612E+02 -0.10033526448E+03 -0.57185029832E+03  0.58067677204E+03  0.00000000000E+00 0. -1.
         15    1    4    4    0    0  0.16642954735E+02  0.43979394443E+02  0.60166062250E+02  0.76361836833E+02  0.00000000000E+00 0. -1.
        -16    1    5    5    0    0 -0.27736705727E+03  0.19019626188E+02  0.54116010338E+03  0.60839829728E+03  0.00000000000E+00 0.  1.
         16    1    3    3    0    0  0.36000153391E+03 -0.36376163438E+03 -0.11194523095E+04  0.12308928078E+04  0.00000000000E+00 0. -1.
    9900018    1    1    2    0    0 -0.15110004115E+03 -0.31981967177E+02 -0.19893111119E+03  0.26784852819E+03  0.91187600000E+02 0.  0.
<mgrwt>
<rscale>  0 0.47700746E+04</rscale>
<asrwt>0</asrwt>
<pdfrwt beam="1">  1        1 0.55488324E+00 0.47700746E+04</pdfrwt>
<pdfrwt beam="2">  1       -1 0.24263980E+00 0.47700746E+04</pdfrwt>
<totfact> 0.11747497E-02</totfact>
</mgrwt>
</event>
<event>
12    1  0.4759131E-010  0.5945907E+04  0.7818608E-02  0.7697145E-01
         -2   -1    0    0    0  501 -0.00000000000E+00  0.00000000000E+00  0.21605838277E+04  0.21605838277E+04  0.00000000000E+00 0.  1.
          2   -1    0    0  501    0  0.00000000000E+00 -0.00000000000E+00 -0.40907703673E+04  0.40907703673E+04  0.00000000000E+00 0. -1.
    9900016    2    1    2    0    0  0.62942913687E+03  0.42732129598E+03 -0.23527700197E+04  0.33099355835E+04  0.22003095858E+04 0.  0.
    9900016    2    1    2    0    0 -0.16757823089E+03 -0.43417501669E+03 -0.96575079585E+02  0.22405662580E+04  0.21895707346E+04 0.  0.
         23    2    4    4    0    0 -0.30005691796E+03  0.14656707918E+03  0.96389296788E+03  0.10242585403E+04  0.92194583176E+02 0.  0.
        -15    1    5    5    0    0 -0.82437236183E+02  0.87626199398E+00  0.28205165024E+03  0.29385336334E+03  0.00000000000E+00 0.  1.
        -15    1    3    3    0    0 -0.35552217221E+03 -0.15013802113E+03 -0.73941625304E+03  0.83407064184E+03  0.00000000000E+00 0. -1.
         15    1    5    5    0    0 -0.21761968178E+03  0.14569081719E+03  0.68184131765E+03  0.73040517698E+03  0.00000000000E+00 0. -1.
         15    1    3    3    0    0 -0.28099623716E+03 -0.48700161823E+02 -0.79263579686E+03  0.84237883255E+03  0.00000000000E+00 0.  1.
        -16    1    3    3    0    0  0.12659475462E+04  0.62615947894E+03 -0.82071796978E+03  0.16334861092E+04  0.00000000000E+00 0.  1.
         16    1    4    4    0    0  0.13247868707E+03 -0.58074209587E+03 -0.10604680475E+04  0.12163077177E+04  0.00000000000E+00 0. -1.
    9900018    1    1    2    0    0 -0.46185090598E+03  0.68537207083E+01  0.51915855966E+03  0.70085235343E+03  0.91187600000E+02 0.  0.
<mgrwt>
<rscale>  0 0.59459069E+04</rscale>
<asrwt>0</asrwt>
<pdfrwt beam="1">  1        2 0.62934929E+00 0.59459069E+04</pdfrwt>
<pdfrwt beam="2">  1       -2 0.33239751E+00 0.59459069E+04</pdfrwt>
<totfact> 0.38811729E-03</totfact>
</mgrwt>
</event>
<event>
13    1  0.4759131E-010  0.5562666E+04  0.7818608E-02  0.7747125E-01
         -2   -1    0    0    0  501 -0.00000000000E+00  0.00000000000E+00  0.20836855823E+04  0.20836855823E+04  0.00000000000E+00 0. -1.
          2   -1    0    0  501    0  0.00000000000E+00 -0.00000000000E+00 -0.37125623861E+04  0.37125623861E+04  0.00000000000E+00 0.  1.
    9900016    2    1    2    0    0 -0.18660894827E+03 -0.11645624865E+04  0.35009896294E+03  0.25220506639E+04  0.22016224887E+04 0.  0.
         23    2    3    3    0    0  0.20064889052E+03  0.19713417551E+03  0.94312866856E+03  0.98716608687E+03  0.76702915109E+02 0.  0.
    9900016    2    1    2    0    0  0.12759093233E+03  0.10816645948E+04 -0.19347799638E+04  0.31305879941E+04  0.22070183368E+04 0.  0.
         23    2    5    5    0    0  0.14020797752E+03 -0.37601175236E+03  0.26638948762E+03  0.49048828449E+03  0.92586625527E+02 0.  0.
        -15    1    4    4    0    0  0.98762906467E+02  0.51461890396E+02  0.42689416015E+03  0.44118143867E+03  0.00000000000E+00 0. -1.
        -15    1    6    6    0    0  0.20512735189E+02 -0.25636176693E+02  0.55226515292E+02  0.64249154482E+02  0.00000000000E+00 0.  1.
         15    1    6    6    0    0  0.11969524233E+03 -0.35037557567E+03  0.21116297233E+03  0.42623913000E+03  0.00000000000E+00 0. -1.
         15    1    4    4    0    0  0.10188598406E+03  0.14567228512E+03  0.51623450841E+03  0.54598464820E+03  0.00000000000E+00 0.  1.
        -16    1    5    5    0    0 -0.12617045197E+02  0.14576763472E+04 -0.22011694514E+04  0.26400997096E+04  0.00000000000E+00 0.  1.
         16    1    3    3    0    0 -0.38725783879E+03 -0.13616966620E+04 -0.59302970562E+03  0.15348845770E+04  0.00000000000E+00 0. -1.
    9900018    1    1    2    0    0  0.59018015942E+02  0.82897891671E+02 -0.44195803019E+02  0.14360931045E+03  0.91187600000E+02 0.  0.
<mgrwt>
<rscale>  0 0.55626658E+04</rscale>
<asrwt>0</asrwt>
<pdfrwt beam="1">  1        2 0.57116344E+00 0.55626658E+04</pdfrwt>
<pdfrwt beam="2">  1       -2 0.32056701E+00 0.55626658E+04</pdfrwt>
<totfact> 0.94197019E-03</totfact>
</mgrwt>
</event>
<event>
12    1  0.4759131E-010  0.5353926E+04  0.7818608E-02  0.7776115E-01
          1   -1    0    0  501    0  0.00000000000E+00  0.00000000000E+00  0.20877917804E+04  0.20877917804E+04  0.00000000000E+00 0. -1.
         -1   -1    0    0    0  501 -0.00000000000E+00 -0.00000000000E+00 -0.34323969457E+04  0.34323969457E+04  0.00000000000E+00 0.  1.
    9900016    2    1    2    0    0  0.40679420543E+02 -0.11573407240E+04 -0.82286777907E+03  0.26056365626E+04  0.21842935123E+04 0.  0.
    9900016    2    1    2    0    0 -0.27912300639E+03  0.88827950975E+03 -0.16332466457E+03  0.23987768849E+04  0.22046554056E+04 0.  0.
         23    2    4    4    0    0  0.28659972809E+02  0.35006226470E+03 -0.11652391790E+04  0.12205405507E+04  0.92584602106E+02 0.  0.
        -15    1    3    3    0    0 -0.90836045333E+02  0.95749674959E+01 -0.43610152856E+01  0.91443346334E+02  0.00000000000E+00 0.  1.
        -15    1    5    5    0    0 -0.50504880857E+01  0.66970535837E+02 -0.12449779742E+03  0.14145763204E+03  0.00000000000E+00 0. -1.
         15    1    3    3    0    0 -0.59314047762E+03  0.45251822218E+02  0.34210177652E+03  0.68621933746E+03  0.00000000000E+00 0. -1.
         15    1    5    5    0    0  0.33710460894E+02  0.28309172886E+03 -0.10407413815E+04  0.10790829187E+04  0.00000000000E+00 0.  1.
        -16    1    3    3    0    0  0.72465594350E+03 -0.12121675137E+04 -0.11606085403E+04  0.18279738788E+04  0.00000000000E+00 0.  1.
         16    1    4    4    0    0 -0.30778297920E+03  0.53821724505E+03  0.10019145144E+04  0.11782363342E+04  0.00000000000E+00 0. -1.
    9900018    1    1    2    0    0  0.23844358584E+03  0.26906121421E+03 -0.35841272165E+03  0.51577527864E+03  0.91187600000E+02 0.  0.
<mgrwt>
<rscale>  0 0.53539257E+04</rscale>
<asrwt>0</asrwt>
<pdfrwt beam="1">  1        1 0.32119874E+00 0.53539257E+04</pdfrwt>
<pdfrwt beam="2">  1       -1 0.52806106E+00 0.53539257E+04</pdfrwt>
<totfact> 0.18392838E-03</totfact>
</mgrwt>
</event>
