<event>
11    1  0.1664879E-015  0.9693238E+03  0.7818608E-02  0.9342845E-01
         -1   -1    0    0    0  501 -0.00000000000E+00  0.00000000000E+00  0.13781881352E+03  0.13781881352E+03  0.00000000000E+00 0.  1.
          1   -1    0    0  501    0  0.00000000000E+00 -0.00000000000E+00 -0.17043910287E+04  0.17043910287E+04  0.00000000000E+00 0. -1.
    9900016    2    1    2    0    0  0.92125593856E+02  0.44250978517E+02 -0.99391515243E+03  0.11961130514E+04  0.65755138762E+03 0.  0.
         23    2    3    3    0    0 -0.71584638454E+02 -0.86821582467E+02 -0.13264292079E+03  0.19082070712E+03  0.78460500803E+02 0.  0.
        -15    1    4    4    0    0 -0.47305924372E+02 -0.93938840397E+02 -0.12700111567E+03  0.16489887688E+03  0.00000000000E+00 0.  1.
        -15    1    3    3    0    0  0.26734724765E+03 -0.59057751948E+02 -0.49531539852E+03  0.56595027423E+03  0.00000000000E+00 0.  1.
         15    1    3    3    0    0  0.36677992919E+01  0.23578957148E+02 -0.77307914124E+00  0.23875041847E+02  0.00000000000E+00 0. -1.
         15    1    4    4    0    0 -0.24278714082E+02  0.71172579300E+01 -0.56418051187E+01  0.25921830239E+02  0.00000000000E+00 0. -1.
        -16    1    1    2    0    0 -0.17135086264E+03 -0.38762689216E+02 -0.37984086120E+03  0.41850059025E+03  0.00000000000E+00 0.  1.
         16    1    3    3    0    0 -0.10730481463E+03  0.16655135578E+03 -0.36518375397E+03  0.41546702820E+03  0.00000000000E+00 0. -1.
    9900018    1    1    2    0    0  0.79225268788E+02 -0.54882893007E+01 -0.19281620156E+03  0.22759620057E+03  0.91187600000E+02 0.  0.
<mgrwt>
<rscale>  0 0.96932378E+03</rscale>
<asrwt>0</asrwt>
<pdfrwt beam="1">  1        1 0.26221403E+00 0.96932378E+03</pdfrwt>
<pdfrwt beam="2">  1       -1 0.21202892E-01 0.96932378E+03</pdfrwt>
<totfact> 0.88311915E+01</totfact>
</mgrwt>
</event>
<event>
12    1  0.1664879E-015  0.1021384E+04  0.7818608E-02  0.9285397E-01
         -1   -1    0    0    0  501 -0.00000000000E+00  0.00000000000E+00  0.35230770743E+03  0.35230770743E+03  0.00000000000E+00 0. -1.
          1   -1    0    0  501    0  0.00000000000E+00 -0.00000000000E+00 -0.74028007291E+03  0.74028007291E+03  0.00000000000E+00 0.  1.
    9900016    2    1    2    0    0 -0.60367929789E+02 -0.88700073298E+01 -0.39046496399E+03  0.76497808903E+03  0.65498520947E+03 0.  0.
         23    2    3    3    0    0 -0.32986337140E+02  0.31005139253E+01 -0.38744849389E+02  0.13509025702E+03  0.12510196867E+03 0.  0.
         23    2    3    3    0    0 -0.16727903198E+03 -0.14251758513E+03 -0.35932986205E+03  0.43838916968E+03  0.12154660720E+03 0.  0.
        -15    1    5    5    0    0 -0.17442366766E+03 -0.87123301867E+02 -0.27005848641E+03  0.33308508170E+03  0.00000000000E+00 0.  1.
        -15    1    4    4    0    0 -0.64117193157E+02  0.49176365048E+01 -0.67102589788E+02  0.92940600189E+02  0.00000000000E+00 0.  1.
         15    1    5    5    0    0  0.71446356807E+01 -0.55394283262E+02 -0.89271375633E+02  0.10530408798E+03  0.00000000000E+00 0. -1.
         15    1    4    4    0    0  0.31130856017E+02 -0.18171225795E+01  0.28357740399E+02  0.42149656836E+02  0.00000000000E+00 0. -1.
        -16    1    3    3    0    0  0.13989743933E+03  0.13054706387E+03  0.76097474450E+01  0.19149866233E+03  0.00000000000E+00 0.  1.
         16    1    1    2    0    0  0.71484796907E+02  0.54274796266E+02  0.13375966875E+03  0.16108221094E+03  0.00000000000E+00 0. -1.
    9900018    1    1    2    0    0 -0.11116867117E+02 -0.45404788936E+02 -0.13126707024E+03  0.16652748037E+03  0.91187600000E+02 0.  0.
<mgrwt>
<rscale>  0 0.10213841E+04</rscale>
<asrwt>0</asrwt>
<pdfrwt beam="1">  1        1 0.11388924E+00 0.10213841E+04</pdfrwt>
<pdfrwt beam="2">  1       -1 0.54201186E-01 0.10213841E+04</pdfrwt>
<totfact> 0.86025614E+01</totfact>
</mgrwt>
</event>
<event>
12    1  0.1664879E-015  0.1153377E+04  0.7818608E-02  0.9154673E-01
         -1   -1    0    0    0  501 -0.00000000000E+00  0.00000000000E+00  0.49881622670E+03  0.49881622670E+03  0.00000000000E+00 0.  1.
          1   -1    0    0  501    0  0.00000000000E+00 -0.00000000000E+00 -0.66671812433E+03  0.66671812433E+03  0.00000000000E+00 0. -1.
    9900016    2    1    2    0    0 -0.74673499010E+02 -0.13557576296E+03  0.10203612969E+03  0.68528501452E+03  0.65973271892E+03 0.  0.
         23    2    3    3    0    0 -0.79140858388E+02  0.45448568000E+02 -0.53818234209E+02  0.14886143304E+03  0.10456804537E+03 0.  0.
         23    2    3    3    0    0  0.14532047319E+01  0.10154646140E+03 -0.80693231780E+02  0.16789935860E+03  0.10660676028E+03 0.  0.
        -15    1    4    4    0    0 -0.29412270293E+02 -0.32197849419E+02 -0.33263087040E+01  0.43736111859E+02  0.00000000000E+00 0.  1.
        -15    1    5    5    0    0 -0.34086223319E+02  0.33262990732E+01 -0.46986086154E+02  0.58143161057E+02  0.00000000000E+00 0.  1.
         15    1    5    5    0    0  0.35539428051E+02  0.98220162328E+02 -0.33707145626E+02  0.10975619755E+03  0.00000000000E+00 0. -1.
         15    1    4    4    0    0 -0.49728588095E+02  0.77646417419E+02 -0.50491925505E+02  0.10512532118E+03  0.00000000000E+00 0. -1.
        -16    1    3    3    0    0  0.30141546460E+01 -0.28257079237E+03  0.23654759568E+03  0.36852422288E+03  0.00000000000E+00 0.  1.
         16    1    1    2    0    0  0.14667758316E+03  0.13192717038E+03 -0.30103296756E+03  0.35991657262E+03  0.00000000000E+00 0. -1.
    9900018    1    1    2    0    0 -0.72004084152E+02  0.36485925825E+01  0.31094940237E+02  0.12033276389E+03  0.91187600000E+02 0.  0.
<mgrwt>
<rscale>  0 0.11533773E+04</rscale>
<asrwt>0</asrwt>
<pdfrwt beam="1">  1        1 0.10257202E+00 0.11533773E+04</pdfrwt>
<pdfrwt beam="2">  1       -1 0.76740958E-01 0.11533773E+04</pdfrwt>
<totfact> 0.49631871E+01</totfact>
</mgrwt>
</event>
<event>
12    1  0.1664879E-015  0.9325546E+03  0.7818608E-02  0.9385777E-01
         -1   -1    0    0    0  501 -0.00000000000E+00  0.00000000000E+00  0.64335787084E+02  0.64335787084E+02  0.00000000000E+00 0.  1.
          1   -1    0    0  501    0  0.00000000000E+00 -0.00000000000E+00 -0.33793714550E+04  0.33793714550E+04  0.00000000000E+00 0. -1.
    9900016    2    1    2    0    0  0.10595757633E+03  0.20715737306E+02 -0.19821235646E+04  0.20934145088E+04  0.66476637296E+03 0.  0.
         23    2    3    3    0    0  0.21190773841E+02  0.17779133737E+01 -0.12473255301E+03  0.16634921286E+03  0.10798907799E+03 0.  0.
         23    2    3    3    0    0 -0.13538679689E+03  0.13644406235E+03 -0.55108522545E+03  0.59713667747E+03  0.12621695189E+03 0.  0.
        -15    1    5    5    0    0 -0.14262932526E+03  0.67357783769E+02 -0.42256692671E+03  0.45104656412E+03  0.00000000000E+00 0.  1.
        -15    1    4    4    0    0 -0.31988604211E+02  0.36615832976E+01 -0.16308940690E+01  0.32238762493E+02  0.00000000000E+00 0.  1.
         15    1    5    5    0    0  0.72425283698E+01  0.69086278584E+02 -0.12851829874E+03  0.14609011335E+03  0.00000000000E+00 0. -1.
         15    1    4    4    0    0  0.53179378053E+02 -0.18836699239E+01 -0.12310165894E+03  0.13411045037E+03  0.00000000000E+00 0. -1.
        -16    1    3    3    0    0  0.22015359938E+03 -0.11750623842E+03 -0.13063057861E+04  0.13299286185E+04  0.00000000000E+00 0.  1.
         16    1    1    2    0    0 -0.86371967941E+02 -0.15301155890E+02 -0.10191319767E+04  0.10228999111E+04  0.00000000000E+00 0. -1.
    9900018    1    1    2    0    0 -0.19585608388E+02 -0.54145814160E+01 -0.31378012666E+03  0.32739282221E+03  0.91187600000E+02 0.  0.
<mgrwt>
<rscale>  0 0.93255460E+03</rscale>
<asrwt>0</asrwt>
<pdfrwt beam="1">  1        1 0.51990327E+00 0.93255460E+03</pdfrwt>
<pdfrwt beam="2">  1       -1 0.98978141E-02 0.93255460E+03</pdfrwt>
<totfact> 0.20796249E+01</totfact>
</mgrwt>
</event>
<event>
12    1  0.1664879E-015  0.9787556E+03  0.7818608E-02  0.9332157E-01
         -1   -1    0    0    0  501 -0.00000000000E+00  0.00000000000E+00  0.16893711250E+03  0.16893711250E+03  0.00000000000E+00 0.  1.
          1   -1    0    0  501    0  0.00000000000E+00 -0.00000000000E+00 -0.14176319803E+04  0.14176319803E+04  0.00000000000E+00 0. -1.
    9900016    2    1    2    0    0 -0.42280427328E+01 -0.22970719801E+01 -0.70352620755E+03  0.10413791984E+04  0.76778796368E+03 0.  0.
         23    2    3    3    0    0 -0.66209797633E+02 -0.26043748892E+02 -0.13866814874E+03  0.17312792281E+03  0.75381748606E+02 0.  0.
         23    2    3    3    0    0  0.41644412247E+02  0.26229388853E+03 -0.30966083005E+03  0.42344877461E+03  0.11351957550E+03 0.  0.
        -15    1    4    4    0    0 -0.32029420341E+02 -0.47235724027E+02 -0.10938958623E+03  0.12338224737E+03  0.00000000000E+00 0. -1.
        -15    1    5    5    0    0 -0.97392363576E+01  0.14624047324E+03 -0.96878598264E+02  0.17568890557E+03  0.00000000000E+00 0. -1.
         15    1    5    5    0    0  0.51383648604E+02  0.11605341529E+03 -0.21278223178E+03  0.24775986904E+03  0.00000000000E+00 0.  1.
         15    1    4    4    0    0 -0.34180377291E+02  0.21191975136E+02 -0.29278562511E+02  0.49745675436E+02  0.00000000000E+00 0.  1.
        -16    1    3    3    0    0 -0.48128583807E+02 -0.24100911865E+03 -0.14071155491E+03  0.28319868915E+03  0.00000000000E+00 0.  1.
         16    1    1    2    0    0  0.42280427328E+01  0.22970719801E+01 -0.54516866022E+03  0.54518989442E+03  0.00000000000E+00 0. -1.
    9900018    1    3    3    0    0  0.68465926461E+02  0.24619070310E+01 -0.11448567385E+03  0.16160381178E+03  0.91187600000E+02 0.  0.
<mgrwt>
<rscale>  0 0.97875565E+03</rscale>
<asrwt>0</asrwt>
<pdfrwt beam="1">  1        1 0.21809723E+00 0.97875565E+03</pdfrwt>
<pdfrwt beam="2">  1       -1 0.25990325E-01 0.97875565E+03</pdfrwt>
<totfact> 0.98158624E+01</totfact>
</mgrwt>
</event>
<event>
12    1  0.1664879E-015  0.9686034E+03  0.7818608E-02  0.9343667E-01
          2   -1    0    0  501    0  0.00000000000E+00  0.00000000000E+00  0.18046503349E+04  0.18046503349E+04  0.00000000000E+00 0. -1.
         -2   -1    0    0    0  501 -0.00000000000E+00 -0.00000000000E+00 -0.12996873090E+03  0.12996873090E+03  0.00000000000E+00 0.  1.
    9900016    2    1    2    0    0  0.18431550544E+03 -0.14545563166E+02  0.13771773069E+04  0.15843440513E+04  0.76114713391E+03 0.  0.
         23    2    3    3    0    0  0.11695236978E+03  0.73257099181E+02  0.11062425357E+03  0.19120513500E+03  0.72644468447E+02 0.  0.
         23    2    3    3    0    0  0.88766916954E+01  0.55058669238E+02  0.46651864153E+02  0.12814293387E+03  0.10551759265E+03 0.  0.
        -15    1    4    4    0    0  0.50556049924E+02  0.23545715002E+02  0.37156242719E+01  0.55893834567E+02  0.00000000000E+00 0.  1.
        -15    1    5    5    0    0 -0.40050127609E+01 -0.30557333379E+02  0.22806396268E+02  0.38339567827E+02  0.00000000000E+00 0. -1.
         15    1    4    4    0    0  0.66396319858E+02  0.49711384180E+02  0.10690862930E+03  0.13531130044E+03  0.00000000000E+00 0.  1.
         15    1    5    5    0    0  0.12881704456E+02  0.85616002616E+02  0.23845467885E+02  0.89803366041E+02  0.00000000000E+00 0. -1.
        -16    1    1    2    0    0 -0.18431550544E+03  0.14545563166E+02  0.29750429717E+03  0.35027501451E+03  0.00000000000E+00 0.  1.
         16    1    3    3    0    0  0.62759732395E+02 -0.12427554958E+03  0.11191429875E+04  0.11277695787E+04  0.00000000000E+00 0. -1.
    9900018    1    3    3    0    0 -0.42732884320E+01 -0.18585782009E+02  0.10075820164E+03  0.13722640372E+03  0.91187600000E+02 0.  0.
<mgrwt>
<rscale>  0 0.96860335E+03</rscale>
<asrwt>0</asrwt>
<pdfrwt beam="1">  1        2 0.27763850E+00 0.96860335E+03</pdfrwt>
<pdfrwt beam="2">  1       -2 0.19995191E-01 0.96860335E+03</pdfrwt>
<totfact> 0.18375306E+02</totfact>
</mgrwt>
</event>
<event>
12    1  0.1664879E-015  0.8762621E+03  0.7818608E-02  0.9455751E-01
          1   -1    0    0  501    0  0.00000000000E+00  0.00000000000E+00  0.24487760550E+03  0.24487760550E+03  0.00000000000E+00 0.  1.
         -1   -1    0    0    0  501 -0.00000000000E+00 -0.00000000000E+00 -0.78389691403E+03  0.78389691403E+03  0.00000000000E+00 0. -1.
    9900016    2    1    2    0    0 -0.61540982794E+02 -0.97009297656E+02 -0.41170649940E+03  0.85729085337E+03  0.74313341280E+03 0.  0.
         23    2    3    3    0    0  0.67108208776E+02 -0.40754811804E+02 -0.11597232836E+03  0.17981165804E+03  0.11277493096E+03 0.  0.
         23    2    3    3    0    0 -0.58977531139E+02 -0.27095788267E+03 -0.16361032805E+03  0.34478307082E+03  0.12333086847E+03 0.  0.
        -15    1    4    4    0    0  0.15876996125E+02  0.30891835960E+02 -0.69925218067E+00  0.34740084752E+02  0.00000000000E+00 0.  1.
        -15    1    5    5    0    0 -0.81269105588E+02 -0.26108254479E+03 -0.12872749812E+03  0.30222430658E+03  0.00000000000E+00 0.  1.
         15    1    4    4    0    0  0.51231212651E+02 -0.71646647765E+02 -0.11527307617E+03  0.14507157329E+03  0.00000000000E+00 0. -1.
         15    1    5    5    0    0  0.22291574449E+02 -0.98753378840E+01 -0.34882829927E+02  0.42558764237E+02  0.00000000000E+00 0. -1.
        -16    1    3    3    0    0 -0.61079335166E+02  0.20412724796E+03 -0.89025279039E+02  0.23092015688E+03  0.00000000000E+00 0.  1.
         16    1    1    2    0    0  0.61540982794E+02  0.97009297656E+02 -0.12731280913E+03  0.17148366617E+03  0.00000000000E+00 0. -1.
    9900018    1    3    3    0    0 -0.85923252645E+01  0.10576148859E+02 -0.43098563961E+02  0.10177596763E+03  0.91187600000E+02 0.  0.
<mgrwt>
<rscale>  0 0.87626206E+03</rscale>
<asrwt>0</asrwt>
<pdfrwt beam="1">  1        1 0.37673478E-01 0.87626206E+03</pdfrwt>
<pdfrwt beam="2">  1       -1 0.12059953E+00 0.87626206E+03</pdfrwt>
<totfact> 0.70541050E+01</totfact>
</mgrwt>
</event>
<event>
12    1  0.1664879E-015  0.1061338E+04  0.7818608E-02  0.9243716E-01
          2   -1    0    0  501    0  0.00000000000E+00  0.00000000000E+00  0.19953538909E+04  0.19953538909E+04  0.00000000000E+00 0.  1.
         -2   -1    0    0    0  501 -0.00000000000E+00 -0.00000000000E+00 -0.14113263303E+03  0.14113263303E+03  0.00000000000E+00 0. -1.
    9900016    2    1    2    0    0 -0.12514796638E+03 -0.29148966635E+02  0.18548619651E+04  0.20079871611E+04  0.75827953540E+03 0.  0.
         23    2    3    3    0    0 -0.47993475028E+02 -0.16353969328E+03  0.72791702309E+03  0.75824399580E+03  0.12657867016E+03 0.  0.
         23    2    3    3    0    0  0.97318344719E+02  0.15705780810E+03  0.29726295764E+03  0.36766980263E+03  0.11259574804E+03 0.  0.
        -15    1    5    5    0    0  0.83953573261E+02  0.15680276023E+03  0.30437159019E+03  0.35252996042E+03  0.00000000000E+00 0.  1.
        -15    1    4    4    0    0  0.34181808709E+02 -0.10476792339E+03  0.41752537079E+03  0.43182421084E+03  0.00000000000E+00 0.  1.
         15    1    4    4    0    0 -0.82175283737E+02 -0.58771769890E+02  0.31039165230E+03  0.32641978496E+03  0.00000000000E+00 0. -1.
         15    1    5    5    0    0  0.13364771458E+02  0.25504787142E+00 -0.71086325475E+01  0.15139842213E+02  0.00000000000E+00 0. -1.
        -16    1    1    2    0    0  0.12514796638E+03  0.29148966635E+02 -0.64070722111E+00  0.12849936284E+03  0.00000000000E+00 0.  1.
         16    1    3    3    0    0 -0.19457014023E+03 -0.13767496293E+02  0.65965376824E+03  0.68788820122E+03  0.00000000000E+00 0. -1.
    9900018    1    3    3    0    0  0.20097304159E+02 -0.88995851568E+01  0.17002821611E+03  0.19418516143E+03  0.91187600000E+02 0.  0.
<mgrwt>
<rscale>  0 0.10613379E+04</rscale>
<asrwt>0</asrwt>
<pdfrwt beam="1">  1        2 0.30697750E+00 0.10613379E+04</pdfrwt>
<pdfrwt beam="2">  1       -2 0.21712714E-01 0.10613379E+04</pdfrwt>
<totfact> 0.12393754E+02</totfact>
</mgrwt>
</event>
<event>
11    1  0.1664879E-015  0.9292790E+03  0.7818608E-02  0.9389704E-01
         -1   -1    0    0    0  501 -0.00000000000E+00  0.00000000000E+00  0.10650189724E+03  0.10650189724E+03  0.00000000000E+00 0.  1.
          1   -1    0    0  501    0  0.00000000000E+00 -0.00000000000E+00 -0.20270985598E+04  0.20270985598E+04  0.00000000000E+00 0. -1.
    9900016    2    1    2    0    0  0.78835389575E+02 -0.95086134159E+02 -0.13191984844E+04  0.14790037589E+04  0.65719942637E+03 0.  0.
         23    2    3    3    0    0 -0.18151963484E+03 -0.50464354122E+02 -0.56256325205E+03  0.59770351103E+03  0.72636393561E+02 0.  0.
        -15    1    4    4    0    0 -0.10127599044E+03 -0.31097397753E+02 -0.41815423183E+03  0.43136624345E+03  0.00000000000E+00 0.  1.
        -15    1    3    3    0    0  0.29295610928E+03 -0.31393826669E+02 -0.66877950168E+03  0.73080426667E+03  0.00000000000E+00 0.  1.
         15    1    3    3    0    0  0.33397905413E+01  0.34917368326E+02 -0.83132534351E+02  0.90229679592E+02  0.00000000000E+00 0. -1.
         15    1    4    4    0    0 -0.80243644408E+02 -0.19366956369E+02 -0.14440902022E+03  0.16633726758E+03  0.00000000000E+00 0. -1.
        -16    1    3    3    0    0 -0.35940875405E+02 -0.48145321694E+02 -0.47231963266E+01  0.60266301607E+02  0.00000000000E+00 0.  1.
         16    1    1    2    0    0 -0.76027427092E+02  0.87199055007E+02 -0.51792809981E+03  0.53069139944E+03  0.00000000000E+00 0. -1.
    9900018    1    1    2    0    0 -0.28079624834E+01  0.78870791516E+01 -0.83470078330E+02  0.12390529868E+03  0.91187600000E+02 0.  0.
<mgrwt>
<rscale>  0 0.92927895E+03</rscale>
<asrwt>0</asrwt>
<pdfrwt beam="1">  1        1 0.31186132E+00 0.92927895E+03</pdfrwt>
<pdfrwt beam="2">  1       -1 0.16384907E-01 0.92927895E+03</pdfrwt>
<totfact> 0.82463082E+01</totfact>
</mgrwt>
</event>
<event>
12    1  0.1664879E-015  0.1124568E+04  0.7818608E-02  0.9181572E-01
         -2   -1    0    0    0  501 -0.00000000000E+00  0.00000000000E+00  0.14395731577E+04  0.14395731577E+04  0.00000000000E+00 0.  1.
          2   -1    0    0  501    0  0.00000000000E+00 -0.00000000000E+00 -0.21962286561E+03  0.21962286561E+03  0.00000000000E+00 0. -1.
    9900016    2    1    2    0    0  0.21027400085E+03 -0.12014874693E+03  0.62570415518E+03  0.10174956664E+04  0.76494500750E+03 0.  0.
         23    2    3    3    0    0  0.28097390547E+03 -0.18904275936E+03  0.47889973983E+03  0.59164418924E+03  0.77552468908E+02 0.  0.
         23    2    3    3    0    0 -0.11574191176E+03  0.44597229126E+02 -0.71840786892E+01  0.16292500860E+03  0.10539375910E+03 0.  0.
        -15    1    4    4    0    0  0.24056297820E+03 -0.12391150427E+03  0.36547222827E+03  0.45474669543E+03  0.00000000000E+00 0.  1.
        -15    1    5    5    0    0  0.20261834632E+01 -0.12039724707E+02  0.25454882704E+02  0.28231391108E+02  0.00000000000E+00 0.  1.
         15    1    5    5    0    0 -0.11776809523E+03  0.56636953833E+02 -0.32638961393E+02  0.13469361749E+03  0.00000000000E+00 0. -1.
         15    1    4    4    0    0  0.40410927268E+02 -0.65131255090E+02  0.11342751156E+03  0.13689749381E+03  0.00000000000E+00 0. -1.
        -16    1    1    2    0    0 -0.21027400085E+03  0.12014874693E+03  0.59424613694E+03  0.64170035693E+03  0.00000000000E+00 0.  1.
         16    1    3    3    0    0  0.19600861621E+02  0.77623200117E+02  0.12837320504E+03  0.15129188592E+03  0.00000000000E+00 0. -1.
    9900018    1    3    3    0    0  0.25441145521E+02 -0.53326416811E+02  0.25615288997E+02  0.11163458263E+03  0.91187600000E+02 0.  0.
<mgrwt>
<rscale>  0 0.11245678E+04</rscale>
<asrwt>0</asrwt>
<pdfrwt beam="1">  1        2 0.33788134E-01 0.11245678E+04</pdfrwt>
<pdfrwt beam="2">  1       -2 0.22147279E+00 0.11245678E+04</pdfrwt>
<totfact> 0.14948377E+01</totfact>
</mgrwt>
</event>
<event>
12    1  0.1664879E-015  0.9823441E+03  0.7818608E-02  0.9328124E-01
          1   -1    0    0  501    0  0.00000000000E+00  0.00000000000E+00  0.12713865533E+04  0.12713865533E+04  0.00000000000E+00 0. -1.
         -1   -1    0    0    0  501 -0.00000000000E+00 -0.00000000000E+00 -0.18975346703E+03  0.18975346703E+03  0.00000000000E+00 0.  1.
    9900016    2    1    2    0    0  0.14506457531E+01  0.30368748637E+02  0.56856142783E+03  0.94716833632E+03  0.75692892324E+03 0.  0.
         23    2    3    3    0    0 -0.27753041829E+02 -0.69871608571E+02  0.17748780464E+03  0.20742219707E+03  0.76614450492E+02 0.  0.
         23    2    3    3    0    0 -0.62690933070E+02  0.26527581061E+03  0.31668447270E+03  0.43066965058E+03  0.10433543931E+03 0.  0.
        -15    1    5    5    0    0 -0.48376726711E+02  0.76082372732E+02  0.49154203492E+02  0.10268870848E+03  0.00000000000E+00 0.  1.
        -15    1    4    4    0    0 -0.42377643422E+02 -0.24243432011E+02  0.44475595717E+02  0.66043071340E+02  0.00000000000E+00 0. -1.
         15    1    4    4    0    0  0.14624601593E+02 -0.45628176560E+02  0.13301220893E+03  0.14137912573E+03  0.00000000000E+00 0.  1.
         15    1    5    5    0    0 -0.14314206359E+02  0.18919343788E+03  0.26753026921E+03  0.32798094210E+03  0.00000000000E+00 0. -1.
        -16    1    3    3    0    0  0.10003943582E+03 -0.17875619455E+03  0.32268713558E+02  0.20737149198E+03  0.00000000000E+00 0.  1.
         16    1    1    2    0    0 -0.14506457531E+01 -0.30368748637E+02  0.51307165845E+03  0.51397168402E+03  0.00000000000E+00 0. -1.
    9900018    1    3    3    0    0 -0.81448151642E+01  0.13720741154E+02  0.42120436931E+02  0.10170499670E+03  0.91187600000E+02 0.  0.
<mgrwt>
<rscale>  0 0.98234415E+03</rscale>
<asrwt>0</asrwt>
<pdfrwt beam="1">  1        1 0.19559793E+00 0.98234415E+03</pdfrwt>
<pdfrwt beam="2">  1       -1 0.29192842E-01 0.98234415E+03</pdfrwt>
<totfact> 0.10178313E+02</totfact>
</mgrwt>
</event>
