<event>
11    1  0.1612227E-015  0.4898787E+04  0.7818608E-02  0.8338364E-01
         -2   -1    0    0    0  501 -0.00000000000E+00  0.00000000000E+00  0.28575999790E+04  0.28575999790E+04  0.00000000000E+00 0.  1.
          2   -1    0    0  501    0  0.00000000000E+00 -0.00000000000E+00 -0.28128725940E+04  0.28128725940E+04  0.00000000000E+00 0. -1.
    9900016    2    1    2    0    0 -0.11440164350E+04 -0.44475535389E+03  0.13794202206E+04  0.26408349651E+04  0.18880223091E+04 0.  0.
        -24    2    3    3    0    0 -0.41727636282E+03  0.70514107380E+03  0.63637687596E+03  0.10406407572E+04  0.81327488377E+02 0.  0.
        -15    1    1    2    0    0  0.53433857707E+02 -0.12412205021E+03  0.64025630545E+03  0.65436197717E+03  0.00000000000E+00 0.  1.
        -15    1    3    3    0    0 -0.66228995595E+03 -0.11195569700E+04  0.66801537751E+03  0.14622859978E+04  0.00000000000E+00 0.  1.
         15    1    1    2    0    0  0.31845509295E+02 -0.65134426110E+02 -0.47701901225E+02  0.86787679468E+02  0.00000000000E+00 0. -1.
         15    1    4    4    0    0 -0.34104842953E+03  0.50653582305E+03  0.47128059793E+03  0.77136111731E+03  0.00000000000E+00 0. -1.
        -16    1    4    4    0    0 -0.76227933290E+02  0.19860525075E+03  0.16509627803E+03  0.26927963989E+03  0.00000000000E+00 0.  1.
         16    1    1    2    0    0  0.10587370680E+04  0.63401183021E+03 -0.19272472398E+04  0.22884879513E+04  0.00000000000E+00 0. -1.
    9900018    1    3    3    0    0 -0.64450116190E+02 -0.30339457720E+02  0.75027967079E+02  0.13790821009E+03  0.91187600000E+02 0.  0.
<mgrwt>
<rscale>  0 0.26896727E+04</rscale>
<asrwt>0</asrwt>
<pdfrwt beam="1">  1        2 0.43274963E+00 0.48987866E+04</pdfrwt>
<pdfrwt beam="2">  1       -2 0.43963077E+00 0.48987866E+04</pdfrwt>
<totfact> 0.66039496E-03</totfact>
</mgrwt>
</event>
<event>
11    1  0.1612227E-015  0.4556986E+04  0.7818608E-02  0.7900736E-01
         -2   -1    0    0    0  501 -0.00000000000E+00  0.00000000000E+00  0.15703461919E+04  0.15703461919E+04  0.00000000000E+00 0.  1.
          2   -1    0    0  501    0  0.00000000000E+00 -0.00000000000E+00 -0.33059777904E+04  0.33059777904E+04  0.00000000000E+00 0. -1.
    9900016    2    1    2    0    0  0.33579802059E+03 -0.87420831113E+01 -0.10236265351E+04  0.21848928934E+04  0.19008179653E+04 0.  0.
         24    2    3    3    0    0  0.65433446669E+03 -0.48912011255E+03 -0.12089448973E+04  0.14616991136E+04  0.87318125842E+02 0.  0.
        -15    1    4    4    0    0  0.44213896076E+03 -0.32773114417E+03 -0.73927983380E+03  0.92164485359E+03  0.00000000000E+00 0.  1.
        -15    1    1    2    0    0  0.25511723900E+03 -0.63119137007E+03  0.40109872293E+03  0.79016930896E+03  0.00000000000E+00 0.  1.
         15    1    1    2    0    0 -0.31520419499E+02  0.91553854433E+03 -0.70558201973E+03  0.11563089334E+04  0.00000000000E+00 0. -1.
         15    1    3    3    0    0 -0.31079173582E+03  0.51221960701E+03  0.18228452206E+03  0.62624921225E+03  0.00000000000E+00 0. -1.
        -16    1    1    2    0    0 -0.55939484008E+03 -0.27560509115E+03 -0.40752176657E+03  0.74495284656E+03  0.00000000000E+00 0.  1.
         16    1    4    4    0    0  0.21219550592E+03 -0.16138896838E+03 -0.46966506348E+03  0.54005425996E+03  0.00000000000E+00 0. -1.
    9900018    1    3    3    0    0 -0.77447102826E+01 -0.31841577573E+02  0.30338400966E+01  0.96944567559E+02  0.91187600000E+02 0.  0.
<mgrwt>
<rscale>  0 0.45569857E+04</rscale>
<asrwt>0</asrwt>
<pdfrwt beam="1">  1        2 0.50861197E+00 0.45569857E+04</pdfrwt>
<pdfrwt beam="2">  1       -2 0.24159172E+00 0.45569857E+04</pdfrwt>
<totfact> 0.60201211E-02</totfact>
</mgrwt>
</event>
<event>
11    1  0.1612227E-015  0.3364856E+04  0.7818608E-02  0.8324008E-01
         -2   -1    0    0    0  501 -0.00000000000E+00  0.00000000000E+00  0.30720391549E+04  0.30720391549E+04  0.00000000000E+00 0.  1.
          2   -1    0    0  501    0  0.00000000000E+00 -0.00000000000E+00 -0.21112966827E+04  0.21112966827E+04  0.00000000000E+00 0. -1.
    9900016    2    1    2    0    0  0.48009627442E+02  0.21419265006E+03 -0.94825270112E+03  0.21230694503E+04  0.18868114082E+04 0.  0.
        -24    2    3    3    0    0 -0.50243826510E+03 -0.34693814119E+03 -0.10453288434E+04  0.12132015500E+04  0.79594761550E+02 0.  0.
        -15    1    3    3    0    0  0.52300738219E+03  0.59043493150E+03  0.14050321363E+03  0.80118118001E+03  0.00000000000E+00 0.  1.
        -15    1    1    2    0    0  0.27984631054E+02  0.71676043785E+03  0.21567872446E+03  0.74903002412E+03  0.00000000000E+00 0.  1.
         15    1    1    2    0    0 -0.61114287035E+03 -0.18321614631E+03  0.85600953162E+03  0.10676216945E+04  0.00000000000E+00 0. -1.
         15    1    4    4    0    0 -0.36270701989E+03 -0.27422835693E+03 -0.71671556763E+03  0.84878665099E+03  0.00000000000E+00 0. -1.
        -16    1    4    4    0    0 -0.13973124521E+03 -0.72709784254E+02 -0.32861327580E+03  0.36441489905E+03  0.00000000000E+00 0.  1.
         16    1    1    2    0    0  0.53514861185E+03 -0.74773694161E+03  0.83730691721E+03  0.12436146687E+04  0.00000000000E+00 0. -1.
    9900018    1    3    3    0    0  0.27440510353E+02 -0.29304140248E+02 -0.43427071311E+02  0.10868672026E+03  0.91187600000E+02 0.  0.
<mgrwt>
<rscale>  0 0.27341525E+04</rscale>
<asrwt>0</asrwt>
<pdfrwt beam="1">  1        2 0.32481487E+00 0.33648556E+04</pdfrwt>
<pdfrwt beam="2">  1       -2 0.47262141E+00 0.33648556E+04</pdfrwt>
<totfact> 0.11260348E-02</totfact>
</mgrwt>
</event>
<event>
11    1  0.1612227E-015  0.3846725E+04  0.7818608E-02  0.8157985E-01
         -1   -1    0    0    0  501 -0.00000000000E+00  0.00000000000E+00  0.44248236516E+04  0.44248236516E+04  0.00000000000E+00 0.  1.
          1   -1    0    0  501    0  0.00000000000E+00 -0.00000000000E+00 -0.24380722495E+04  0.24380722495E+04  0.00000000000E+00 0. -1.
    9900016    2    1    2    0    0  0.54769851427E+03 -0.70479758512E+03  0.15191402826E+03  0.20833670514E+04  0.18763334192E+04 0.  0.
         24    2    3    3    0    0 -0.16210539374E+03  0.54241312371E+03  0.62333791439E+02  0.57509022010E+03  0.79706362623E+02 0.  0.
        -15    1    1    2    0    0  0.95998446927E+02  0.17757238841E+03  0.45125750584E+03  0.49434905837E+03  0.00000000000E+00 0.  1.
        -15    1    4    4    0    0 -0.19847737047E+02  0.16612249271E+02 -0.45997927840E+01  0.26287974159E+02  0.00000000000E+00 0.  1.
         15    1    1    2    0    0 -0.50318747406E+03  0.12600474703E+04 -0.10653625952E+04  0.17250839750E+04  0.00000000000E+00 0. -1.
         15    1    3    3    0    0  0.68998662899E+03 -0.12299613477E+04  0.75055488917E+02  0.14122746870E+04  0.00000000000E+00 0. -1.
        -16    1    1    2    0    0 -0.14050948714E+03 -0.73282227362E+03  0.24489424632E+04  0.25600958164E+04  0.00000000000E+00 0.  1.
         16    1    4    4    0    0 -0.14225765669E+03  0.52580087444E+03  0.66933584223E+02  0.54880224594E+03  0.00000000000E+00 0. -1.
    9900018    1    3    3    0    0  0.19817279025E+02 -0.17249361082E+02  0.14524747903E+02  0.96002144253E+02  0.91187600000E+02 0.  0.
<mgrwt>
<rscale>  0 0.33193646E+04</rscale>
<asrwt>0</asrwt>
<pdfrwt beam="1">  1        1 0.37508804E+00 0.38467250E+04</pdfrwt>
<pdfrwt beam="2">  1       -1 0.68074210E+00 0.38467250E+04</pdfrwt>
<totfact> 0.25657339E-04</totfact>
</mgrwt>
</event>
<event>
11    1  0.1612227E-015  0.2452163E+04  0.7818608E-02  0.8720992E-01
         -2   -1    0    0    0  501 -0.00000000000E+00  0.00000000000E+00  0.12155543449E+04  0.12155543449E+04  0.00000000000E+00 0.  1.
          2   -1    0    0  501    0  0.00000000000E+00 -0.00000000000E+00 -0.20888301927E+04  0.20888301927E+04  0.00000000000E+00 0. -1.
    9900016    2    1    2    0    0  0.66857417508E+02  0.22267628062E+03 -0.64690134704E+03  0.19308245317E+04  0.18043135479E+04 0.  0.
         24    2    3    3    0    0 -0.23127116323E+03 -0.75672622413E+03 -0.29720739660E+03  0.84897621706E+03  0.79419464369E+02 0.  0.
        -15    1    4    4    0    0 -0.46379062404E+02 -0.10260051211E+03 -0.68413595796E+02  0.13175091121E+03  0.00000000000E+00 0.  1.
        -15    1    1    2    0    0 -0.72198414424E+01 -0.23111240582E+03  0.16908464215E+02  0.23184254656E+03  0.00000000000E+00 0.  1.
         15    1    3    3    0    0  0.29812858074E+03  0.97940250475E+03 -0.34969395044E+03  0.10818483147E+04  0.00000000000E+00 0. -1.
         15    1    1    2    0    0 -0.20168940764E+03  0.25509215065E+03 -0.48977513213E+03  0.58790331053E+03  0.00000000000E+00 0. -1.
        -16    1    1    2    0    0  0.11209073290E+03 -0.29162498079E+03  0.30168664956E+03  0.43430898718E+03  0.00000000000E+00 0.  1.
         16    1    4    4    0    0 -0.18489210082E+03 -0.65412571202E+03 -0.22879380080E+03  0.71722530585E+03  0.00000000000E+00 0. -1.
    9900018    1    1    2    0    0  0.29961098680E+02  0.44968955339E+02 -0.55194482397E+02  0.11950516164E+03  0.91187600000E+02 0.  0.
<mgrwt>
<rscale>  0 0.17726287E+04</rscale>
<asrwt>0</asrwt>
<pdfrwt beam="1">  1        2 0.32135849E+00 0.24521627E+04</pdfrwt>
<pdfrwt beam="2">  1       -2 0.18700836E+00 0.24521627E+04</pdfrwt>
<totfact> 0.84709002E-01</totfact>
</mgrwt>
</event>
<event>
11    1  0.1612227E-015  0.7082990E+04  0.7818608E-02  0.7568937E-01
         -1   -1    0    0    0  501 -0.00000000000E+00  0.00000000000E+00  0.36149712614E+04  0.36149712614E+04  0.00000000000E+00 0.  1.
          1   -1    0    0  501    0  0.00000000000E+00 -0.00000000000E+00 -0.34695123875E+04  0.34695123875E+04  0.00000000000E+00 0. -1.
    9900016    2    1    2    0    0  0.75999208340E+03 -0.48938576247E+03  0.11640858744E+04  0.23273779988E+04  0.18012512415E+04 0.  0.
        -24    2    3    3    0    0  0.13235789204E+04 -0.42096801575E+03  0.10626636678E+04  0.17506652671E+04  0.80619959181E+02 0.  0.
        -15    1    1    2    0    0  0.64417006597E+03 -0.10784071066E+04  0.93973671970E+03  0.15687645023E+04  0.00000000000E+00 0.  1.
        -15    1    3    3    0    0 -0.56358683697E+03 -0.68417746721E+02  0.10142220657E+03  0.57671273166E+03  0.00000000000E+00 0.  1.
         15    1    1    2    0    0 -0.94035636162E+03  0.79643802393E+03 -0.15524646837E+04  0.19821024714E+04  0.00000000000E+00 0. -1.
         15    1    4    4    0    0  0.59567584338E+03 -0.21774074097E+03  0.52242113741E+03  0.82168399369E+03  0.00000000000E+00 0. -1.
        -16    1    4    4    0    0  0.72790307699E+03 -0.20322727478E+03  0.54024253041E+03  0.92898127342E+03  0.00000000000E+00 0.  1.
         16    1    1    2    0    0 -0.54584107035E+03  0.77491698917E+03 -0.48043563195E+03  0.10626651451E+04  0.00000000000E+00 0. -1.
    9900018    1    1    2    0    0  0.82035282604E+02 -0.35621440457E+01  0.74536595372E+02  0.14357353135E+03  0.91187600000E+02 0.  0.
<mgrwt>
<rscale>  0 0.70829902E+04</rscale>
<asrwt>0</asrwt>
<pdfrwt beam="1">  1        1 0.53377114E+00 0.70829902E+04</pdfrwt>
<pdfrwt beam="2">  1       -1 0.55614943E+00 0.70829902E+04</pdfrwt>
<totfact> 0.11614837E-04</totfact>
</mgrwt>
</event>
<event>
11    1  0.1612227E-015  0.3321409E+04  0.7818608E-02  0.8290011E-01
          2   -1    0    0  501    0  0.00000000000E+00  0.00000000000E+00  0.35898619224E+04  0.35898619224E+04  0.00000000000E+00 0. -1.
         -2   -1    0    0    0  501 -0.00000000000E+00 -0.00000000000E+00 -0.22431623607E+04  0.22431623607E+04  0.00000000000E+00 0.  1.
    9900016    2    1    2    0    0 -0.64503350272E+03 -0.53671091975E+03  0.50727268944E+03  0.21341757221E+04  0.18955879300E+04 0.  0.
         24    2    3    3    0    0  0.50631981993E+03  0.15933399614E+03 -0.14848723298E+03  0.55720406919E+03  0.81736368812E+02 0.  0.
        -15    1    4    4    0    0  0.75113843567E+02  0.45888922104E+02 -0.25838257734E+01  0.88059972876E+02  0.00000000000E+00 0.  1.
        -15    1    1    2    0    0  0.57128359991E+03  0.76859535117E+03  0.89602257849E+03  0.13114725413E+04  0.00000000000E+00 0.  1.
         15    1    1    2    0    0  0.81994198881E+03  0.89060357765E+02  0.84022615099E+03  0.11773769987E+04  0.00000000000E+00 0. -1.
         15    1    3    3    0    0 -0.11104490052E+04 -0.70948966439E+03  0.66437993952E+03  0.14757619324E+04  0.00000000000E+00 0. -1.
        -16    1    1    2    0    0 -0.74619208600E+03 -0.32094478919E+03 -0.89682185726E+03  0.12099990209E+04  0.00000000000E+00 0.  1.
         16    1    4    4    0    0  0.43120597636E+03  0.11344507403E+03 -0.14590340720E+03  0.46914409632E+03  0.00000000000E+00 0. -1.
    9900018    1    3    3    0    0 -0.40904317415E+02  0.13444748503E+02 -0.86200170999E+01  0.10120972055E+03  0.91187600000E+02 0.  0.
<mgrwt>
<rscale>  0 0.28430987E+04</rscale>
<asrwt>0</asrwt>
<pdfrwt beam="1">  1        2 0.55228645E+00 0.33214088E+04</pdfrwt>
<pdfrwt beam="2">  1       -2 0.34510190E+00 0.33214088E+04</pdfrwt>
<totfact> 0.91508247E-03</totfact>
</mgrwt>
</event>
<event>
11    1  0.1612227E-015  0.3105768E+04  0.7818608E-02  0.8341856E-01
         -2   -1    0    0    0  501 -0.00000000000E+00  0.00000000000E+00  0.15510953007E+04  0.15510953007E+04  0.00000000000E+00 0.  1.
          2   -1    0    0  501    0  0.00000000000E+00 -0.00000000000E+00 -0.38083357153E+04  0.38083357153E+04  0.00000000000E+00 0. -1.
    9900016    2    1    2    0    0 -0.14945247552E+04 -0.47964332453E+03 -0.81407422759E+03  0.25876789477E+04  0.18893659058E+04 0.  0.
        -24    2    3    3    0    0  0.25638382846E+03 -0.58318702830E+03 -0.72007671193E+02  0.64590663441E+03  0.78552518654E+02 0.  0.
        -15    1    3    3    0    0 -0.16581310180E+04  0.98325247689E+02 -0.65702698260E+03  0.17862672765E+04  0.00000000000E+00 0.  1.
        -15    1    1    2    0    0  0.12596336685E+02 -0.35149193644E+03 -0.70937538989E+03  0.79178197306E+03  0.00000000000E+00 0.  1.
         15    1    1    2    0    0  0.83897638857E+03  0.84596142347E+03 -0.41061183251E+03  0.12602119614E+04  0.00000000000E+00 0. -1.
         15    1    4    4    0    0  0.25945579836E+02 -0.30564158876E+02  0.10656142628E+02  0.41483663008E+02  0.00000000000E+00 0. -1.
        -16    1    4    4    0    0  0.23043824862E+03 -0.55262286943E+03 -0.82663813821E+02  0.60442297140E+03  0.00000000000E+00 0.  1.
         16    1    1    2    0    0  0.64295202997E+03 -0.14826162500E+02 -0.32317896463E+03  0.71975813376E+03  0.00000000000E+00 0. -1.
    9900018    1    3    3    0    0 -0.92777565647E+02  0.52184560836E+01 -0.85039573790E+02  0.15550503682E+03  0.91187600000E+02 0.  0.
<mgrwt>
<rscale>  0 0.26789862E+04</rscale>
<asrwt>0</asrwt>
<pdfrwt beam="1">  1        2 0.58589780E+00 0.31057681E+04</pdfrwt>
<pdfrwt beam="2">  1       -2 0.23863005E+00 0.31057681E+04</pdfrwt>
<totfact> 0.29529264E-02</totfact>
</mgrwt>
</event>
<event>
11    1  0.1612227E-015  0.4527822E+04  0.7818608E-02  0.8046738E-01
          2   -1    0    0  501    0  0.00000000000E+00  0.00000000000E+00  0.23637538177E+04  0.23637538177E+04  0.00000000000E+00 0. -1.
         -2   -1    0    0    0  501 -0.00000000000E+00 -0.00000000000E+00 -0.48720967070E+04  0.48720967070E+04  0.00000000000E+00 0.  1.
    9900016    2    1    2    0    0  0.70961542393E+03  0.31294541294E+03 -0.15252242892E+03  0.19600076115E+04  0.17935656845E+04 0.  0.
         24    2    3    3    0    0  0.28850473126E+03  0.99130241047E+03  0.25105727329E+03  0.10653685739E+04  0.77878076953E+02 0.  0.
        -15    1    4    4    0    0  0.10071460289E+02  0.12035811551E+03  0.36353733774E+02  0.12613129763E+03  0.00000000000E+00 0.  1.
        -15    1    1    2    0    0  0.33108688961E+03 -0.90782289756E+02  0.24172924769E+03  0.41987257804E+03  0.00000000000E+00 0.  1.
         15    1    1    2    0    0 -0.11602418245E+03  0.17034428582E+04 -0.81647477965E+03  0.18925671053E+04  0.00000000000E+00 0. -1.
         15    1    3    3    0    0  0.42111069266E+03 -0.67835699753E+03 -0.40357970221E+03  0.89463903760E+03  0.00000000000E+00 0. -1.
        -16    1    1    2    0    0 -0.94478539058E+03 -0.19779777824E+04 -0.18203836824E+04  0.28493529604E+04  0.00000000000E+00 0.  1.
         16    1    4    4    0    0  0.27843327097E+03  0.87094429495E+03  0.21470353952E+03  0.93923727629E+03  0.00000000000E+00 0. -1.
    9900018    1    1    2    0    0  0.20107259502E+02  0.52371801030E+02  0.39308753940E+02  0.11405026943E+03  0.91187600000E+02 0.  0.
<mgrwt>
<rscale>  0 0.37972836E+04</rscale>
<asrwt>0</asrwt>
<pdfrwt beam="1">  1        2 0.36365444E+00 0.45278224E+04</pdfrwt>
<pdfrwt beam="2">  1       -2 0.74955333E+00 0.45278224E+04</pdfrwt>
<totfact> 0.42700668E-04</totfact>
</mgrwt>
</event>
<event>
11    1  0.1612227E-015  0.3445018E+04  0.7818608E-02  0.8331642E-01
         -2   -1    0    0    0  501 -0.00000000000E+00  0.00000000000E+00  0.15570863105E+04  0.15570863105E+04  0.00000000000E+00 0.  1.
          2   -1    0    0  501    0  0.00000000000E+00 -0.00000000000E+00 -0.37057728187E+04  0.37057728187E+04  0.00000000000E+00 0. -1.
    9900016    2    1    2    0    0 -0.44611315822E+03  0.42110526169E+03 -0.15440647320E+04  0.24458946754E+04  0.17949702714E+04 0.  0.
        -24    2    3    3    0    0  0.62433574282E+02  0.10108271136E+04 -0.12559377140E+04  0.16155882138E+04  0.84120926525E+02 0.  0.
        -15    1    1    2    0    0 -0.68297352336E+03 -0.44060331840E+03 -0.92169726983E+03  0.12288653201E+04  0.00000000000E+00 0.  1.
        -15    1    3    3    0    0 -0.50854673251E+03 -0.58972185187E+03 -0.28812701802E+03  0.83030646163E+03  0.00000000000E+00 0.  1.
         15    1    1    2    0    0  0.15851060751E+03  0.33509754634E+03  0.17436707235E+02  0.37110647666E+03  0.00000000000E+00 0. -1.
         15    1    4    4    0    0  0.61050501533E+02  0.63094456829E+03 -0.83898709011E+03  0.10515310501E+04  0.00000000000E+00 0. -1.
        -16    1    4    4    0    0  0.13830727490E+01  0.37988254528E+03 -0.41695062392E+03  0.56405716367E+03  0.00000000000E+00 0.  1.
         16    1    1    2    0    0  0.10125867340E+04 -0.33604814236E+03  0.31717723207E+03  0.11130416185E+04  0.00000000000E+00 0. -1.
    9900018    1    1    2    0    0 -0.42010659960E+02  0.20448652721E+02 -0.17538445558E+02  0.10395103855E+03  0.91187600000E+02 0.  0.
<mgrwt>
<rscale>  0 0.27103886E+04</rscale>
<asrwt>0</asrwt>
<pdfrwt beam="1">  1        2 0.57011890E+00 0.34450178E+04</pdfrwt>
<pdfrwt beam="2">  1       -2 0.23955174E+00 0.34450178E+04</pdfrwt>
<totfact> 0.34076385E-02</totfact>
</mgrwt>
</event>
<event>
11    1  0.1612227E-015  0.3813701E+04  0.7818608E-02  0.8043221E-01
          2   -1    0    0  501    0  0.00000000000E+00  0.00000000000E+00  0.23115918146E+04  0.23115918146E+04  0.00000000000E+00 0.  1.
         -2   -1    0    0    0  501 -0.00000000000E+00 -0.00000000000E+00 -0.15729765729E+04  0.15729765729E+04  0.00000000000E+00 0. -1.
    9900016    2    1    2    0    0  0.50493308871E+03  0.28811548831E+03  0.42062784890E+02  0.19779056729E+04  0.18900723834E+04 0.  0.
         24    2    3    3    0    0  0.38163640133E+03 -0.36677967891E+03  0.72451597337E+03  0.90085029083E+03  0.80213310291E+02 0.  0.
        -15    1    4    4    0    0  0.26852675237E+03 -0.25736490888E+03  0.56763856559E+03  0.67864339252E+03  0.00000000000E+00 0.  1.
        -15    1    1    2    0    0 -0.45785291289E+03 -0.74183445150E+03  0.67689339302E+03  0.11036903138E+04  0.00000000000E+00 0.  1.
         15    1    1    2    0    0  0.13767175528E+03  0.55279402198E+02 -0.24775484996E+03  0.28877636708E+03  0.00000000000E+00 0. -1.
         15    1    3    3    0    0  0.98978211495E+02  0.62919906578E+03 -0.72957378490E+03  0.96848647814E+03  0.00000000000E+00 0. -1.
        -16    1    1    2    0    0 -0.18475193109E+03  0.39843956099E+03  0.26741391374E+03  0.51419603369E+03  0.00000000000E+00 0.  1.
         16    1    4    4    0    0  0.11310964896E+03 -0.10941477002E+03  0.15687740778E+03  0.22220689831E+03  0.00000000000E+00 0. -1.
    9900018    1    3    3    0    0  0.24318475885E+02  0.25696101440E+02  0.47120596418E+02  0.10856890392E+03  0.91187600000E+02 0.  0.
<mgrwt>
<rscale>  0 0.38137015E+04</rscale>
<asrwt>0</asrwt>
<pdfrwt beam="1">  1        2 0.35562951E+00 0.38137015E+04</pdfrwt>
<pdfrwt beam="2">  1       -2 0.24199640E+00 0.38137015E+04</pdfrwt>
<totfact> 0.25750370E-01</totfact>
</mgrwt>
</event>
<event>
11    1  0.1612227E-015  0.3414706E+04  0.7818608E-02  0.8288648E-01
          2   -1    0    0  501    0  0.00000000000E+00  0.00000000000E+00  0.33356469767E+04  0.33356469767E+04  0.00000000000E+00 0. -1.
         -2   -1    0    0    0  501 -0.00000000000E+00 -0.00000000000E+00 -0.22880758947E+04  0.22880758947E+04  0.00000000000E+00 0.  1.
    9900016    2    1    2    0    0 -0.63038357099E+03 -0.44030733525E+03 -0.54922676099E+03  0.21117005415E+04  0.18884848810E+04 0.  0.
        -24    2    3    3    0    0 -0.11442200508E+03 -0.91716033553E+03 -0.80800948483E+03  0.12303236028E+04  0.80878697558E+02 0.  0.
        -15    1    1    2    0    0 -0.81255038652E+03  0.18095423171E+03  0.27586693337E+03  0.87697498797E+03  0.00000000000E+00 0.  1.
        -15    1    3    3    0    0 -0.51745361473E+03  0.47755248112E+03  0.31801885373E+03  0.77262578713E+03  0.00000000000E+00 0.  1.
         15    1    4    4    0    0 -0.21298999169E+02 -0.31807882275E+03 -0.32406728109E+03  0.45458485184E+03  0.00000000000E+00 0. -1.
         15    1    1    2    0    0  0.36419397999E+03 -0.49232672948E+03  0.11583053532E+04  0.13102267570E+04  0.00000000000E+00 0. -1.
        -16    1    4    4    0    0 -0.93123005909E+02 -0.59908151278E+03 -0.48394220373E+03  0.77573875096E+03  0.00000000000E+00 0.  1.
         16    1    1    2    0    0  0.10787399775E+04  0.75167983303E+03  0.16262555644E+03  0.13248205849E+04  0.00000000000E+00 0. -1.
    9900018    1    3    3    0    0  0.14920488143E+01 -0.69948083758E+00 -0.59236129892E+02  0.10875115154E+03  0.91187600000E+02 0.  0.
<mgrwt>
<rscale>  0 0.28475782E+04</rscale>
<asrwt>0</asrwt>
<pdfrwt beam="1">  1        2 0.51317646E+00 0.34147060E+04</pdfrwt>
<pdfrwt beam="2">  1       -2 0.35201168E+00 0.34147060E+04</pdfrwt>
<totfact> 0.12388766E-02</totfact>
</mgrwt>
</event>
<event>
11    1  0.1612227E-015  0.3573967E+04  0.7818608E-02  0.8326102E-01
          2   -1    0    0  501    0  0.00000000000E+00  0.00000000000E+00  0.31069158736E+04  0.31069158736E+04  0.00000000000E+00 0. -1.
         -2   -1    0    0    0  501 -0.00000000000E+00 -0.00000000000E+00 -0.19449037305E+04  0.19449037305E+04  0.00000000000E+00 0.  1.
    9900016    2    1    2    0    0  0.77572533010E+03 -0.20262136359E+03  0.14684601641E+04  0.24546771150E+04  0.17961790782E+04 0.  0.
         24    2    3    3    0    0  0.72295797699E+03 -0.71604443263E+03  0.16216796172E+04  0.19162870685E+04  0.83207464897E+02 0.  0.
        -15    1    1    2    0    0 -0.11655120144E+04  0.46571491698E+03 -0.15370130659E+03  0.12644891187E+04  0.00000000000E+00 0.  1.
        -15    1    4    4    0    0  0.33835036135E+03 -0.39338686963E+03  0.81665321112E+03  0.96755189187E+03  0.00000000000E+00 0.  1.
         15    1    1    2    0    0  0.78145798738E+03 -0.23773267243E+03 -0.19417771692E+03  0.83958227430E+03  0.00000000000E+00 0. -1.
         15    1    3    3    0    0  0.52767353104E+02  0.51342306903E+03 -0.15321945313E+03  0.53839004651E+03  0.00000000000E+00 0. -1.
        -16    1    1    2    0    0 -0.38873498723E+03 -0.14245253965E+00 -0.24398423423E+01  0.38874266992E+03  0.00000000000E+00 0.  1.
         16    1    4    4    0    0  0.38460761564E+03 -0.32265756300E+03  0.80502640606E+03  0.94873517666E+03  0.00000000000E+00 0. -1.
    9900018    1    1    2    0    0 -0.29363158599E+01 -0.25218428412E+02  0.43870844854E+02  0.10432842616E+03  0.91187600000E+02 0.  0.
<mgrwt>
<rscale>  0 0.27276089E+04</rscale>
<asrwt>0</asrwt>
<pdfrwt beam="1">  1        2 0.47798706E+00 0.35739665E+04</pdfrwt>
<pdfrwt beam="2">  1       -2 0.29921596E+00 0.35739665E+04</pdfrwt>
<totfact> 0.37432921E-02</totfact>
</mgrwt>
</event>
<event>
11    1  0.1612227E-015  0.3082593E+04  0.7818608E-02  0.8421513E-01
          2   -1    0    0  501    0  0.00000000000E+00  0.00000000000E+00  0.41201298708E+04  0.41201298708E+04  0.00000000000E+00 0. -1.
         -2   -1    0    0    0  501 -0.00000000000E+00 -0.00000000000E+00 -0.12596310232E+04  0.12596310232E+04  0.00000000000E+00 0.  1.
    9900016    2    1    2    0    0  0.24899364820E+03  0.61749688345E+03  0.16750406544E+04  0.26090381170E+04  0.18862710474E+04 0.  0.
         24    2    3    3    0    0  0.73999217322E+03 -0.28405296136E+03  0.29828677497E+03  0.85067099250E+03  0.79947708341E+02 0.  0.
        -15    1    4    4    0    0  0.38375014947E+03 -0.17012491991E+03  0.12164415135E+03  0.43704000406E+03  0.00000000000E+00 0.  1.
        -15    1    1    2    0    0  0.47422148748E+03 -0.52732791016E+02  0.66557082260E+03  0.81893301700E+03  0.00000000000E+00 0.  1.
         15    1    3    3    0    0 -0.49655567748E+03  0.84110536449E+03  0.12931029072E+04  0.16205372268E+04  0.00000000000E+00 0. -1.
         15    1    1    2    0    0 -0.25433747112E+03 -0.70561114469E+03  0.10106630038E+04  0.12585763163E+04  0.00000000000E+00 0. -1.
        -16    1    1    2    0    0 -0.46887766455E+03  0.14084705226E+03 -0.49077563314E+03  0.69321344370E+03  0.00000000000E+00 0.  1.
         16    1    4    4    0    0  0.35624202375E+03 -0.11392804145E+03  0.17664262362E+03  0.41363098843E+03  0.00000000000E+00 0. -1.
    9900018    1    3    3    0    0  0.55571524544E+01  0.60444480317E+02  0.83650972223E+02  0.13782989767E+03  0.91187600000E+02 0.  0.
<mgrwt>
<rscale>  0 0.24486436E+04</rscale>
<asrwt>0</asrwt>
<pdfrwt beam="1">  1        2 0.63386613E+00 0.30825933E+04</pdfrwt>
<pdfrwt beam="2">  1       -2 0.19378939E+00 0.30825933E+04</pdfrwt>
<totfact> 0.32476234E-02</totfact>
</mgrwt>
</event>
<event>
11    1  0.1612227E-015  0.4158040E+04  0.7818608E-02  0.7973402E-01
         -2   -1    0    0    0  501 -0.00000000000E+00  0.00000000000E+00  0.15526285764E+04  0.15526285764E+04  0.00000000000E+00 0. -1.
          2   -1    0    0  501    0  0.00000000000E+00 -0.00000000000E+00 -0.27838745399E+04  0.27838745399E+04  0.00000000000E+00 0.  1.
    9900016    2    1    2    0    0 -0.14239599009E+03 -0.12293354878E+03 -0.70230822191E+03  0.19403376142E+04  0.17989674659E+04 0.  0.
        -24    2    3    3    0    0  0.19914500780E+03  0.14260953475E+03 -0.12306897108E+04  0.12574391003E+04  0.80992056588E+02 0.  0.
        -15    1    1    2    0    0  0.66235987039E+03  0.90357668895E+03 -0.72272580558E+03  0.13332306705E+04  0.00000000000E+00 0.  1.
        -15    1    3    3    0    0 -0.34154099788E+03 -0.26554308353E+03  0.52838148890E+03  0.68289851388E+03  0.00000000000E+00 0.  1.
         15    1    4    4    0    0  0.61325959861E+02  0.71363271600E+02 -0.31695794104E+03  0.33062959074E+03  0.00000000000E+00 0. -1.
         15    1    1    2    0    0 -0.95313262825E+02 -0.22766006053E+03  0.12167487197E+03  0.27516993968E+03  0.00000000000E+00 0. -1.
        -16    1    4    4    0    0  0.13781904794E+03  0.71246263145E+02 -0.91373176977E+03  0.92680950960E+03  0.00000000000E+00 0.  1.
         16    1    1    2    0    0 -0.36998928056E+03 -0.53106077671E+03  0.13660891884E+03  0.66149800679E+03  0.00000000000E+00 0. -1.
    9900018    1    1    2    0    0 -0.54661336916E+02 -0.21922302918E+02 -0.64495726835E+02  0.12626688518E+03  0.91187600000E+02 0.  0.
<mgrwt>
<rscale>  0 0.41580395E+04</rscale>
<asrwt>0</asrwt>
<pdfrwt beam="1">  1        2 0.42828838E+00 0.41580395E+04</pdfrwt>
<pdfrwt beam="2">  1       -2 0.23886594E+00 0.41580395E+04</pdfrwt>
<totfact> 0.13864367E-01</totfact>
</mgrwt>
</event>
<event>
11    1  0.1612227E-015  0.2551726E+04  0.7818608E-02  0.8589489E-01
          2   -1    0    0  501    0  0.00000000000E+00  0.00000000000E+00  0.17432947199E+04  0.17432947199E+04  0.00000000000E+00 0. -1.
         -2   -1    0    0    0  501 -0.00000000000E+00 -0.00000000000E+00 -0.19266845543E+04  0.19266845543E+04  0.00000000000E+00 0.  1.
    9900016    2    1    2    0    0  0.23017582460E+03  0.21047701980E+03  0.37615320409E+03  0.19568516056E+04  0.18948602818E+04 0.  0.
         24    2    3    3    0    0  0.17389213142E+02 -0.65856485003E+03  0.59575331977E+03  0.89179084802E+03  0.79742411309E+02 0.  0.
        -15    1    4    4    0    0  0.40445566755E+02 -0.24488541757E+03  0.19882814028E+03  0.31802097568E+03  0.00000000000E+00 0.  1.
        -15    1    1    2    0    0 -0.64368131539E+02 -0.27847714775E+03 -0.25795550408E+02  0.28698116419E+03  0.00000000000E+00 0.  1.
         15    1    3    3    0    0  0.19642777396E+03  0.91386932755E+03 -0.22689141105E+03  0.96188394863E+03  0.00000000000E+00 0. -1.
         15    1    1    2    0    0 -0.47551999963E+03  0.55971023644E+03 -0.37014129802E+03  0.82243504262E+03  0.00000000000E+00 0. -1.
        -16    1    1    2    0    0  0.30971230657E+03 -0.49171010849E+03 -0.16360619000E+03  0.60371146174E+03  0.00000000000E+00 0.  1.
         16    1    4    4    0    0 -0.23056353613E+02 -0.41367943246E+03  0.39692517949E+03  0.57376987233E+03  0.00000000000E+00 0. -1.
    9900018    1    3    3    0    0  0.16358837503E+02 -0.44827457726E+02  0.72912953603E+01  0.10317680899E+03  0.91187600000E+02 0.  0.
<mgrwt>
<rscale>  0 0.20370563E+04</rscale>
<asrwt>0</asrwt>
<pdfrwt beam="1">  1        2 0.26819919E+00 0.25517263E+04</pdfrwt>
<pdfrwt beam="2">  1       -2 0.29641301E+00 0.25517263E+04</pdfrwt>
<totfact> 0.26659499E-01</totfact>
</mgrwt>
</event>
<event>
11    1  0.1612227E-015  0.3918738E+04  0.7818608E-02  0.8079073E-01
         -2   -1    0    0    0  501 -0.00000000000E+00  0.00000000000E+00  0.31164878967E+04  0.31164878967E+04  0.00000000000E+00 0. -1.
          2   -1    0    0  501    0  0.00000000000E+00 -0.00000000000E+00 -0.41575741823E+04  0.41575741823E+04  0.00000000000E+00 0.  1.
    9900016    2    1    2    0    0  0.92755958910E+03  0.18966562572E+03  0.32691276335E+03  0.20465783394E+04  0.17847327821E+04 0.  0.
         24    2    3    3    0    0  0.16793471302E+03  0.37059724881E+03 -0.66508167422E+03  0.78411282751E+03  0.83396068337E+02 0.  0.
        -15    1    4    4    0    0  0.63991714870E+02  0.10957660918E+03 -0.14261687918E+03  0.19089669216E+03  0.00000000000E+00 0.  1.
        -15    1    1    2    0    0 -0.61983310299E+03  0.18181828798E+03  0.41615170299E+03  0.76839651568E+03  0.00000000000E+00 0.  1.
         15    1    1    2    0    0  0.10361402138E+04 -0.12895216053E+04 -0.19487944476E+04  0.25562183616E+04  0.00000000000E+00 0. -1.
         15    1    3    3    0    0  0.75962487608E+03 -0.18093162309E+03  0.99199443757E+03  0.12624655119E+04  0.00000000000E+00 0. -1.
        -16    1    1    2    0    0 -0.14525490280E+04  0.96591863651E+03  0.17271394734E+03  0.17529197354E+04  0.00000000000E+00 0.  1.
         16    1    4    4    0    0  0.10394299815E+03  0.26102063963E+03 -0.52246479504E+03  0.59321613534E+03  0.00000000000E+00 0. -1.
    9900018    1    1    2    0    0  0.10868232813E+03 -0.47880944874E+02 -0.80702516907E+01  0.14994912699E+03  0.91187600000E+02 0.  0.
<mgrwt>
<rscale>  0 0.36502697E+04</rscale>
<asrwt>0</asrwt>
<pdfrwt beam="1">  1        2 0.63962679E+00 0.39187377E+04</pdfrwt>
<pdfrwt beam="2">  1       -2 0.47945968E+00 0.39187377E+04</pdfrwt>
<totfact> 0.40819914E-04</totfact>
</mgrwt>
</event>
<event>
11    1  0.1612227E-015  0.2708365E+04  0.7818608E-02  0.8469539E-01
          2   -1    0    0  501    0  0.00000000000E+00  0.00000000000E+00  0.19136463449E+04  0.19136463449E+04  0.00000000000E+00 0. -1.
         -2   -1    0    0    0  501 -0.00000000000E+00 -0.00000000000E+00 -0.24368078300E+04  0.24368078300E+04  0.00000000000E+00 0.  1.
    9900016    2    1    2    0    0  0.13399459450E+03  0.10478797645E+04 -0.45656842778E+02  0.20770337607E+04  0.17877298855E+04 0.  0.
        -24    2    3    3    0    0  0.13973867054E+03  0.15118163703E+04 -0.29744277887E+03  0.15491452059E+04  0.79139298781E+02 0.  0.
        -15    1    3    3    0    0 -0.57440760368E+01 -0.46393660584E+03  0.25178593609E+03  0.52788855477E+03  0.00000000000E+00 0.  1.
        -15    1    1    2    0    0 -0.19668854617E+03 -0.10125223441E+03 -0.81037385269E+03  0.84002629738E+03  0.00000000000E+00 0.  1.
         15    1    4    4    0    0  0.15484026468E+02  0.30904609167E+03 -0.90469265121E+02  0.32238785613E+03  0.00000000000E+00 0. -1.
         15    1    1    2    0    0 -0.35389848105E+03 -0.70642607765E+03  0.79724614902E+02  0.79412716380E+03  0.00000000000E+00 0. -1.
        -16    1    4    4    0    0  0.12425464407E+03  0.12027702787E+04 -0.20697351375E+03  0.12267573498E+04  0.00000000000E+00 0.  1.
         16    1    1    2    0    0  0.40842209488E+03 -0.22544585339E+03  0.27825311406E+03  0.54319355288E+03  0.00000000000E+00 0. -1.
    9900018    1    1    2    0    0  0.81703378405E+01 -0.14755599045E+02 -0.25108518537E+02  0.96073400171E+02  0.91187600000E+02 0.  0.
<mgrwt>
<rscale>  0 0.23213786E+04</rscale>
<asrwt>0</asrwt>
<pdfrwt beam="1">  1        2 0.29440713E+00 0.27083645E+04</pdfrwt>
<pdfrwt beam="2">  1       -2 0.37489351E+00 0.27083645E+04</pdfrwt>
<totfact> 0.67564740E-02</totfact>
</mgrwt>
</event>
<event>
11    1  0.1612227E-015  0.5622236E+04  0.7818608E-02  0.7739090E-01
          2   -1    0    0  501    0  0.00000000000E+00  0.00000000000E+00  0.38502675204E+04  0.38502675204E+04  0.00000000000E+00 0. -1.
         -2   -1    0    0    0  501 -0.00000000000E+00 -0.00000000000E+00 -0.20524250004E+04  0.20524250004E+04  0.00000000000E+00 0.  1.
    9900016    2    1    2    0    0  0.12966241444E+04 -0.60166477401E+03  0.95972740581E+02  0.23677201889E+04  0.18851136448E+04 0.  0.
        -24    2    3    3    0    0 -0.44292239423E+03 -0.16808911391E+03 -0.16656429365E+03  0.50848098742E+03  0.79843929795E+02 0.  0.
        -15    1    1    2    0    0 -0.14588064245E+03 -0.85400061673E+03  0.68785684282E+03  0.11062301982E+04  0.00000000000E+00 0.  1.
        -15    1    3    3    0    0  0.16735630758E+04 -0.38629757105E+03  0.23003310575E+03  0.17329034629E+04  0.00000000000E+00 0.  1.
         15    1    1    2    0    0 -0.10950708810E+04  0.45766454850E+03  0.71426864221E+03  0.13852136177E+04  0.00000000000E+00 0. -1.
         15    1    4    4    0    0 -0.21280776175E+03 -0.44776338216E+02 -0.53338072173E+02  0.22391296048E+03  0.00000000000E+00 0. -1.
        -16    1    4    4    0    0 -0.23011463248E+03 -0.12331277570E+03 -0.11322622148E+03  0.28456802695E+03  0.00000000000E+00 0.  1.
         16    1    1    2    0    0 -0.55672620923E+02  0.99800084224E+03  0.29974429438E+03  0.10435285161E+04  0.00000000000E+00 0. -1.
    9900018    1    3    3    0    0  0.65983462857E+02 -0.47278089042E+02  0.32503928485E+02  0.12633573855E+03  0.91187600000E+02 0.  0.
<mgrwt>
<rscale>  0 0.56222363E+04</rscale>
<asrwt>0</asrwt>
<pdfrwt beam="1">  1        2 0.59234885E+00 0.56222363E+04</pdfrwt>
<pdfrwt beam="2">  1       -2 0.31575769E+00 0.56222363E+04</pdfrwt>
<totfact> 0.78894701E-03</totfact>
</mgrwt>
</event>
<event>
11    1  0.1612227E-015  0.2332103E+04  0.7818608E-02  0.8881945E-01
          1   -1    0    0  501    0  0.00000000000E+00  0.00000000000E+00  0.11691279078E+04  0.11691279078E+04  0.00000000000E+00 0. -1.
         -1   -1    0    0    0  501 -0.00000000000E+00 -0.00000000000E+00 -0.19040399759E+04  0.19040399759E+04  0.00000000000E+00 0.  1.
    9900016    2    1    2    0    0  0.27284428315E+03  0.23439214041E+03 -0.67658035066E+03  0.20437016147E+04  0.18946164891E+04 0.  0.
         24    2    3    3    0    0  0.30310668626E+03 -0.62033102700E+03 -0.76183939744E+03  0.10311998745E+04  0.79307422590E+02 0.  0.
        -15    1    4    4    0    0  0.49949094952E+02 -0.13011331346E+03 -0.19987084465E+03  0.24366522314E+03  0.00000000000E+00 0.  1.
        -15    1    1    2    0    0 -0.33050363876E+03 -0.11897105663E+03 -0.37720668733E+03  0.51543346081E+03  0.00000000000E+00 0.  1.
         15    1    3    3    0    0 -0.42406515106E+02  0.89634159956E+03  0.12084600089E+03  0.90544482524E+03  0.00000000000E+00 0. -1.
         15    1    1    2    0    0  0.16240240878E+03 -0.18768712326E+03  0.29332380845E+03  0.38423932024E+03  0.00000000000E+00 0. -1.
        -16    1    1    2    0    0 -0.10474305316E+03  0.72266039471E+02  0.25551161437E+02  0.12979348789E+03  0.00000000000E+00 0.  1.
         16    1    4    4    0    0  0.25315759130E+03 -0.49021771354E+03 -0.56196855279E+03  0.78753465132E+03  0.00000000000E+00 0. -1.
    9900018    1    3    3    0    0  0.12144111996E+02 -0.41618432146E+02 -0.35586954117E+02  0.10705691499E+03  0.91187600000E+02 0.  0.
<mgrwt>
<rscale>  0 0.15037779E+04</rscale>
<asrwt>0</asrwt>
<pdfrwt beam="1">  1        1 0.17986584E+00 0.23321032E+04</pdfrwt>
<pdfrwt beam="2">  1       -1 0.29292922E+00 0.23321032E+04</pdfrwt>
<totfact> 0.36575200E-01</totfact>
</mgrwt>
</event>
<event>
11    1  0.1612227E-015  0.2582766E+04  0.7818608E-02  0.8531581E-01
         -1   -1    0    0    0  501 -0.00000000000E+00  0.00000000000E+00  0.21458236331E+04  0.21458236331E+04  0.00000000000E+00 0.  1.
          1   -1    0    0  501    0  0.00000000000E+00 -0.00000000000E+00 -0.17465728722E+04  0.17465728722E+04  0.00000000000E+00 0. -1.
    9900016    2    1    2    0    0 -0.52809155103E+03  0.68049575020E+02  0.65934224982E+03  0.20784540444E+04  0.18978217991E+04 0.  0.
        -24    2    3    3    0    0 -0.71245461865E+03  0.49337151654E+03  0.10483645631E+04  0.13624409602E+04  0.78549830269E+02 0.  0.
        -15    1    3    3    0    0  0.15381660078E+03 -0.40739321004E+03 -0.42811661596E+03  0.61066571144E+03  0.00000000000E+00 0.  1.
        -15    1    1    2    0    0  0.77690862548E+03  0.34566168890E+03  0.37837900601E+03  0.93071998350E+03  0.00000000000E+00 0.  1.
         15    1    1    2    0    0 -0.20653025029E+03 -0.27210726204E+03 -0.15037005964E+03  0.37324021913E+03  0.00000000000E+00 0. -1.
         15    1    4    4    0    0 -0.49974745073E+03  0.31952859088E+03  0.76140835708E+03  0.96518843815E+03  0.00000000000E+00 0. -1.
        -16    1    4    4    0    0 -0.21270716792E+03  0.17384292566E+03  0.28695620604E+03  0.39725252204E+03  0.00000000000E+00 0.  1.
         16    1    1    2    0    0 -0.42286824158E+02 -0.14160400187E+03 -0.48810043533E+03  0.50998225833E+03  0.00000000000E+00 0. -1.
    9900018    1    3    3    0    0  0.30546466839E+02 -0.17928731479E+02  0.39094302654E+02  0.10534737274E+03  0.91187600000E+02 0.  0.
<mgrwt>
<rscale>  0 0.21686731E+04</rscale>
<asrwt>0</asrwt>
<pdfrwt beam="1">  1        1 0.26870352E+00 0.25827657E+04</pdfrwt>
<pdfrwt beam="2">  1       -1 0.33012671E+00 0.25827657E+04</pdfrwt>
<totfact> 0.79282363E-02</totfact>
</mgrwt>
</event>
<event>
11    1  0.1725377E-015  0.3044390E+04  0.7818608E-02  0.8436490E-01
          2   -1    0    0  501    0  0.00000000000E+00  0.00000000000E+00  0.22717930927E+04  0.22717930927E+04  0.00000000000E+00 0. -1.
         -2   -1    0    0    0  501 -0.00000000000E+00 -0.00000000000E+00 -0.20050498275E+04  0.20050498275E+04  0.00000000000E+00 0.  1.
    9900016    2    1    2    0    0 -0.28910470624E+03 -0.16631479481E+03  0.30572385854E+03  0.18427814429E+04  0.17863746042E+04 0.  0.
         24    2    3    3    0    0  0.28642960157E+03  0.66957638076E+03 -0.12040896176E+03  0.74208031299E+03  0.76226153814E+02 0.  0.
        -15    1    1    2    0    0 -0.37921977932E+03  0.18750138669E+03 -0.10661699026E+03  0.43627009254E+03  0.00000000000E+00 0.  1.
        -15    1    4    4    0    0  0.27337695323E+03  0.57673737894E+03 -0.98526814006E+02  0.64580840494E+03  0.00000000000E+00 0.  1.
         15    1    3    3    0    0 -0.57553430781E+03 -0.83589117557E+03  0.42613282030E+03  0.11007011299E+04  0.00000000000E+00 0. -1.
         15    1    1    2    0    0 -0.16583527991E+03  0.65564581832E+03  0.41949654761E+03  0.79583298034E+03  0.00000000000E+00 0. -1.
        -16    1    1    2    0    0  0.83669829001E+03 -0.60496745629E+03 -0.32856490788E+03  0.10835149055E+04  0.00000000000E+00 0.  1.
         16    1    4    4    0    0  0.13052648347E+02  0.92839001820E+02 -0.21882147755E+02  0.96271908043E+02  0.00000000000E+00 0. -1.
    9900018    1    1    2    0    0 -0.25385245433E+01 -0.71864953902E+02 -0.23295242823E+02  0.11844349893E+03  0.91187600000E+02 0.  0.
<mgrwt>
<rscale>  0 0.24080657E+04</rscale>
<asrwt>0</asrwt>
<pdfrwt beam="1">  1        2 0.34950663E+00 0.30443903E+04</pdfrwt>
<pdfrwt beam="2">  1       -2 0.30846921E+00 0.30443903E+04</pdfrwt>
<totfact> 0.10888147E-01</totfact>
</mgrwt>
</event>
<event>
11    1  0.1612227E-015  0.2825509E+04  0.7818608E-02  0.8301194E-01
          1   -1    0    0  501    0  0.00000000000E+00  0.00000000000E+00  0.25901132175E+04  0.25901132175E+04  0.00000000000E+00 0. -1.
         -1   -1    0    0    0  501 -0.00000000000E+00 -0.00000000000E+00 -0.47534883616E+04  0.47534883616E+04  0.00000000000E+00 0.  1.
    9900016    2    1    2    0    0 -0.76364744742E+03  0.44060316317E+03 -0.18647513715E+04  0.28013864759E+04  0.18955685000E+04 0.  0.
         24    2    3    3    0    0 -0.35677922673E+03  0.23153177301E+03  0.32071945205E+03  0.53778832247E+03  0.73871065472E+02 0.  0.
        -15    1    4    4    0    0 -0.19446316621E+03  0.16684952243E+03  0.17525559118E+03  0.31043390342E+03  0.00000000000E+00 0.  1.
        -15    1    1    2    0    0 -0.60462137748E+01 -0.83757708826E+03 -0.70575547564E+03  0.10952911608E+04  0.00000000000E+00 0.  1.
         15    1    3    3    0    0 -0.33427472294E+03  0.15495276406E+03 -0.20238562421E+04  0.20571203266E+04  0.00000000000E+00 0. -1.
         15    1    1    2    0    0  0.30204727768E+03  0.94293005507E+02  0.18621885078E+04  0.18888805593E+04  0.00000000000E+00 0. -1.
        -16    1    1    2    0    0  0.46764638352E+03  0.30268091958E+03 -0.14550568047E+04  0.15580433832E+04  0.00000000000E+00 0.  1.
         16    1    4    4    0    0 -0.16231606052E+03  0.64682250581E+02  0.14546386087E+03  0.22735441905E+03  0.00000000000E+00 0. -1.
    9900018    1    3    3    0    0 -0.72593497750E+02  0.54118626099E+02 -0.16161458148E+03  0.20647782677E+03  0.91187600000E+02 0.  0.
<mgrwt>
<rscale>  0 0.28066922E+04</rscale>
<asrwt>0</asrwt>
<pdfrwt beam="1">  1        1 0.39847896E+00 0.28255092E+04</pdfrwt>
<pdfrwt beam="2">  1       -1 0.73130589E+00 0.28255092E+04</pdfrwt>
<totfact> 0.14204429E-04</totfact>
</mgrwt>
</event>
<event>
11    1  0.1612227E-015  0.2686643E+04  0.7818608E-02  0.8567253E-01
          2   -1    0    0  501    0  0.00000000000E+00  0.00000000000E+00  0.13496769504E+04  0.13496769504E+04  0.00000000000E+00 0.  1.
         -2   -1    0    0    0  501 -0.00000000000E+00 -0.00000000000E+00 -0.24869461852E+04  0.24869461852E+04  0.00000000000E+00 0. -1.
    9900016    2    1    2    0    0  0.45392047637E+03 -0.51682510027E+02 -0.66431538876E+03  0.19641684567E+04  0.17910689294E+04 0.  0.
        -24    2    3    3    0    0  0.52266844005E+03 -0.83903554703E+03 -0.10786913808E+03  0.99758503183E+03  0.79857356464E+02 0.  0.
        -15    1    1    2    0    0  0.22897538681E+03  0.24055645606E+02  0.30144076191E+03  0.37930849554E+03  0.00000000000E+00 0.  1.
        -15    1    3    3    0    0 -0.68747963681E+02  0.78735303701E+03 -0.55644625068E+03  0.96658342490E+03  0.00000000000E+00 0.  1.
         15    1    1    2    0    0 -0.41937843900E+00 -0.26214753779E+03 -0.58047034477E+03  0.63692019013E+03  0.00000000000E+00 0. -1.
         15    1    4    4    0    0  0.22252319188E+03 -0.32245499748E+03 -0.81094939102E+01  0.39186676334E+03  0.00000000000E+00 0. -1.
        -16    1    4    4    0    0  0.30014524817E+03 -0.51658054956E+03 -0.99759644167E+02  0.60571826849E+03  0.00000000000E+00 0.  1.
         16    1    1    2    0    0 -0.67495137787E+03  0.27553439929E+03 -0.21730017109E+03  0.76072198078E+03  0.00000000000E+00 0. -1.
    9900018    1    1    2    0    0 -0.75251068627E+01  0.14240002926E+02  0.23375907930E+02  0.95504012387E+02  0.91187600000E+02 0.  0.
<mgrwt>
<rscale>  0 0.20864121E+04</rscale>
<asrwt>0</asrwt>
<pdfrwt beam="1">  1        2 0.20764261E+00 0.26866428E+04</pdfrwt>
<pdfrwt beam="2">  1       -2 0.38260710E+00 0.26866428E+04</pdfrwt>
<totfact> 0.12715296E-01</totfact>
</mgrwt>
</event>
<event>
11    1  0.1612227E-015  0.5956783E+04  0.7818608E-02  0.7695783E-01
         -2   -1    0    0    0  501 -0.00000000000E+00  0.00000000000E+00  0.24226219838E+04  0.24226219838E+04  0.00000000000E+00 0.  1.
          2   -1    0    0  501    0  0.00000000000E+00 -0.00000000000E+00 -0.36616595556E+04  0.36616595556E+04  0.00000000000E+00 0. -1.
    9900016    2    1    2    0    0  0.46301916437E+03  0.11453472683E+04  0.96166855984E+02  0.22604919015E+04  0.18906000266E+04 0.  0.
         24    2    3    3    0    0  0.94411348773E+02  0.13454933079E+04  0.62265325443E+03  0.14875426206E+04  0.76290421450E+02 0.  0.
        -15    1    4    4    0    0  0.52316672129E+02  0.10242231410E+04  0.50158276867E+03  0.11416458955E+04  0.00000000000E+00 0.  1.
        -15    1    1    2    0    0  0.53569314822E+03  0.26093783677E+02  0.31505854487E+03  0.62202083671E+03  0.00000000000E+00 0.  1.
         15    1    1    2    0    0 -0.12930198386E+04 -0.16497160795E+04 -0.16019422979E+04  0.26381210306E+04  0.00000000000E+00 0. -1.
         15    1    3    3    0    0  0.31460063103E+03 -0.25666044135E+03 -0.50974431859E+03  0.65168045047E+03  0.00000000000E+00 0. -1.
        -16    1    1    2    0    0  0.29430752597E+03  0.47827502755E+03 -0.48320674726E+02  0.56364777071E+03  0.00000000000E+00 0.  1.
         16    1    4    4    0    0  0.42094676644E+02  0.32127016691E+03  0.12107048577E+03  0.34589672516E+03  0.00000000000E+00 0. -1.
    9900018    1    3    3    0    0  0.54007184567E+02  0.56514401719E+02 -0.16742079865E+02  0.12126883037E+03  0.91187600000E+02 0.  0.
<mgrwt>
<rscale>  0 0.59567833E+04</rscale>
<asrwt>0</asrwt>
<pdfrwt beam="1">  1        2 0.56333224E+00 0.59567833E+04</pdfrwt>
<pdfrwt beam="2">  1       -2 0.37271107E+00 0.59567833E+04</pdfrwt>
<totfact> 0.46801962E-03</totfact>
</mgrwt>
</event>
<event>
11    1  0.1612227E-015  0.2383851E+04  0.7818608E-02  0.8794739E-01
         -2   -1    0    0    0  501 -0.00000000000E+00  0.00000000000E+00  0.22085781709E+04  0.22085781709E+04  0.00000000000E+00 0.  1.
          2   -1    0    0  501    0  0.00000000000E+00 -0.00000000000E+00 -0.10341847069E+04  0.10341847069E+04  0.00000000000E+00 0. -1.
    9900016    2    1    2    0    0 -0.21565948200E+03 -0.31896896222E+02  0.57532775819E+03  0.18975052442E+04  0.17949923950E+04 0.  0.
         24    2    3    3    0    0 -0.60740301451E+03 -0.37346919355E+03  0.99695691387E+03  0.12282476148E+04  0.79066140393E+02 0.  0.
        -15    1    1    2    0    0  0.36828827178E+02 -0.22533849720E+03  0.57870959504E+02  0.23554797555E+03  0.00000000000E+00 0.  1.
        -15    1    4    4    0    0 -0.13852040782E+03 -0.81549352922E+02  0.28449618315E+03  0.32676639756E+03  0.00000000000E+00 0.  1.
         15    1    3    3    0    0  0.39174353251E+03  0.34157229732E+03 -0.42162915568E+03  0.66925762938E+03  0.00000000000E+00 0. -1.
         15    1    1    2    0    0 -0.19072883255E+03 -0.39452210181E+02  0.51216580482E+03  0.54794869840E+03  0.00000000000E+00 0. -1.
        -16    1    1    2    0    0  0.33208982434E+03  0.31700449443E+03  0.93516197242E+01  0.45919816388E+03  0.00000000000E+00 0.  1.
         16    1    4    4    0    0 -0.46888260668E+03 -0.29191984062E+03  0.71246073072E+03  0.90148121723E+03  0.00000000000E+00 0. -1.
    9900018    1    1    2    0    0  0.37469663031E+02 -0.20316890830E+02  0.19677321718E+02  0.10256279581E+03  0.91187600000E+02 0.  0.
<mgrwt>
<rscale>  0 0.16426969E+04</rscale>
<asrwt>0</asrwt>
<pdfrwt beam="1">  1        2 0.15910534E+00 0.23838505E+04</pdfrwt>
<pdfrwt beam="2">  1       -2 0.33978125E+00 0.23838505E+04</pdfrwt>
<totfact> 0.38218846E-01</totfact>
</mgrwt>
</event>
<event>
11    1  0.1612227E-015  0.3416276E+04  0.7818608E-02  0.8180491E-01
         -2   -1    0    0    0  501 -0.00000000000E+00  0.00000000000E+00  0.26644890575E+04  0.26644890575E+04  0.00000000000E+00 0. -1.
          2   -1    0    0  501    0  0.00000000000E+00 -0.00000000000E+00 -0.38826690820E+04  0.38826690820E+04  0.00000000000E+00 0.  1.
    9900016    2    1    2    0    0 -0.31685263177E+03  0.89615393685E+03 -0.70592945691E+03  0.22340911871E+04  0.18945552421E+04 0.  0.
        -24    2    3    3    0    0  0.86978419822E+02  0.16233226803E+03 -0.11966130628E+04  0.12137592295E+04  0.86090848184E+02 0.  0.
        -15    1    1    2    0    0 -0.59759747410E+03 -0.77999157135E+03 -0.12472787233E+04  0.15878330536E+04  0.00000000000E+00 0.  1.
        -15    1    3    3    0    0 -0.37335269405E+03  0.67654053146E+03  0.47572269821E+03  0.90742019509E+03  0.00000000000E+00 0.  1.
         15    1    1    2    0    0  0.13905772745E+04 -0.59049718220E+03 -0.25148041749E+03  0.15315464338E+04  0.00000000000E+00 0. -1.
         15    1    4    4    0    0  0.93238254641E+02  0.12775709627E+03 -0.79294498600E+03  0.80856477699E+03  0.00000000000E+00 0. -1.
        -16    1    4    4    0    0 -0.62598348192E+01  0.34575171758E+02 -0.40366807685E+03  0.40519445246E+03  0.00000000000E+00 0.  1.
         16    1    1    2    0    0 -0.47612716864E+03  0.47433481670E+03  0.98650857320E+03  0.11936874650E+04  0.00000000000E+00 0. -1.
    9900018    1    3    3    0    0 -0.30478357538E+02  0.57281137357E+02  0.14960907726E+02  0.11291176258E+03  0.91187600000E+02 0.  0.
<mgrwt>
<rscale>  0 0.32317164E+04</rscale>
<asrwt>0</asrwt>
<pdfrwt beam="1">  1        2 0.59733370E+00 0.34162760E+04</pdfrwt>
<pdfrwt beam="2">  1       -2 0.40992140E+00 0.34162760E+04</pdfrwt>
<totfact> 0.20681864E-03</totfact>
</mgrwt>
</event>
<event>
11    1  0.1612227E-015  0.2874364E+04  0.7818608E-02  0.8445049E-01
         -2   -1    0    0    0  501 -0.00000000000E+00  0.00000000000E+00  0.27212007897E+04  0.27212007897E+04  0.00000000000E+00 0. -1.
          2   -1    0    0  501    0  0.00000000000E+00 -0.00000000000E+00 -0.19244554828E+04  0.19244554828E+04  0.00000000000E+00 0.  1.
    9900016    2    1    2    0    0  0.62152448812E+03  0.48387849976E+03  0.39934486889E+03  0.20786264920E+04  0.18816962234E+04 0.  0.
        -24    2    3    3    0    0  0.96504986352E+03 -0.38670981254E+03  0.23734769794E+03  0.10696121476E+04  0.82888469380E+02 0.  0.
        -15    1    3    3    0    0 -0.35340763168E+03  0.81585396561E+03  0.14365598400E+03  0.90063959999E+03  0.00000000000E+00 0.  1.
        -15    1    1    2    0    0 -0.54638743717E+03  0.39840805826E+03  0.10524230702E+04  0.12509446555E+04  0.00000000000E+00 0.  1.
         15    1    4    4    0    0  0.63509774922E+03 -0.29246332661E+03  0.14218489732E+03  0.71351278440E+03  0.00000000000E+00 0. -1.
         15    1    1    2    0    0  0.36383850967E+02 -0.49975305969E+03  0.52764910296E+02  0.50384624742E+03  0.00000000000E+00 0. -1.
        -16    1    4    4    0    0  0.32995211431E+03 -0.94246485927E+02  0.95162800613E+02  0.35609936319E+03  0.00000000000E+00 0.  1.
         16    1    1    2    0    0 -0.11152090192E+03 -0.38253349833E+03 -0.70778754248E+03  0.81223887754E+03  0.00000000000E+00 0. -1.
    9900018    1    3    3    0    0  0.98822562750E+01  0.54734346687E+02  0.18341186952E+02  0.10837474442E+03  0.91187600000E+02 0.  0.
<mgrwt>
<rscale>  0 0.23852429E+04</rscale>
<asrwt>0</asrwt>
<pdfrwt beam="1">  1        2 0.29607007E+00 0.28743635E+04</pdfrwt>
<pdfrwt beam="2">  1       -2 0.41864628E+00 0.28743635E+04</pdfrwt>
<totfact> 0.33950935E-02</totfact>
</mgrwt>
</event>
<event>
11    1  0.1612227E-015  0.2999238E+04  0.7818608E-02  0.8522695E-01
         -2   -1    0    0    0  501 -0.00000000000E+00  0.00000000000E+00  0.26713590415E+04  0.26713590415E+04  0.00000000000E+00 0.  1.
          2   -1    0    0  501    0  0.00000000000E+00 -0.00000000000E+00 -0.15614851257E+04  0.15614851257E+04  0.00000000000E+00 0. -1.
    9900016    2    1    2    0    0  0.12601472815E+03  0.49180510857E+03 -0.29377259632E+03  0.18956894650E+04  0.18026603210E+04 0.  0.
        -24    2    3    3    0    0  0.65165441763E+03  0.71746599801E+03 -0.69649145840E+03  0.11961164509E+04  0.78633798395E+02 0.  0.
        -15    1    3    3    0    0 -0.52563968948E+03 -0.22566088944E+03  0.40271886208E+03  0.69957301410E+03  0.00000000000E+00 0.  1.
        -15    1    1    2    0    0 -0.48215499691E+03  0.24159522006E+03  0.37627416473E+03  0.65758949083E+03  0.00000000000E+00 0. -1.
         15    1    4    4    0    0  0.44132100845E+03  0.52025886015E+03 -0.52289619063E+03  0.85956613489E+03  0.00000000000E+00 0. -1.
         15    1    1    2    0    0 -0.22636903101E+03 -0.13073694264E+03  0.50336034609E+03  0.56719196432E+03  0.00000000000E+00 0.  1.
        -16    1    4    4    0    0  0.21033340917E+03  0.19720713786E+03 -0.17359526776E+03  0.33655031604E+03  0.00000000000E+00 0.  1.
         16    1    1    2    0    0  0.60967038282E+03 -0.59842978753E+03  0.54698523395E+03  0.10144008244E+04  0.00000000000E+00 0. -1.
    9900018    1    1    2    0    0 -0.27161083044E+02 -0.42335984523E+01 -0.22973232673E+02  0.97972422656E+02  0.91187600000E+02 0.  0.
<mgrwt>
<rscale>  0 0.21897785E+04</rscale>
<asrwt>0</asrwt>
<pdfrwt beam="1">  1        2 0.24022848E+00 0.29992384E+04</pdfrwt>
<pdfrwt beam="2">  1       -2 0.41097831E+00 0.29992384E+04</pdfrwt>
<totfact> 0.61013700E-02</totfact>
</mgrwt>
</event>
<event>
11    1  0.1612227E-015  0.5141821E+04  0.7818608E-02  0.7806995E-01
         -2   -1    0    0    0  501 -0.00000000000E+00  0.00000000000E+00  0.17304177378E+04  0.17304177378E+04  0.00000000000E+00 0.  1.
          2   -1    0    0  501    0  0.00000000000E+00 -0.00000000000E+00 -0.38196440720E+04  0.38196440720E+04  0.00000000000E+00 0. -1.
    9900016    2    1    2    0    0  0.85426388286E+02  0.54986846536E+02 -0.32270906949E+03  0.18295072121E+04  0.17979528009E+04 0.  0.
        -24    2    3    3    0    0  0.86323543497E+03 -0.33566444671E+03 -0.13499941921E+03  0.93909704883E+03  0.76370065809E+02 0.  0.
        -15    1    1    2    0    0 -0.16203545155E+03  0.80030715272E+03  0.47505810420E+03  0.94468366590E+03  0.00000000000E+00 0.  1.
        -15    1    3    3    0    0 -0.77780904669E+03  0.39065129325E+03 -0.18770965028E+03  0.89041016326E+03  0.00000000000E+00 0.  1.
         15    1    4    4    0    0  0.63198985060E+03 -0.25331675379E+03 -0.65687415779E+02  0.68402879004E+03  0.00000000000E+00 0. -1.
         15    1    1    2    0    0  0.18635401238E+03 -0.71620612246E+03 -0.38014829491E+03  0.83198062111E+03  0.00000000000E+00 0. -1.
        -16    1    4    4    0    0  0.23124558437E+03 -0.82347692922E+02 -0.69312003432E+02  0.25506825879E+03  0.00000000000E+00 0.  1.
         16    1    1    2    0    0 -0.68842559762E+02 -0.16958090161E+03 -0.18236052488E+04  0.18327665110E+04  0.00000000000E+00 0. -1.
    9900018    1    1    2    0    0 -0.40902389351E+02  0.30493024812E+02 -0.37821825178E+02  0.11112379975E+03  0.91187600000E+02 0.  0.
<mgrwt>
<rscale>  0 0.51418206E+04</rscale>
<asrwt>0</asrwt>
<pdfrwt beam="1">  1        2 0.58763754E+00 0.51418206E+04</pdfrwt>
<pdfrwt beam="2">  1       -2 0.26621812E+00 0.51418206E+04</pdfrwt>
<totfact> 0.17396337E-02</totfact>
</mgrwt>
</event>
<event>
11    1  0.1612227E-015  0.4028974E+04  0.7818608E-02  0.8065973E-01
          2   -1    0    0  501    0  0.00000000000E+00  0.00000000000E+00  0.43465391350E+04  0.43465391350E+04  0.00000000000E+00 0. -1.
         -2   -1    0    0    0  501 -0.00000000000E+00 -0.00000000000E+00 -0.37133300877E+04  0.37133300877E+04  0.00000000000E+00 0.  1.
    9900016    2    1    2    0    0  0.67051860339E+03 -0.10217314503E+04  0.10820787608E+04  0.24360852030E+04  0.18083379987E+04 0.  0.
        -24    2    3    3    0    0  0.11771862789E+04 -0.17081125600E+03  0.59837514592E+03  0.13339298158E+04  0.79824293714E+02 0.  0.
        -15    1    1    2    0    0  0.13131212255E+04  0.20188193732E+03 -0.22648234297E+04  0.26257320574E+04  0.00000000000E+00 0.  1.
        -15    1    3    3    0    0 -0.50666767551E+03 -0.85092019428E+03  0.48370361487E+03  0.11021553872E+04  0.00000000000E+00 0.  1.
         15    1    1    2    0    0 -0.34692613815E+03  0.42543561825E+03  0.51757542208E+03  0.75447831523E+03  0.00000000000E+00 0. -1.
         15    1    4    4    0    0  0.11052846638E+04 -0.16161373697E+03  0.53925679310E+03  0.12403915015E+04  0.00000000000E+00 0. -1.
        -16    1    4    4    0    0  0.71901615050E+02 -0.91975190244E+01  0.59118352817E+02  0.93538314304E+02  0.00000000000E+00 0.  1.
         16    1    1    2    0    0 -0.16562945383E+04  0.45491864523E+03  0.12357615836E+04  0.21159795043E+04  0.00000000000E+00 0. -1.
    9900018    1    1    2    0    0  0.19580847561E+02 -0.60504750528E+02  0.62616710577E+02  0.12759414275E+03  0.91187600000E+02 0.  0.
<mgrwt>
<rscale>  0 0.37089898E+04</rscale>
<asrwt>0</asrwt>
<pdfrwt beam="1">  1        2 0.66869832E+00 0.40289740E+04</pdfrwt>
<pdfrwt beam="2">  1       -2 0.57128156E+00 0.40289740E+04</pdfrwt>
<totfact> 0.81884291E-05</totfact>
</mgrwt>
</event>
<event>
11    1  0.1612227E-015  0.2981863E+04  0.7818608E-02  0.8351556E-01
         -2   -1    0    0    0  501 -0.00000000000E+00  0.00000000000E+00  0.24024258942E+04  0.24024258942E+04  0.00000000000E+00 0. -1.
          2   -1    0    0  501    0  0.00000000000E+00 -0.00000000000E+00 -0.24578561099E+04  0.24578561099E+04  0.00000000000E+00 0.  1.
    9900016    2    1    2    0    0  0.18486652176E+03  0.26962974383E+03  0.40862746402E+03  0.18837398702E+04  0.18095921266E+04 0.  0.
         24    2    3    3    0    0  0.54174800915E+03 -0.60452879486E+03  0.46296426630E+03  0.93797561053E+03  0.80724004066E+02 0.  0.
        -15    1    4    4    0    0  0.31689921166E+03 -0.30803892540E+03  0.22101948403E+03  0.49412822448E+03  0.00000000000E+00 0.  1.
        -15    1    1    2    0    0  0.34157482022E+03  0.18039276249E+03  0.14591976968E+03  0.41292552083E+03  0.00000000000E+00 0.  1.
         15    1    3    3    0    0 -0.35688148739E+03  0.87415853869E+03 -0.54336802274E+02  0.94576425969E+03  0.00000000000E+00 0. -1.
         15    1    1    2    0    0 -0.10078237638E+04 -0.10492249114E+04  0.43140979984E+02  0.14554871342E+04  0.00000000000E+00 0. -1.
        -16    1    1    2    0    0  0.48742212116E+03  0.58329401974E+03 -0.67068257356E+03  0.10137195629E+04  0.00000000000E+00 0.  1.
         16    1    4    4    0    0  0.22484879750E+03 -0.29648986946E+03  0.24194478227E+03  0.44384738604E+03  0.00000000000E+00 0. -1.
    9900018    1    1    2    0    0 -0.60396993838E+01  0.15908385355E+02  0.17564144177E+02  0.94409916045E+02  0.91187600000E+02 0.  0.
<mgrwt>
<rscale>  0 0.26495691E+04</rscale>
<asrwt>0</asrwt>
<pdfrwt beam="1">  1        2 0.37813171E+00 0.29818629E+04</pdfrwt>
<pdfrwt beam="2">  1       -2 0.36960398E+00 0.29818629E+04</pdfrwt>
<totfact> 0.34948944E-02</totfact>
</mgrwt>
</event>
<event>
11    1  0.1612227E-015  0.3023256E+04  0.7818608E-02  0.8371085E-01
          2   -1    0    0  501    0  0.00000000000E+00  0.00000000000E+00  0.26440097798E+04  0.26440097798E+04  0.00000000000E+00 0. -1.
         -2   -1    0    0    0  501 -0.00000000000E+00 -0.00000000000E+00 -0.20719808586E+04  0.20719808586E+04  0.00000000000E+00 0.  1.
    9900016    2    1    2    0    0  0.11950127761E+04  0.40923355335E+03  0.29850971160E+03  0.22997881000E+04  0.18985230103E+04 0.  0.
         24    2    3    3    0    0  0.93094527385E+03  0.57976469068E+03  0.98919139819E+03  0.14790064840E+04  0.78577083592E+02 0.  0.
        -15    1    1    2    0    0 -0.36573170591E+03  0.62112634571E+03  0.30725994473E+03  0.78356001154E+03  0.00000000000E+00 0.  1.
        -15    1    4    4    0    0  0.13646301032E+03  0.97555963757E+02  0.18804648022E+03  0.25199364669E+03  0.00000000000E+00 0.  1.
         15    1    3    3    0    0  0.22625902655E+03 -0.15963947507E+03 -0.66173327737E+03  0.71733453805E+03  0.00000000000E+00 0. -1.
         15    1    1    2    0    0  0.57122927905E+02 -0.66967868877E+03 -0.64295934289E+02  0.67517889648E+03  0.00000000000E+00 0. -1.
        -16    1    1    2    0    0 -0.88640399812E+03 -0.36068121029E+03  0.30555199224E+02  0.95746363040E+03  0.00000000000E+00 0.  1.
         16    1    4    4    0    0  0.79448226353E+03  0.48220872693E+03  0.80114491797E+03  0.12270128373E+04  0.00000000000E+00 0. -1.
    9900018    1    3    3    0    0  0.37808475728E+02 -0.10891662267E+02 -0.28948409218E+02  0.10344707794E+03  0.91187600000E+02 0.  0.
<mgrwt>
<rscale>  0 0.25915274E+04</rscale>
<asrwt>0</asrwt>
<pdfrwt beam="1">  1        2 0.40677074E+00 0.30232563E+04</pdfrwt>
<pdfrwt beam="2">  1       -2 0.31876628E+00 0.30232563E+04</pdfrwt>
<totfact> 0.56844929E-02</totfact>
</mgrwt>
</event>
<event>
11    1  0.1612227E-015  0.3411691E+04  0.7818608E-02  0.8137088E-01
          2   -1    0    0  501    0  0.00000000000E+00  0.00000000000E+00  0.48402556374E+04  0.48402556374E+04  0.00000000000E+00 0.  1.
         -2   -1    0    0    0  501 -0.00000000000E+00 -0.00000000000E+00 -0.25712398722E+04  0.25712398722E+04  0.00000000000E+00 0. -1.
    9900016    2    1    2    0    0  0.57936984965E+03  0.26637131827E+03  0.32798143474E+03  0.20195015938E+04  0.18879067149E+04 0.  0.
         24    2    3    3    0    0 -0.28651995609E+02 -0.42769136088E+03 -0.51882004814E+03  0.67752815559E+03  0.78289988135E+02 0.  0.
        -15    1    4    4    0    0 -0.16544623696E+02 -0.56116065422E+02 -0.38076968420E+02  0.69803960459E+02  0.00000000000E+00 0.  1.
        -15    1    1    2    0    0  0.68037202943E+03  0.10605640691E+02  0.10299756328E+04  0.12344506398E+04  0.00000000000E+00 0.  1.
         15    1    3    3    0    0  0.58442665103E+03  0.66126639108E+03  0.87035365164E+03  0.12394931340E+04  0.00000000000E+00 0. -1.
         15    1    1    2    0    0 -0.16381672722E+04 -0.10481227705E+04 -0.90767046794E+03  0.21461637943E+04  0.00000000000E+00 0. -1.
        -16    1    1    2    0    0  0.37842539310E+03  0.77114581159E+03  0.18187291656E+04  0.20113794815E+04  0.00000000000E+00 0.  1.
         16    1    4    4    0    0 -0.12107371913E+02 -0.37157529545E+03 -0.48074307972E+03  0.60772419513E+03  0.00000000000E+00 0. -1.
    9900018    1    3    3    0    0  0.23595194231E+02  0.32796288062E+02 -0.23552168760E+02  0.10248030420E+03  0.91187600000E+02 0.  0.
<mgrwt>
<rscale>  0 0.34033380E+04</rscale>
<asrwt>0</asrwt>
<pdfrwt beam="1">  1        2 0.74465471E+00 0.34116911E+04</pdfrwt>
<pdfrwt beam="2">  1       -2 0.39557537E+00 0.34116911E+04</pdfrwt>
<totfact> 0.32039555E-04</totfact>
</mgrwt>
</event>
<event>
11    1  0.1612227E-015  0.2852620E+04  0.7818608E-02  0.8394418E-01
         -2   -1    0    0    0  501 -0.00000000000E+00  0.00000000000E+00  0.26052880221E+04  0.26052880221E+04  0.00000000000E+00 0.  1.
          2   -1    0    0  501    0  0.00000000000E+00 -0.00000000000E+00 -0.21962902488E+04  0.21962902488E+04  0.00000000000E+00 0. -1.
    9900016    2    1    2    0    0 -0.18018161948E+03 -0.38754175936E+03  0.11803222651E+03  0.19361440785E+04  0.18846931462E+04 0.  0.
        -24    2    3    3    0    0  0.25741336822E+03  0.38824164778E+01  0.85949533821E+03  0.90098640267E+03  0.82265096424E+02 0.  0.
        -15    1    3    3    0    0 -0.42905924811E+03 -0.36128565371E+03 -0.75201885119E+03  0.93816390599E+03  0.00000000000E+00 0.  1.
        -15    1    1    2    0    0 -0.69079357759E+02  0.39727711236E+03  0.85868588052E+03  0.94865299402E+03  0.00000000000E+00 0.  1.
         15    1    4    4    0    0  0.20625693360E+03  0.33465427646E+02  0.61814486979E+03  0.65250665710E+03  0.00000000000E+00 0. -1.
         15    1    1    2    0    0  0.77580565330E+03  0.58555338126E+03 -0.60270586042E+02  0.97384789240E+03  0.00000000000E+00 0. -1.
        -16    1    4    4    0    0  0.51156434620E+02 -0.29583011168E+02  0.24135046842E+03  0.24847974558E+03  0.00000000000E+00 0.  1.
         16    1    1    2    0    0 -0.52654467606E+03 -0.59528873426E+03 -0.50744974767E+03  0.94293330593E+03  0.00000000000E+00 0. -1.
    9900018    1    3    3    0    0 -0.85357395943E+01 -0.30138522127E+02  0.10555739485E+02  0.96993769884E+02  0.91187600000E+02 0.  0.
<mgrwt>
<rscale>  0 0.25241912E+04</rscale>
<asrwt>0</asrwt>
<pdfrwt beam="1">  1        2 0.33789081E+00 0.28526200E+04</pdfrwt>
<pdfrwt beam="2">  1       -2 0.40081354E+00 0.28526200E+04</pdfrwt>
<totfact> 0.31254920E-02</totfact>
</mgrwt>
</event>
<event>
11    1  0.1612227E-015  0.3409302E+04  0.7818608E-02  0.8488214E-01
          2   -1    0    0  501    0  0.00000000000E+00  0.00000000000E+00  0.29875029847E+04  0.29875029847E+04  0.00000000000E+00 0.  1.
         -2   -1    0    0    0  501 -0.00000000000E+00 -0.00000000000E+00 -0.16063566471E+04  0.16063566471E+04  0.00000000000E+00 0. -1.
    9900016    2    1    2    0    0 -0.59384371112E+03 -0.42345284963E+03  0.11264861023E+04  0.22520597077E+04  0.18085461895E+04 0.  0.
        -24    2    3    3    0    0 -0.80040615941E+03 -0.39977128140E+03  0.15436412150E+04  0.17859618105E+04  0.79776504566E+02 0.  0.
        -15    1    3    3    0    0  0.20656244829E+03 -0.23681568231E+02 -0.41715511270E+03  0.46609789719E+03  0.00000000000E+00 0.  1.
        -15    1    1    2    0    0  0.18111959923E+03  0.24268824000E+03  0.85676390471E+03  0.90870582670E+03  0.00000000000E+00 0.  1.
         15    1    4    4    0    0 -0.21865338757E+02 -0.10818732866E+02  0.74522971969E+02  0.78414356918E+02  0.00000000000E+00 0. -1.
         15    1    1    2    0    0 -0.23241036704E+03 -0.20800179327E+02  0.81715084330E+02  0.24723385928E+03  0.00000000000E+00 0. -1.
        -16    1    4    4    0    0 -0.77854082065E+03 -0.38895254853E+03  0.14691182430E+04  0.17075474536E+04  0.00000000000E+00 0.  1.
         16    1    1    2    0    0  0.69880856129E+03  0.21024894281E+03 -0.76119129030E+03  0.10544904948E+04  0.00000000000E+00 0. -1.
    9900018    1    1    2    0    0 -0.53674082358E+02 -0.86841538464E+01  0.77372536559E+02  0.13136974329E+03  0.91187600000E+02 0.  0.
<mgrwt>
<rscale>  0 0.22740742E+04</rscale>
<asrwt>0</asrwt>
<pdfrwt beam="1">  1        2 0.45961584E+00 0.34093019E+04</pdfrwt>
<pdfrwt beam="2">  1       -2 0.24713179E+00 0.34093019E+04</pdfrwt>
<totfact> 0.95100569E-02</totfact>
</mgrwt>
</event>
