<event>
12    1  0.3321384E-010  0.1687997E+04  0.7818608E-02  0.8768240E-01
          3   -1    0    0  501    0  0.00000000000E+00  0.00000000000E+00  0.10716474227E+04  0.10716474227E+04  0.00000000000E+00 0. -1.
         -3   -1    0    0    0  501 -0.00000000000E+00 -0.00000000000E+00 -0.66470855373E+03  0.66470855373E+03  0.00000000000E+00 0.  1.
         23    2    1    2    0    0  0.96878203108E+02 -0.26164790346E+03  0.20513015624E+03  0.35783675562E+03  0.90131853691E+02 0.  0.
    9900016    2    1    2    0    0 -0.79886495582E+02  0.43032700830E+03  0.36590076018E+03  0.90547560922E+03  0.70316393987E+03 0.  0.
         23    2    4    4    0    0 -0.93734203811E+02 -0.87293309436E+02  0.35556090988E+03  0.38756686739E+03  0.85896991963E+02 0.  0.
        -15    1    5    5    0    0 -0.10538187668E+03 -0.53639648194E+02  0.26160922202E+03  0.28709220964E+03  0.00000000000E+00 0.  1.
        -15    1    3    3    0    0  0.14568051037E+02 -0.79817075523E+02  0.11012430661E+03  0.13678580541E+03  0.00000000000E+00 0. -1.
         15    1    3    3    0    0  0.82310152071E+02 -0.18183082794E+03  0.95005849627E+02  0.22105095021E+03  0.00000000000E+00 0.  1.
         15    1    5    5    0    0  0.11647672868E+02 -0.33653661242E+02  0.93951687854E+02  0.10047465774E+03  0.00000000000E+00 0. -1.
        -16    1    1    2    0    0 -0.58814453173E+02 -0.27489735292E+03 -0.45310503885E+02  0.28474679333E+03  0.00000000000E+00 0.  1.
         16    1    4    4    0    0  0.13847708229E+02  0.51762031774E+03  0.10339850305E+02  0.51790874183E+03  0.00000000000E+00 0. -1.
    9900018    1    1    2    0    0  0.41822745647E+02  0.10621824809E+03 -0.11878154357E+03  0.18829681826E+03  0.91187600000E+02 0.  0.
<mgrwt>
<rscale>  0 0.16879967E+04</rscale>
<asrwt>0</asrwt>
<pdfrwt beam="1">  1        3 0.16486883E+00 0.16879967E+04</pdfrwt>
<pdfrwt beam="2">  1       -3 0.10226285E+00 0.16879967E+04</pdfrwt>
<totfact> 0.52126374E-01</totfact>
</mgrwt>
</event>
<event>
12    1  0.3321384E-010  0.1353399E+04  0.7818608E-02  0.9596132E-01
         -2   -1    0    0    0  501 -0.00000000000E+00  0.00000000000E+00  0.36085150913E+03  0.36085150913E+03  0.00000000000E+00 0.  1.
          2   -1    0    0  501    0  0.00000000000E+00 -0.00000000000E+00 -0.16618802094E+04  0.16618802094E+04  0.00000000000E+00 0. -1.
         23    2    1    2    0    0  0.46820891353E+02 -0.10482366892E+03 -0.74688079224E+00  0.14592035238E+03  0.90066608538E+02 0.  0.
    9900016    2    1    2    0    0  0.83776167019E+01  0.37277487536E+03 -0.87309782859E+03  0.11862156585E+04  0.71117963828E+03 0.  0.
         23    2    4    4    0    0 -0.30663672436E+03  0.31175580781E+03 -0.33013253096E+03  0.55552660978E+03  0.91676396902E+02 0.  0.
        -15    1    5    5    0    0 -0.12316604502E+03  0.68095855557E+02 -0.12215817795E+03  0.18635863443E+03  0.00000000000E+00 0.  1.
        -15    1    3    3    0    0 -0.40460107934E+01 -0.82946940135E+02 -0.23113150200E+02  0.86201988337E+02  0.00000000000E+00 0.  1.
         15    1    5    5    0    0 -0.18347067934E+03  0.24365995226E+03 -0.20797435301E+03  0.36916797535E+03  0.00000000000E+00 0. -1.
         15    1    3    3    0    0  0.50866902146E+02 -0.21876728788E+02  0.22366269408E+02  0.59718364040E+02  0.00000000000E+00 0. -1.
        -16    1    4    4    0    0  0.31501434106E+03  0.61019067541E+02 -0.54296529763E+03  0.63068904867E+03  0.00000000000E+00 0.  1.
         16    1    1    2    0    0  0.11588183891E+03 -0.13013409802E+03 -0.41765252209E+03  0.45254515052E+03  0.00000000000E+00 0. -1.
    9900018    1    1    2    0    0 -0.17108034696E+03 -0.13781710841E+03 -0.95314688146E+01  0.23805055719E+03  0.91187600000E+02 0.  0.
<mgrwt>
<rscale>  0 0.77552690E+03</rscale>
<asrwt>0</asrwt>
<pdfrwt beam="1">  1        2 0.25567388E+00 0.13533987E+04</pdfrwt>
<pdfrwt beam="2">  1       -2 0.55515616E-01 0.13533987E+04</pdfrwt>
<totfact> 0.30582035E+01</totfact>
</mgrwt>
</event>
<event>
12    1  0.3321384E-010  0.2488104E+04  0.7818608E-02  0.8407236E-01
          2   -1    0    0  501    0  0.00000000000E+00  0.00000000000E+00  0.19011268484E+04  0.19011268484E+04  0.00000000000E+00 0. -1.
         -2   -1    0    0    0  501 -0.00000000000E+00 -0.00000000000E+00 -0.81407799006E+03  0.81407799006E+03  0.00000000000E+00 0.  1.
         23    2    1    2    0    0  0.23449602840E+01 -0.36806662985E+03  0.86742510240E+02  0.38803257660E+03  0.86985484838E+02 0.  0.
    9900016    2    1    2    0    0 -0.27858870181E+01  0.55838265655E+01  0.43743397911E+03  0.83418714571E+03  0.71026809565E+03 0.  0.
         23    2    4    4    0    0  0.15315179677E+03  0.10333456584E+03  0.57108621724E+03  0.60673453744E+03  0.88621814731E+02 0.  0.
        -15    1    3    3    0    0 -0.40217534424E+02 -0.23750134145E+03  0.54509734459E+02  0.24697297102E+03  0.00000000000E+00 0.  1.
        -15    1    5    5    0    0  0.40944121298E+02 -0.12801946885E+02  0.13834998566E+03  0.14484829804E+03  0.00000000000E+00 0. -1.
         15    1    5    5    0    0  0.11220767547E+03  0.11613651272E+03  0.43273623158E+03  0.46188623940E+03  0.00000000000E+00 0.  1.
         15    1    3    3    0    0  0.42562494708E+02 -0.13056528840E+03  0.32232775781E+02  0.14105960557E+03  0.00000000000E+00 0. -1.
        -16    1    4    4    0    0 -0.15593768378E+03 -0.97750739272E+02 -0.13365223813E+03  0.22745260827E+03  0.00000000000E+00 0.  1.
         16    1    1    2    0    0  0.27990664284E+03 -0.20815764045E+03  0.74764238114E+03  0.82501300720E+03  0.00000000000E+00 0. -1.
    9900018    1    1    2    0    0 -0.27946571611E+03  0.57064044373E+03 -0.18477001217E+03  0.66797210892E+03  0.91187600000E+02 0.  0.
<mgrwt>
<rscale>  0 0.24881041E+04</rscale>
<asrwt>0</asrwt>
<pdfrwt beam="1">  1        2 0.29248105E+00 0.24881041E+04</pdfrwt>
<pdfrwt beam="2">  1       -2 0.12524277E+00 0.24881041E+04</pdfrwt>
<totfact> 0.32301571E+00</totfact>
</mgrwt>
</event>
<event>
12    1  0.3321384E-010  0.1952352E+04  0.7818608E-02  0.9382439E-01
         -2   -1    0    0    0  501 -0.00000000000E+00  0.00000000000E+00  0.61846238062E+03  0.61846238062E+03  0.00000000000E+00 0.  1.
          2   -1    0    0  501    0  0.00000000000E+00 -0.00000000000E+00 -0.17314513875E+04  0.17314513875E+04  0.00000000000E+00 0. -1.
         23    2    1    2    0    0  0.52630124206E+00  0.54890781522E+02 -0.12478933774E+03  0.16171411850E+03  0.86981621152E+02 0.  0.
    9900016    2    1    2    0    0 -0.22600879986E+03  0.31187027304E+02 -0.27284222710E+03  0.79809403749E+03  0.71446385738E+03 0.  0.
         23    2    4    4    0    0  0.15993107118E+03 -0.16008305596E+03  0.63148968835E+02  0.25181213906E+03  0.90647828315E+02 0.  0.
        -15    1    3    3    0    0  0.23329476746E+02  0.69695978929E+02 -0.10464626833E+03  0.12787742350E+03  0.00000000000E+00 0. -1.
        -15    1    5    5    0    0  0.47915242593E+02 -0.52498762163E+02 -0.22366542215E+02  0.74513439808E+02  0.00000000000E+00 0.  1.
         15    1    3    3    0    0 -0.22803175504E+02 -0.14805197407E+02 -0.20143069409E+02  0.33836695000E+02  0.00000000000E+00 0.  1.
         15    1    5    5    0    0  0.11201582859E+03 -0.10758429380E+03  0.85515511050E+02  0.17729869925E+03  0.00000000000E+00 0. -1.
        -16    1    1    2    0    0  0.37219235218E+03 -0.54427186357E+03 -0.58963439002E+03  0.88454944598E+03  0.00000000000E+00 0.  1.
         16    1    4    4    0    0 -0.38593987104E+03  0.19127008326E+03 -0.33599119593E+03  0.54628189843E+03  0.00000000000E+00 0. -1.
    9900018    1    1    2    0    0 -0.14670985357E+03  0.45819405474E+03 -0.12572305203E+03  0.50555616616E+03  0.91187600000E+02 0.  0.
<mgrwt>
<rscale>  0 0.93535097E+03</rscale>
<asrwt>0</asrwt>
<pdfrwt beam="1">  1        2 0.26637714E+00 0.19523522E+04</pdfrwt>
<pdfrwt beam="2">  1       -2 0.95148058E-01 0.19523522E+04</pdfrwt>
<totfact> 0.81303071E+00</totfact>
</mgrwt>
</event>
<event>
12    1  0.3321384E-010  0.1377692E+04  0.7818608E-02  0.9606867E-01
          2   -1    0    0  501    0  0.00000000000E+00  0.00000000000E+00  0.67273307802E+03  0.67273307802E+03  0.00000000000E+00 0. -1.
         -2   -1    0    0    0  501 -0.00000000000E+00 -0.00000000000E+00 -0.84851235873E+03  0.84851235873E+03  0.00000000000E+00 0.  1.
         23    2    1    2    0    0 -0.92598629755E+02  0.27014196963E+02 -0.17785424872E+02  0.13452315721E+03  0.92064572004E+02 0.  0.
    9900016    2    1    2    0    0  0.42374859358E+02  0.39630313499E+02 -0.27020732920E+03  0.77168059245E+03  0.72049479218E+03 0.  0.
         23    2    4    4    0    0  0.13774328442E+03  0.17141672884E+03 -0.46343810182E+03  0.51909213813E+03  0.79529028188E+02 0.  0.
        -15    1    5    5    0    0  0.92088406167E+02  0.89639943878E+02 -0.18446857394E+03  0.22482048141E+03  0.00000000000E+00 0. -1.
        -15    1    3    3    0    0 -0.82164385477E+02  0.54143350643E+02 -0.30180591560E+02  0.10292403396E+03  0.00000000000E+00 0.  1.
         15    1    5    5    0    0  0.45654878256E+02  0.81776784963E+02 -0.27896952788E+03  0.29427165672E+03  0.00000000000E+00 0.  1.
         15    1    3    3    0    0 -0.10434244278E+02 -0.27129153680E+02  0.12395166688E+02  0.31599123252E+02  0.00000000000E+00 0. -1.
        -16    1    4    4    0    0 -0.95368425065E+02 -0.13178641534E+03  0.19323077262E+03  0.25258845432E+03  0.00000000000E+00 0.  1.
         16    1    1    2    0    0  0.12171969396E+03  0.75350050810E+02  0.31239554256E+03  0.34363394633E+03  0.00000000000E+00 0. -1.
    9900018    1    1    2    0    0 -0.71495923564E+02 -0.14199456127E+03 -0.20018206920E+03  0.27140774076E+03  0.91187600000E+02 0.  0.
<mgrwt>
<rscale>  0 0.76843330E+03</rscale>
<asrwt>0</asrwt>
<pdfrwt beam="1">  1        2 0.10349740E+00 0.13776925E+04</pdfrwt>
<pdfrwt beam="2">  1       -2 0.13054036E+00 0.13776925E+04</pdfrwt>
<totfact> 0.17982774E+01</totfact>
</mgrwt>
</event>
<event>
12    1  0.3321384E-010  0.2549533E+04  0.7818608E-02  0.9171862E-01
          2   -1    0    0  501    0  0.00000000000E+00  0.00000000000E+00  0.11005946673E+04  0.11005946673E+04  0.00000000000E+00 0. -1.
         -2   -1    0    0    0  501 -0.00000000000E+00 -0.00000000000E+00 -0.16741371691E+04  0.16741371691E+04  0.00000000000E+00 0.  1.
         23    2    1    2    0    0  0.17785369472E+01 -0.40514337584E+02 -0.16455329916E+03  0.19260305780E+03  0.91507239412E+02 0.  0.
    9900016    2    1    2    0    0  0.36158488869E+03 -0.60387695585E+01 -0.34356774030E+03  0.88035369308E+03  0.72539901728E+03 0.  0.
         23    2    4    4    0    0  0.28398660843E+03  0.33258728442E+03 -0.10531639741E+03  0.45910222432E+03  0.91763899699E+02 0.  0.
        -15    1    3    3    0    0  0.43115758948E+02 -0.37535614139E+02 -0.78709252363E+02  0.97278144545E+02  0.00000000000E+00 0. -1.
        -15    1    5    5    0    0  0.24256469280E+03  0.24739473266E+03 -0.51857020794E+02  0.35032975116E+03  0.00000000000E+00 0. -1.
         15    1    5    5    0    0  0.41421915630E+02  0.85192551766E+02 -0.53459376613E+02  0.10877247317E+03  0.00000000000E+00 0.  1.
         15    1    3    3    0    0 -0.41337222001E+02 -0.29787234457E+01 -0.85844046801E+02  0.95324913256E+02  0.00000000000E+00 0.  1.
        -16    1    4    4    0    0  0.77598280261E+02 -0.33862605398E+03 -0.23825134290E+03  0.42125146875E+03  0.00000000000E+00 0.  1.
         16    1    1    2    0    0 -0.81744591631E+03 -0.97818066238E+02  0.49493301964E+03  0.96059611393E+03  0.00000000000E+00 0. -1.
    9900018    1    1    2    0    0  0.45408249067E+03  0.14437117338E+03 -0.56035448199E+03  0.74117897158E+03  0.91187600000E+02 0.  0.
<mgrwt>
<rscale>  0 0.11348641E+04</rscale>
<asrwt>0</asrwt>
<pdfrwt beam="1">  1        2 0.16932226E+00 0.25495327E+04</pdfrwt>
<pdfrwt beam="2">  1       -2 0.25755956E+00 0.25495327E+04</pdfrwt>
<totfact> 0.11102275E+00</totfact>
</mgrwt>
</event>
<event>
12    1  0.3321384E-010  0.1851618E+04  0.7818608E-02  0.9095828E-01
          2   -1    0    0  501    0  0.00000000000E+00  0.00000000000E+00  0.10106461323E+04  0.10106461323E+04  0.00000000000E+00 0. -1.
         -2   -1    0    0    0  501 -0.00000000000E+00 -0.00000000000E+00 -0.12041591198E+04  0.12041591198E+04  0.00000000000E+00 0.  1.
         23    2    1    2    0    0 -0.49132621517E+02 -0.33295040593E+03  0.29456188586E+02  0.34981054166E+03  0.90718028553E+02 0.  0.
    9900016    2    1    2    0    0  0.95522129270E+02  0.48700177172E+03  0.20658549851E+03  0.89198985907E+03  0.71180976225E+03 0.  0.
         23    2    4    4    0    0  0.70424867444E+02 -0.12186371793E+03  0.22877946963E+03  0.28220331494E+03  0.86534603122E+02 0.  0.
        -15    1    3    3    0    0 -0.64093597482E+02 -0.12957008096E+03  0.15967840985E+02  0.14543509571E+03  0.00000000000E+00 0.  1.
        -15    1    5    5    0    0  0.59895036694E+02 -0.49173536005E+02  0.59584299653E+02  0.97753469652E+02  0.00000000000E+00 0.  1.
         15    1    3    3    0    0  0.14960975965E+02 -0.20338032497E+03  0.13488347601E+02  0.20437544595E+03  0.00000000000E+00 0. -1.
         15    1    5    5    0    0  0.10529830751E+02 -0.72690181926E+02  0.16919516998E+03  0.18444984529E+03  0.00000000000E+00 0. -1.
        -16    1    1    2    0    0 -0.70126724671E+02 -0.41928326839E+03 -0.52523674479E+03  0.67571432924E+03  0.00000000000E+00 0.  1.
         16    1    4    4    0    0  0.25097261825E+02  0.60886548965E+03 -0.22193971116E+02  0.60978654412E+03  0.00000000000E+00 0. -1.
    9900018    1    1    2    0    0  0.23737216919E+02  0.26523190260E+03  0.95682070129E+02  0.29729052215E+03  0.91187600000E+02 0.  0.
<mgrwt>
<rscale>  0 0.12196508E+04</rscale>
<asrwt>0</asrwt>
<pdfrwt beam="1">  1        2 0.15548402E+00 0.18516182E+04</pdfrwt>
<pdfrwt beam="2">  1       -2 0.18525525E+00 0.18516182E+04</pdfrwt>
<totfact> 0.38478600E+00</totfact>
</mgrwt>
</event>
<event>
12    1  0.3321384E-010  0.2270716E+04  0.7818608E-02  0.9064124E-01
         -1   -1    0    0    0  501 -0.00000000000E+00  0.00000000000E+00  0.20152035660E+04  0.20152035660E+04  0.00000000000E+00 0.  1.
          1   -1    0    0  501    0  0.00000000000E+00 -0.00000000000E+00 -0.81662713959E+03  0.81662713959E+03  0.00000000000E+00 0. -1.
         23    2    1    2    0    0 -0.49476392508E+01  0.19341851166E+03  0.34559067543E+03  0.40618917611E+03  0.90119543120E+02 0.  0.
    9900016    2    1    2    0    0  0.50324027264E+02  0.63523173245E+03  0.21833930269E+03  0.97655016538E+03  0.70705467453E+03 0.  0.
         23    2    4    4    0    0 -0.17850890897E+03 -0.27630911343E+02 -0.75537708794E+02  0.21621136253E+03  0.91719736114E+02 0.  0.
        -15    1    5    5    0    0 -0.11497730613E+03 -0.42734498484E+02 -0.90149874863E+01  0.12299304161E+03  0.00000000000E+00 0.  1.
        -15    1    3    3    0    0 -0.89494797970E+01  0.10900167836E+03  0.10671957335E+03  0.15280879035E+03  0.00000000000E+00 0.  1.
         15    1    3    3    0    0  0.40018405462E+01  0.84416833303E+02  0.23887110209E+03  0.25338038575E+03  0.00000000000E+00 0. -1.
         15    1    5    5    0    0 -0.63531602837E+02  0.15103587141E+02 -0.66522721308E+02  0.93218320913E+02  0.00000000000E+00 0. -1.
        -16    1    4    4    0    0  0.22883293623E+03  0.66286264379E+03  0.29387701148E+03  0.76033880285E+03  0.00000000000E+00 0.  1.
         16    1    1    2    0    0 -0.34938107874E+03 -0.56417672406E+03  0.76798736479E+03  0.10149714807E+04  0.00000000000E+00 0. -1.
    9900018    1    1    2    0    0  0.30400469073E+03 -0.26447352005E+03 -0.13334091647E+03  0.43411988343E+03  0.91187600000E+02 0.  0.
<mgrwt>
<rscale>  0 0.12573067E+04</rscale>
<asrwt>0</asrwt>
<pdfrwt beam="1">  1        1 0.12563495E+00 0.22707162E+04</pdfrwt>
<pdfrwt beam="2">  1       -1 0.31003132E+00 0.22707162E+04</pdfrwt>
<totfact> 0.54648912E-01</totfact>
</mgrwt>
</event>
<event>
12    1  0.3321384E-010  0.1433029E+04  0.7818608E-02  0.8930251E-01
         -2   -1    0    0    0  501 -0.00000000000E+00  0.00000000000E+00  0.24045679167E+03  0.24045679167E+03  0.00000000000E+00 0.  1.
          2   -1    0    0  501    0  0.00000000000E+00 -0.00000000000E+00 -0.21350753118E+04  0.21350753118E+04  0.00000000000E+00 0. -1.
         23    2    1    2    0    0 -0.55162234854E+02 -0.13992372586E+03 -0.19898133006E+02  0.17651015775E+03  0.90212964032E+02 0.  0.
    9900016    2    1    2    0    0  0.22217335718E+02  0.29373903273E+03 -0.93861877809E+03  0.12123912002E+04  0.70859789897E+03 0.  0.
         23    2    4    4    0    0  0.29239351044E+03  0.32439461819E+03 -0.77873913081E+03  0.89696065014E+03  0.85894940367E+02 0.  0.
        -15    1    5    5    0    0  0.27243306245E+03  0.32625056390E+03 -0.74417898394E+03  0.85700733025E+03  0.00000000000E+00 0. -1.
        -15    1    3    3    0    0 -0.16632073125E+02 -0.12124890962E+03 -0.40610508183E+02  0.12894625747E+03  0.00000000000E+00 0.  1.
         15    1    3    3    0    0 -0.38530161729E+02 -0.18674816240E+02  0.20712375177E+02  0.47563900281E+02  0.00000000000E+00 0. -1.
         15    1    5    5    0    0  0.19960447989E+02 -0.18559457104E+01 -0.34560146871E+02  0.39953319889E+02  0.00000000000E+00 0.  1.
        -16    1    4    4    0    0 -0.27017617472E+03 -0.30655585460E+02 -0.15987964728E+03  0.31543055007E+03  0.00000000000E+00 0.  1.
         16    1    1    2    0    0 -0.94916785448E+02 -0.11322149922E+03 -0.39441546063E+03  0.42117913009E+03  0.00000000000E+00 0. -1.
    9900018    1    1    2    0    0  0.12786168458E+03 -0.40593807641E+02 -0.54168614838E+03  0.56545161538E+03  0.91187600000E+02 0.  0.
<mgrwt>
<rscale>  0 0.14330295E+04</rscale>
<asrwt>0</asrwt>
<pdfrwt beam="1">  1        2 0.32847311E+00 0.14330295E+04</pdfrwt>
<pdfrwt beam="2">  1       -2 0.36993354E-01 0.14330295E+04</pdfrwt>
<totfact> 0.37591149E+01</totfact>
</mgrwt>
</event>
<event>
12    1  0.3321384E-010  0.3312008E+04  0.7818608E-02  0.8841830E-01
          1   -1    0    0  501    0  0.00000000000E+00  0.00000000000E+00  0.13692720668E+04  0.13692720668E+04  0.00000000000E+00 0. -1.
         -1   -1    0    0    0  501 -0.00000000000E+00 -0.00000000000E+00 -0.22149925147E+04  0.22149925147E+04  0.00000000000E+00 0.  1.
         23    2    1    2    0    0  0.59960849032E+02 -0.12475385307E+03 -0.85012322108E+02  0.18601899030E+03  0.90648455979E+02 0.  0.
    9900016    2    1    2    0    0  0.46385534438E+03  0.24108958256E+03 -0.70437184902E+02  0.87412402784E+03  0.69702614850E+03 0.  0.
         23    2    4    4    0    0 -0.12924081583E+03  0.22871550763E+03 -0.18287372188E+02  0.27861099192E+03  0.90970791647E+02 0.  0.
        -15    1    5    5    0    0 -0.10076000793E+03  0.18944490907E+03  0.21801844935E+02  0.21567863412E+03  0.00000000000E+00 0. -1.
        -15    1    3    3    0    0  0.38022739486E+02 -0.99551170967E+02 -0.13925952165E+02  0.10747137527E+03  0.00000000000E+00 0. -1.
         15    1    3    3    0    0  0.21938109545E+02 -0.25202682099E+02 -0.71086369943E+02  0.78547615031E+02  0.00000000000E+00 0.  1.
         15    1    5    5    0    0 -0.28480807901E+02  0.39270598551E+02 -0.40089217123E+02  0.62932357804E+02  0.00000000000E+00 0.  1.
        -16    1    1    2    0    0 -0.13591205454E+04  0.29207264984E+02 -0.91934166141E+03  0.16411126749E+04  0.00000000000E+00 0.  1.
         16    1    4    4    0    0  0.59309616020E+03  0.12374074938E+02 -0.52149812715E+02  0.59551303592E+03  0.00000000000E+00 0. -1.
    9900018    1    1    2    0    0  0.83530435204E+03 -0.14554299448E+03  0.22907072048E+03  0.88300888849E+03  0.91187600000E+02 0.  0.
<mgrwt>
<rscale>  0 0.15658123E+04</rscale>
<asrwt>0</asrwt>
<pdfrwt beam="1">  1        1 0.21065724E+00 0.33120079E+04</pdfrwt>
<pdfrwt beam="2">  1       -1 0.34076808E+00 0.33120079E+04</pdfrwt>
<totfact> 0.11896444E-01</totfact>
</mgrwt>
</event>
<event>
12    1  0.3321384E-010  0.1639674E+04  0.7818608E-02  0.9391117E-01
          1   -1    0    0  501    0  0.00000000000E+00  0.00000000000E+00  0.14473387190E+04  0.14473387190E+04  0.00000000000E+00 0. -1.
         -1   -1    0    0    0  501 -0.00000000000E+00 -0.00000000000E+00 -0.61581134611E+03  0.61581134611E+03  0.00000000000E+00 0.  1.
         23    2    1    2    0    0  0.11324107167E+03 -0.86315173471E+02 -0.80854731757E+02  0.18672463703E+03  0.89748275423E+02 0.  0.
    9900016    2    1    2    0    0  0.29336211370E+03  0.14184789916E+03  0.58988677771E+03  0.97294203420E+03  0.70176038299E+03 0.  0.
         23    2    4    4    0    0  0.29662153962E+03  0.43836935108E+02 -0.57412897842E+02  0.31825612255E+03  0.89914982373E+02 0.  0.
        -15    1    5    5    0    0  0.21490641252E+03  0.46821777860E+02 -0.78966215348E+02  0.23369362035E+03  0.00000000000E+00 0.  1.
        -15    1    3    3    0    0  0.26510411408E+02 -0.28716847480E+02  0.18114726414E+02  0.43076705483E+02  0.00000000000E+00 0. -1.
         15    1    5    5    0    0  0.81715127102E+02 -0.29848427520E+01  0.21553317507E+02  0.84562502204E+02  0.00000000000E+00 0. -1.
         15    1    3    3    0    0  0.86730660257E+02 -0.57598325992E+02 -0.98969458171E+02  0.14364793154E+03  0.00000000000E+00 0.  1.
        -16    1    1    2    0    0 -0.44034902965E+03  0.16571727113E+03 -0.35183241189E+02  0.47181282552E+03  0.00000000000E+00 0.  1.
         16    1    4    4    0    0 -0.32594259207E+01  0.98010964053E+02  0.64729967556E+03  0.65468591165E+03  0.00000000000E+00 0. -1.
    9900018    1    1    2    0    0  0.33745844286E+02 -0.22124999681E+03  0.35767856809E+03  0.43167056833E+03  0.91187600000E+02 0.  0.
<mgrwt>
<rscale>  0 0.92810327E+03</rscale>
<asrwt>0</asrwt>
<pdfrwt beam="1">  1        1 0.22266749E+00 0.16396741E+04</pdfrwt>
<pdfrwt beam="2">  1       -1 0.94740207E-01 0.16396741E+04</pdfrwt>
<totfact> 0.72942327E+00</totfact>
</mgrwt>
</event>
<event>
12    1  0.3321384E-010  0.2502209E+04  0.7818608E-02  0.8402199E-01
          2   -1    0    0  501    0  0.00000000000E+00  0.00000000000E+00  0.14706900974E+04  0.14706900974E+04  0.00000000000E+00 0. -1.
         -2   -1    0    0    0  501 -0.00000000000E+00 -0.00000000000E+00 -0.10643049698E+04  0.10643049698E+04  0.00000000000E+00 0.  1.
         23    2    1    2    0    0  0.16465258162E+03  0.33085533599E+03  0.15754760974E+03  0.41211257624E+03  0.91868385060E+02 0.  0.
    9900016    2    1    2    0    0 -0.14666941450E+03 -0.18559335146E+02  0.63244381483E+02  0.70899069761E+03  0.69051545344E+03 0.  0.
         23    2    4    4    0    0 -0.32527629595E+03 -0.23446671548E+03  0.10843619158E+03  0.42516202625E+03  0.90691959666E+02 0.  0.
        -15    1    3    3    0    0  0.59647478477E+02  0.22054913553E+03  0.97535470748E+02  0.24842083432E+03  0.00000000000E+00 0.  1.
        -15    1    5    5    0    0 -0.70258933709E+02 -0.93555861731E+02  0.91747976862E+01  0.11735925163E+03  0.00000000000E+00 0.  1.
         15    1    5    5    0    0 -0.25501736224E+03 -0.14091085375E+03  0.99261393895E+02  0.30780277463E+03  0.00000000000E+00 0. -1.
         15    1    3    3    0    0  0.10500510314E+03  0.11030620046E+03  0.60012138995E+02  0.16369174192E+03  0.00000000000E+00 0. -1.
        -16    1    1    2    0    0 -0.37060162671E+02 -0.17892912330E+03 -0.59195054297E+03  0.61951152705E+03  0.00000000000E+00 0.  1.
         16    1    4    4    0    0  0.17860688145E+03  0.21590738033E+03 -0.45191810099E+02  0.28382867135E+03  0.00000000000E+00 0. -1.
    9900018    1    1    2    0    0  0.19076995558E+02 -0.13336687755E+03  0.77754367936E+03  0.79438026631E+03  0.91187600000E+02 0.  0.
<mgrwt>
<rscale>  0 0.25022092E+04</rscale>
<asrwt>0</asrwt>
<pdfrwt beam="1">  1        2 0.22626002E+00 0.25022092E+04</pdfrwt>
<pdfrwt beam="2">  1       -2 0.16373923E+00 0.25022092E+04</pdfrwt>
<totfact> 0.27812243E+00</totfact>
</mgrwt>
</event>
<event>
12    1  0.3321384E-010  0.2272415E+04  0.7818608E-02  0.9285321E-01
          1   -1    0    0  501    0  0.00000000000E+00  0.00000000000E+00  0.13714302390E+04  0.13714302390E+04  0.00000000000E+00 0. -1.
         -1   -1    0    0    0  501 -0.00000000000E+00 -0.00000000000E+00 -0.10203767429E+04  0.10203767429E+04  0.00000000000E+00 0.  1.
         23    2    1    2    0    0  0.41785754705E+02 -0.12734317580E+02  0.24110185053E+01  0.92802789695E+02  0.81843341968E+02 0.  0.
    9900016    2    1    2    0    0 -0.50804004533E+01 -0.44609141443E+01  0.21121275360E+03  0.69502034920E+03  0.66211535875E+03 0.  0.
         23    2    4    4    0    0  0.91281842571E+02  0.10052573352E+03 -0.20073615784E+03  0.25911923231E+03  0.91705908237E+02 0.  0.
        -15    1    5    5    0    0  0.30409511660E+02  0.77900650166E+02 -0.16503219815E+03  0.18501047571E+03  0.00000000000E+00 0. -1.
        -15    1    3    3    0    0 -0.18355581086E+01 -0.38143108671E+02 -0.12472553045E+02  0.40172510403E+02  0.00000000000E+00 0.  1.
         15    1    5    5    0    0  0.60872330911E+02  0.22625083356E+02 -0.35703959688E+02  0.74108756600E+02  0.00000000000E+00 0.  1.
         15    1    3    3    0    0  0.43621312813E+02  0.25408791091E+02  0.14883571550E+02  0.52630279292E+02  0.00000000000E+00 0. -1.
        -16    1    4    4    0    0 -0.96362243025E+02 -0.10498664767E+03  0.41194891144E+03  0.43590111689E+03  0.00000000000E+00 0.  1.
         16    1    1    2    0    0 -0.54652690074E+02  0.76793368498E+03  0.30685207753E+03  0.82877455230E+03  0.00000000000E+00 0. -1.
    9900018    1    1    2    0    0  0.17947335823E+02 -0.75073845325E+03 -0.16942235354E+03  0.77520929066E+03  0.91187600000E+02 0.  0.
<mgrwt>
<rscale>  0 0.10214551E+04</rscale>
<asrwt>0</asrwt>
<pdfrwt beam="1">  1        1 0.21098927E+00 0.22724147E+04</pdfrwt>
<pdfrwt beam="2">  1       -1 0.15698104E+00 0.22724147E+04</pdfrwt>
<totfact> 0.22401032E+00</totfact>
</mgrwt>
</event>
<event>
12    1  0.3321384E-010  0.1390895E+04  0.7818608E-02  0.9652319E-01
          1   -1    0    0  501    0  0.00000000000E+00  0.00000000000E+00  0.47451982956E+03  0.47451982956E+03  0.00000000000E+00 0. -1.
         -1   -1    0    0    0  501 -0.00000000000E+00 -0.00000000000E+00 -0.12085415358E+04  0.12085415358E+04  0.00000000000E+00 0.  1.
         23    2    1    2    0    0  0.56823830995E+02 -0.34802924206E+02 -0.13994529023E+01  0.11101704273E+03  0.88784199074E+02 0.  0.
    9900016    2    1    2    0    0 -0.12089479635E+02  0.19464122880E+02 -0.28244964091E+03  0.77023359492E+03  0.71621015317E+03 0.  0.
         23    2    4    4    0    0  0.28901425518E+03  0.19441623743E+03 -0.79567132001E+02  0.36720380207E+03  0.84739546177E+02 0.  0.
        -15    1    5    5    0    0  0.10243688911E+03  0.27227554331E+02 -0.41378235976E+02  0.11378406909E+03  0.00000000000E+00 0.  1.
        -15    1    3    3    0    0  0.77898750648E+02 -0.26582629054E+02  0.14217804085E+02  0.83528423144E+02  0.00000000000E+00 0.  1.
         15    1    5    5    0    0  0.18657736607E+03  0.16718868310E+03 -0.38188896025E+02  0.25341973298E+03  0.00000000000E+00 0. -1.
         15    1    3    3    0    0 -0.21074919653E+02 -0.82202951521E+01 -0.15617256987E+02  0.27488619583E+02  0.00000000000E+00 0. -1.
        -16    1    4    4    0    0 -0.30110373482E+03 -0.17495211455E+03 -0.20288250891E+03  0.40302979285E+03  0.00000000000E+00 0.  1.
         16    1    1    2    0    0  0.11881337211E+03  0.19969463337E+03  0.49201791788E+02  0.23751922091E+03  0.00000000000E+00 0. -1.
    9900018    1    1    2    0    0 -0.16354772347E+03 -0.18435583204E+03 -0.49937440424E+03  0.56429150681E+03  0.91187600000E+02 0.  0.
<mgrwt>
<rscale>  0 0.73928087E+03</rscale>
<asrwt>0</asrwt>
<pdfrwt beam="1">  1        1 0.73003050E-01 0.13908947E+04</pdfrwt>
<pdfrwt beam="2">  1       -1 0.18592947E+00 0.13908947E+04</pdfrwt>
<totfact> 0.87552713E+00</totfact>
</mgrwt>
</event>
<event>
12    1  0.3321384E-010  0.2551846E+04  0.7818608E-02  0.8882143E-01
         -2   -1    0    0    0  501 -0.00000000000E+00  0.00000000000E+00  0.19470299447E+04  0.19470299447E+04  0.00000000000E+00 0.  1.
          2   -1    0    0  501    0  0.00000000000E+00 -0.00000000000E+00 -0.13915545947E+04  0.13915545947E+04  0.00000000000E+00 0. -1.
         23    2    1    2    0    0  0.29294164284E+03 -0.13439192401E+02 -0.49194992540E+03  0.58013980908E+03  0.92477299782E+02 0.  0.
    9900016    2    1    2    0    0  0.29615483394E+03 -0.10645637595E+03  0.11498887641E+03  0.78198684810E+03  0.70656941857E+03 0.  0.
         23    2    4    4    0    0  0.26457375117E+03 -0.32617113627E+03  0.27271279560E+03  0.50968412065E+03  0.94967120698E+02 0.  0.
        -15    1    5    5    0    0  0.95910622246E+02 -0.18597214709E+03  0.10855471266E+03  0.23572995693E+03  0.00000000000E+00 0. -1.
        -15    1    3    3    0    0  0.96439983096E+02 -0.21516882840E+02 -0.94656689749E+02  0.13683397057E+03  0.00000000000E+00 0.  1.
         15    1    3    3    0    0  0.19650165974E+03  0.80776904391E+01 -0.39729323566E+03  0.44330583852E+03  0.00000000000E+00 0. -1.
         15    1    5    5    0    0  0.16866312892E+03 -0.14019898918E+03  0.16415808294E+03  0.27395416372E+03  0.00000000000E+00 0.  1.
        -16    1    4    4    0    0  0.31581082772E+02  0.21971476032E+03 -0.15772391919E+03  0.27230272745E+03  0.00000000000E+00 0.  1.
         16    1    1    2    0    0 -0.49790289429E+03 -0.22163492570E+02 -0.39455559781E+03  0.63566707663E+03  0.00000000000E+00 0. -1.
    9900018    1    1    2    0    0 -0.91193582485E+02  0.14205906092E+03  0.13269919968E+04  0.13407908056E+04  0.91187600000E+02 0.  0.
<mgrwt>
<rscale>  0 0.15034780E+04</rscale>
<asrwt>0</asrwt>
<pdfrwt beam="1">  1        2 0.21408532E+00 0.25518459E+04</pdfrwt>
<pdfrwt beam="2">  1       -2 0.29954307E+00 0.25518459E+04</pdfrwt>
<totfact> 0.40639531E-01</totfact>
</mgrwt>
</event>
<event>
12    1  0.3321384E-010  0.1498669E+04  0.7818608E-02  0.8885338E-01
         -2   -1    0    0    0  501 -0.00000000000E+00  0.00000000000E+00  0.95583660091E+03  0.95583660091E+03  0.00000000000E+00 0. -1.
          2   -1    0    0  501    0  0.00000000000E+00 -0.00000000000E+00 -0.58744607222E+03  0.58744607222E+03  0.00000000000E+00 0.  1.
         23    2    1    2    0    0  0.29103121111E+03  0.15550720901E+03 -0.80995705714E+02  0.35175822645E+03  0.91059802525E+02 0.  0.
    9900016    2    1    2    0    0 -0.25357889479E+03 -0.77908651236E+02  0.29279034751E+03  0.81198743912E+03  0.70938381703E+03 0.  0.
         23    2    4    4    0    0  0.15067103457E+03 -0.35388166868E+02 -0.13278345096E+03  0.22348165755E+03  0.91424960490E+02 0.  0.
        -15    1    3    3    0    0  0.64453136162E+02  0.74082408890E+02 -0.46097183187E+02  0.10847746478E+03  0.00000000000E+00 0.  1.
        -15    1    5    5    0    0  0.82046058626E+02  0.84652085460E+01 -0.11259970320E+03  0.13957760799E+03  0.00000000000E+00 0.  1.
         15    1    5    5    0    0  0.68624975948E+02 -0.43853375414E+02 -0.20183747756E+02  0.83904049560E+02  0.00000000000E+00 0. -1.
         15    1    3    3    0    0  0.22657807495E+03  0.81424800117E+02 -0.34898522527E+02  0.24328076166E+03  0.00000000000E+00 0. -1.
        -16    1    1    2    0    0 -0.74274964305E+02 -0.10965801908E+03 -0.55468943625E+02  0.14359127821E+03  0.00000000000E+00 0.  1.
         16    1    4    4    0    0 -0.40424992937E+03 -0.42520484368E+02  0.42557379847E+03  0.58850578156E+03  0.00000000000E+00 0. -1.
    9900018    1    1    2    0    0  0.36822647992E+02  0.32059461308E+02  0.21206483052E+03  0.23594572936E+03  0.91187600000E+02 0.  0.
<mgrwt>
<rscale>  0 0.14986694E+04</rscale>
<asrwt>0</asrwt>
<pdfrwt beam="1">  1        2 0.90376319E-01 0.14986694E+04</pdfrwt>
<pdfrwt beam="2">  1       -2 0.14705178E+00 0.14986694E+04</pdfrwt>
<totfact> 0.15514221E+01</totfact>
</mgrwt>
</event>
<event>
12    1  0.3321384E-010  0.2225960E+04  0.7818608E-02  0.9288686E-01
         -2   -1    0    0    0  501 -0.00000000000E+00  0.00000000000E+00  0.60546391112E+03  0.60546391112E+03  0.00000000000E+00 0. -1.
          2   -1    0    0  501    0  0.00000000000E+00 -0.00000000000E+00 -0.22526362209E+04  0.22526362209E+04  0.00000000000E+00 0.  1.
         23    2    1    2    0    0  0.21558285957E+02 -0.18137260603E+02 -0.16795365882E+02  0.98928422540E+02  0.93332891071E+02 0.  0.
    9900016    2    1    2    0    0 -0.35038380396E+02  0.97079414121E+02 -0.83112122121E+03  0.10970986125E+04  0.70866831479E+03 0.  0.
         23    2    4    4    0    0 -0.29104450073E+03 -0.16292247886E+03 -0.47138527615E+03  0.58470221497E+03  0.91771270540E+02 0.  0.
        -15    1    5    5    0    0 -0.13694671096E+03 -0.25239947492E+02 -0.19403054345E+03  0.23882903589E+03  0.00000000000E+00 0.  1.
        -15    1    3    3    0    0  0.44971617639E+02 -0.58467879967E+01 -0.42426518868E+02  0.62101858476E+02  0.00000000000E+00 0.  1.
         15    1    5    5    0    0 -0.15409778977E+03 -0.13768253137E+03 -0.27735473271E+03  0.34587317908E+03  0.00000000000E+00 0. -1.
         15    1    3    3    0    0 -0.23413331682E+02 -0.12290472606E+02  0.25631152987E+02  0.36826564064E+02  0.00000000000E+00 0. -1.
        -16    1    4    4    0    0  0.25600612033E+03  0.26000189298E+03 -0.35973594505E+03  0.51239639749E+03  0.00000000000E+00 0.  1.
         16    1    1    2    0    0  0.48709916858E+02 -0.36456255982E+03  0.32939853836E+03  0.49374276005E+03  0.00000000000E+00 0. -1.
    9900018    1    1    2    0    0 -0.35229822419E+02  0.28562040631E+03 -0.11286542611E+04  0.11683303370E+04  0.91187600000E+02 0.  0.
<mgrwt>
<rscale>  0 0.10183115E+04</rscale>
<asrwt>0</asrwt>
<pdfrwt beam="1">  1        2 0.34655941E+00 0.22259604E+04</pdfrwt>
<pdfrwt beam="2">  1       -2 0.93148296E-01 0.22259604E+04</pdfrwt>
<totfact> 0.42783160E+00</totfact>
</mgrwt>
</event>
<event>
12    1  0.3321384E-010  0.2879432E+04  0.7818608E-02  0.9035444E-01
         -2   -1    0    0    0  501 -0.00000000000E+00  0.00000000000E+00  0.87422499937E+03  0.87422499937E+03  0.00000000000E+00 0.  1.
          2   -1    0    0  501    0  0.00000000000E+00 -0.00000000000E+00 -0.25808422541E+04  0.25808422541E+04  0.00000000000E+00 0. -1.
         23    2    1    2    0    0  0.74683709463E+02 -0.10954710747E+02 -0.21834432697E+02  0.11895817112E+03  0.89312047774E+02 0.  0.
    9900016    2    1    2    0    0  0.35651168094E+03 -0.46108248201E+03 -0.43103616673E+03  0.10110677008E+04  0.70481776703E+03 0.  0.
         23    2    4    4    0    0  0.32632557260E+03 -0.32282533899E+02 -0.46881091019E+03  0.57954999795E+03  0.92541824524E+02 0.  0.
        -15    1    3    3    0    0  0.39300751642E+02  0.39018631436E+02 -0.59451429047E+01  0.55698719940E+02  0.00000000000E+00 0. -1.
        -15    1    5    5    0    0  0.31516331235E+03 -0.39924668081E+02 -0.40715357135E+03  0.51642610627E+03  0.00000000000E+00 0. -1.
         15    1    5    5    0    0  0.11162260252E+02  0.76421341815E+01 -0.61657338833E+02  0.63123891679E+02  0.00000000000E+00 0.  1.
         15    1    3    3    0    0  0.35382957821E+02 -0.49973342184E+02 -0.15889289792E+02  0.63259451178E+02  0.00000000000E+00 0.  1.
        -16    1    1    2    0    0 -0.58285492116E+03  0.10456750486E+04 -0.12414076994E+04  0.17246011837E+04  0.00000000000E+00 0.  1.
         16    1    4    4    0    0  0.30186108337E+02 -0.42879994811E+03  0.37774743461E+02  0.43151770285E+03  0.00000000000E+00 0. -1.
    9900018    1    1    2    0    0  0.15165953076E+03 -0.57363785589E+03 -0.12338955853E+02  0.60044019786E+03  0.91187600000E+02 0.  0.
<mgrwt>
<rscale>  0 0.12926124E+04</rscale>
<asrwt>0</asrwt>
<pdfrwt beam="1">  1        2 0.39705266E+00 0.28794323E+04</pdfrwt>
<pdfrwt beam="2">  1       -2 0.13449615E+00 0.28794323E+04</pdfrwt>
<totfact> 0.10706942E+00</totfact>
</mgrwt>
</event>
<event>
12    1  0.3321384E-010  0.1334193E+04  0.7818608E-02  0.9604690E-01
          2   -1    0    0  501    0  0.00000000000E+00  0.00000000000E+00  0.17468883219E+04  0.17468883219E+04  0.00000000000E+00 0. -1.
         -2   -1    0    0    0  501 -0.00000000000E+00 -0.00000000000E+00 -0.31820464615E+03  0.31820464615E+03  0.00000000000E+00 0.  1.
         23    2    1    2    0    0  0.24943564860E+02 -0.11310728166E+03  0.21821102780E+03  0.26361704798E+03  0.91991612313E+02 0.  0.
    9900016    2    1    2    0    0  0.44354385641E+02 -0.19367251938E+02  0.52685882629E+03  0.88715537808E+03  0.71212501715E+03 0.  0.
         23    2    4    4    0    0 -0.28125571757E+03 -0.10880909498E+02  0.31400203365E+02  0.29421929017E+03  0.79723554091E+02 0.  0.
        -15    1    5    5    0    0 -0.22169669543E+03 -0.39744009687E+02  0.35014347290E+02  0.22793642883E+03  0.00000000000E+00 0. -1.
        -15    1    3    3    0    0 -0.25824667003E+01 -0.55871753005E+02  0.26947365335E+02  0.62084478065E+02  0.00000000000E+00 0. -1.
         15    1    3    3    0    0  0.27526031560E+02 -0.57235528655E+02  0.19126366247E+03  0.20153256991E+03  0.00000000000E+00 0.  1.
         15    1    5    5    0    0 -0.59559022141E+02  0.28863100189E+02 -0.36141439256E+01  0.66282861338E+02  0.00000000000E+00 0.  1.
        -16    1    1    2    0    0  0.38355336460E+02  0.22114199097E+03  0.14655955194E+02  0.22492156194E+03  0.00000000000E+00 0.  1.
         16    1    4    4    0    0  0.32561010321E+03 -0.84863424406E+01  0.49545862292E+03  0.59293608791E+03  0.00000000000E+00 0. -1.
    9900018    1    1    2    0    0 -0.10765328696E+03 -0.88667457368E+02  0.66895786642E+03  0.68939898000E+03  0.91187600000E+02 0.  0.
<mgrwt>
<rscale>  0 0.76986528E+03</rscale>
<asrwt>0</asrwt>
<pdfrwt beam="1">  1        2 0.26875204E+00 0.13341932E+04</pdfrwt>
<pdfrwt beam="2">  1       -2 0.48954562E-01 0.13341932E+04</pdfrwt>
<totfact> 0.35617395E+01</totfact>
</mgrwt>
</event>
<event>
12    1  0.3321384E-010  0.2940778E+04  0.7818608E-02  0.8260847E-01
         -1   -1    0    0    0  501 -0.00000000000E+00  0.00000000000E+00  0.61469407570E+03  0.61469407570E+03  0.00000000000E+00 0.  1.
          1   -1    0    0  501    0  0.00000000000E+00 -0.00000000000E+00 -0.35172676963E+04  0.35172676963E+04  0.00000000000E+00 0. -1.
         23    2    1    2    0    0  0.70843150127E+02 -0.18440231876E+03  0.32099924090E+03  0.38852463524E+03  0.94275725650E+02 0.  0.
    9900016    2    1    2    0    0 -0.41022072941E+02  0.63861731099E+00 -0.15403809733E+04  0.16945349463E+04  0.70497654091E+03 0.  0.
         23    2    4    4    0    0  0.22334139359E+03  0.20679232000E+03 -0.10752359263E+04  0.11211700483E+04  0.90804946442E+02 0.  0.
        -15    1    5    5    0    0  0.15274275564E+03  0.89539959443E+02 -0.52006614875E+03  0.54937833304E+03  0.00000000000E+00 0.  1.
        -15    1    3    3    0    0  0.34781546765E+02 -0.14992261036E+03  0.16914669650E+03  0.22868570141E+03  0.00000000000E+00 0.  1.
         15    1    5    5    0    0  0.70598637955E+02  0.11725236056E+03 -0.55516977758E+03  0.57179171529E+03  0.00000000000E+00 0. -1.
         15    1    3    3    0    0  0.36061603362E+02 -0.34479708408E+02  0.15185254440E+03  0.15983893383E+03  0.00000000000E+00 0. -1.
        -16    1    4    4    0    0 -0.26436346653E+03 -0.20615370269E+03 -0.46514504696E+03  0.57336489802E+03  0.00000000000E+00 0.  1.
         16    1    1    2    0    0 -0.52913726125E+02  0.13248157618E+03 -0.18473642601E+04  0.18528642530E+04  0.00000000000E+00 0. -1.
    9900018    1    1    2    0    0  0.23092648939E+02  0.51282125278E+02  0.16417237192E+03  0.19603793741E+03  0.91187600000E+02 0.  0.
<mgrwt>
<rscale>  0 0.29407779E+04</rscale>
<asrwt>0</asrwt>
<pdfrwt beam="1">  1        1 0.54111811E+00 0.29407779E+04</pdfrwt>
<pdfrwt beam="2">  1       -1 0.94568319E-01 0.29407779E+04</pdfrwt>
<totfact> 0.22392198E-01</totfact>
</mgrwt>
</event>
