<event>
11    1  0.7679943E-012  0.1657634E+04  0.7818608E-02  0.9159452E-01
          2   -1    0    0  501    0  0.00000000000E+00  0.00000000000E+00  0.83383818551E+03  0.83383818551E+03  0.00000000000E+00 0. -1.
         -2   -1    0    0    0  501 -0.00000000000E+00 -0.00000000000E+00 -0.13095318751E+04  0.13095318751E+04  0.00000000000E+00 0.  1.
    9900016    2    1    2    0    0  0.22070893671E+03 -0.24950626225E+03 -0.37350113281E+03  0.85222712561E+03  0.68979864291E+03 0.  0.
         23    2    3    3    0    0 -0.23890173072E+03 -0.55493415162E+02 -0.80177433834E+02  0.27350288831E+03  0.90674433857E+02 0.  0.
        -15    1    4    4    0    0 -0.15339575701E+03 -0.78127447578E+01 -0.11720130503E+02  0.15404109422E+03  0.00000000000E+00 0.  1.
        -15    1    1    2    0    0  0.11665440525E+03 -0.87289907908E+02 -0.27208618606E+03  0.30864003456E+03  0.00000000000E+00 0.  1.
         15    1    4    4    0    0 -0.85505973710E+02 -0.47680670404E+02 -0.68457303331E+02  0.11946179410E+03  0.00000000000E+00 0. -1.
         15    1    1    2    0    0 -0.14475486005E+02  0.16488454687E+03 -0.98637002820E+01  0.16581238215E+03  0.00000000000E+00 0. -1.
        -16    1    3    3    0    0  0.45961066743E+03 -0.19401284708E+03 -0.29332369898E+03  0.57872423729E+03  0.00000000000E+00 0.  1.
         16    1    1    2    0    0 -0.19125010490E+03  0.23364632287E+03  0.42256365984E+03  0.51935272545E+03  0.00000000000E+00 0. -1.
    9900018    1    1    2    0    0 -0.13163775106E+03 -0.61734699584E+02 -0.24280633028E+03  0.29733779285E+03  0.91187600000E+02 0.  0.
<mgrwt>
<rscale>  0 0.11481935E+04</rscale>
<asrwt>0</asrwt>
<pdfrwt beam="1">  1        2 0.12828280E+00 0.16576337E+04</pdfrwt>
<pdfrwt beam="2">  1       -2 0.20146644E+00 0.16576337E+04</pdfrwt>
<totfact> 0.39982759E+00</totfact>
</mgrwt>
</event>
<event>
11    1  0.7679943E-012  0.4397864E+04  0.7818608E-02  0.7928766E-01
         -2   -1    0    0    0  501 -0.00000000000E+00  0.00000000000E+00  0.32174557292E+04  0.32174557292E+04  0.00000000000E+00 0.  1.
          2   -1    0    0  501    0  0.00000000000E+00 -0.00000000000E+00 -0.15028340814E+04  0.15028340814E+04  0.00000000000E+00 0. -1.
    9900016    2    1    2    0    0 -0.34226223247E+02  0.36336488202E+03  0.33271749446E+03  0.86530188705E+03  0.71052160612E+03 0.  0.
         23    2    3    3    0    0 -0.13258782539E+03  0.61528265426E+01 -0.17400578989E+03  0.23757269045E+03  0.92441222499E+02 0.  0.
        -15    1    1    2    0    0 -0.23999058333E+03 -0.20725637888E+02  0.42038710110E+03  0.48451041983E+03  0.00000000000E+00 0.  1.
        -15    1    4    4    0    0 -0.54282281338E+02  0.47429197625E+02 -0.64178793442E+02  0.96514311800E+02  0.00000000000E+00 0. -1.
         15    1    1    2    0    0 -0.61578427731E+03 -0.48009697241E+03 -0.18477339294E+03  0.80238680562E+03  0.00000000000E+00 0. -1.
         15    1    4    4    0    0 -0.78305544052E+02 -0.41276371082E+02 -0.10982699645E+03  0.14105837865E+03  0.00000000000E+00 0.  1.
        -16    1    1    2    0    0  0.82224565679E+03 -0.61296374105E+03  0.14283453575E+04  0.17584035169E+04  0.00000000000E+00 0.  1.
         16    1    3    3    0    0  0.98361602143E+02  0.35721205548E+03  0.50672328435E+03  0.62772919660E+03  0.00000000000E+00 0. -1.
    9900018    1    1    2    0    0  0.67755427095E+02  0.75042146933E+03 -0.28205491229E+03  0.80968718124E+03  0.91187600000E+02 0.  0.
<mgrwt>
<rscale>  0 0.43978641E+04</rscale>
<asrwt>0</asrwt>
<pdfrwt beam="1">  1        2 0.23120524E+00 0.43978641E+04</pdfrwt>
<pdfrwt beam="2">  1       -2 0.49499319E+00 0.43978641E+04</pdfrwt>
<totfact> 0.17180307E-02</totfact>
</mgrwt>
</event>
<event>
11    1  0.7679943E-012  0.1527223E+04  0.7818608E-02  0.9048187E-01
         -2   -1    0    0    0  501 -0.00000000000E+00  0.00000000000E+00  0.85451235568E+03  0.85451235568E+03  0.00000000000E+00 0. -1.
          2   -1    0    0  501    0  0.00000000000E+00 -0.00000000000E+00 -0.31078144178E+04  0.31078144178E+04  0.00000000000E+00 0.  1.
    9900016    2    1    2    0    0 -0.33463578766E+03  0.51098636479E+03 -0.12914559129E+04  0.15945177038E+04  0.70819499960E+03 0.  0.
         23    2    3    3    0    0 -0.67541255135E+02  0.42856728573E+03 -0.12312856769E+04  0.13085931488E+04  0.90110328433E+02 0.  0.
        -15    1    4    4    0    0 -0.90077094253E+02  0.34274431985E+03 -0.98456512195E+03  0.10464014674E+04  0.00000000000E+00 0.  1.
        -15    1    1    2    0    0 -0.61689728586E+02 -0.26091504253E+03  0.43697270475E+01  0.26814432037E+03  0.00000000000E+00 0.  1.
         15    1    1    2    0    0  0.17351043522E+03 -0.37104982295E+03  0.43566061982E+03  0.59798329232E+03  0.00000000000E+00 0. -1.
         15    1    4    4    0    0  0.22535839118E+02  0.85822965889E+02 -0.24672055494E+03  0.26219168132E+03  0.00000000000E+00 0. -1.
        -16    1    1    2    0    0  0.20765291169E+03  0.18379874930E+03 -0.13504923875E+04  0.13786701566E+04  0.00000000000E+00 0.  1.
         16    1    3    3    0    0 -0.26709453252E+03  0.82419079052E+02 -0.60170236019E+02  0.28592455508E+03  0.00000000000E+00 0. -1.
    9900018    1    1    2    0    0  0.15162169324E+02 -0.62820248609E+02 -0.51384108601E+02  0.12301130039E+03  0.91187600000E+02 0.  0.
<mgrwt>
<rscale>  0 0.12767765E+04</rscale>
<asrwt>0</asrwt>
<pdfrwt beam="1">  1        2 0.47812529E+00 0.15272229E+04</pdfrwt>
<pdfrwt beam="2">  1       -2 0.13146344E+00 0.15272229E+04</pdfrwt>
<totfact> 0.59572923E-01</totfact>
</mgrwt>
</event>
<event>
11    1  0.7679943E-012  0.4443003E+04  0.7818608E-02  0.7920692E-01
          2   -1    0    0  501    0  0.00000000000E+00  0.00000000000E+00  0.29181402118E+04  0.29181402118E+04  0.00000000000E+00 0. -1.
         -2   -1    0    0    0  501 -0.00000000000E+00 -0.00000000000E+00 -0.16911692045E+04  0.16911692045E+04  0.00000000000E+00 0.  1.
    9900016    2    1    2    0    0  0.32212380040E+03 -0.15004239114E+03  0.39976169794E+03  0.88707778756E+03  0.70768716543E+03 0.  0.
         23    2    3    3    0    0  0.36134264266E+02 -0.20594264496E+03  0.52316695477E+03  0.57062287676E+03  0.90491694897E+02 0.  0.
        -15    1    4    4    0    0  0.41432139676E+02 -0.35133621583E+02  0.16632763510E+03  0.17497392880E+03  0.00000000000E+00 0. -1.
        -15    1    1    2    0    0 -0.14424212989E+03  0.78240395598E+02 -0.48621780203E+03  0.51316186778E+03  0.00000000000E+00 0.  1.
         15    1    4    4    0    0 -0.52978754103E+01 -0.17080902338E+03  0.35683931968E+03  0.39564894796E+03  0.00000000000E+00 0.  1.
         15    1    1    2    0    0 -0.35482932449E+03 -0.23432875092E+03  0.16793125187E+04  0.17323118508E+04  0.00000000000E+00 0. -1.
        -16    1    1    2    0    0 -0.45729768590E+02  0.84193156252E+03 -0.20385088103E+03  0.86746478280E+03  0.00000000000E+00 0.  1.
         16    1    3    3    0    0  0.28598953614E+03  0.55900253821E+02 -0.12340525683E+03  0.31645491080E+03  0.00000000000E+00 0. -1.
    9900018    1    1    2    0    0  0.22267742257E+03 -0.53580081606E+03 -0.16203452625E+03  0.60929312741E+03  0.91187600000E+02 0.  0.
<mgrwt>
<rscale>  0 0.44430030E+04</rscale>
<asrwt>0</asrwt>
<pdfrwt beam="1">  1        2 0.44894465E+00 0.44430030E+04</pdfrwt>
<pdfrwt beam="2">  1       -2 0.26017988E+00 0.44430030E+04</pdfrwt>
<totfact> 0.82909897E-02</totfact>
</mgrwt>
</event>
<event>
11    1  0.7679943E-012  0.1433726E+04  0.7818608E-02  0.9108826E-01
         -2   -1    0    0    0  501 -0.00000000000E+00  0.00000000000E+00  0.63164292192E+03  0.63164292192E+03  0.00000000000E+00 0.  1.
          2   -1    0    0  501    0  0.00000000000E+00 -0.00000000000E+00 -0.31485885202E+04  0.31485885202E+04  0.00000000000E+00 0. -1.
    9900016    2    1    2    0    0 -0.39717881059E+03  0.32874861438E+03 -0.79282123477E+02  0.87296024067E+03  0.69996233302E+03 0.  0.
         23    2    3    3    0    0  0.17072945978E+03  0.89805221579E+02  0.92489594920E+02  0.23333591987E+03  0.93154710428E+02 0.  0.
        -15    1    1    2    0    0  0.16697873159E+03  0.13351993215E+03 -0.12112479805E+03  0.24572481720E+03  0.00000000000E+00 0.  1.
        -15    1    4    4    0    0  0.14318276640E+02 -0.11605881888E+02  0.32762670258E+02  0.37591250349E+02  0.00000000000E+00 0.  1.
         15    1    4    4    0    0  0.15641118314E+03  0.10141110347E+03  0.59726924662E+02  0.19574466952E+03  0.00000000000E+00 0. -1.
         15    1    1    2    0    0 -0.13679029668E+03 -0.40407740639E+03 -0.18233643192E+04  0.18726044900E+04  0.00000000000E+00 0. -1.
        -16    1    1    2    0    0  0.14976887748E+03  0.17211036029E+03 -0.37497107006E+03  0.43892595749E+03  0.00000000000E+00 0.  1.
         16    1    3    3    0    0 -0.56790827036E+03  0.23894339280E+03 -0.17177171840E+03  0.63962432080E+03  0.00000000000E+00 0. -1.
    9900018    1    1    2    0    0  0.21722149820E+03 -0.23030150044E+03 -0.11820328749E+03  0.35001593671E+03  0.91187600000E+02 0.  0.
<mgrwt>
<rscale>  0 0.12046158E+04</rscale>
<asrwt>0</asrwt>
<pdfrwt beam="1">  1        2 0.48439823E+00 0.14337260E+04</pdfrwt>
<pdfrwt beam="2">  1       -2 0.97175836E-01 0.14337260E+04</pdfrwt>
<totfact> 0.11950167E+00</totfact>
</mgrwt>
</event>
<event>
11    1  0.7679943E-012  0.1349090E+04  0.7818608E-02  0.9042735E-01
         -2   -1    0    0    0  501 -0.00000000000E+00  0.00000000000E+00  0.86917185575E+03  0.86917185575E+03  0.00000000000E+00 0. -1.
          2   -1    0    0  501    0  0.00000000000E+00 -0.00000000000E+00 -0.19975174460E+04  0.19975174460E+04  0.00000000000E+00 0.  1.
    9900016    2    1    2    0    0 -0.31553624010E+03  0.19824255952E+02 -0.15991221420E+03  0.79692600408E+03  0.71383682994E+03 0.  0.
         23    2    3    3    0    0  0.14367658347E+03  0.89650188255E+02  0.14568440212E+03  0.24092117491E+03  0.90216132739E+02 0.  0.
        -15    1    1    2    0    0  0.33217379391E+03  0.63384865975E+03 -0.11003022905E+04  0.13125428310E+04  0.00000000000E+00 0.  1.
        -15    1    4    4    0    0  0.10754518057E+03  0.97392723313E+02  0.80330586613E+02  0.16584423886E+03  0.00000000000E+00 0.  1.
         15    1    1    2    0    0  0.57265016959E+02 -0.32228316260E+03  0.69512187434E+02  0.33463063707E+03  0.00000000000E+00 0. -1.
         15    1    4    4    0    0  0.36131402897E+02 -0.77425350587E+01  0.65353815507E+02  0.75076936044E+02  0.00000000000E+00 0. -1.
        -16    1    3    3    0    0 -0.45921282357E+03 -0.69825932302E+02 -0.30559661632E+03  0.55600482917E+03  0.00000000000E+00 0.  1.
         16    1    1    2    0    0  0.59932869980E+02 -0.18140982353E+03  0.65111982903E+02  0.20184410642E+03  0.00000000000E+00 0. -1.
    9900018    1    1    2    0    0 -0.13383544075E+03 -0.14997992957E+03 -0.27552559179E+01  0.22074572319E+03  0.91187600000E+02 0.  0.
<mgrwt>
<rscale>  0 0.12835223E+04</rscale>
<asrwt>0</asrwt>
<pdfrwt beam="1">  1        2 0.30731038E+00 0.13490900E+04</pdfrwt>
<pdfrwt beam="2">  1       -2 0.13371875E+00 0.13490900E+04</pdfrwt>
<totfact> 0.26014270E+00</totfact>
</mgrwt>
</event>
<event>
11    1  0.7679943E-012  0.3274883E+04  0.7818608E-02  0.8169316E-01
          2   -1    0    0  501    0  0.00000000000E+00  0.00000000000E+00  0.56966407184E+03  0.56966407184E+03  0.00000000000E+00 0. -1.
         -2   -1    0    0    0  501 -0.00000000000E+00 -0.00000000000E+00 -0.47066588176E+04  0.47066588176E+04  0.00000000000E+00 0.  1.
    9900016    2    1    2    0    0 -0.71051136350E+02  0.10633680288E+03 -0.66313628194E+03  0.99013078703E+03  0.72405349760E+03 0.  0.
         23    2    3    3    0    0  0.31043236781E+03 -0.18078872329E+02 -0.38002910233E+03  0.49905177167E+03  0.89081151691E+02 0.  0.
        -15    1    1    2    0    0 -0.35808273948E+03 -0.12957114063E+03 -0.14256258445E+04  0.14756086803E+04  0.00000000000E+00 0.  1.
        -15    1    4    4    0    0  0.12397345921E+03  0.18916908812E+02 -0.20687064010E+03  0.24191471588E+03  0.00000000000E+00 0.  1.
         15    1    4    4    0    0  0.18645890860E+03 -0.36995781141E+02 -0.17315846223E+03  0.25713705579E+03  0.00000000000E+00 0. -1.
         15    1    1    2    0    0 -0.19562575265E+03  0.59776117838E+03 -0.46983994472E+02  0.63071020066E+03  0.00000000000E+00 0. -1.
        -16    1    1    2    0    0  0.25988506836E+03 -0.22565969087E+03 -0.94286437663E+03  0.10037209660E+04  0.00000000000E+00 0.  1.
         16    1    3    3    0    0 -0.38148350416E+03  0.12441567521E+03 -0.28310717961E+03  0.49107901536E+03  0.00000000000E+00 0. -1.
    9900018    1    1    2    0    0  0.36487456012E+03 -0.34886714976E+03 -0.10583842482E+04  0.11761522555E+04  0.91187600000E+02 0.  0.
<mgrwt>
<rscale>  0 0.32748829E+04</rscale>
<asrwt>0</asrwt>
<pdfrwt beam="1">  1        2 0.87640627E-01 0.32748829E+04</pdfrwt>
<pdfrwt beam="2">  1       -2 0.72410136E+00 0.32748829E+04</pdfrwt>
<totfact> 0.81265876E-03</totfact>
</mgrwt>
</event>
<event>
11    1  0.7679943E-012  0.1404723E+04  0.7818608E-02  0.9265229E-01
          2   -1    0    0  501    0  0.00000000000E+00  0.00000000000E+00  0.96943782813E+03  0.96943782813E+03  0.00000000000E+00 0. -1.
         -2   -1    0    0    0  501 -0.00000000000E+00 -0.00000000000E+00 -0.87237118589E+03  0.87237118589E+03  0.00000000000E+00 0.  1.
    9900016    2    1    2    0    0 -0.83043288080E+02  0.26845984098E+03 -0.15314553527E+03  0.77363197678E+03  0.70433373241E+03 0.  0.
         23    2    3    3    0    0  0.22350218038E+03  0.35329109138E+03 -0.15778807303E+03  0.45553133479E+03  0.88565800932E+02 0.  0.
        -15    1    4    4    0    0  0.15770988968E+03  0.17425327727E+03 -0.67684463448E+02  0.24457677840E+03  0.00000000000E+00 0. -1.
        -15    1    1    2    0    0 -0.23458511338E+03  0.88165516520E+02  0.15304117985E+03  0.29364082899E+03  0.00000000000E+00 0.  1.
         15    1    1    2    0    0  0.42278365846E+02 -0.23480273772E+03 -0.11806218631E+03  0.26619253501E+03  0.00000000000E+00 0. -1.
         15    1    4    4    0    0  0.65792290703E+02  0.17903781412E+03 -0.90103609584E+02  0.21095455638E+03  0.00000000000E+00 0.  1.
        -16    1    1    2    0    0  0.10169740352E+03  0.11376402907E+03  0.53155131564E+02  0.16158615103E+03  0.00000000000E+00 0.  1.
         16    1    3    3    0    0 -0.30654546846E+03 -0.84831250404E+02  0.46425377631E+01  0.31810064199E+03  0.00000000000E+00 0. -1.
    9900018    1    1    2    0    0  0.17365263209E+03 -0.23558664885E+03  0.16207805241E+03  0.34675752222E+03  0.91187600000E+02 0.  0.
<mgrwt>
<rscale>  0 0.10404791E+04</rscale>
<asrwt>0</asrwt>
<pdfrwt beam="1">  1        2 0.14914428E+00 0.14047229E+04</pdfrwt>
<pdfrwt beam="2">  1       -2 0.13421095E+00 0.14047229E+04</pdfrwt>
<totfact> 0.10168609E+01</totfact>
</mgrwt>
</event>
<event>
11    1  0.7679943E-012  0.3239559E+04  0.7818608E-02  0.8178447E-01
          2   -1    0    0  501    0  0.00000000000E+00  0.00000000000E+00  0.17304246949E+04  0.17304246949E+04  0.00000000000E+00 0.  1.
         -2   -1    0    0    0  501 -0.00000000000E+00 -0.00000000000E+00 -0.15162094631E+04  0.15162094631E+04  0.00000000000E+00 0. -1.
    9900016    2    1    2    0    0 -0.52236319395E+03 -0.13286057298E+02 -0.33494729003E+03  0.94289173329E+03  0.70979948428E+03 0.  0.
         23    2    3    3    0    0 -0.37413340499E+03 -0.37531399765E+02  0.16540061506E+03  0.42048582492E+03  0.89814001112E+02 0.  0.
        -15    1    4    4    0    0 -0.29819237535E+03 -0.45596069255E+02  0.16558741607E+03  0.34411754766E+03  0.00000000000E+00 0. -1.
        -15    1    1    2    0    0  0.25392184432E+03 -0.46026076460E+02  0.22313669308E+03  0.34115199917E+03  0.00000000000E+00 0.  1.
         15    1    1    2    0    0  0.19169597246E+03  0.13043132652E+03 -0.61741844769E+03  0.65951892796E+03  0.00000000000E+00 0. -1.
         15    1    4    4    0    0 -0.75941029641E+02  0.80646694900E+01 -0.18680100051E+00  0.76368277259E+02  0.00000000000E+00 0.  1.
        -16    1    1    2    0    0 -0.83933113320E+02 -0.11139601222E+03  0.10677246241E+04  0.10767960401E+04  0.00000000000E+00 0.  1.
         16    1    3    3    0    0 -0.14822978896E+03  0.24245342467E+02 -0.50034790510E+03  0.52240590837E+03  0.00000000000E+00 0. -1.
    9900018    1    1    2    0    0  0.16067849049E+03  0.40276819452E+02 -0.12428034761E+03  0.22627545755E+03  0.91187600000E+02 0.  0.
<mgrwt>
<rscale>  0 0.32395594E+04</rscale>
<asrwt>0</asrwt>
<pdfrwt beam="1">  1        2 0.26621919E+00 0.32395594E+04</pdfrwt>
<pdfrwt beam="2">  1       -2 0.23326299E+00 0.32395594E+04</pdfrwt>
<totfact> 0.64583885E-01</totfact>
</mgrwt>
</event>
<event>
11    1  0.7986477E-012  0.1652669E+04  0.7818608E-02  0.9169901E-01
         -2   -1    0    0    0  501 -0.00000000000E+00  0.00000000000E+00  0.54936471031E+03  0.54936471031E+03  0.00000000000E+00 0.  1.
          2   -1    0    0  501    0  0.00000000000E+00 -0.00000000000E+00 -0.18816200854E+04  0.18816200854E+04  0.00000000000E+00 0. -1.
    9900016    2    1    2    0    0  0.25093468146E+03 -0.34771383510E+03 -0.12461449745E+03  0.83945835268E+03  0.71083642804E+03 0.  0.
         23    2    3    3    0    0  0.27064256741E+03 -0.24210942912E+03  0.24992135764E+03  0.44982031799E+03  0.89516805719E+02 0.  0.
        -15    1    1    2    0    0  0.74155218155E+02  0.19488731714E+03 -0.29970301457E+03  0.36510540903E+03  0.00000000000E+00 0.  1.
        -15    1    4    4    0    0  0.16783905718E+03 -0.16645860993E+03  0.20969990333E+03  0.31599441038E+03  0.00000000000E+00 0.  1.
         15    1    4    4    0    0  0.10280351023E+03 -0.75650819192E+02  0.40221454308E+02  0.13382590760E+03  0.00000000000E+00 0. -1.
         15    1    1    2    0    0  0.81979047321E+02  0.10490066212E+03 -0.44491849398E+02  0.14037178411E+03  0.00000000000E+00 0. -1.
        -16    1    1    2    0    0 -0.25361430926E+03 -0.22016070067E+03 -0.41335335019E+03  0.53258984603E+03  0.00000000000E+00 0.  1.
         16    1    3    3    0    0 -0.19707885942E+02 -0.10560440597E+03 -0.37453585509E+03  0.38963803469E+03  0.00000000000E+00 0. -1.
    9900018    1    1    2    0    0 -0.15345463767E+03  0.26808655650E+03 -0.45009266353E+03  0.55345940390E+03  0.91187600000E+02 0.  0.
<mgrwt>
<rscale>  0 0.11369575E+04</rscale>
<asrwt>0</asrwt>
<pdfrwt beam="1">  1        2 0.28948002E+00 0.16526693E+04</pdfrwt>
<pdfrwt beam="2">  1       -2 0.84517646E-01 0.16526693E+04</pdfrwt>
<totfact> 0.89882915E+00</totfact>
</mgrwt>
</event>
