<event>
11    1  0.4197981E-017  0.3570929E+04  0.7818608E-02  0.8466297E-01
         -2   -1    0    0    0  501 -0.00000000000E+00  0.00000000000E+00  0.20028013376E+04  0.20028013376E+04  0.00000000000E+00 0.  1.
          2   -1    0    0  501    0  0.00000000000E+00 -0.00000000000E+00 -0.28855071475E+04  0.28855071475E+04  0.00000000000E+00 0. -1.
    9900016    2    1    2    0    0 -0.42185663634E+03  0.34638324025E+03 -0.24063728289E+03  0.23291559244E+04  0.22514698859E+04 0.  0.
         23    2    3    3    0    0 -0.48840796439E+03  0.73097695863E+03  0.71976959554E+03  0.11383159986E+04  0.69465015134E+02 0.  0.
        -15    1    4    4    0    0 -0.38048119771E+01  0.24334572547E+02  0.14782590709E+02  0.28725824676E+02  0.00000000000E+00 0.  1.
        -15    1    1    2    0    0 -0.35374482926E+03  0.19693781953E+02 -0.66813438420E+03  0.75625842449E+03  0.00000000000E+00 0. -1.
         15    1    4    4    0    0 -0.48460315242E+03  0.70664238608E+03  0.70498700483E+03  0.11095901739E+04  0.00000000000E+00 0. -1.
         15    1    1    2    0    0 -0.25859226216E+03  0.13380546036E+03 -0.46904392248E+03  0.55206526832E+03  0.00000000000E+00 0.  1.
        -16    1    1    2    0    0  0.10341937278E+04 -0.49988248256E+03  0.49510977972E+03  0.12508288679E+04  0.00000000000E+00 0.  1.
         16    1    3    3    0    0  0.73965386247E+02 -0.45602918853E+03 -0.96997060991E+03  0.10743725998E+04  0.00000000000E+00 0. -1.
    9900018    1    3    3    0    0 -0.74140581942E+01  0.71435470153E+02  0.95637314765E+01  0.11646732593E+03  0.91187600000E+02 0.  0.
<mgrwt>
<rscale>  0 0.23297138E+04</rscale>
<asrwt>0</asrwt>
<pdfrwt beam="1">  1        2 0.44392417E+00 0.35709291E+04</pdfrwt>
<pdfrwt beam="2">  1       -2 0.30812328E+00 0.35709291E+04</pdfrwt>
<totfact> 0.45587067E-02</totfact>
</mgrwt>
</event>
<event>
11    1  0.4197981E-017  0.4018117E+04  0.7818608E-02  0.8432907E-01
         -2   -1    0    0    0  501 -0.00000000000E+00  0.00000000000E+00  0.27275497121E+04  0.27275497121E+04  0.00000000000E+00 0.  1.
          2   -1    0    0  501    0  0.00000000000E+00 -0.00000000000E+00 -0.22730269956E+04  0.22730269956E+04  0.00000000000E+00 0. -1.
         23    2    1    2    0    0  0.85817350369E+02  0.50625112650E+03 -0.64694883556E+03  0.83422332083E+03  0.11717906162E+03 0.  0.
    9900016    2    1    2    0    0 -0.11468669905E+04  0.46833663119E+03  0.82891021675E+03  0.27000869316E+04  0.22513849508E+04 0.  0.
        -15    1    4    4    0    0 -0.21928445340E+03 -0.15579098217E+03 -0.53368473221E+03  0.59764194551E+03  0.00000000000E+00 0. -1.
        -15    1    3    3    0    0  0.10571889576E+03  0.27638156898E+03 -0.36820006119E+03  0.47237119054E+03  0.00000000000E+00 0.  1.
         15    1    4    4    0    0 -0.14965352804E+03 -0.42628170914E+02 -0.15904914651E+03  0.22250836033E+03  0.00000000000E+00 0.  1.
         15    1    3    3    0    0 -0.19901545392E+02  0.22986955752E+03 -0.27874877436E+03  0.36185213029E+03  0.00000000000E+00 0. -1.
        -16    1    1    2    0    0  0.10610496402E+04 -0.97458775769E+03  0.27256133531E+03  0.14662664553E+04  0.00000000000E+00 0.  1.
         16    1    4    4    0    0 -0.71931284536E+03  0.59490433312E+03  0.14671634115E+04  0.17389337569E+04  0.00000000000E+00 0. -1.
    9900018    1    4    4    0    0 -0.58616163743E+02  0.71851451145E+02  0.54480683993E+02  0.14100286879E+03  0.91187600000E+02 0.  0.
<mgrwt>
<rscale>  0 0.24177001E+04</rscale>
<asrwt>0</asrwt>
<pdfrwt beam="1">  1        2 0.34969646E+00 0.40181166E+04</pdfrwt>
<pdfrwt beam="2">  1       -2 0.41962303E+00 0.40181166E+04</pdfrwt>
<totfact> 0.19742596E-02</totfact>
</mgrwt>
</event>
<event>
11    1  0.4197981E-017  0.3008647E+04  0.7818608E-02  0.8663194E-01
         -2   -1    0    0    0  501 -0.00000000000E+00  0.00000000000E+00  0.14458604617E+04  0.14458604617E+04  0.00000000000E+00 0.  1.
          2   -1    0    0  501    0  0.00000000000E+00 -0.00000000000E+00 -0.29878659068E+04  0.29878659068E+04  0.00000000000E+00 0. -1.
         23    2    1    2    0    0 -0.23600158580E+03 -0.38309846026E+03 -0.13410381078E+04  0.14183747648E+04  0.10460682569E+03 0.  0.
    9900016    2    1    2    0    0 -0.14717809283E+03 -0.19378349261E+03 -0.38051737697E+03  0.21904613802E+04  0.21433884741E+04 0.  0.
        -15    1    3    3    0    0 -0.16451099396E+03 -0.22772980776E+03 -0.96910024567E+03  0.10089995137E+04  0.00000000000E+00 0.  1.
        -15    1    4    4    0    0  0.22407532195E+02 -0.10781351564E+03  0.18438110886E+03  0.21476090184E+03  0.00000000000E+00 0.  1.
         15    1    3    3    0    0 -0.71490591838E+02 -0.15536865249E+03 -0.37193786217E+03  0.40937525110E+03  0.00000000000E+00 0. -1.
         15    1    4    4    0    0  0.26407840762E+03 -0.16132230832E+03  0.63022349581E+03  0.70209967042E+03  0.00000000000E+00 0. -1.
        -16    1    1    2    0    0  0.32252804532E+03  0.59982247691E+03  0.20283352371E+03  0.71060029705E+03  0.00000000000E+00 0.  1.
         16    1    4    4    0    0 -0.43366403265E+03  0.75352331348E+02 -0.11951219816E+04  0.12736008080E+04  0.00000000000E+00 0. -1.
    9900018    1    1    2    0    0  0.60651633308E+02 -0.22940524040E+02 -0.23283483931E+02  0.11428992643E+03  0.91187600000E+02 0.  0.
<mgrwt>
<rscale>  0 0.18833399E+04</rscale>
<asrwt>0</asrwt>
<pdfrwt beam="1">  1        2 0.45967168E+00 0.30086471E+04</pdfrwt>
<pdfrwt beam="2">  1       -2 0.22244007E+00 0.30086471E+04</pdfrwt>
<totfact> 0.13954926E-01</totfact>
</mgrwt>
</event>
