<event>
11    1  0.1028175E-007  0.6739645E+04  0.7818608E-02  0.7604898E-01
         -1   -1    0    0    0  501 -0.00000000000E+00  0.00000000000E+00  0.23306522967E+04  0.23306522967E+04  0.00000000000E+00 0.  1.
          1   -1    0    0  501    0  0.00000000000E+00 -0.00000000000E+00 -0.48723288672E+04  0.48723288672E+04  0.00000000000E+00 0. -1.
    9900016    2    1    2    0    0 -0.91625919430E+03 -0.86293007599E+03  0.11011817283E+04  0.27665385501E+04  0.22038500682E+04 0.  0.
         23    2    3    3    0    0 -0.32189143753E+03 -0.91802147571E+02  0.87474083302E+03  0.94101914540E+03  0.91125052567E+02 0.  0.
        -15    1    4    4    0    0 -0.99107792075E+02  0.66415803941E+01  0.19272280268E+03  0.21681453760E+03  0.00000000000E+00 0.  1.
        -15    1    1    2    0    0  0.38630707964E+03  0.95240150716E+03 -0.79484488314E+03  0.12992613974E+04  0.00000000000E+00 0.  1.
         15    1    1    2    0    0  0.13437333440E+03 -0.59676598235E+03 -0.18617174597E+04  0.19596371426E+04  0.00000000000E+00 0. -1.
         15    1    4    4    0    0 -0.22278364546E+03 -0.98443727965E+02  0.68201803034E+03  0.72420460780E+03  0.00000000000E+00 0. -1.
        -16    1    3    3    0    0 -0.43916046079E+03 -0.20790237405E+03 -0.62329208949E+03  0.79030268649E+03  0.00000000000E+00 0.  1.
         16    1    1    2    0    0  0.39557878026E+03  0.50729455118E+03 -0.98629595598E+03  0.11775440738E+04  0.00000000000E+00 0. -1.
    9900018    1    3    3    0    0 -0.15520729598E+03 -0.56322555437E+03  0.84973298476E+03  0.10352167182E+04  0.91187600000E+02 0.  0.
<mgrwt>
<rscale>  0 0.67396452E+04</rscale>
<asrwt>0</asrwt>
<pdfrwt beam="1">  1        1 0.74958906E+00 0.67396452E+04</pdfrwt>
<pdfrwt beam="2">  1       -1 0.35856189E+00 0.67396452E+04</pdfrwt>
<totfact> 0.10549926E-04</totfact>
</mgrwt>
</event>
<event>
11    1  0.1028175E-007  0.4117223E+04  0.7818608E-02  0.8323186E-01
          2   -1    0    0  501    0  0.00000000000E+00  0.00000000000E+00  0.32214723177E+04  0.32214723177E+04  0.00000000000E+00 0. -1.
         -2   -1    0    0    0  501 -0.00000000000E+00 -0.00000000000E+00 -0.19557055516E+04  0.19557055516E+04  0.00000000000E+00 0.  1.
    9900016    2    1    2    0    0 -0.27474801620E+03 -0.62703257690E+02 -0.56989654510E+03  0.22953787446E+04  0.22055755117E+04 0.  0.
         23    2    3    3    0    0  0.86089300304E+01  0.87442080796E+03  0.28543335088E+03  0.92450072936E+03  0.92431259429E+02 0.  0.
        -15    1    4    4    0    0  0.30016711242E+02  0.82211741582E+03  0.26278922253E+03  0.86361810068E+03  0.00000000000E+00 0.  1.
        -15    1    1    2    0    0  0.65878943052E+03  0.11408963996E+03 -0.10880352263E+03  0.67739070428E+03  0.00000000000E+00 0.  1.
         15    1    4    4    0    0 -0.21407781212E+02  0.52303392139E+02  0.22644128348E+02  0.60882628674E+02  0.00000000000E+00 0. -1.
         15    1    1    2    0    0 -0.51420169924E+03 -0.27268702838E+02  0.19967542585E+04  0.20620801484E+04  0.00000000000E+00 0. -1.
        -16    1    3    3    0    0 -0.27723723336E+03 -0.49000211139E+03 -0.67798503577E+03  0.88126401348E+03  0.00000000000E+00 0.  1.
         16    1    1    2    0    0  0.13016028491E+03 -0.24117679429E+02 -0.52287424681E+02  0.14232827200E+03  0.00000000000E+00 0. -1.
    9900018    1    3    3    0    0 -0.61197128644E+01 -0.44712195426E+03 -0.17734486021E+03  0.48961400174E+03  0.91187600000E+02 0.  0.
<mgrwt>
<rscale>  0 0.27367270E+04</rscale>
<asrwt>0</asrwt>
<pdfrwt beam="1">  1        2 0.49561113E+00 0.41172230E+04</pdfrwt>
<pdfrwt beam="2">  1       -2 0.30087778E+00 0.41172230E+04</pdfrwt>
<totfact> 0.29826425E-02</totfact>
</mgrwt>
</event>
<event>
11    1  0.1028175E-007  0.3543628E+04  0.7818608E-02  0.8363437E-01
         -2   -1    0    0    0  501 -0.00000000000E+00  0.00000000000E+00  0.12462885889E+04  0.12462885889E+04  0.00000000000E+00 0.  1.
          2   -1    0    0  501    0  0.00000000000E+00 -0.00000000000E+00 -0.42316747726E+04  0.42316747726E+04  0.00000000000E+00 0. -1.
    9900016    2    1    2    0    0  0.37756188615E+02  0.54359774598E+03 -0.89908151639E+03  0.24450708852E+04  0.22075099142E+04 0.  0.
         23    2    3    3    0    0  0.25202743467E+03 -0.27241513387E+03 -0.13812078129E+04  0.14333226117E+04  0.94608951693E+02 0.  0.
        -15    1    1    2    0    0 -0.11413127116E+03  0.19144117299E+02 -0.10443822808E+03  0.15588389194E+03  0.00000000000E+00 0.  1.
        -15    1    4    4    0    0  0.13508301363E+03 -0.91931440962E+02 -0.48965576174E+03  0.51619916255E+03  0.00000000000E+00 0.  1.
         15    1    4    4    0    0  0.11694442104E+03 -0.18048369291E+03 -0.89155205114E+03  0.91712344911E+03  0.00000000000E+00 0. -1.
         15    1    1    2    0    0  0.10002243171E+04 -0.44741781491E+03 -0.14050088852E+04  0.17817635514E+04  0.00000000000E+00 0. -1.
        -16    1    3    3    0    0 -0.15696690558E+03  0.72538068539E+03  0.44803149535E+03  0.86691866343E+03  0.00000000000E+00 0.  1.
         16    1    1    2    0    0 -0.92384923459E+03 -0.11532404838E+03 -0.57685755404E+03  0.10952450329E+04  0.00000000000E+00 0. -1.
    9900018    1    3    3    0    0 -0.57304340480E+02  0.90632194469E+02  0.34094801145E+02  0.14482961013E+03  0.91187600000E+02 0.  0.
<mgrwt>
<rscale>  0 0.26140711E+04</rscale>
<asrwt>0</asrwt>
<pdfrwt beam="1">  1        2 0.65102690E+00 0.35436276E+04</pdfrwt>
<pdfrwt beam="2">  1       -2 0.19173670E+00 0.35436276E+04</pdfrwt>
<totfact> 0.26040697E-02</totfact>
</mgrwt>
</event>
<event>
12    1  0.1028175E-007  0.3682883E+04  0.7818608E-02  0.8460121E-01
          1   -1    0    0  501    0  0.00000000000E+00  0.00000000000E+00  0.29295635854E+04  0.29295635854E+04  0.00000000000E+00 0. -1.
         -1   -1    0    0    0  501 -0.00000000000E+00 -0.00000000000E+00 -0.22198297353E+04  0.22198297353E+04  0.00000000000E+00 0.  1.
        -24    2    1    2    0    0 -0.38312418781E+03 -0.46591205346E+03 -0.93635703064E+03  0.11153825969E+04  0.58784894847E+02 0.  0.
    9900016    2    1    2    0    0  0.26688974169E+03  0.12691776509E+04  0.44112632303E+03  0.25811908272E+04  0.21876726468E+04 0.  0.
         23    2    4    4    0    0 -0.16145632278E+02 -0.29991578577E+03  0.21157123334E+03  0.37836583167E+03  0.90488429110E+02 0.  0.
        -15    1    5    5    0    0 -0.51701460993E+02 -0.18946379951E+03  0.14914913768E+03  0.24660705112E+03  0.00000000000E+00 0. -1.
        -15    1    1    2    0    0  0.11623444612E+03 -0.80326559747E+03  0.12049645577E+04  0.14528198965E+04  0.00000000000E+00 0.  1.
         15    1    5    5    0    0  0.35555828714E+02 -0.11045198626E+03  0.62422095656E+02  0.13175878054E+03  0.00000000000E+00 0.  1.
         15    1    3    3    0    0 -0.23883691044E+03 -0.24482424106E+03 -0.53421244564E+03  0.63432240689E+03  0.00000000000E+00 0. -1.
        -16    1    3    3    0    0 -0.14428727737E+03 -0.22108781240E+03 -0.40214458500E+03  0.48106019005E+03  0.00000000000E+00 0.  1.
         16    1    4    4    0    0  0.25928187436E+03  0.10221800796E+04 -0.59354063853E+03  0.12101114391E+04  0.00000000000E+00 0. -1.
    9900018    1    4    4    0    0  0.23753499615E+02  0.54691335713E+03  0.82309572822E+03  0.99271355645E+03  0.91187600000E+02 0.  0.
<mgrwt>
<rscale>  0 0.23456902E+04</rscale>
<asrwt>0</asrwt>
<pdfrwt beam="1">  1        1 0.45070209E+00 0.36828830E+04</pdfrwt>
<pdfrwt beam="2">  1       -1 0.34151227E+00 0.36828830E+04</pdfrwt>
<totfact> 0.91480021E-03</totfact>
</mgrwt>
</event>
