<event>
11    1  0.5130258E-011  0.4283628E+04  0.7818608E-02  0.8033225E-01
          2   -1    0    0  501    0  0.00000000000E+00  0.00000000000E+00  0.38945751584E+04  0.38945751584E+04  0.00000000000E+00 0. -1.
         -2   -1    0    0    0  501 -0.00000000000E+00 -0.00000000000E+00 -0.40169981241E+04  0.40169981241E+04  0.00000000000E+00 0.  1.
    9900016    2    1    2    0    0  0.10191586741E+04  0.11120267423E+04  0.33277241901E+03  0.23685566800E+04  0.17955599085E+04 0.  0.
         24    2    3    3    0    0  0.46707514304E+03  0.53856163189E+03  0.55146038442E+03  0.90366175902E+03  0.65484338027E+02 0.  0.
        -15    1    1    2    0    0  0.69601294512E+02 -0.73454342464E+03  0.52522727877E+02  0.73970062852E+03  0.00000000000E+00 0.  1.
        -15    1    4    4    0    0  0.38241964686E+03  0.47524982395E+03  0.46291181390E+03  0.76576401647E+03  0.00000000000E+00 0.  1.
         15    1    1    2    0    0 -0.17560281848E+04 -0.88345473187E+03  0.16004809325E+04  0.25348898328E+04  0.00000000000E+00 0. -1.
         15    1    3    3    0    0  0.81524570886E+03  0.55287410641E+03 -0.46797225250E+03  0.10905472812E+04  0.00000000000E+00 0. -1.
        -16    1    1    2    0    0  0.66726821618E+03  0.50597141424E+03 -0.21081990451E+04  0.22684261412E+04  0.00000000000E+00 0.  1.
         16    1    4    4    0    0  0.84655496176E+02  0.63311807948E+02  0.88548570522E+02  0.13789774255E+03  0.00000000000E+00 0. -1.
    9900018    1    3    3    0    0 -0.26316217782E+03  0.20591003968E+02  0.24928428708E+03  0.37434763984E+03  0.91187600000E+02 0.  0.
<mgrwt>
<rscale>  0 0.38608303E+04</rscale>
<asrwt>0</asrwt>
<pdfrwt beam="1">  1        2 0.59916541E+00 0.42836281E+04</pdfrwt>
<pdfrwt beam="2">  1       -2 0.61799971E+00 0.42836281E+04</pdfrwt>
<totfact> 0.12597657E-04</totfact>
</mgrwt>
</event>
<event>
11    1  0.5130258E-011  0.3152191E+04  0.7818608E-02  0.8236669E-01
         -2   -1    0    0    0  501 -0.00000000000E+00  0.00000000000E+00  0.24456244653E+04  0.24456244653E+04  0.00000000000E+00 0.  1.
          2   -1    0    0  501    0  0.00000000000E+00 -0.00000000000E+00 -0.34861094112E+04  0.34861094112E+04  0.00000000000E+00 0. -1.
    9900016    2    1    2    0    0  0.10806825135E+04  0.29342006603E+03 -0.86821624007E+02  0.21594914778E+04  0.18444227873E+04 0.  0.
         24    2    3    3    0    0 -0.25761457429E+03  0.51739934342E+03  0.46247811878E+02  0.58818831567E+03  0.98789094194E+02 0.  0.
        -15    1    1    2    0    0 -0.10043050043E+04  0.35626879218E+03 -0.23847865411E+03  0.10919835449E+04  0.00000000000E+00 0.  1.
        -15    1    4    4    0    0 -0.92932968475E+02  0.20887514552E+03 -0.29035576328E+02  0.23045265834E+03  0.00000000000E+00 0.  1.
         15    1    1    2    0    0 -0.52026418286E+03 -0.15197394782E+04 -0.44872819729E+03  0.16678248999E+04  0.00000000000E+00 0. -1.
         15    1    3    3    0    0  0.12977281294E+04 -0.22945929818E+03  0.96025721314E+02  0.13213518860E+04  0.00000000000E+00 0. -1.
        -16    1    1    2    0    0  0.44388667368E+03  0.87005062000E+03 -0.26645647040E+03  0.10124339539E+04  0.00000000000E+00 0.  1.
         16    1    4    4    0    0 -0.16468160582E+03  0.30852419790E+03  0.75283388206E+02  0.35773565733E+03  0.00000000000E+00 0. -1.
    9900018    1    3    3    0    0  0.40568958346E+02  0.54800207962E+01 -0.22909515720E+03  0.24995127616E+03  0.91187600000E+02 0.  0.
<mgrwt>
<rscale>  0 0.30248527E+04</rscale>
<asrwt>0</asrwt>
<pdfrwt beam="1">  1        2 0.53632452E+00 0.31521906E+04</pdfrwt>
<pdfrwt beam="2">  1       -2 0.37624992E+00 0.31521906E+04</pdfrwt>
<totfact> 0.69293997E-03</totfact>
</mgrwt>
</event>
<event>
11    1  0.5130258E-011  0.2308282E+04  0.7818608E-02  0.8631591E-01
         -2   -1    0    0    0  501 -0.00000000000E+00  0.00000000000E+00  0.26306052390E+04  0.26306052390E+04  0.00000000000E+00 0.  1.
          2   -1    0    0  501    0  0.00000000000E+00 -0.00000000000E+00 -0.18799023333E+04  0.18799023333E+04  0.00000000000E+00 0. -1.
    9900016    2    1    2    0    0 -0.53748632218E+02  0.99864618203E+02  0.11349405742E+04  0.21674473216E+04  0.18430615636E+04 0.  0.
         24    2    3    3    0    0 -0.19718973741E+02  0.36177105957E+03 -0.28601229677E+03  0.46557576713E+03  0.60750502603E+02 0.  0.
        -15    1    1    2    0    0  0.73694005641E+03  0.50363772209E+02 -0.54013851352E+03  0.91507746670E+03  0.00000000000E+00 0.  1.
        -15    1    4    4    0    0  0.19247694030E+02  0.18736891026E+03 -0.13722194247E+03  0.23303957551E+03  0.00000000000E+00 0.  1.
         15    1    3    3    0    0 -0.24999665364E+03 -0.45578627491E+03  0.46079815065E+03  0.69467574513E+03  0.00000000000E+00 0. -1.
         15    1    1    2    0    0 -0.40426927435E+03  0.80547257174E+02 -0.51860092298E+03  0.66247145156E+03  0.00000000000E+00 0. -1.
        -16    1    1    2    0    0 -0.27892214984E+03 -0.23077564759E+03  0.67450176791E+03  0.76551133245E+03  0.00000000000E+00 0.  1.
         16    1    4    4    0    0 -0.38966667771E+02  0.17440214931E+03 -0.14879035430E+03  0.23253619162E+03  0.00000000000E+00 0. -1.
    9900018    1    3    3    0    0  0.21596699516E+03  0.19387983354E+03  0.96015472036E+03  0.10071958093E+04  0.91187600000E+02 0.  0.
<mgrwt>
<rscale>  0 0.19474518E+04</rscale>
<asrwt>0</asrwt>
<pdfrwt beam="1">  1        2 0.28921574E+00 0.23082818E+04</pdfrwt>
<pdfrwt beam="2">  1       -2 0.40470850E+00 0.23082818E+04</pdfrwt>
<totfact> 0.46466093E-02</totfact>
</mgrwt>
</event>
