<event>
11    1  0.7587343E-012  0.2512447E+04  0.7818608E-02  0.9133983E-01
         -2   -1    0    0    0  501 -0.00000000000E+00  0.00000000000E+00  0.10234542798E+04  0.10234542798E+04  0.00000000000E+00 0.  1.
          2   -1    0    0  501    0  0.00000000000E+00 -0.00000000000E+00 -0.16979629297E+04  0.16979629297E+04  0.00000000000E+00 0. -1.
         23    2    1    2    0    0 -0.26608698825E-01 -0.78519628307E+02 -0.60734532551E+02  0.13508632889E+03  0.91620412966E+02 0.  0.
    9900016    2    1    2    0    0 -0.26796204071E+03 -0.11720208787E+03 -0.69747780512E+03  0.22440865034E+04  0.21127964789E+04 0.  0.
        -15    1    3    3    0    0  0.37540694161E+02 -0.90906521905E+01 -0.34811403556E+02  0.51997860465E+02  0.00000000000E+00 0. -1.
        -15    1    4    4    0    0  0.99713192234E+02  0.53498233334E+03  0.12602380694E+03  0.55859718726E+03  0.00000000000E+00 0.  1.
         15    1    4    4    0    0  0.17195490433E+03 -0.46370876896E+03 -0.20616931842E+03  0.53581722573E+03  0.00000000000E+00 0. -1.
         15    1    3    3    0    0 -0.37567302860E+02 -0.69428976116E+02 -0.25923128995E+02  0.83088468427E+02  0.00000000000E+00 0.  1.
        -16    1    1    2    0    0  0.26798864941E+03  0.19572171618E+03  0.83703687823E+02  0.34224437724E+03  0.00000000000E+00 0.  1.
         16    1    4    4    0    0  0.11444097479E+02  0.18639505875E+03  0.58914669976E+02  0.19581885413E+03  0.00000000000E+00 0. -1.
    9900018    1    4    4    0    0 -0.55107423475E+03 -0.37487071100E+03 -0.67624696362E+03  0.95385323628E+03  0.91187600000E+02 0.  0.
<mgrwt>
<rscale>  0 0.11761601E+04</rscale>
<asrwt>0</asrwt>
<pdfrwt beam="1">  1        2 0.26122506E+00 0.25124468E+04</pdfrwt>
<pdfrwt beam="2">  1       -2 0.15745451E+00 0.25124468E+04</pdfrwt>
<totfact> 0.22952900E+00</totfact>
</mgrwt>
</event>
<event>
11    1  0.7587342E-012  0.2447556E+04  0.7818608E-02  0.9108650E-01
          2   -1    0    0  501    0  0.00000000000E+00  0.00000000000E+00  0.14310557117E+04  0.14310557117E+04  0.00000000000E+00 0.  1.
         -2   -1    0    0    0  501 -0.00000000000E+00 -0.00000000000E+00 -0.11733977513E+04  0.11733977513E+04  0.00000000000E+00 0. -1.
         23    2    1    2    0    0 -0.11014160771E+03  0.15703256285E+02  0.24950243946E+02  0.14586008304E+03  0.90966384695E+02 0.  0.
    9900016    2    1    2    0    0  0.11151317812E+02 -0.36233978796E+03  0.23250183688E+03  0.20980992677E+04  0.20534237165E+04 0.  0.
        -15    1    3    3    0    0 -0.38073734815E+02 -0.79177037846E+00  0.54294136301E+02  0.66318092703E+02  0.00000000000E+00 0.  1.
        -15    1    4    4    0    0 -0.11272439493E+03  0.20107342516E+03  0.17106608612E+02  0.23114918900E+03  0.00000000000E+00 0.  1.
         15    1    3    3    0    0 -0.72067872894E+02  0.16495026664E+02 -0.29343892355E+02  0.79541990336E+02  0.00000000000E+00 0. -1.
         15    1    4    4    0    0 -0.17695863620E+03 -0.23178822299E+03  0.25632617804E+03  0.38825667901E+03  0.00000000000E+00 0. -1.
        -16    1    1    2    0    0  0.98990289898E+02  0.34663653168E+03  0.20587961963E+00  0.36049411226E+03  0.00000000000E+00 0.  1.
         16    1    4    4    0    0 -0.26853019605E+03  0.43471227474E+03  0.59455649241E+02  0.51441053860E+03  0.00000000000E+00 0. -1.
    9900018    1    4    4    0    0  0.56936454498E+03 -0.76633726487E+03 -0.10038659902E+03  0.96428286113E+03  0.91187600000E+02 0.  0.
<mgrwt>
<rscale>  0 0.12048179E+04</rscale>
<asrwt>0</asrwt>
<pdfrwt beam="1">  1        2 0.22016242E+00 0.24475556E+04</pdfrwt>
<pdfrwt beam="2">  1       -2 0.18052273E+00 0.24475556E+04</pdfrwt>
<totfact> 0.22263156E+00</totfact>
</mgrwt>
</event>
<event>
12    1  0.7587342E-012  0.4078799E+04  0.7818608E-02  0.8707603E-01
          1   -1    0    0  501    0  0.00000000000E+00  0.00000000000E+00  0.39762817207E+04  0.39762817207E+04  0.00000000000E+00 0. -1.
         -1   -1    0    0    0  501 -0.00000000000E+00 -0.00000000000E+00 -0.11810350904E+04  0.11810350904E+04  0.00000000000E+00 0.  1.
         23    2    1    2    0    0 -0.39012213976E+02 -0.11738425848E+03 -0.73687497308E+02  0.17059583448E+03  0.91499041009E+02 0.  0.
    9900016    2    1    2    0    0  0.13682298676E+04  0.51380810845E+03  0.24932506939E+04  0.35496720973E+04  0.20610243164E+04 0.  0.
         24    2    4    4    0    0  0.81856699046E+03 -0.47657516102E+01  0.18966019226E+04  0.20677897984E+04  0.92634590168E+02 0.  0.
        -15    1    5    5    0    0  0.45938126339E+03  0.49495364402E+01  0.94900800403E+03  0.10543584944E+04  0.00000000000E+00 0.  1.
        -15    1    3    3    0    0 -0.50427261923E+02 -0.57549324514E+02 -0.20266436087E+01  0.76543718105E+02  0.00000000000E+00 0. -1.
         15    1    4    4    0    0  0.43680590406E+03  0.66733849035E+03 -0.53455705286E+02  0.79937323633E+03  0.00000000000E+00 0. -1.
         15    1    3    3    0    0  0.11415047947E+02 -0.59834933961E+02 -0.71660853699E+02  0.94052116376E+02  0.00000000000E+00 0.  1.
        -16    1    1    2    0    0 -0.13292176536E+04 -0.39642384998E+03  0.37568343365E+03  0.14370488794E+04  0.00000000000E+00 0.  1.
         16    1    5    5    0    0  0.35918572707E+03 -0.97152880504E+01  0.94759391859E+03  0.10134313040E+04  0.00000000000E+00 0. -1.
    9900018    1    4    4    0    0  0.11285697303E+03 -0.14876463029E+03  0.65010447658E+03  0.68250906254E+03  0.91187600000E+02 0.  0.
<mgrwt>
<rscale>  0 0.17975506E+04</rscale>
<asrwt>0</asrwt>
<pdfrwt beam="1">  1        1 0.61173565E+00 0.40787992E+04</pdfrwt>
<pdfrwt beam="2">  1       -1 0.18169771E+00 0.40787992E+04</pdfrwt>
<totfact> 0.15662216E-02</totfact>
</mgrwt>
</event>
