<event>
11    1  0.9500546E-009  0.2586488E+04  0.7818608E-02  0.8372806E-01
          1   -1    0    0  501    0  0.00000000000E+00  0.00000000000E+00  0.33777261318E+04  0.33777261318E+04  0.00000000000E+00 0. -1.
         -1   -1    0    0    0  501 -0.00000000000E+00 -0.00000000000E+00 -0.49514950191E+03  0.49514950191E+03  0.00000000000E+00 0.  1.
    9900016    2    1    2    0    0 -0.27563799176E+03  0.13855956907E+03  0.22327456690E+04  0.31535319506E+04  0.22055465274E+04 0.  0.
         24    2    3    3    0    0  0.27473083577E+02 -0.34588878955E+03  0.98305799392E+03  0.10455140167E+04  0.79389637449E+02 0.  0.
        -15    1    3    3    0    0 -0.15190362734E+03  0.40824796814E+03  0.20731613225E+03  0.48241174755E+03  0.00000000000E+00 0.  1.
        -15    1    4    4    0    0 -0.87418686862E+01 -0.10178316314E+03  0.39008136873E+03  0.40323653951E+03  0.00000000000E+00 0.  1.
         15    1    3    3    0    0  0.43056494522E+03 -0.14521930062E+03  0.10807770379E+03  0.46707130867E+03  0.00000000000E+00 0. -1.
         15    1    3    3    0    0 -0.18891115366E+03  0.20778560764E+03  0.35791811332E+03  0.45493698307E+03  0.00000000000E+00 0. -1.
        -16    1    1    2    0    0  0.27563799176E+03 -0.13855956907E+03  0.64983096092E+03  0.71934368313E+03  0.00000000000E+00 0.  1.
         16    1    4    4    0    0  0.36214952263E+02 -0.24410562641E+03  0.59297662520E+03  0.64227747714E+03  0.00000000000E+00 0. -1.
    9900018    1    3    3    0    0 -0.39286123956E+03  0.13634083460E+02  0.57637572568E+03  0.70359789463E+03  0.91187600000E+02 0.  0.
<mgrwt>
<rscale>  0 0.25864875E+04</rscale>
<asrwt>0</asrwt>
<pdfrwt beam="1">  1        1 0.51965016E+00 0.25864875E+04</pdfrwt>
<pdfrwt beam="2">  1       -1 0.76176849E-01 0.25864875E+04</pdfrwt>
<totfact> 0.47512170E-01</totfact>
</mgrwt>
</event>
<event>
11    1  0.9500546E-009  0.3101714E+04  0.7818608E-02  0.8215268E-01
         -1   -1    0    0    0  501 -0.00000000000E+00  0.00000000000E+00  0.93440250412E+03  0.93440250412E+03  0.00000000000E+00 0.  1.
          1   -1    0    0  501    0  0.00000000000E+00 -0.00000000000E+00 -0.25740060215E+04  0.25740060215E+04  0.00000000000E+00 0. -1.
    9900016    2    1    2    0    0  0.46707827738E+03 -0.17701566179E+03 -0.19073742701E+04  0.29416653406E+04  0.21830762030E+04 0.  0.
         24    2    3    3    0    0 -0.10628753169E+03 -0.86371728420E+03 -0.26176895472E+03  0.91236493037E+03  0.81130722225E+02 0.  0.
        -15    1    4    4    0    0 -0.26196968259E+02 -0.48587297054E+03 -0.12226893733E+03  0.50170560859E+03  0.00000000000E+00 0.  1.
        -15    1    3    3    0    0  0.25522212050E+02  0.23478289035E+03 -0.18276650702E+03  0.29862683234E+03  0.00000000000E+00 0.  1.
         15    1    3    3    0    0  0.10938360176E+03  0.38024988445E+02 -0.20967224841E+03  0.23952687497E+03  0.00000000000E+00 0. -1.
         15    1    3    3    0    0  0.22710297696E+03  0.50841621432E+03 -0.81082242057E+03  0.98361364714E+03  0.00000000000E+00 0. -1.
        -16    1    1    2    0    0 -0.46707827738E+03  0.17701566179E+03  0.26777075275E+03  0.56674318501E+03  0.00000000000E+00 0.  1.
         16    1    4    4    0    0 -0.80090563435E+02 -0.37784431366E+03 -0.13950001739E+03  0.41065932179E+03  0.00000000000E+00 0. -1.
    9900018    1    3    3    0    0  0.21135701830E+03 -0.94522470702E+02 -0.44234413941E+03  0.50753305579E+03  0.91187600000E+02 0.  0.
<mgrwt>
<rscale>  0 0.31017142E+04</rscale>
<asrwt>0</asrwt>
<pdfrwt beam="1">  1        1 0.39600093E+00 0.31017142E+04</pdfrwt>
<pdfrwt beam="2">  1       -1 0.14375423E+00 0.31017142E+04</pdfrwt>
<totfact> 0.39666681E-01</totfact>
</mgrwt>
</event>
<event>
11    1  0.9500546E-009  0.5410409E+04  0.7818608E-02  0.7768139E-01
         -1   -1    0    0    0  501 -0.00000000000E+00  0.00000000000E+00  0.58129289514E+04  0.58129289514E+04  0.00000000000E+00 0.  1.
          1   -1    0    0  501    0  0.00000000000E+00 -0.00000000000E+00 -0.12589406457E+04  0.12589406457E+04  0.00000000000E+00 0. -1.
    9900016    2    1    2    0    0  0.12404165783E+04  0.12593544536E+04  0.81825434104E+03  0.29390358015E+04  0.22008599112E+04 0.  0.
         24    2    3    3    0    0 -0.32979659346E+03  0.28575260976E+03  0.56693262147E+03  0.71966250235E+03  0.77981875791E+02 0.  0.
        -15    1    4    4    0    0 -0.28817586291E+02  0.56479555809E+02  0.10371251055E+03  0.12155936142E+03  0.00000000000E+00 0.  1.
        -15    1    3    3    0    0 -0.21302252208E+01  0.16014758137E+02  0.18182071550E+02  0.24322788975E+02  0.00000000000E+00 0. -1.
         15    1    3    3    0    0 -0.41921573839E+02  0.99940274396E+01  0.92625869128E+02  0.10216090529E+03  0.00000000000E+00 0.  1.
         15    1    3    3    0    0  0.48554072948E+03  0.19759255993E+02 -0.29129772018E+03  0.56656384456E+03  0.00000000000E+00 0. -1.
        -16    1    1    2    0    0 -0.12404165783E+04 -0.12593544536E+04  0.37357339647E+04  0.41328337956E+04  0.00000000000E+00 0.  1.
         16    1    4    4    0    0 -0.30097900717E+03  0.22927305395E+03  0.46322011092E+03  0.59810314093E+03  0.00000000000E+00 0. -1.
    9900018    1    3    3    0    0  0.11287242413E+04  0.92783380222E+03  0.43181149907E+03  0.15263257603E+04  0.91187600000E+02 0.  0.
<mgrwt>
<rscale>  0 0.54104094E+04</rscale>
<asrwt>0</asrwt>
<pdfrwt beam="1">  1        1 0.19368318E+00 0.54104094E+04</pdfrwt>
<pdfrwt beam="2">  1       -1 0.89429675E+00 0.54104094E+04</pdfrwt>
<totfact> 0.63832913E-05</totfact>
</mgrwt>
</event>
<event>
11    1  0.9500546E-009  0.2310291E+04  0.7818608E-02  0.8473875E-01
          2   -1    0    0  501    0  0.00000000000E+00  0.00000000000E+00  0.63408007032E+03  0.63408007032E+03  0.00000000000E+00 0. -1.
         -2   -1    0    0    0  501 -0.00000000000E+00 -0.00000000000E+00 -0.21044049856E+04  0.21044049856E+04  0.00000000000E+00 0.  1.
    9900016    2    1    2    0    0 -0.14260203180E+02 -0.33076919310E+02 -0.15377656065E+04  0.26620279908E+04  0.21726418313E+04 0.  0.
        -24    2    3    3    0    0 -0.20415308450E+03  0.26224670940E+03 -0.72420536671E+02  0.34952277956E+03  0.80433953014E+02 0.  0.
        -15    1    3    3    0    0  0.58770638071E+03 -0.90483471348E+02 -0.15283688876E+04  0.16399687512E+04  0.00000000000E+00 0.  1.
        -15    1    3    3    0    0 -0.30710199154E+03 -0.30263953941E+03  0.10076751410E+03  0.44278258312E+03  0.00000000000E+00 0.  1.
         15    1    4    4    0    0 -0.15103479615E+03  0.13189104172E+03 -0.31849581856E+02  0.20302992981E+03  0.00000000000E+00 0. -1.
         15    1    3    3    0    0 -0.32584103127E+02 -0.71621299627E+01  0.46403287827E+02  0.57151421709E+02  0.00000000000E+00 0. -1.
        -16    1    4    4    0    0 -0.53118288351E+02  0.13035566768E+03 -0.40570954815E+02  0.14649284975E+03  0.00000000000E+00 0.  1.
         16    1    1    2    0    0  0.14260203180E+02  0.33076919310E+02  0.67440691196E+02  0.76457065172E+02  0.00000000000E+00 0. -1.
    9900018    1    3    3    0    0 -0.58127404729E+02  0.10496151201E+03 -0.84146984183E+02  0.17260245515E+03  0.91187600000E+02 0.  0.
<mgrwt>
<rscale>  0 0.23102911E+04</rscale>
<asrwt>0</asrwt>
<pdfrwt beam="1">  1        2 0.97550781E-01 0.23102911E+04</pdfrwt>
<pdfrwt beam="2">  1       -2 0.32375461E+00 0.23102911E+04</pdfrwt>
<totfact> 0.95385558E-01</totfact>
</mgrwt>
</event>
<event>
11    1  0.9500546E-009  0.2480113E+04  0.7818608E-02  0.8410105E-01
         -1   -1    0    0    0  501 -0.00000000000E+00  0.00000000000E+00  0.90569086482E+03  0.90569086482E+03  0.00000000000E+00 0.  1.
          1   -1    0    0  501    0  0.00000000000E+00 -0.00000000000E+00 -0.16978638652E+04  0.16978638652E+04  0.00000000000E+00 0. -1.
    9900016    2    1    2    0    0  0.18101386124E+03 -0.16823480911E+03 -0.79255869032E+03  0.23564330642E+04  0.22053477140E+04 0.  0.
         24    2    3    3    0    0 -0.22526192695E+03  0.37293957297E+03 -0.42569004626E+03  0.61433141631E+03  0.79776016150E+02 0.  0.
        -15    1    3    3    0    0  0.46993111435E+03  0.20684312710E+02 -0.34467186453E+03  0.58314816919E+03  0.00000000000E+00 0.  1.
        -15    1    4    4    0    0 -0.18979402908E+03  0.34684054524E+03 -0.35677735215E+03  0.53255067018E+03  0.00000000000E+00 0.  1.
         15    1    3    3    0    0 -0.24311947908E+03 -0.32574374235E+03  0.34808583913E+03  0.53514467034E+03  0.00000000000E+00 0. -1.
         15    1    3    3    0    0  0.23936538818E+03 -0.27560566745E+03 -0.35057090686E+03  0.50611681826E+03  0.00000000000E+00 0. -1.
        -16    1    1    2    0    0 -0.18101386124E+03  0.16823480911E+03  0.38568996912E+00  0.24712166581E+03  0.00000000000E+00 0.  1.
         16    1    4    4    0    0 -0.35467897870E+02  0.26099027727E+02 -0.68912694107E+02  0.81780746124E+02  0.00000000000E+00 0. -1.
    9900018    1    3    3    0    0 -0.59901235254E+02  0.39490715010E+02 -0.19711711799E+02  0.11769199010E+03  0.91187600000E+02 0.  0.
<mgrwt>
<rscale>  0 0.24801127E+04</rscale>
<asrwt>0</asrwt>
<pdfrwt beam="1">  1        1 0.26120983E+00 0.24801127E+04</pdfrwt>
<pdfrwt beam="2">  1       -1 0.13933706E+00 0.24801127E+04</pdfrwt>
<totfact> 0.18060624E+00</totfact>
</mgrwt>
</event>
<event>
11    1  0.9500546E-009  0.3207242E+04  0.7818608E-02  0.8186907E-01
          1   -1    0    0  501    0  0.00000000000E+00  0.00000000000E+00  0.14884511705E+04  0.14884511705E+04  0.00000000000E+00 0. -1.
         -1   -1    0    0    0  501 -0.00000000000E+00 -0.00000000000E+00 -0.17277021789E+04  0.17277021789E+04  0.00000000000E+00 0.  1.
    9900016    2    1    2    0    0  0.81370205777E+03  0.23652401716E+03 -0.27197200873E+03  0.23681407827E+04  0.21945540193E+04 0.  0.
        -24    2    3    3    0    0 -0.33679651032E+03  0.15146096104E+03 -0.41617797537E+03  0.56181089776E+03  0.77814301884E+02 0.  0.
        -15    1    3    3    0    0  0.53206585912E+03  0.29854938750E+03  0.12795813519E+03  0.62337717281E+03  0.00000000000E+00 0.  1.
        -15    1    3    3    0    0 -0.35342373806E+02 -0.64211223868E+02  0.15653128813E+03  0.17284157144E+03  0.00000000000E+00 0.  1.
         15    1    3    3    0    0  0.32191259856E+03 -0.70263963468E+02 -0.43809941110E+03  0.54817500826E+03  0.00000000000E+00 0. -1.
         15    1    4    4    0    0 -0.23929193635E+03  0.79572925340E+02 -0.24092985779E+03  0.34876880254E+03  0.00000000000E+00 0. -1.
        -16    1    4    4    0    0 -0.97504573968E+02  0.71888035697E+02 -0.17524811758E+03  0.21304209522E+03  0.00000000000E+00 0.  1.
         16    1    1    2    0    0 -0.81370205777E+03 -0.23652401716E+03  0.32721000269E+02  0.84801256675E+03  0.00000000000E+00 0. -1.
    9900018    1    3    3    0    0  0.33186248422E+03 -0.79011144043E+02  0.29781595442E+03  0.46193613240E+03  0.91187600000E+02 0.  0.
<mgrwt>
<rscale>  0 0.32072420E+04</rscale>
<asrwt>0</asrwt>
<pdfrwt beam="1">  1        1 0.22899249E+00 0.32072420E+04</pdfrwt>
<pdfrwt beam="2">  1       -1 0.26580033E+00 0.32072420E+04</pdfrwt>
<totfact> 0.30652095E-01</totfact>
</mgrwt>
</event>
<event>
11    1  0.9500546E-009  0.3331623E+04  0.7818608E-02  0.8154895E-01
         -1   -1    0    0    0  501 -0.00000000000E+00  0.00000000000E+00  0.91553544431E+03  0.91553544431E+03  0.00000000000E+00 0.  1.
          1   -1    0    0  501    0  0.00000000000E+00 -0.00000000000E+00 -0.30309348684E+04  0.30309348684E+04  0.00000000000E+00 0. -1.
    9900016    2    1    2    0    0  0.90954100914E+03  0.10198572257E+03 -0.16911768178E+04  0.29376934520E+04  0.22208777216E+04 0.  0.
        -24    2    3    3    0    0 -0.11275851268E+03 -0.40214891516E+03 -0.18047354739E+03  0.46178951772E+03  0.78997627989E+02 0.  0.
        -15    1    3    3    0    0  0.59795706143E+03  0.41698914296E+03 -0.24149766173E+03  0.76795423905E+03  0.00000000000E+00 0.  1.
        -15    1    3    3    0    0 -0.10137808781E+03 -0.96361146643E+01 -0.38848309298E+03  0.40160862157E+03  0.00000000000E+00 0.  1.
         15    1    3    3    0    0  0.35379970888E+03 -0.29469280489E+03 -0.68963718603E+03  0.82922706879E+03  0.00000000000E+00 0. -1.
         15    1    4    4    0    0 -0.66891072317E+02 -0.28129365410E+03 -0.16136573635E+03  0.33111846257E+03  0.00000000000E+00 0. -1.
        -16    1    4    4    0    0 -0.45867440359E+02 -0.12085526106E+03 -0.19107811049E+02  0.13067105515E+03  0.00000000000E+00 0.  1.
         16    1    1    2    0    0 -0.90954100914E+03 -0.10198572257E+03 -0.42422260625E+03  0.10087768606E+04  0.00000000000E+00 0. -1.
    9900018    1    3    3    0    0  0.17192083931E+03  0.39147441432E+03 -0.19108532968E+03  0.47711400490E+03  0.91187600000E+02 0.  0.
<mgrwt>
<rscale>  0 0.33316232E+04</rscale>
<asrwt>0</asrwt>
<pdfrwt beam="1">  1        1 0.46629767E+00 0.33316232E+04</pdfrwt>
<pdfrwt beam="2">  1       -1 0.14085161E+00 0.33316232E+04</pdfrwt>
<totfact> 0.19351076E-01</totfact>
</mgrwt>
</event>
<event>
11    1  0.9500546E-009  0.2519050E+04  0.7818608E-02  0.8396230E-01
         -1   -1    0    0    0  501 -0.00000000000E+00  0.00000000000E+00  0.83587685430E+03  0.83587685430E+03  0.00000000000E+00 0.  1.
          1   -1    0    0  501    0  0.00000000000E+00 -0.00000000000E+00 -0.18978912194E+04  0.18978912194E+04  0.00000000000E+00 0. -1.
    9900016    2    1    2    0    0 -0.28303628509E+03  0.91522378139E+02 -0.96948823633E+03  0.24222444488E+04  0.21997442681E+04 0.  0.
         24    2    3    3    0    0 -0.25590782971E+03  0.45268494023E+03  0.46094635628E+03  0.69936771263E+03  0.78937834308E+02 0.  0.
        -15    1    3    3    0    0  0.12679743807E+03  0.16153927807E+02  0.12886906458E+02  0.12847027689E+03  0.00000000000E+00 0.  1.
        -15    1    4    4    0    0 -0.15612121202E+03  0.33899483575E+03  0.30367924191E+03  0.48115736872E+03  0.00000000000E+00 0.  1.
         15    1    3    3    0    0 -0.96337724363E+02  0.19212366487E+02 -0.67228840538E+02  0.11903692352E+03  0.00000000000E+00 0. -1.
         15    1    3    3    0    0  0.10391760470E+03 -0.14827698170E+03 -0.81019113391E+03  0.83017745412E+03  0.00000000000E+00 0. -1.
        -16    1    1    2    0    0  0.28303628509E+03 -0.91522378139E+02 -0.92526128779E+02  0.31152362492E+03  0.00000000000E+00 0.  1.
         16    1    4    4    0    0 -0.99786617692E+02  0.11369010447E+03  0.15726711437E+03  0.21821034390E+03  0.00000000000E+00 0. -1.
    9900018    1    3    3    0    0 -0.16150577378E+03 -0.24825187468E+03 -0.56590152462E+03  0.64519208164E+03  0.91187600000E+02 0.  0.
<mgrwt>
<rscale>  0 0.25190501E+04</rscale>
<asrwt>0</asrwt>
<pdfrwt beam="1">  1        1 0.29198326E+00 0.25190501E+04</pdfrwt>
<pdfrwt beam="2">  1       -1 0.12859644E+00 0.25190501E+04</pdfrwt>
<totfact> 0.16158344E+00</totfact>
</mgrwt>
</event>
<event>
11    1  0.9500546E-009  0.2466309E+04  0.7818608E-02  0.8415087E-01
          2   -1    0    0  501    0  0.00000000000E+00  0.00000000000E+00  0.34934594324E+04  0.34934594324E+04  0.00000000000E+00 0. -1.
         -2   -1    0    0    0  501 -0.00000000000E+00 -0.00000000000E+00 -0.43529072262E+03  0.43529072262E+03  0.00000000000E+00 0.  1.
    9900016    2    1    2    0    0  0.25038984375E+03 -0.23220322560E+02  0.27703616071E+04  0.35465627853E+04  0.21999931588E+04 0.  0.
         24    2    3    3    0    0 -0.79331446335E+02 -0.13691498667E+03  0.25877593092E+03  0.31323472309E+03  0.78178113141E+02 0.  0.
        -15    1    3    3    0    0  0.17404078146E+03  0.78571275714E+03  0.12093527495E+04  0.14526420079E+04  0.00000000000E+00 0.  1.
        -15    1    4    4    0    0 -0.79855271891E+02 -0.12538536150E+03  0.17922897592E+03  0.23285484564E+03  0.00000000000E+00 0.  1.
         15    1    3    3    0    0  0.22982141071E+03 -0.29502012089E+03  0.18189367177E+03  0.41586062615E+03  0.00000000000E+00 0. -1.
         15    1    3    3    0    0  0.71126974496E+02  0.14133685746E+03  0.56224090530E+03  0.58408046481E+03  0.00000000000E+00 0. -1.
        -16    1    1    2    0    0 -0.25038984375E+03  0.23220322560E+02  0.28780710264E+03  0.38218736971E+03  0.00000000000E+00 0.  1.
         16    1    4    4    0    0  0.52382555539E+00 -0.11529625169E+02  0.79546955002E+02  0.80379877456E+02  0.00000000000E+00 0. -1.
    9900018    1    3    3    0    0 -0.14526787659E+03 -0.51833482960E+03  0.55809834958E+03  0.78074496332E+03  0.91187600000E+02 0.  0.
<mgrwt>
<rscale>  0 0.24663094E+04</rscale>
<asrwt>0</asrwt>
<pdfrwt beam="1">  1        2 0.53745528E+00 0.24663094E+04</pdfrwt>
<pdfrwt beam="2">  1       -2 0.66967806E-01 0.24663094E+04</pdfrwt>
<totfact> 0.15063672E+00</totfact>
</mgrwt>
</event>
<event>
11    1  0.9500546E-009  0.3048659E+04  0.7818608E-02  0.8229971E-01
         -1   -1    0    0    0  501 -0.00000000000E+00  0.00000000000E+00  0.71871126132E+03  0.71871126132E+03  0.00000000000E+00 0.  1.
          1   -1    0    0  501    0  0.00000000000E+00 -0.00000000000E+00 -0.32329814774E+04  0.32329814774E+04  0.00000000000E+00 0. -1.
    9900016    2    1    2    0    0 -0.60828572778E+03 -0.39901531237E+03 -0.18151190052E+04  0.29427144626E+04  0.21990194767E+04 0.  0.
        -24    2    3    3    0    0 -0.80004043018E+02 -0.39160665743E+03 -0.38081242043E+03  0.55771502505E+03  0.79192983098E+02 0.  0.
        -15    1    3    3    0    0 -0.78431781820E+03 -0.14249231732E+03 -0.12402296636E+04  0.14743229358E+04  0.00000000000E+00 0.  1.
        -15    1    3    3    0    0  0.27971493442E+03  0.20647335103E+03  0.11783237467E+03  0.36709148416E+03  0.00000000000E+00 0.  1.
         15    1    3    3    0    0 -0.19276305737E+03 -0.58615470892E+02 -0.32223887498E+02  0.20403859596E+03  0.00000000000E+00 0. -1.
         15    1    4    4    0    0 -0.54291962760E+02 -0.13092871821E+03 -0.17098210066E+03  0.22209192966E+03  0.00000000000E+00 0. -1.
        -16    1    4    4    0    0 -0.25712080258E+02 -0.26067793922E+03 -0.20983031977E+03  0.33562309539E+03  0.00000000000E+00 0.  1.
         16    1    1    2    0    0  0.60828572778E+03  0.39901531237E+03 -0.69915121086E+03  0.10089782762E+04  0.00000000000E+00 0. -1.
    9900018    1    3    3    0    0  0.16908425639E+03 -0.12774217762E+02 -0.27968540836E+03  0.33954642163E+03  0.91187600000E+02 0.  0.
<mgrwt>
<rscale>  0 0.30486588E+04</rscale>
<asrwt>0</asrwt>
<pdfrwt beam="1">  1        1 0.49738176E+00 0.30486588E+04</pdfrwt>
<pdfrwt beam="2">  1       -1 0.11057097E+00 0.30486588E+04</pdfrwt>
<totfact> 0.25627272E-01</totfact>
</mgrwt>
</event>
<event>
11    1  0.9500546E-009  0.2708333E+04  0.7818608E-02  0.8332306E-01
         -1   -1    0    0    0  501 -0.00000000000E+00  0.00000000000E+00  0.14609687389E+04  0.14609687389E+04  0.00000000000E+00 0.  1.
          1   -1    0    0  501    0  0.00000000000E+00 -0.00000000000E+00 -0.12551715455E+04  0.12551715455E+04  0.00000000000E+00 0. -1.
    9900016    2    1    2    0    0  0.27902434636E+03  0.30719544785E+03 -0.12297390799E+02  0.22473238205E+04  0.22086397396E+04 0.  0.
         24    2    3    3    0    0 -0.14478444809E+03 -0.35303761524E+03 -0.44174002383E+03  0.58884833256E+03  0.77524292472E+02 0.  0.
        -15    1    4    4    0    0 -0.81413598332E+02 -0.12028991481E+03 -0.13209138279E+03  0.19633127873E+03  0.00000000000E+00 0.  1.
        -15    1    3    3    0    0  0.10182634450E+03  0.22278404072E+03 -0.37233478157E+02  0.24776534288E+03  0.00000000000E+00 0.  1.
         15    1    3    3    0    0  0.10207848431E+02  0.20660979610E+03  0.57929631886E+02  0.21482004158E+03  0.00000000000E+00 0. -1.
         15    1    3    3    0    0  0.48341492335E+03  0.36203958476E+03 -0.12154439403E+03  0.61606467905E+03  0.00000000000E+00 0. -1.
        -16    1    1    2    0    0 -0.27902434636E+03 -0.30719544785E+03  0.21809458422E+03  0.46881646377E+03  0.00000000000E+00 0.  1.
         16    1    4    4    0    0 -0.63370849758E+02 -0.23274770043E+03 -0.30964864103E+03  0.39251705383E+03  0.00000000000E+00 0. -1.
    9900018    1    3    3    0    0 -0.17164032184E+03 -0.13120035849E+03  0.53029087332E+03  0.57982542448E+03  0.91187600000E+02 0.  0.
<mgrwt>
<rscale>  0 0.27083326E+04</rscale>
<asrwt>0</asrwt>
<pdfrwt beam="1">  1        1 0.19310331E+00 0.27083326E+04</pdfrwt>
<pdfrwt beam="2">  1       -1 0.22476442E+00 0.27083326E+04</pdfrwt>
<totfact> 0.86936268E-01</totfact>
</mgrwt>
</event>
<event>
11    1  0.9500546E-009  0.3146559E+04  0.7818608E-02  0.8203075E-01
          2   -1    0    0  501    0  0.00000000000E+00  0.00000000000E+00  0.21863638708E+04  0.21863638708E+04  0.00000000000E+00 0. -1.
         -2   -1    0    0    0  501 -0.00000000000E+00 -0.00000000000E+00 -0.11321115231E+04  0.11321115231E+04  0.00000000000E+00 0.  1.
    9900016    2    1    2    0    0 -0.36651254547E+02 -0.73517849202E+03  0.45923367884E+03  0.23719671025E+04  0.22076008774E+04 0.  0.
        -24    2    3    3    0    0 -0.14587948495E+03 -0.52908834110E+03  0.93996093204E+02  0.56256976863E+03  0.80213354337E+02 0.  0.
        -15    1    3    3    0    0 -0.33600344889E+03  0.32266171141E+03 -0.18908420078E+03  0.50275414733E+03  0.00000000000E+00 0.  1.
        -15    1    3    3    0    0  0.43758736406E+03 -0.34860553325E+03  0.48825426522E+02  0.56159811366E+03  0.00000000000E+00 0.  1.
         15    1    3    3    0    0  0.44314937067E+02 -0.10091728855E+03  0.58537027139E+03  0.59565633330E+03  0.00000000000E+00 0. -1.
         15    1    4    4    0    0 -0.86868578661E+02 -0.18325343634E+03  0.50973701280E+02  0.20910832148E+03  0.00000000000E+00 0. -1.
        -16    1    4    4    0    0 -0.59010906292E+02 -0.34583490476E+03  0.43022391924E+02  0.35346144715E+03  0.00000000000E+00 0.  1.
         16    1    1    2    0    0  0.36651254547E+02  0.73517849202E+03  0.59501866882E+03  0.94650829148E+03  0.00000000000E+00 0. -1.
    9900018    1    3    3    0    0 -0.36670621832E+02 -0.79229040539E+02 -0.79873911492E+02  0.14938873954E+03  0.91187600000E+02 0.  0.
<mgrwt>
<rscale>  0 0.31465586E+04</rscale>
<asrwt>0</asrwt>
<pdfrwt beam="1">  1        2 0.33636367E+00 0.31465586E+04</pdfrwt>
<pdfrwt beam="2">  1       -2 0.17417100E+00 0.31465586E+04</pdfrwt>
<totfact> 0.88521379E-01</totfact>
</mgrwt>
</event>
<event>
11    1  0.9500546E-009  0.2590455E+04  0.7818608E-02  0.8371451E-01
         -2   -1    0    0    0  501 -0.00000000000E+00  0.00000000000E+00  0.75462098332E+03  0.75462098332E+03  0.00000000000E+00 0.  1.
          2   -1    0    0  501    0  0.00000000000E+00 -0.00000000000E+00 -0.22231221975E+04  0.22231221975E+04  0.00000000000E+00 0. -1.
    9900016    2    1    2    0    0 -0.18327572258E+03  0.13093186143E+03 -0.93806934192E+03  0.24014697093E+04  0.21991701916E+04 0.  0.
        -24    2    3    3    0    0 -0.43931027721E+02 -0.84263692174E+03 -0.45169896172E+03  0.96024217117E+03  0.77885545502E+02 0.  0.
        -15    1    3    3    0    0 -0.62226543270E+01 -0.62110530300E+02 -0.18436213468E+01  0.62448685660E+02  0.00000000000E+00 0. -1.
        -15    1    3    3    0    0 -0.14090659564E+03  0.87021061324E+03 -0.64189912401E+03  0.10904841427E+04  0.00000000000E+00 0.  1.
         15    1    3    3    0    0  0.12812522425E+02 -0.23762052632E+02  0.21890304120E+01  0.27084824724E+02  0.00000000000E+00 0.  1.
         15    1    4    4    0    0 -0.34822824697E+01 -0.59308470533E+03 -0.29055019909E+03  0.66044001406E+03  0.00000000000E+00 0. -1.
        -16    1    4    4    0    0 -0.40448745252E+02 -0.24955221641E+03 -0.16114876263E+03  0.29980215711E+03  0.00000000000E+00 0.  1.
         16    1    1    2    0    0  0.18327572258E+03 -0.13093186143E+03 -0.53043187227E+03  0.57627347150E+03  0.00000000000E+00 0. -1.
    9900018    1    3    3    0    0 -0.50279673239E+01  0.18923075286E+03  0.15518333475E+03  0.26120988508E+03  0.91187600000E+02 0.  0.
<mgrwt>
<rscale>  0 0.25904553E+04</rscale>
<asrwt>0</asrwt>
<pdfrwt beam="1">  1        2 0.34201879E+00 0.25904553E+04</pdfrwt>
<pdfrwt beam="2">  1       -2 0.11609554E+00 0.25904553E+04</pdfrwt>
<totfact> 0.25555525E+00</totfact>
</mgrwt>
</event>
<event>
11    1  0.9500546E-009  0.2729971E+04  0.7818608E-02  0.8325345E-01
         -2   -1    0    0    0  501 -0.00000000000E+00  0.00000000000E+00  0.54869245437E+03  0.54869245437E+03  0.00000000000E+00 0.  1.
          2   -1    0    0  501    0  0.00000000000E+00 -0.00000000000E+00 -0.33956824375E+04  0.33956824375E+04  0.00000000000E+00 0. -1.
    9900016    2    1    2    0    0  0.30196227650E+03 -0.29756444499E+03 -0.26759804482E+04  0.34872424424E+04  0.21955096624E+04 0.  0.
         24    2    3    3    0    0 -0.25944012299E+03 -0.20363813916E+03 -0.13112792790E+04  0.13545209204E+04  0.80597190792E+02 0.  0.
        -15    1    3    3    0    0 -0.24065496413E+02 -0.87605411956E+01 -0.35753415389E+02  0.43979562431E+02  0.00000000000E+00 0. -1.
        -15    1    4    4    0    0 -0.76075776592E+02 -0.88054958544E+02 -0.34041369584E+03  0.35975364324E+03  0.00000000000E+00 0.  1.
         15    1    3    3    0    0  0.79640770308E+03 -0.43460669863E+03 -0.32575285048E+03  0.96398295194E+03  0.00000000000E+00 0. -1.
         15    1    3    3    0    0 -0.98121606846E+02  0.75561774725E+00 -0.77655234255E+02  0.12513495153E+03  0.00000000000E+00 0.  1.
        -16    1    1    2    0    0 -0.30196227650E+03  0.29756444499E+03 -0.17100953498E+03  0.45713244952E+03  0.00000000000E+00 0.  1.
         16    1    4    4    0    0 -0.18336434639E+03 -0.11558318061E+03 -0.97086558315E+03  0.99476727716E+03  0.00000000000E+00 0. -1.
    9900018    1    3    3    0    0 -0.11281820034E+03  0.34868531624E+03 -0.92553966907E+03  0.99962405608E+03  0.91187600000E+02 0.  0.
<mgrwt>
<rscale>  0 0.27299709E+04</rscale>
<asrwt>0</asrwt>
<pdfrwt beam="1">  1        2 0.52241268E+00 0.27299709E+04</pdfrwt>
<pdfrwt beam="2">  1       -2 0.84414224E-01 0.27299709E+04</pdfrwt>
<totfact> 0.10282140E+00</totfact>
</mgrwt>
</event>
<event>
11    1  0.9500546E-009  0.3053377E+04  0.7818608E-02  0.8228651E-01
         -2   -1    0    0    0  501 -0.00000000000E+00  0.00000000000E+00  0.32656646758E+04  0.32656646758E+04  0.00000000000E+00 0. -1.
          2   -1    0    0  501    0  0.00000000000E+00 -0.00000000000E+00 -0.71372226320E+03  0.71372226320E+03  0.00000000000E+00 0.  1.
    9900016    2    1    2    0    0 -0.28893911576E+03  0.12408649376E+02  0.10844047698E+04  0.24836240834E+04  0.22155845946E+04 0.  0.
        -24    2    3    3    0    0 -0.31416308174E+01 -0.11147574541E+03 -0.21682549705E+03  0.25664439453E+03  0.80102043764E+02 0.  0.
        -15    1    3    3    0    0 -0.28563373990E+03  0.97222981506E+02  0.21019078462E+03  0.36772150800E+03  0.00000000000E+00 0.  1.
        -15    1    3    3    0    0  0.38517089159E+03 -0.42275914447E+02 -0.18053036722E+03  0.42747524158E+03  0.00000000000E+00 0.  1.
         15    1    3    3    0    0 -0.94145262920E+01 -0.18791610873E+03  0.28645349398E+03  0.34271956676E+03  0.00000000000E+00 0. -1.
         15    1    4    4    0    0  0.31448620872E+02 -0.38355918178E+02 -0.46053736892E+02  0.67684111102E+02  0.00000000000E+00 0. -1.
        -16    1    4    4    0    0 -0.34590251690E+02 -0.73119827231E+02 -0.17077176016E+03  0.18896028343E+03  0.00000000000E+00 0.  1.
         16    1    1    2    0    0  0.28893911576E+03 -0.12408649376E+02  0.14675376428E+04  0.14957628556E+04  0.00000000000E+00 0. -1.
    9900018    1    3    3    0    0 -0.37592011034E+03  0.25685343646E+03  0.98511635549E+03  0.10890633726E+04  0.91187600000E+02 0.  0.
<mgrwt>
<rscale>  0 0.30533769E+04</rscale>
<asrwt>0</asrwt>
<pdfrwt beam="1">  1        2 0.10980343E+00 0.30533769E+04</pdfrwt>
<pdfrwt beam="2">  1       -2 0.50240994E+00 0.30533769E+04</pdfrwt>
<totfact> 0.54128821E-02</totfact>
</mgrwt>
</event>
<event>
11    1  0.9500546E-009  0.3012079E+04  0.7818608E-02  0.8240290E-01
         -2   -1    0    0    0  501 -0.00000000000E+00  0.00000000000E+00  0.12932423093E+04  0.12932423093E+04  0.00000000000E+00 0.  1.
          2   -1    0    0  501    0  0.00000000000E+00 -0.00000000000E+00 -0.17538512843E+04  0.17538512843E+04  0.00000000000E+00 0. -1.
    9900016    2    1    2    0    0 -0.54489642105E+03 -0.42164416961E+03 -0.22910074228E+03  0.23202566261E+04  0.22037258780E+04 0.  0.
         24    2    3    3    0    0 -0.33826477965E+03  0.32145351089E+03 -0.41708693449E+03  0.63095415367E+03  0.79913780398E+02 0.  0.
        -15    1    4    4    0    0 -0.70515456071E+02  0.11672042753E+03 -0.12239046529E+03  0.18323622387E+03  0.00000000000E+00 0.  1.
        -15    1    3    3    0    0 -0.69468694458E+03 -0.10347221066E+03  0.48417585340E+02  0.70401755086E+03  0.00000000000E+00 0.  1.
         15    1    3    3    0    0  0.25266895732E+03 -0.14660477652E+03  0.78987097892E+02  0.30261117647E+03  0.00000000000E+00 0. -1.
         15    1    3    3    0    0 -0.52526713160E+02 -0.21952792224E+03 -0.97182871620E+02  0.24575612866E+03  0.00000000000E+00 0. -1.
        -16    1    1    2    0    0  0.54489642105E+03  0.42164416961E+03 -0.23150823268E+03  0.72683696744E+03  0.00000000000E+00 0.  1.
         16    1    4    4    0    0 -0.26774932358E+03  0.20473308337E+03 -0.29469646920E+03  0.44771792980E+03  0.00000000000E+00 0. -1.
    9900018    1    3    3    0    0  0.28791305902E+03 -0.27349277108E+03  0.15776438059E+03  0.43691761645E+03  0.91187600000E+02 0.  0.
<mgrwt>
<rscale>  0 0.30120788E+04</rscale>
<asrwt>0</asrwt>
<pdfrwt beam="1">  1        2 0.26982327E+00 0.30120788E+04</pdfrwt>
<pdfrwt beam="2">  1       -2 0.19896036E+00 0.30120788E+04</pdfrwt>
<totfact> 0.10577335E+00</totfact>
</mgrwt>
</event>
<event>
11    1  0.9500546E-009  0.2562092E+04  0.7818608E-02  0.8381193E-01
         -2   -1    0    0    0  501 -0.00000000000E+00  0.00000000000E+00  0.63692938233E+03  0.63692938233E+03  0.00000000000E+00 0.  1.
          2   -1    0    0  501    0  0.00000000000E+00 -0.00000000000E+00 -0.25765483595E+04  0.25765483595E+04  0.00000000000E+00 0. -1.
    9900016    2    1    2    0    0  0.17203878492E+03  0.24038493585E+03 -0.18939219870E+04  0.29143615841E+04  0.21952632392E+04 0.  0.
         24    2    3    3    0    0  0.93179220950E+02 -0.21188534215E+03 -0.88304751102E+03  0.91624647802E+03  0.78466147764E+02 0.  0.
        -15    1    4    4    0    0  0.86775782056E+02 -0.15624941051E+03 -0.76481824704E+03  0.78542400373E+03  0.00000000000E+00 0.  1.
        -15    1    3    3    0    0  0.44534999079E+03  0.49639054243E+03 -0.84189380686E+03  0.10740229825E+04  0.00000000000E+00 0.  1.
         15    1    3    3    0    0  0.17077186890E+02 -0.10088796863E+03  0.24472705845E+03  0.26525713122E+03  0.00000000000E+00 0. -1.
         15    1    3    3    0    0 -0.25937095094E+03  0.12831601839E+03 -0.10757194714E+03  0.30872320058E+03  0.00000000000E+00 0. -1.
        -16    1    1    2    0    0 -0.17203878492E+03 -0.24038493585E+03 -0.45696990192E+02  0.29911615773E+03  0.00000000000E+00 0.  1.
         16    1    4    4    0    0  0.64034388943E+01 -0.55635931639E+02 -0.11822926398E+03  0.13082247429E+03  0.00000000000E+00 0. -1.
    9900018    1    3    3    0    0 -0.12419666276E+03 -0.71548314192E+02 -0.30613578042E+03  0.35011179179E+03  0.91187600000E+02 0.  0.
<mgrwt>
<rscale>  0 0.25620924E+04</rscale>
<asrwt>0</asrwt>
<pdfrwt beam="1">  1        2 0.39639205E+00 0.25620924E+04</pdfrwt>
<pdfrwt beam="2">  1       -2 0.97989137E-01 0.25620924E+04</pdfrwt>
<totfact> 0.24150387E+00</totfact>
</mgrwt>
</event>
