<event>
12    1  0.1773203E-004  0.5411579E+04  0.7818608E-02  0.7767974E-01
         -1   -1    0    0    0  501 -0.00000000000E+00  0.00000000000E+00  0.23280855772E+04  0.23280855772E+04  0.00000000000E+00 0.  1.
          1   -1    0    0  501    0  0.00000000000E+00 -0.00000000000E+00 -0.31447711888E+04  0.31447711888E+04  0.00000000000E+00 0. -1.
        -24    2    1    2    0    0  0.40629974362E+03  0.11365270618E+04  0.67619279641E+03  0.13857029648E+04  0.78503280351E+02 0.  0.
    9900016    2    1    2    0    0 -0.15206483489E+04 -0.69862545741E+03 -0.14550025694E+04  0.28892534679E+04  0.18521080406E+04 0.  0.
         24    2    4    4    0    0 -0.80589593114E+03  0.41812452197E+03 -0.62688116290E+03  0.11062088629E+04  0.80135436847E+02 0.  0.
        -15    1    5    5    0    0 -0.51503403708E+03  0.23179239092E+03 -0.36101455718E+03  0.67031282424E+03  0.00000000000E+00 0.  1.
        -15    1    1    2    0    0  0.11143486053E+04 -0.43790160437E+03 -0.37875838641E+02  0.11979003333E+04  0.00000000000E+00 0.  1.
         15    1    4    4    0    0 -0.49574531217E+03 -0.69628169368E+03 -0.36117199932E+02  0.85549755326E+03  0.00000000000E+00 0. -1.
         15    1    3    3    0    0  0.23127635612E+03  0.55128446178E+03  0.30874826980E+03  0.67285125014E+03  0.00000000000E+00 0. -1.
        -16    1    3    3    0    0  0.17502338750E+03  0.58524260000E+03  0.36744452660E+03  0.71285171471E+03  0.00000000000E+00 0.  1.
         16    1    5    5    0    0 -0.29086189406E+03  0.18633213105E+03 -0.26586660572E+03  0.43589603866E+03  0.00000000000E+00 0. -1.
    9900018    1    4    4    0    0 -0.21900710561E+03 -0.42046828570E+03 -0.79200420652E+03  0.92754705171E+03  0.91187600000E+02 0.  0.
<mgrwt>
<rscale>  0 0.54115789E+04</rscale>
<asrwt>0</asrwt>
<pdfrwt beam="1">  1        1 0.48381095E+00 0.54115789E+04</pdfrwt>
<pdfrwt beam="2">  1       -1 0.35816701E+00 0.54115789E+04</pdfrwt>
<totfact> 0.44797623E-03</totfact>
</mgrwt>
</event>
<event>
12    1  0.1773203E-004  0.2699999E+04  0.7818608E-02  0.9183158E-01
         -2   -1    0    0    0  501 -0.00000000000E+00  0.00000000000E+00  0.50510480869E+03  0.50510480869E+03  0.00000000000E+00 0.  1.
          2   -1    0    0  501    0  0.00000000000E+00 -0.00000000000E+00 -0.38795966460E+04  0.38795966460E+04  0.00000000000E+00 0. -1.
        -24    2    1    2    0    0 -0.30398522932E+01  0.93262497024E+01 -0.29515739375E+02  0.85997212497E+02  0.80175570162E+02 0.  0.
    9900016    2    1    2    0    0 -0.44806956469E+03 -0.16132406016E+02 -0.33452921058E+04  0.38475433732E+04  0.18470474130E+04 0.  0.
         24    2    4    4    0    0  0.22363534395E+03  0.18875327683E+03  0.88560507096E+02  0.31630984046E+03  0.81045574705E+02 0.  0.
        -15    1    5    5    0    0  0.69778755680E+02  0.84081770787E+02 -0.21630717713E+01  0.10928631114E+03  0.00000000000E+00 0.  1.
        -15    1    1    2    0    0  0.45110941698E+03  0.68061563139E+01  0.31600787801E+00  0.45116086900E+03  0.00000000000E+00 0.  1.
         15    1    3    3    0    0 -0.25764211901E+02  0.34047990129E+02 -0.30387567543E+02  0.52406721972E+02  0.00000000000E+00 0. -1.
         15    1    4    4    0    0 -0.64824233190E+03 -0.25062763078E+03 -0.26175660386E+04  0.27082622282E+04  0.00000000000E+00 0. -1.
        -16    1    3    3    0    0  0.22724359608E+02 -0.24721740427E+02  0.87182816768E+00  0.33590490524E+02  0.00000000000E+00 0.  1.
         16    1    5    5    0    0  0.15385658827E+03  0.10467150604E+03  0.90723578868E+02  0.20702352932E+03  0.00000000000E+00 0. -1.
    9900018    1    4    4    0    0 -0.23462576732E+02  0.45741947936E+02 -0.81628657436E+03  0.82297130459E+03  0.91187600000E+02 0.  0.
<mgrwt>
<rscale>  0 0.11228966E+04</rscale>
<asrwt>0</asrwt>
<pdfrwt beam="1">  1        2 0.59686102E+00 0.26999987E+04</pdfrwt>
<pdfrwt beam="2">  1       -2 0.77708433E-01 0.26999987E+04</pdfrwt>
<totfact> 0.55120735E-01</totfact>
</mgrwt>
</event>
<event>
12    1  0.1773203E-004  0.3481573E+04  0.7818608E-02  0.8404785E-01
          2   -1    0    0  501    0  0.00000000000E+00  0.00000000000E+00  0.26260397128E+04  0.26260397128E+04  0.00000000000E+00 0.  1.
         -2   -1    0    0    0  501 -0.00000000000E+00 -0.00000000000E+00 -0.20785716126E+04  0.20785716126E+04  0.00000000000E+00 0. -1.
        -24    2    1    2    0    0 -0.89908007696E+03  0.16842808551E+03 -0.52995250294E+03  0.10601383792E+04  0.79565840195E+02 0.  0.
    9900016    2    1    2    0    0  0.59989552352E+03 -0.12779543104E+04  0.56974678567E+03  0.23881718096E+04  0.18400302536E+04 0.  0.
         24    2    4    4    0    0  0.57059540922E+03 -0.11024318624E+04 -0.26628815799E+03  0.12721075477E+04  0.80081817839E+02 0.  0.
        -15    1    1    2    0    0  0.29918455345E+03  0.11095262248E+04  0.50767381745E+03  0.12563011365E+04  0.00000000000E+00 0.  1.
        -15    1    5    5    0    0  0.25098452081E+03 -0.46149971531E+03 -0.73817136922E+02  0.53049428519E+03  0.00000000000E+00 0.  1.
         15    1    3    3    0    0 -0.46578076627E+03  0.56520412600E+02 -0.30108984892E+03  0.55749562903E+03  0.00000000000E+00 0. -1.
         15    1    4    4    0    0  0.19073229690E+03  0.20135159239E+02  0.82423571304E+03  0.84625572044E+03  0.00000000000E+00 0. -1.
        -16    1    3    3    0    0 -0.43329931070E+03  0.11190767291E+03 -0.22886265402E+03  0.50264275018E+03  0.00000000000E+00 0.  1.
         16    1    5    5    0    0  0.31961088841E+03 -0.64093214713E+03 -0.19247102107E+03  0.74161326254E+03  0.00000000000E+00 0. -1.
    9900018    1    4    4    0    0 -0.16143218261E+03 -0.19565760716E+03  0.11799230627E+02  0.26980854148E+03  0.91187600000E+02 0.  0.
<mgrwt>
<rscale>  0 0.24949558E+04</rscale>
<asrwt>0</asrwt>
<pdfrwt beam="1">  1        2 0.40400611E+00 0.34815726E+04</pdfrwt>
<pdfrwt beam="2">  1       -2 0.31978025E+00 0.34815726E+04</pdfrwt>
<totfact> 0.55843784E-02</totfact>
</mgrwt>
</event>
