<event>
13    1  0.2536560E-008  0.4850488E+04  0.7818608E-02  0.7851994E-01
          2   -1    0    0  501    0  0.00000000000E+00  0.00000000000E+00  0.35813737665E+04  0.35813737665E+04  0.00000000000E+00 0.  1.
         -2   -1    0    0    0  501 -0.00000000000E+00 -0.00000000000E+00 -0.16423328887E+04  0.16423328887E+04  0.00000000000E+00 0. -1.
    9900016    2    1    2    0    0 -0.54935121859E+03 -0.71673375410E+03  0.53737140228E+03  0.21210408800E+04  0.18424310991E+04 0.  0.
        -24    2    3    3    0    0  0.97183953891E+02 -0.99735075327E+03  0.88230679595E+03  0.13363536460E+04  0.56767410966E+02 0.  0.
    9900016    2    1    2    0    0  0.18376160839E+03  0.12382289000E+03  0.41059900039E+03  0.18878674705E+04  0.18293035862E+04 0.  0.
         24    2    5    5    0    0  0.92804135947E+02 -0.84698792529E+03  0.81156779964E+02  0.85865462693E+03  0.68557947667E+02 0.  0.
        -15    1    6    6    0    0  0.83426852508E+02 -0.49568995425E+03  0.30338675394E+02  0.50357621636E+03  0.00000000000E+00 0.  1.
        -15    1    3    3    0    0 -0.64653517249E+03  0.28061699917E+03 -0.34493539367E+03  0.78468723406E+03  0.00000000000E+00 0.  1.
         15    1    5    5    0    0  0.90957472439E+02  0.97081081528E+03  0.32944222043E+03  0.10292128436E+04  0.00000000000E+00 0. -1.
         15    1    4    4    0    0  0.31281543661E+01 -0.29992247117E+03  0.26421698479E+03  0.39971726147E+03  0.00000000000E+00 0. -1.
        -16    1    4    4    0    0  0.94055799525E+02 -0.69742828211E+03  0.61808981115E+03  0.93663638449E+03  0.00000000000E+00 0.  1.
         16    1    6    6    0    0  0.93772834388E+01 -0.35129797104E+03  0.50818104570E+02  0.35507841057E+03  0.00000000000E+00 0. -1.
    9900018    1    1    2    0    0  0.36558961021E+03  0.59291086410E+03  0.99107047511E+03  0.12147983046E+04  0.91187600000E+02 0.  0.
<mgrwt>
<rscale>  0 0.48504878E+04</rscale>
<asrwt>0</asrwt>
<pdfrwt beam="1">  1        2 0.55098058E+00 0.48504878E+04</pdfrwt>
<pdfrwt beam="2">  1       -2 0.25266660E+00 0.48504878E+04</pdfrwt>
<totfact> 0.32382376E-02</totfact>
</mgrwt>
</event>
<event>
13    1  0.2536560E-008  0.5032344E+04  0.7818608E-02  0.7823537E-01
          2   -1    0    0  501    0  0.00000000000E+00  0.00000000000E+00  0.38137805255E+04  0.38137805255E+04  0.00000000000E+00 0. -1.
         -2   -1    0    0    0  501 -0.00000000000E+00 -0.00000000000E+00 -0.16600644346E+04  0.16600644346E+04  0.00000000000E+00 0.  1.
    9900016    2    1    2    0    0 -0.94342183481E+03  0.56706617049E+03  0.17949380949E+04  0.27928660948E+04  0.18348540702E+04 0.  0.
         24    2    3    3    0    0  0.38160757838E+03  0.11313958146E+03 -0.11360625236E+03  0.42552712043E+03  0.98701777493E+02 0.  0.
    9900016    2    1    2    0    0  0.21422411877E+03 -0.45183000857E+03  0.29066552467E+03  0.19340095425E+04  0.18454983429E+04 0.  0.
        -24    2    5    5    0    0 -0.22629685931E+03 -0.39554063834E+03  0.99668938123E+03  0.10999250676E+04  0.93716415122E+02 0.  0.
        -15    1    5    5    0    0  0.44052097807E+03 -0.56289370229E+02 -0.70602385656E+03  0.83408447495E+03  0.00000000000E+00 0.  1.
        -15    1    4    4    0    0  0.24507109153E+03  0.22382194584E+02 -0.65193995838E+02  0.25458016347E+03  0.00000000000E+00 0.  1.
         15    1    6    6    0    0 -0.56417683399E+02 -0.17067727974E+03  0.45702513821E+03  0.49110657273E+03  0.00000000000E+00 0. -1.
         15    1    3    3    0    0 -0.13250294132E+04  0.45392658903E+03  0.19085443472E+04  0.23673389743E+04  0.00000000000E+00 0. -1.
        -16    1    6    6    0    0 -0.16987917591E+03 -0.22486335859E+03  0.53966424302E+03  0.60881849483E+03  0.00000000000E+00 0.  1.
         16    1    4    4    0    0  0.13653648684E+03  0.90757386880E+02 -0.48412256522E+02  0.17094695696E+03  0.00000000000E+00 0. -1.
    9900018    1    1    2    0    0  0.72919771604E+03 -0.11523616193E+03  0.68112471287E+02  0.74696932282E+03  0.91187600000E+02 0.  0.
<mgrwt>
<rscale>  0 0.50323440E+04</rscale>
<asrwt>0</asrwt>
<pdfrwt beam="1">  1        2 0.58673546E+00 0.50323440E+04</pdfrwt>
<pdfrwt beam="2">  1       -2 0.25539453E+00 0.50323440E+04</pdfrwt>
<totfact> 0.20653333E-02</totfact>
</mgrwt>
</event>
<event>
12    1  0.2536560E-008  0.4829545E+04  0.7818608E-02  0.7855353E-01
         -1   -1    0    0    0  501 -0.00000000000E+00  0.00000000000E+00  0.20455618381E+04  0.20455618381E+04  0.00000000000E+00 0.  1.
          1   -1    0    0  501    0  0.00000000000E+00 -0.00000000000E+00 -0.28506235293E+04  0.28506235293E+04  0.00000000000E+00 0. -1.
    9900016    2    1    2    0    0  0.10435517519E+04  0.15198412057E+03 -0.59802134287E+03  0.22047958759E+04  0.18415742983E+04 0.  0.
    9900016    2    1    2    0    0 -0.39594054089E+03 -0.48639313733E+03 -0.20141524999E+03  0.19568307864E+04  0.18426262312E+04 0.  0.
        -24    2    4    4    0    0  0.61674207150E+03  0.27003581945E+03 -0.10844711847E+03  0.68941060606E+03  0.10117351281E+03 0.  0.
        -15    1    4    4    0    0 -0.10126826124E+04 -0.75642895678E+03 -0.92968131519E+02  0.12674201804E+04  0.00000000000E+00 0.  1.
        -15    1    3    3    0    0  0.46659820371E+03  0.74857521547E+03 -0.37481547939E+03  0.95841816579E+03  0.00000000000E+00 0.  1.
         15    1    5    5    0    0  0.29281537779E+03  0.17410271802E+03 -0.82934923676E+02  0.35061489338E+03  0.00000000000E+00 0. -1.
         15    1    3    3    0    0  0.45259248162E+03 -0.83053143906E+03 -0.90799001232E+02  0.95019307738E+03  0.00000000000E+00 0. -1.
        -16    1    5    5    0    0  0.32392669371E+03  0.95933101431E+02 -0.25512194795E+02  0.33879571268E+03  0.00000000000E+00 0.  1.
         16    1    3    3    0    0  0.12436106653E+03  0.23394034416E+03 -0.13240686225E+03  0.29618463273E+03  0.00000000000E+00 0. -1.
    9900018    1    1    2    0    0 -0.64761121098E+03  0.33440901676E+03 -0.56250983676E+01  0.73455870507E+03  0.91187600000E+02 0.  0.
<mgrwt>
<rscale>  0 0.48295452E+04</rscale>
<asrwt>0</asrwt>
<pdfrwt beam="1">  1        1 0.43855747E+00 0.48295452E+04</pdfrwt>
<pdfrwt beam="2">  1       -1 0.31470182E+00 0.48295452E+04</pdfrwt>
<totfact> 0.14868686E-02</totfact>
</mgrwt>
</event>
<event>
12    1  0.2536560E-008  0.4973938E+04  0.7818608E-02  0.7832540E-01
         -2   -1    0    0    0  501 -0.00000000000E+00  0.00000000000E+00  0.21938278101E+04  0.21938278101E+04  0.00000000000E+00 0.  1.
          2   -1    0    0  501    0  0.00000000000E+00 -0.00000000000E+00 -0.28192804355E+04  0.28192804355E+04  0.00000000000E+00 0. -1.
    9900016    2    1    2    0    0 -0.89177485093E+03 -0.28888906966E+03 -0.11554855458E+04  0.23722874167E+04  0.18476691970E+04 0.  0.
        -24    2    3    3    0    0 -0.12412019119E+04 -0.70486110629E+03 -0.48720340029E+03  0.15110481745E+04  0.92130706600E+02 0.  0.
    9900016    2    1    2    0    0  0.60803256357E+03  0.49980359428E+03  0.11742176669E+02  0.20068373151E+04  0.18460094527E+04 0.  0.
        -15    1    3    3    0    0  0.34942706101E+03  0.41597203663E+03 -0.66828214550E+03  0.86123924215E+03  0.00000000000E+00 0.  1.
        -15    1    5    5    0    0 -0.10415422575E+03 -0.48639099557E+03 -0.14983027889E+03  0.51949342227E+03  0.00000000000E+00 0.  1.
         15    1    4    4    0    0 -0.93322003361E+03 -0.48353485878E+03 -0.35304372925E+03  0.11087585245E+04  0.00000000000E+00 0. -1.
         15    1    5    5    0    0  0.67174159649E+03  0.10836170444E+04  0.30344850486E+03  0.13105509019E+04  0.00000000000E+00 0. -1.
        -16    1    4    4    0    0 -0.30798187833E+03 -0.22132624750E+03 -0.13415967104E+03  0.40228965006E+03  0.00000000000E+00 0.  1.
         16    1    5    5    0    0  0.40445192828E+02 -0.97422454543E+02 -0.14187604930E+03  0.17679299092E+03  0.00000000000E+00 0. -1.
    9900018    1    1    2    0    0  0.28374228735E+03 -0.21091452463E+03  0.51829074374E+03  0.63398351380E+03  0.91187600000E+02 0.  0.
<mgrwt>
<rscale>  0 0.49739384E+04</rscale>
<asrwt>0</asrwt>
<pdfrwt beam="1">  1        2 0.43373545E+00 0.49739384E+04</pdfrwt>
<pdfrwt beam="2">  1       -2 0.33751197E+00 0.49739384E+04</pdfrwt>
<totfact> 0.30599524E-02</totfact>
</mgrwt>
</event>
<event>
13    1  0.2536560E-008  0.5758583E+04  0.7818608E-02  0.7721077E-01
         -2   -1    0    0    0  501 -0.00000000000E+00  0.00000000000E+00  0.25536109971E+04  0.25536109971E+04  0.00000000000E+00 0.  1.
          2   -1    0    0  501    0  0.00000000000E+00 -0.00000000000E+00 -0.32465080706E+04  0.32465080706E+04  0.00000000000E+00 0. -1.
    9900016    2    1    2    0    0  0.12474789064E+04 -0.10598404431E+04  0.86482869297E+03  0.26109301560E+04  0.18410763766E+04 0.  0.
        -24    2    3    3    0    0  0.23319078449E+03  0.37005260610E+03 -0.27451232824E+03  0.52012349611E+03  0.62085099611E+02 0.  0.
    9900016    2    1    2    0    0 -0.68373039896E+03  0.68704044425E+03 -0.12919203867E+04  0.24572326992E+04  0.18518699797E+04 0.  0.
         24    2    5    5    0    0  0.35169034745E+03  0.53300132726E+03 -0.12559150400E+04  0.14097974713E+04  0.49293072551E+02 0.  0.
        -15    1    3    3    0    0  0.10142881219E+04 -0.14298930492E+04  0.11393410212E+04  0.20908066599E+04  0.00000000000E+00 0.  1.
        -15    1    6    6    0    0  0.28808938454E+03  0.46504891263E+03 -0.10564275527E+04  0.11896659862E+04  0.00000000000E+00 0.  1.
         15    1    4    4    0    0  0.10850415536E+03  0.19907031776E+03 -0.10951769128E+03  0.25178615499E+03  0.00000000000E+00 0. -1.
         15    1    5    5    0    0 -0.10354207464E+04  0.15403911699E+03 -0.36005346720E+02  0.10474352279E+04  0.00000000000E+00 0. -1.
        -16    1    4    4    0    0  0.12468662913E+03  0.17098228834E+03 -0.16499463696E+03  0.26833734111E+03  0.00000000000E+00 0.  1.
         16    1    6    6    0    0  0.63600962903E+02  0.67952414628E+02 -0.19948748726E+03  0.22013148505E+03  0.00000000000E+00 0. -1.
    9900018    1    1    2    0    0 -0.56374850745E+03  0.37279999881E+03 -0.26580537976E+03  0.73195621253E+03  0.91187600000E+02 0.  0.
<mgrwt>
<rscale>  0 0.57585827E+04</rscale>
<asrwt>0</asrwt>
<pdfrwt beam="1">  1        2 0.49946278E+00 0.57585827E+04</pdfrwt>
<pdfrwt beam="2">  1       -2 0.39286323E+00 0.57585827E+04</pdfrwt>
<totfact> 0.68480439E-03</totfact>
</mgrwt>
</event>
<event>
13    1  0.2536560E-008  0.5201023E+04  0.7818608E-02  0.7798224E-01
          2   -1    0    0  501    0  0.00000000000E+00  0.00000000000E+00  0.36770184079E+04  0.36770184079E+04  0.00000000000E+00 0. -1.
         -2   -1    0    0    0  501 -0.00000000000E+00 -0.00000000000E+00 -0.18391694139E+04  0.18391694139E+04  0.00000000000E+00 0.  1.
    9900016    2    1    2    0    0 -0.68723011757E+03  0.37157866393E+02 -0.52525597672E+03  0.20258975068E+04  0.18315842666E+04 0.  0.
         24    2    3    3    0    0 -0.27241952280E+03 -0.98175536641E+02 -0.11914862186E+04  0.12295020682E+04  0.90471509675E+02 0.  0.
    9900016    2    1    2    0    0  0.69157383159E+02  0.18064983084E+03  0.20281594137E+04  0.27486989163E+04  0.18451281853E+04 0.  0.
        -24    2    5    5    0    0  0.18718364050E+03 -0.80951470548E+03  0.11480677141E+04  0.14186923727E+04  0.65397235925E+02 0.  0.
        -15    1    5    5    0    0 -0.11802625734E+03  0.99016453632E+03  0.88009169954E+03  0.13300065436E+04  0.00000000000E+00 0.  1.
        -15    1    4    4    0    0 -0.11618855975E+03 -0.89929827630E+02 -0.57764117379E+03  0.59603395958E+03  0.00000000000E+00 0.  1.
         15    1    3    3    0    0 -0.41481059478E+03  0.13533340303E+03  0.66623024189E+03  0.79639543866E+03  0.00000000000E+00 0. -1.
         15    1    6    6    0    0  0.16311068677E+03 -0.64055796416E+03  0.87354371049E+03  0.10954443006E+04  0.00000000000E+00 0. -1.
        -16    1    6    6    0    0  0.24072953727E+02 -0.16895674132E+03  0.27452400365E+03  0.32324807210E+03  0.00000000000E+00 0.  1.
         16    1    4    4    0    0 -0.15623096305E+03 -0.82457090109E+01 -0.61384504482E+03  0.63346810858E+03  0.00000000000E+00 0. -1.
    9900018    1    1    2    0    0  0.61807273442E+03 -0.21780769724E+03  0.33494555701E+03  0.74159139865E+03  0.91187600000E+02 0.  0.
<mgrwt>
<rscale>  0 0.52010229E+04</rscale>
<asrwt>0</asrwt>
<pdfrwt beam="1">  1        2 0.56569514E+00 0.52010229E+04</pdfrwt>
<pdfrwt beam="2">  1       -2 0.28294914E+00 0.52010229E+04</pdfrwt>
<totfact> 0.17520332E-02</totfact>
</mgrwt>
</event>
<event>
13    1  0.2536560E-008  0.4369827E+04  0.7818608E-02  0.7933831E-01
          2   -1    0    0  501    0  0.00000000000E+00  0.00000000000E+00  0.17037222774E+04  0.17037222774E+04  0.00000000000E+00 0. -1.
         -2   -1    0    0    0  501 -0.00000000000E+00 -0.00000000000E+00 -0.28020094636E+04  0.28020094636E+04  0.00000000000E+00 0.  1.
    9900016    2    1    2    0    0 -0.47504339731E+03 -0.15417189024E+03 -0.11887332157E+04  0.22435458350E+04  0.18360218013E+04 0.  0.
        -24    2    3    3    0    0  0.45360828090E+03  0.21485226423E+03 -0.11349191971E+04  0.12428117472E+04  0.67952093073E+02 0.  0.
    9900016    2    1    2    0    0  0.49001269378E+03  0.34505869625E+03  0.29812117869E+03  0.19653593598E+04  0.18478590942E+04 0.  0.
         24    2    5    5    0    0  0.79074113645E+03  0.25908565081E+03 -0.58884256711E+03  0.10248628701E+04  0.10588396658E+03 0.  0.
        -15    1    3    3    0    0 -0.92865167822E+03 -0.36902415447E+03 -0.53814018587E+02  0.10007340879E+04  0.00000000000E+00 0.  1.
        -15    1    6    6    0    0  0.53398321098E+03  0.22366288900E+03 -0.38733275837E+03  0.69655568566E+03  0.00000000000E+00 0.  1.
         15    1    4    4    0    0  0.28110149895E+03  0.16556837221E+03 -0.69722458303E+03  0.76977467987E+03  0.00000000000E+00 0. -1.
         15    1    5    5    0    0 -0.30072844267E+03  0.85973045443E+02  0.88696374581E+03  0.94049648971E+03  0.00000000000E+00 0. -1.
        -16    1    4    4    0    0  0.17250678196E+03  0.49283892023E+02 -0.43769461408E+03  0.47303706728E+03  0.00000000000E+00 0.  1.
         16    1    6    6    0    0  0.25675792548E+03  0.35422761806E+02 -0.20150980874E+03  0.32830718446E+03  0.00000000000E+00 0. -1.
    9900018    1    1    2    0    0 -0.14969296472E+02 -0.19088680601E+03 -0.20767514915E+03  0.29682654617E+03  0.91187600000E+02 0.  0.
<mgrwt>
<rscale>  0 0.43698265E+04</rscale>
<asrwt>0</asrwt>
<pdfrwt beam="1">  1        2 0.26211112E+00 0.43698265E+04</pdfrwt>
<pdfrwt beam="2">  1       -2 0.43107837E+00 0.43698265E+04</pdfrwt>
<totfact> 0.34629525E-02</totfact>
</mgrwt>
</event>
<event>
13    1  0.2536560E-008  0.5320963E+04  0.7818608E-02  0.7780817E-01
         -2   -1    0    0    0  501 -0.00000000000E+00  0.00000000000E+00  0.20060102313E+04  0.20060102313E+04  0.00000000000E+00 0. -1.
          2   -1    0    0  501    0  0.00000000000E+00 -0.00000000000E+00 -0.35284774059E+04  0.35284774059E+04  0.00000000000E+00 0.  1.
    9900016    2    1    2    0    0  0.14537247445E+03 -0.58827358646E+03  0.49213046801E+03  0.20023082331E+04  0.18438673743E+04 0.  0.
         24    2    3    3    0    0 -0.40688897536E+03  0.55904485631E+01 -0.54434799077E+03  0.68627069697E+03  0.95198965724E+02 0.  0.
    9900016    2    1    2    0    0 -0.10859363970E+03 -0.36731950982E+03 -0.99450316762E+03  0.21309589487E+04  0.18453274207E+04 0.  0.
        -24    2    5    5    0    0  0.34648485711E+03 -0.24173189950E+03 -0.14277293377E+04  0.14902143814E+04  0.61982041133E+02 0.  0.
        -15    1    4    4    0    0 -0.29495285988E+03  0.29682541783E+02 -0.33249747879E+03  0.44545798482E+03  0.00000000000E+00 0.  1.
        -15    1    5    5    0    0 -0.45507849681E+03 -0.12558761032E+03  0.43322617005E+03  0.64074456731E+03  0.00000000000E+00 0.  1.
         15    1    3    3    0    0  0.55226144980E+03 -0.59386403502E+03  0.10364784588E+04  0.13160375361E+04  0.00000000000E+00 0. -1.
         15    1    6    6    0    0  0.14095378859E+03 -0.85987359420E+02 -0.65971118514E+03  0.68005929469E+03  0.00000000000E+00 0. -1.
        -16    1    6    6    0    0  0.20553106852E+03 -0.15574454008E+03 -0.76801815253E+03  0.81015508670E+03  0.00000000000E+00 0.  1.
         16    1    4    4    0    0 -0.11193611547E+03 -0.24092093220E+02 -0.21185051198E+03  0.24081271215E+03  0.00000000000E+00 0. -1.
    9900018    1    1    2    0    0 -0.36778834748E+02  0.95559309628E+03 -0.10200944750E+04  0.14012204554E+04  0.91187600000E+02 0.  0.
<mgrwt>
<rscale>  0 0.53209630E+04</rscale>
<asrwt>0</asrwt>
<pdfrwt beam="1">  1        2 0.54284267E+00 0.53209630E+04</pdfrwt>
<pdfrwt beam="2">  1       -2 0.30861696E+00 0.53209630E+04</pdfrwt>
<totfact> 0.15472616E-02</totfact>
</mgrwt>
</event>
<event>
12    1  0.2536560E-008  0.4917960E+04  0.7818608E-02  0.7841289E-01
          1   -1    0    0  501    0  0.00000000000E+00  0.00000000000E+00  0.11034827316E+04  0.11034827316E+04  0.00000000000E+00 0. -1.
         -1   -1    0    0    0  501 -0.00000000000E+00 -0.00000000000E+00 -0.54795454512E+04  0.54795454512E+04  0.00000000000E+00 0.  1.
    9900016    2    1    2    0    0 -0.35807260830E+02  0.12546544671E+04 -0.19660287676E+04  0.29743914317E+04  0.18456151500E+04 0.  0.
    9900016    2    1    2    0    0 -0.24592739295E+03 -0.73509795218E+03 -0.21987889480E+04  0.29744025535E+04  0.18470377448E+04 0.  0.
        -24    2    4    4    0    0 -0.33598109089E+03 -0.13383949600E+04 -0.16576179174E+04  0.21589621618E+04  0.96104596600E+02 0.  0.
        -15    1    4    4    0    0  0.90053697945E+02  0.60329700782E+03 -0.54117103050E+03  0.81544039170E+03  0.00000000000E+00 0.  1.
        -15    1    3    3    0    0 -0.90675093994E+01 -0.17169542495E+03  0.13859182995E+03  0.22083757380E+03  0.00000000000E+00 0.  1.
         15    1    5    5    0    0 -0.22994278032E+03 -0.10744429345E+04 -0.13230509599E+04  0.17198154390E+04  0.00000000000E+00 0. -1.
         15    1    3    3    0    0 -0.13890034302E+02  0.15003859409E+04 -0.21804294440E+04  0.26468138327E+04  0.00000000000E+00 0. -1.
        -16    1    5    5    0    0 -0.10603831058E+03 -0.26395202555E+03 -0.33456695753E+03  0.43914672283E+03  0.00000000000E+00 0.  1.
         16    1    3    3    0    0 -0.12849717129E+02 -0.74036048908E+02  0.75808846430E+02  0.10674002513E+03  0.00000000000E+00 0. -1.
    9900018    1    1    2    0    0  0.28173465378E+03 -0.51955651491E+03 -0.21124500407E+03  0.63423419764E+03  0.91187600000E+02 0.  0.
<mgrwt>
<rscale>  0 0.49179605E+04</rscale>
<asrwt>0</asrwt>
<pdfrwt beam="1">  1        1 0.16976657E+00 0.49179605E+04</pdfrwt>
<pdfrwt beam="2">  1       -1 0.84300701E+00 0.49179605E+04</pdfrwt>
<totfact> 0.31081176E-04</totfact>
</mgrwt>
</event>
<event>
12    1  0.2536560E-008  0.6418204E+04  0.7818608E-02  0.7640607E-01
          2   -1    0    0  501    0  0.00000000000E+00  0.00000000000E+00  0.28348826030E+04  0.28348826030E+04  0.00000000000E+00 0. -1.
         -2   -1    0    0    0  501 -0.00000000000E+00 -0.00000000000E+00 -0.36327202819E+04  0.36327202819E+04  0.00000000000E+00 0.  1.
    9900016    2    1    2    0    0  0.15705262954E+04 -0.83377374712E+03 -0.13635579264E+04  0.29062240555E+04  0.18507070368E+04 0.  0.
        -24    2    3    3    0    0  0.61885170116E+03 -0.33245723458E+03  0.41995430410E+03  0.82345698848E+03  0.90634173960E+02 0.  0.
    9900016    2    1    2    0    0 -0.13142038405E+04  0.83445836928E+03 -0.49861133483E+03  0.24628258880E+04  0.18421307193E+04 0.  0.
        -15    1    3    3    0    0  0.95167459427E+03 -0.50131651254E+03 -0.17835122305E+04  0.20827670670E+04  0.00000000000E+00 0.  1.
        -15    1    5    5    0    0  0.82932459440E+02 -0.24584190480E+02 -0.37237549895E+03  0.38229005672E+03  0.00000000000E+00 0.  1.
         15    1    4    4    0    0  0.42544976051E+03 -0.27457884041E+03  0.30597023723E+03  0.59162388761E+03  0.00000000000E+00 0. -1.
         15    1    5    5    0    0 -0.14794687094E+04  0.91840123612E+03  0.18691212376E+03  0.17513493754E+04  0.00000000000E+00 0. -1.
        -16    1    4    4    0    0  0.19340194065E+03 -0.57878394172E+02  0.11398406686E+03  0.23183310086E+03  0.00000000000E+00 0.  1.
         16    1    5    5    0    0  0.82332409511E+02 -0.59358676366E+02 -0.31314795964E+03  0.32918645590E+03  0.00000000000E+00 0. -1.
    9900018    1    1    2    0    0 -0.25632245496E+03 -0.68462215458E+00  0.10643315823E+04  0.10985529414E+04  0.91187600000E+02 0.  0.
<mgrwt>
<rscale>  0 0.64182040E+04</rscale>
<asrwt>0</asrwt>
<pdfrwt beam="1">  1        2 0.43613578E+00 0.64182040E+04</pdfrwt>
<pdfrwt beam="2">  1       -2 0.55888004E+00 0.64182040E+04</pdfrwt>
<totfact> 0.11300602E-03</totfact>
</mgrwt>
</event>
<event>
12    1  0.2536560E-008  0.4744878E+04  0.7818608E-02  0.7869114E-01
          1   -1    0    0  501    0  0.00000000000E+00  0.00000000000E+00  0.18708163909E+04  0.18708163909E+04  0.00000000000E+00 0. -1.
         -1   -1    0    0    0  501 -0.00000000000E+00 -0.00000000000E+00 -0.30085612887E+04  0.30085612887E+04  0.00000000000E+00 0.  1.
    9900016    2    1    2    0    0  0.41061467246E+02  0.28204177515E+03  0.27422753836E+03  0.18830695941E+04  0.18410640256E+04 0.  0.
         24    2    3    3    0    0  0.16744836173E+03 -0.29007055854E+03  0.93632912856E+03  0.99895156735E+03  0.94932155489E+02 0.  0.
    9900016    2    1    2    0    0 -0.42218901774E+03 -0.24386301852E+03 -0.16693244566E+04  0.25259241275E+04  0.18319213460E+04 0.  0.
        -15    1    5    5    0    0 -0.79422751548E+03  0.23033018659E+03 -0.17176592110E+04  0.19063584412E+04  0.00000000000E+00 0.  1.
        -15    1    4    4    0    0 -0.10260680608E+02 -0.16741413454E+02  0.87260218345E+02  0.89442172360E+02  0.00000000000E+00 0.  1.
         15    1    5    5    0    0  0.15346562332E+03 -0.10809142503E+03  0.45604206414E+02  0.19317141960E+03  0.00000000000E+00 0. -1.
         15    1    3    3    0    0 -0.12638689448E+03  0.57211233370E+03 -0.66210159019E+03  0.88411802674E+03  0.00000000000E+00 0. -1.
        -16    1    5    5    0    0  0.21857287441E+03 -0.36610178007E+03  0.27305479682E+01  0.42639426672E+03  0.00000000000E+00 0.  1.
         16    1    4    4    0    0  0.17770904234E+03 -0.27332914509E+03  0.84906891021E+03  0.90950939499E+03  0.00000000000E+00 0. -1.
    9900018    1    1    2    0    0  0.38112755050E+03 -0.38178756637E+02  0.25735202033E+03  0.47038395802E+03  0.91187600000E+02 0.  0.
<mgrwt>
<rscale>  0 0.47448776E+04</rscale>
<asrwt>0</asrwt>
<pdfrwt beam="1">  1        1 0.28781791E+00 0.47448776E+04</pdfrwt>
<pdfrwt beam="2">  1       -1 0.46285558E+00 0.47448776E+04</pdfrwt>
<totfact> 0.71087978E-03</totfact>
</mgrwt>
</event>
