<event>
12    1  0.2917176E-009  0.4195028E+04  0.7818608E-02  0.7966319E-01
         -2   -1    0    0    0  501 -0.00000000000E+00  0.00000000000E+00  0.14263451562E+04  0.14263451562E+04  0.00000000000E+00 0.  1.
          2   -1    0    0  501    0  0.00000000000E+00 -0.00000000000E+00 -0.30845021860E+04  0.30845021860E+04  0.00000000000E+00 0. -1.
        -24    2    1    2    0    0  0.43237980069E+03  0.70591171171E+03 -0.33781027646E+03  0.89772269173E+03  0.80787446996E+02 0.  0.
    9900016    2    1    2    0    0 -0.46526009494E+03 -0.59262933880E+03 -0.14982506387E+04  0.24957602545E+04  0.18483473111E+04 0.  0.
         23    2    4    4    0    0  0.41024716690E+02  0.10068957609E+03  0.39358525796E+03  0.41824768220E+03  0.90555785438E+02 0.  0.
        -15    1    1    2    0    0 -0.13405763995E+03 -0.47562406116E+03  0.41421649524E+03  0.64479842068E+03  0.00000000000E+00 0.  1.
        -15    1    5    5    0    0  0.43796622597E+02  0.24198783213E+02  0.25563311375E+03  0.26048419166E+03  0.00000000000E+00 0. -1.
         15    1    5    5    0    0 -0.27719059069E+01  0.76490792876E+02  0.13795214420E+03  0.15776349054E+03  0.00000000000E+00 0.  1.
         15    1    3    3    0    0  0.34938489854E+03  0.59142438880E+03 -0.24853991796E+03  0.73049620521E+03  0.00000000000E+00 0. -1.
        -16    1    3    3    0    0  0.82994902152E+02  0.11448732290E+03 -0.89270358495E+02  0.16722648652E+03  0.00000000000E+00 0.  1.
         16    1    4    4    0    0 -0.50628481163E+03 -0.69331891489E+03 -0.18918358967E+04  0.20775125723E+04  0.00000000000E+00 0. -1.
    9900018    1    1    2    0    0  0.16693793420E+03  0.36234168825E+03 -0.23631260989E+03  0.47256597519E+03  0.91187600000E+02 0.  0.
<mgrwt>
<rscale>  0 0.41950279E+04</rscale>
<asrwt>0</asrwt>
<pdfrwt beam="1">  1        2 0.47453880E+00 0.41950279E+04</pdfrwt>
<pdfrwt beam="2">  1       -2 0.21943772E+00 0.41950279E+04</pdfrwt>
<totfact> 0.11905171E-01</totfact>
</mgrwt>
</event>
<event>
13    1  0.2917176E-009  0.4858172E+04  0.7818608E-02  0.7850766E-01
         -1   -1    0    0    0  501 -0.00000000000E+00  0.00000000000E+00  0.22593840883E+04  0.22593840883E+04  0.00000000000E+00 0.  1.
          1   -1    0    0  501    0  0.00000000000E+00 -0.00000000000E+00 -0.26115343034E+04  0.26115343034E+04  0.00000000000E+00 0. -1.
    9900016    2    1    2    0    0  0.40163662334E+02 -0.57857619189E+03  0.42422344206E+03  0.19204093609E+04  0.17809107375E+04 0.  0.
        -24    2    3    3    0    0 -0.13834773811E+03 -0.86685304390E+03 -0.44500385298E+03  0.98738955731E+03  0.79595303646E+02 0.  0.
    9900016    2    1    2    0    0  0.17161614446E+03  0.90810861452E+03 -0.11825091073E+04  0.23789292146E+04  0.18457689624E+04 0.  0.
         23    2    5    5    0    0  0.30219074558E+03  0.27464107567E+02  0.43165871582E+03  0.53552957393E+03  0.91592323309E+02 0.  0.
        -15    1    6    6    0    0  0.12087481422E+03 -0.21561791697E+02  0.12023669920E+03  0.17185021213E+03  0.00000000000E+00 0.  1.
        -15    1    3    3    0    0  0.17851140044E+03  0.28827685200E+03  0.86922729504E+03  0.93301980361E+03  0.00000000000E+00 0.  1.
         15    1    6    6    0    0  0.18131593136E+03  0.49025899264E+02  0.31142201662E+03  0.36367936180E+03  0.00000000000E+00 0. -1.
         15    1    4    4    0    0 -0.55548155786E+02 -0.52748594647E+03 -0.23812909962E+03  0.58140561523E+03  0.00000000000E+00 0. -1.
        -16    1    4    4    0    0 -0.82799582320E+02 -0.33936709743E+03 -0.20687475336E+03  0.40598394208E+03  0.00000000000E+00 0.  1.
         16    1    5    5    0    0 -0.13057460112E+03  0.88064450695E+03 -0.16141678231E+04  0.18433996407E+04  0.00000000000E+00 0. -1.
    9900018    1    1    2    0    0 -0.21177980679E+03 -0.32953242263E+03  0.40613545005E+03  0.57157981622E+03  0.91187600000E+02 0.  0.
<mgrwt>
<rscale>  0 0.48581721E+04</rscale>
<asrwt>0</asrwt>
<pdfrwt beam="1">  1        1 0.40177451E+00 0.48581721E+04</pdfrwt>
<pdfrwt beam="2">  1       -1 0.34759755E+00 0.48581721E+04</pdfrwt>
<totfact> 0.13329334E-02</totfact>
</mgrwt>
</event>
<event>
13    1  0.2917176E-009  0.4831845E+04  0.7818608E-02  0.7854983E-01
          2   -1    0    0  501    0  0.00000000000E+00  0.00000000000E+00  0.23012712419E+04  0.23012712419E+04  0.00000000000E+00 0.  1.
         -2   -1    0    0    0  501 -0.00000000000E+00 -0.00000000000E+00 -0.25362856788E+04  0.25362856788E+04  0.00000000000E+00 0. -1.
    9900016    2    1    2    0    0 -0.64586614766E+03  0.66701800542E+02 -0.99785472650E+03  0.21144937272E+04  0.17475060675E+04 0.  0.
        -24    2    3    3    0    0  0.48113257632E+03  0.44057431932E+03 -0.50516635983E+03  0.82893991233E+03  0.79712234442E+02 0.  0.
    9900016    2    1    2    0    0  0.45128198990E+03 -0.25750873466E+03  0.10644223074E+02  0.19178400061E+04  0.18460852653E+04 0.  0.
         23    2    5    5    0    0 -0.10132557878E+03  0.43842397579E+03  0.66943943166E+03  0.81162637881E+03  0.90032053471E+02 0.  0.
        -15    1    6    6    0    0 -0.30408085997E+02  0.25992523160E+03  0.32512592282E+03  0.41736392202E+03  0.00000000000E+00 0. -1.
        -15    1    3    3    0    0 -0.11269987240E+04 -0.37387251878E+03 -0.49268836668E+03  0.12855538148E+04  0.00000000000E+00 0.  1.
         15    1    6    6    0    0 -0.70917492783E+02  0.17849874419E+03  0.34431350884E+03  0.39426245678E+03  0.00000000000E+00 0.  1.
         15    1    4    4    0    0  0.34639810668E+03  0.27819827366E+03 -0.37180114733E+03  0.57932894018E+03  0.00000000000E+00 0. -1.
        -16    1    4    4    0    0  0.13473446964E+03  0.16237604566E+03 -0.13336521250E+03  0.24961097215E+03  0.00000000000E+00 0.  1.
         16    1    5    5    0    0  0.55260756868E+03 -0.69593271045E+03 -0.65879520859E+03  0.11062136273E+04  0.00000000000E+00 0. -1.
    9900018    1    1    2    0    0  0.19458415775E+03  0.19080693411E+03  0.75219606654E+03  0.80522318737E+03  0.91187600000E+02 0.  0.
<mgrwt>
<rscale>  0 0.48318449E+04</rscale>
<asrwt>0</asrwt>
<pdfrwt beam="1">  1        2 0.35404173E+00 0.48318449E+04</pdfrwt>
<pdfrwt beam="2">  1       -2 0.39019780E+00 0.48318449E+04</pdfrwt>
<totfact> 0.28727510E-02</totfact>
</mgrwt>
</event>
