<event>
12    1  0.1391059E-009  0.2712642E+04  0.7818608E-02  0.8330915E-01
         -2   -1    0    0    0  501 -0.00000000000E+00  0.00000000000E+00  0.82131066034E+03  0.82131066034E+03  0.00000000000E+00 0.  1.
          2   -1    0    0  501    0  0.00000000000E+00 -0.00000000000E+00 -0.22398432052E+04  0.22398432052E+04  0.00000000000E+00 0. -1.
    9900016    2    1    2    0    0  0.82443345956E+02  0.37035859564E+03 -0.89758953536E+03  0.24166819780E+04  0.22114977762E+04 0.  0.
         23    2    3    3    0    0  0.14456884587E+03 -0.19860463856E+03 -0.90167774209E+01  0.26255086322E+03  0.92237193404E+02 0.  0.
        -24    2    3    3    0    0 -0.19637057604E+03 -0.96508717787E+02 -0.12273508597E+04  0.12481544453E+04  0.60200089873E+02 0.  0.
        -15    1    4    4    0    0  0.27280687241E+02 -0.40004166732E+02 -0.40086876448E+02  0.62861171765E+02  0.00000000000E+00 0. -1.
        -15    1    3    3    0    0  0.50326119394E+02  0.25002510412E+03  0.39358178353E+03  0.46899028914E+03  0.00000000000E+00 0.  1.
         15    1    5    5    0    0 -0.66262029669E+02 -0.29562539812E+02 -0.26543108948E+03  0.27516951793E+03  0.00000000000E+00 0. -1.
         15    1    4    4    0    0  0.11728815863E+03 -0.15860047183E+03  0.31070099027E+02  0.19968969145E+03  0.00000000000E+00 0.  1.
        -16    1    5    5    0    0 -0.13010854637E+03 -0.66946177975E+02 -0.96191977018E+03  0.97298492735E+03  0.00000000000E+00 0.  1.
         16    1    1    2    0    0 -0.82443345956E+02 -0.37035859564E+03 -0.52094300948E+03  0.64447188750E+03  0.00000000000E+00 0. -1.
    9900018    1    3    3    0    0  0.83918956728E+02  0.41544684787E+03 -0.54803681811E+02  0.43698638038E+03  0.91187600000E+02 0.  0.
<mgrwt>
<rscale>  0 0.27126423E+04</rscale>
<asrwt>0</asrwt>
<pdfrwt beam="1">  1        2 0.34459125E+00 0.27126423E+04</pdfrwt>
<pdfrwt beam="2">  1       -2 0.12635549E+00 0.27126423E+04</pdfrwt>
<totfact> 0.20051744E+00</totfact>
</mgrwt>
</event>
<event>
12    1  0.1391059E-009  0.3298369E+04  0.7818608E-02  0.8163311E-01
          2   -1    0    0  501    0  0.00000000000E+00  0.00000000000E+00  0.40087067663E+04  0.40087067663E+04  0.00000000000E+00 0. -1.
         -2   -1    0    0    0  501 -0.00000000000E+00 -0.00000000000E+00 -0.67847535667E+03  0.67847535667E+03  0.00000000000E+00 0.  1.
    9900016    2    1    2    0    0 -0.30265117049E+03  0.24522436470E+03  0.35880780434E+04  0.42200444488E+04  0.21869472752E+04 0.  0.
         23    2    3    3    0    0  0.23304771374E+03 -0.11859170983E+03 -0.10726888579E+03  0.29667226639E+03  0.90180869760E+02 0.  0.
         24    2    3    3    0    0  0.18747623356E+03  0.30284761914E+03  0.77464201726E+03  0.85469189229E+03  0.59698888352E+02 0.  0.
        -15    1    4    4    0    0  0.10339948856E+03 -0.52623123966E+02 -0.14895637802E+00  0.11602012583E+03  0.00000000000E+00 0.  1.
        -15    1    5    5    0    0  0.58065937723E+02  0.52140201842E+02  0.14318373656E+03  0.16307003460E+03  0.00000000000E+00 0.  1.
         15    1    4    4    0    0  0.12964822518E+03 -0.65968585860E+02 -0.10711992941E+03  0.18065214056E+03  0.00000000000E+00 0. -1.
         15    1    3    3    0    0 -0.51789618702E+03 -0.23398586125E+03  0.16594600309E+04  0.17540733844E+04  0.00000000000E+00 0. -1.
        -16    1    1    2    0    0  0.30265117049E+03 -0.24522436470E+03 -0.25784663377E+03  0.46713767412E+03  0.00000000000E+00 0.  1.
         16    1    5    5    0    0  0.12941029584E+03  0.25070741729E+03  0.63145828071E+03  0.69162185769E+03  0.00000000000E+00 0. -1.
    9900018    1    3    3    0    0 -0.20527893076E+03  0.29495431664E+03  0.12612448810E+04  0.13146069057E+04  0.91187600000E+02 0.  0.
<mgrwt>
<rscale>  0 0.32983685E+04</rscale>
<asrwt>0</asrwt>
<pdfrwt beam="1">  1        2 0.61672410E+00 0.32983685E+04</pdfrwt>
<pdfrwt beam="2">  1       -2 0.10438083E+00 0.32983685E+04</pdfrwt>
<totfact> 0.20920085E-01</totfact>
</mgrwt>
</event>
<event>
12    1  0.1391060E-009  0.2474060E+04  0.7818608E-02  0.8412285E-01
          1   -1    0    0  501    0  0.00000000000E+00  0.00000000000E+00  0.32299917321E+04  0.32299917321E+04  0.00000000000E+00 0. -1.
         -1   -1    0    0    0  501 -0.00000000000E+00 -0.00000000000E+00 -0.47376077710E+03  0.47376077710E+03  0.00000000000E+00 0.  1.
    9900016    2    1    2    0    0  0.21564475286E+02 -0.34965809505E+02  0.28479832609E+04  0.36032233091E+04  0.22069258996E+04 0.  0.
         23    2    3    3    0    0  0.20150831247E+03 -0.23865864328E+03 -0.17021818286E+03  0.36726433063E+03  0.91352672455E+02 0.  0.
         24    2    3    3    0    0  0.85603366924E+02 -0.61711709478E+01 -0.34250757348E+01  0.11013422245E+03  0.68933272303E+02 0.  0.
        -15    1    4    4    0    0  0.14376388667E+03 -0.18790369841E+03 -0.82357212266E+02  0.25051659706E+03  0.00000000000E+00 0. -1.
        -15    1    5    5    0    0  0.36738440309E+02  0.25934785245E+02 -0.20211794561E+02  0.49303577166E+02  0.00000000000E+00 0.  1.
         15    1    3    3    0    0 -0.29617241439E+03  0.43980448050E+03  0.16954306882E+04  0.17764096652E+04  0.00000000000E+00 0. -1.
         15    1    4    4    0    0  0.57744425804E+02 -0.50754944870E+02 -0.87860970597E+02  0.11674773357E+03  0.00000000000E+00 0.  1.
        -16    1    1    2    0    0 -0.21564475286E+02  0.34965809505E+02 -0.91752305936E+02  0.10052920010E+03  0.00000000000E+00 0.  1.
         16    1    5    5    0    0  0.48864926616E+02 -0.32105956192E+02  0.16786718827E+02  0.60830645280E+02  0.00000000000E+00 0. -1.
    9900018    1    3    3    0    0  0.30625210278E+02 -0.22994047578E+03  0.13261958313E+04  0.13494150908E+04  0.91187600000E+02 0.  0.
<mgrwt>
<rscale>  0 0.24740601E+04</rscale>
<asrwt>0</asrwt>
<pdfrwt beam="1">  1        1 0.49692179E+00 0.24740601E+04</pdfrwt>
<pdfrwt beam="2">  1       -1 0.72886275E-01 0.24740601E+04</pdfrwt>
<totfact> 0.68222205E-01</totfact>
</mgrwt>
</event>
<event>
11    1  0.1391059E-009  0.3067463E+04  0.7818608E-02  0.8224725E-01
         -2   -1    0    0    0  501 -0.00000000000E+00  0.00000000000E+00  0.14268024561E+04  0.14268024561E+04  0.00000000000E+00 0.  1.
          2   -1    0    0  501    0  0.00000000000E+00 -0.00000000000E+00 -0.16486739461E+04  0.16486739461E+04  0.00000000000E+00 0. -1.
    9900016    2    1    2    0    0 -0.26384621583E+03 -0.61345239180E+03  0.18070626237E+03  0.22957280394E+04  0.21890120637E+04 0.  0.
         23    2    3    3    0    0 -0.16622551866E+03  0.22118991751E+03 -0.89320016323E+01  0.29085689757E+03  0.89230328622E+02 0.  0.
        -15    1    4    4    0    0 -0.15487821974E+02  0.85911150917E+02  0.77047727222E+01  0.87635392417E+02  0.00000000000E+00 0.  1.
        -15    1    3    3    0    0 -0.36217319367E+03 -0.33522658436E+03 -0.37360804310E+03  0.61897435726E+03  0.00000000000E+00 0.  1.
         15    1    4    4    0    0 -0.15073769669E+03  0.13527876659E+03 -0.16636774354E+02  0.20322150515E+03  0.00000000000E+00 0. -1.
         15    1    3    3    0    0  0.31733507916E+03 -0.44762783464E+03  0.52237432369E+03  0.75759300740E+03  0.00000000000E+00 0. -1.
        -16    1    1    2    0    0  0.26384621583E+03  0.61345239180E+03 -0.40257775244E+03  0.77974836285E+03  0.00000000000E+00 0.  1.
         16    1    3    3    0    0 -0.16319480339E+03 -0.19067467630E+03 -0.19612900300E+03  0.31852152494E+03  0.00000000000E+00 0. -1.
    9900018    1    3    3    0    0  0.11041222073E+03  0.13888678600E+03  0.23700098642E+03  0.30978225219E+03  0.91187600000E+02 0.  0.
<mgrwt>
<rscale>  0 0.30674628E+04</rscale>
<asrwt>0</asrwt>
<pdfrwt beam="1">  1        2 0.25364215E+00 0.30674628E+04</pdfrwt>
<pdfrwt beam="2">  1       -2 0.21950807E+00 0.30674628E+04</pdfrwt>
<totfact> 0.88774095E-01</totfact>
</mgrwt>
</event>
<event>
12    1  0.1391059E-009  0.2483623E+04  0.7818608E-02  0.8408843E-01
          2   -1    0    0  501    0  0.00000000000E+00  0.00000000000E+00  0.20473450091E+04  0.20473450091E+04  0.00000000000E+00 0. -1.
         -2   -1    0    0    0  501 -0.00000000000E+00 -0.00000000000E+00 -0.75321756911E+03  0.75321756911E+03  0.00000000000E+00 0.  1.
    9900016    2    1    2    0    0 -0.18489969954E+03 -0.16932281001E+03  0.10886134003E+04  0.24763803248E+04  0.22100955330E+04 0.  0.
         23    2    3    3    0    0  0.40639833855E+03  0.10979834106E+03 -0.46981204090E+03  0.63725626813E+03  0.90315625597E+02 0.  0.
         24    2    3    3    0    0  0.94418635827E+00  0.12428416683E+03  0.15931985019E+03  0.22775415161E+03  0.10507946184E+03 0.  0.
        -15    1    4    4    0    0  0.21439819069E+03  0.70685481781E+02 -0.31496965806E+03  0.38751633127E+03  0.00000000000E+00 0. -1.
        -15    1    5    5    0    0  0.11570163149E+02 -0.66967183390E+01 -0.75495625663E+01  0.15352869658E+02  0.00000000000E+00 0.  1.
         15    1    4    4    0    0  0.19200014786E+03  0.39112859280E+02 -0.15484238284E+03  0.24973993686E+03  0.00000000000E+00 0.  1.
         15    1    3    3    0    0 -0.54664748530E+03 -0.37275549072E+03  0.10058066239E+04  0.12039173949E+04  0.00000000000E+00 0. -1.
        -16    1    1    2    0    0  0.18489969954E+03  0.16932281001E+03  0.20551403965E+03  0.32418225333E+03  0.00000000000E+00 0.  1.
         16    1    5    5    0    0 -0.10625976791E+02  0.13098088517E+03  0.16686941275E+03  0.21240128195E+03  0.00000000000E+00 0. -1.
    9900018    1    3    3    0    0 -0.45594739144E+02 -0.30649827185E+02  0.39329896716E+03  0.40745251025E+03  0.91187600000E+02 0.  0.
<mgrwt>
<rscale>  0 0.24836233E+04</rscale>
<asrwt>0</asrwt>
<pdfrwt beam="1">  1        2 0.31497615E+00 0.24836233E+04</pdfrwt>
<pdfrwt beam="2">  1       -2 0.11587963E+00 0.24836233E+04</pdfrwt>
<totfact> 0.32497806E+00</totfact>
</mgrwt>
</event>
<event>
11    1  0.1391059E-009  0.3019646E+04  0.7818608E-02  0.8238143E-01
         -2   -1    0    0    0  501 -0.00000000000E+00  0.00000000000E+00  0.84380406726E+03  0.84380406726E+03  0.00000000000E+00 0.  1.
          2   -1    0    0  501    0  0.00000000000E+00 -0.00000000000E+00 -0.27015336713E+04  0.27015336713E+04  0.00000000000E+00 0. -1.
    9900016    2    1    2    0    0 -0.31456294471E+03 -0.17420505167E+03 -0.70046171295E+03  0.23334935992E+04  0.21966448325E+04 0.  0.
         23    2    3    3    0    0  0.26191497203E+03 -0.22249411117E+03 -0.13926190215E+03  0.38242362123E+03  0.93546066738E+02 0.  0.
        -15    1    4    4    0    0  0.82946263888E+02 -0.10064264843E+03 -0.11259339814E+02  0.13090377423E+03  0.00000000000E+00 0.  1.
        -15    1    3    3    0    0 -0.50996901694E+03  0.68327280438E+03 -0.74611208979E+03  0.11329666253E+04  0.00000000000E+00 0.  1.
         15    1    3    3    0    0 -0.51698577834E+02 -0.32861659904E+03 -0.10518130495E+03  0.34889069782E+03  0.00000000000E+00 0. -1.
         15    1    4    4    0    0  0.17896870815E+03 -0.12185146274E+03 -0.12800256233E+03  0.25151984700E+03  0.00000000000E+00 0. -1.
        -16    1    3    3    0    0 -0.94653220516E+01 -0.93685153033E+02 -0.48503401354E+01  0.94286934512E+02  0.00000000000E+00 0.  1.
         16    1    1    2    0    0  0.31456294471E+03  0.17420505167E+03 -0.11572678911E+04  0.12118441393E+04  0.00000000000E+00 0. -1.
    9900018    1    3    3    0    0 -0.53449999212E+01 -0.21268199280E+03  0.29494392408E+03  0.37492572042E+03  0.91187600000E+02 0.  0.
<mgrwt>
<rscale>  0 0.30196457E+04</rscale>
<asrwt>0</asrwt>
<pdfrwt beam="1">  1        2 0.41562057E+00 0.30196457E+04</pdfrwt>
<pdfrwt beam="2">  1       -2 0.12981601E+00 0.30196457E+04</pdfrwt>
<totfact> 0.98674120E-01</totfact>
</mgrwt>
</event>
<event>
11    1  0.1391059E-009  0.4024084E+04  0.7818608E-02  0.7999706E-01
          2   -1    0    0  501    0  0.00000000000E+00  0.00000000000E+00  0.15191590900E+04  0.15191590900E+04  0.00000000000E+00 0. -1.
         -2   -1    0    0    0  501 -0.00000000000E+00 -0.00000000000E+00 -0.26648379741E+04  0.26648379741E+04  0.00000000000E+00 0.  1.
    9900016    2    1    2    0    0  0.24092182239E+03 -0.96379043639E+03  0.29578252753E+03  0.24333553730E+04  0.22015439441E+04 0.  0.
         23    2    3    3    0    0 -0.52828539423E+03 -0.28784360095E+03 -0.47932961451E+03  0.77543576332E+03  0.98001772060E+02 0.  0.
        -15    1    4    4    0    0 -0.88407902508E+02 -0.57088244698E+02 -0.13435820221E+03  0.17066678473E+03  0.00000000000E+00 0.  1.
        -15    1    3    3    0    0 -0.13581444748E+02 -0.13817816033E+02  0.40763801089E+02  0.45133969032E+02  0.00000000000E+00 0.  1.
         15    1    3    3    0    0  0.84491202090E+03 -0.53080528693E+03  0.17240244835E+03  0.10125972447E+04  0.00000000000E+00 0. -1.
         15    1    4    4    0    0 -0.43987749172E+03 -0.23075535625E+03 -0.34497141230E+03  0.60476897859E+03  0.00000000000E+00 0. -1.
        -16    1    1    2    0    0 -0.24092182239E+03  0.96379043639E+03 -0.14414614115E+04  0.17506416911E+04  0.00000000000E+00 0.  1.
         16    1    3    3    0    0 -0.33199273769E+02  0.12459878398E+02  0.13639365017E+03  0.14092788282E+03  0.00000000000E+00 0. -1.
    9900018    1    3    3    0    0 -0.28924085759E+02 -0.14378361088E+03  0.42555224244E+03  0.45926051314E+03  0.91187600000E+02 0.  0.
<mgrwt>
<rscale>  0 0.40240839E+04</rscale>
<asrwt>0</asrwt>
<pdfrwt beam="1">  1        2 0.23371678E+00 0.40240839E+04</pdfrwt>
<pdfrwt beam="2">  1       -2 0.40997507E+00 0.40240839E+04</pdfrwt>
<totfact> 0.62210549E-02</totfact>
</mgrwt>
</event>
