<event>
12    1  0.1665883E-010  0.4106288E+04  0.7818608E-02  0.8451230E-01
          2   -1    0    0  501    0  0.00000000000E+00  0.00000000000E+00  0.29497921903E+04  0.29497921903E+04  0.00000000000E+00 0. -1.
         -2   -1    0    0    0  501 -0.00000000000E+00 -0.00000000000E+00 -0.19194350130E+04  0.19194350130E+04  0.00000000000E+00 0.  1.
         24    2    1    2    0    0 -0.41058963985E+03 -0.17851558503E+03  0.58183191815E+03  0.73851631198E+03  0.80164179263E+02 0.  0.
    9900016    2    1    2    0    0 -0.96078171465E+03  0.78303493385E+02  0.99894723403E+03  0.26496078545E+04  0.22568325738E+04 0.  0.
         23    2    4    4    0    0  0.37503651753E+03  0.87095305059E+02  0.11963465781E+04  0.12599806810E+04  0.89823158877E+02 0.  0.
        -15    1    5    5    0    0  0.82324583024E+02 -0.32763085090E+01  0.35961866004E+03  0.36893583699E+03  0.00000000000E+00 0.  1.
        -15    1    3    3    0    0 -0.10328169876E+03 -0.19713377227E+02  0.97902660005E+02  0.14366856781E+03  0.00000000000E+00 0.  1.
         15    1    1    2    0    0  0.13713713545E+04  0.10021209164E+03 -0.55042197490E+03  0.14811030368E+04  0.00000000000E+00 0. -1.
         15    1    5    5    0    0  0.29271193450E+03  0.90371613568E+02  0.83672791808E+03  0.89104484401E+03  0.00000000000E+00 0. -1.
        -16    1    4    4    0    0 -0.12322056924E+04  0.39271427190E+01 -0.21176234882E+03  0.12502758029E+04  0.00000000000E+00 0.  1.
         16    1    3    3    0    0 -0.30730794109E+03 -0.15880220780E+03  0.48392925814E+03  0.59484774417E+03  0.00000000000E+00 0. -1.
    9900018    1    4    4    0    0 -0.10361253974E+03 -0.12718954393E+02  0.14363004728E+02  0.13935137061E+03  0.91187600000E+02 0.  0.
<mgrwt>
<rscale>  0 0.23689249E+04</rscale>
<asrwt>0</asrwt>
<pdfrwt beam="1">  1        2 0.45381418E+00 0.41062876E+04</pdfrwt>
<pdfrwt beam="2">  1       -2 0.29529769E+00 0.41062876E+04</pdfrwt>
<totfact> 0.48547782E-02</totfact>
</mgrwt>
</event>
<event>
12    1  0.1665883E-010  0.4698972E+04  0.7818608E-02  0.7876699E-01
          2   -1    0    0  501    0  0.00000000000E+00  0.00000000000E+00  0.44674879465E+04  0.44674879465E+04  0.00000000000E+00 0. -1.
         -2   -1    0    0    0  501 -0.00000000000E+00 -0.00000000000E+00 -0.12356127688E+04  0.12356127688E+04  0.00000000000E+00 0.  1.
        -24    2    1    2    0    0  0.18967047318E+03  0.78812287726E+03  0.13741455438E+04  0.15974690099E+04  0.80738490861E+02 0.  0.
    9900016    2    1    2    0    0 -0.45020633271E+03 -0.23023312103E+03  0.23747952166E+04  0.33015939383E+04  0.22372253308E+04 0.  0.
         23    2    4    4    0    0  0.10662354748E+02  0.36623510852E+03 -0.30743324414E+03  0.48479971981E+03  0.79206869669E+02 0.  0.
        -15    1    1    2    0    0  0.26053585953E+03 -0.55788975623E+03 -0.51706558268E+03  0.80403776715E+03  0.00000000000E+00 0.  1.
        -15    1    5    5    0    0 -0.17863951371E+02  0.10385476892E+03 -0.52014209853E+02  0.11751770851E+03  0.00000000000E+00 0.  1.
         15    1    3    3    0    0  0.11973665965E+03  0.63306893570E+03  0.11029015751E+04  0.12773038124E+04  0.00000000000E+00 0. -1.
         15    1    5    5    0    0  0.28526306119E+02  0.26238033960E+03 -0.25541903429E+03  0.36728201130E+03  0.00000000000E+00 0. -1.
        -16    1    3    3    0    0  0.69933813529E+02  0.15505394155E+03  0.27124396874E+03  0.32016519742E+03  0.00000000000E+00 0.  1.
         16    1    4    4    0    0 -0.41299356778E+03 -0.56901433324E+03  0.25591569960E+04  0.26539829556E+04  0.00000000000E+00 0. -1.
    9900018    1    4    4    0    0 -0.47875119680E+02 -0.27453896307E+02  0.12307146472E+03  0.16281126291E+03  0.91187600000E+02 0.  0.
<mgrwt>
<rscale>  0 0.46989723E+04</rscale>
<asrwt>0</asrwt>
<pdfrwt beam="1">  1        2 0.68730583E+00 0.46989723E+04</pdfrwt>
<pdfrwt beam="2">  1       -2 0.19009427E+00 0.46989723E+04</pdfrwt>
<totfact> 0.15143142E-02</totfact>
</mgrwt>
</event>
<event>
12    1  0.1665883E-010  0.4961628E+04  0.7818608E-02  0.8188710E-01
         -2   -1    0    0    0  501 -0.00000000000E+00  0.00000000000E+00  0.20948281234E+04  0.20948281234E+04  0.00000000000E+00 0.  1.
          2   -1    0    0  501    0  0.00000000000E+00 -0.00000000000E+00 -0.41583064605E+04  0.41583064605E+04  0.00000000000E+00 0. -1.
        -24    2    1    2    0    0 -0.85055435792E+03 -0.89552417770E+02  0.49471632761E+02  0.86033301349E+03  0.79139751941E+02 0.  0.
    9900016    2    1    2    0    0  0.51941176828E+03  0.19151996600E+04 -0.13380818222E+04  0.32187188278E+04  0.21521871681E+04 0.  0.
         23    2    4    4    0    0  0.40359796513E+03 -0.17389552610E+03  0.31826452476E+03  0.55015840037E+03  0.90834940014E+02 0.  0.
        -15    1    5    5    0    0  0.67316195392E+02 -0.43355282674E+02  0.10161126950E+03  0.12936769607E+03  0.00000000000E+00 0. -1.
        -15    1    1    2    0    0  0.33343581487E+03 -0.18891718103E+04 -0.75260040182E+03  0.20607175780E+04  0.00000000000E+00 0.  1.
         15    1    5    5    0    0  0.33628176974E+03 -0.13054024342E+03  0.21665325526E+03  0.42079070430E+03  0.00000000000E+00 0.  1.
         15    1    3    3    0    0 -0.61043204911E+03 -0.50744778769E+02  0.21866076742E+01  0.61254150913E+03  0.00000000000E+00 0. -1.
        -16    1    3    3    0    0 -0.24012230881E+03 -0.38807639001E+02  0.47285025087E+02  0.24779150436E+03  0.00000000000E+00 0.  1.
         16    1    4    4    0    0  0.11581380315E+03  0.20890951861E+04 -0.16563463470E+04  0.26685604274E+04  0.00000000000E+00 0. -1.
    9900018    1    1    2    0    0 -0.22932252235E+01  0.63524568077E+02 -0.22267745780E+02  0.11336516452E+03  0.91187600000E+02 0.  0.
<mgrwt>
<rscale>  0 0.32004053E+04</rscale>
<asrwt>0</asrwt>
<pdfrwt beam="1">  1        2 0.63973945E+00 0.49616279E+04</pdfrwt>
<pdfrwt beam="2">  1       -2 0.32228125E+00 0.49616279E+04</pdfrwt>
<totfact> 0.41148154E-03</totfact>
</mgrwt>
</event>
<event>
12    1  0.1665883E-010  0.4211511E+04  0.7818608E-02  0.8398095E-01
          2   -1    0    0  501    0  0.00000000000E+00  0.00000000000E+00  0.22130993603E+04  0.22130993603E+04  0.00000000000E+00 0. -1.
         -2   -1    0    0    0  501 -0.00000000000E+00 -0.00000000000E+00 -0.28982198102E+04  0.28982198102E+04  0.00000000000E+00 0.  1.
        -24    2    1    2    0    0 -0.12706381185E+03  0.51282392856E+03 -0.72359590367E+03  0.89963220976E+03  0.81323348715E+02 0.  0.
    9900016    2    1    2    0    0  0.10164467418E+04  0.55472956122E+03 -0.71959088145E+03  0.26288613171E+04  0.22477125979E+04 0.  0.
         23    2    4    4    0    0 -0.28377238655E+03  0.13584889780E+03  0.58737291779E+03  0.67259282924E+03  0.91610474274E+02 0.  0.
        -15    1    5    5    0    0 -0.69469696435E+02  0.62165842771E+02  0.24378463950E+03  0.26100111338E+03  0.00000000000E+00 0. -1.
        -15    1    1    2    0    0 -0.88938292996E+03 -0.10675534898E+04  0.75806633518E+03  0.15828256436E+04  0.00000000000E+00 0.  1.
         15    1    5    5    0    0 -0.21430269012E+03  0.73683055031E+02  0.34358827829E+03  0.41159171586E+03  0.00000000000E+00 0.  1.
         15    1    3    3    0    0 -0.12454744453E+03  0.41104437901E+03 -0.54315026640E+03  0.69244621405E+03  0.00000000000E+00 0. -1.
        -16    1    3    3    0    0 -0.25163673164E+01  0.10177954955E+03 -0.18044563727E+03  0.20718599571E+03  0.00000000000E+00 0.  1.
         16    1    4    4    0    0  0.12567038702E+04  0.37031582563E+03 -0.12972928797E+04  0.18437481509E+04  0.00000000000E+00 0. -1.
    9900018    1    4    4    0    0  0.43515258127E+02  0.48564837788E+02 -0.96709195798E+01  0.11252033700E+03  0.91187600000E+02 0.  0.
<mgrwt>
<rscale>  0 0.25137738E+04</rscale>
<asrwt>0</asrwt>
<pdfrwt beam="1">  1        2 0.34047682E+00 0.42115112E+04</pdfrwt>
<pdfrwt beam="2">  1       -2 0.44587997E+00 0.42115112E+04</pdfrwt>
<totfact> 0.14141222E-02</totfact>
</mgrwt>
</event>
<event>
12    1  0.1665883E-010  0.4217656E+04  0.7818608E-02  0.8288443E-01
          2   -1    0    0  501    0  0.00000000000E+00  0.00000000000E+00  0.36577332547E+04  0.36577332547E+04  0.00000000000E+00 0. -1.
         -2   -1    0    0    0  501 -0.00000000000E+00 -0.00000000000E+00 -0.24417847368E+04  0.24417847368E+04  0.00000000000E+00 0.  1.
         24    2    1    2    0    0  0.69197619994E+03  0.53339753986E+03 -0.10040612162E+04  0.13332755360E+04  0.78362823397E+02 0.  0.
    9900016    2    1    2    0    0 -0.17905089786E+04 -0.95052009073E+03  0.14181360277E+04  0.33436508314E+04  0.22493288430E+04 0.  0.
         23    2    4    4    0    0 -0.11890127554E+03  0.17366090706E+03  0.12666190984E+04  0.12871060851E+04  0.89568464608E+02 0.  0.
        -15    1    5    5    0    0 -0.19253633656E+02  0.10602721672E+03  0.55426362802E+03  0.56464204806E+03  0.00000000000E+00 0. -1.
        -15    1    3    3    0    0  0.31255139910E+03  0.26145779379E+03 -0.41416151492E+03  0.58101490123E+03  0.00000000000E+00 0.  1.
         15    1    1    2    0    0  0.10985327786E+04  0.41712255087E+03  0.80187370635E+03  0.14225916241E+04  0.00000000000E+00 0. -1.
         15    1    5    5    0    0 -0.99647641888E+02  0.67633690334E+02  0.71235547043E+03  0.72246403707E+03  0.00000000000E+00 0.  1.
        -16    1    4    4    0    0 -0.15540124376E+04 -0.10870831336E+04  0.12240857801E+03  0.19004442258E+04  0.00000000000E+00 0.  1.
         16    1    3    3    0    0  0.37942480084E+03  0.27193974607E+03 -0.58989970130E+03  0.75226063474E+03  0.00000000000E+00 0. -1.
    9900018    1    4    4    0    0 -0.11759526544E+03 -0.37097864185E+02  0.29108351260E+02  0.15610052046E+03  0.91187600000E+02 0.  0.
<mgrwt>
<rscale>  0 0.28482522E+04</rscale>
<asrwt>0</asrwt>
<pdfrwt beam="1">  1        2 0.56272819E+00 0.42176562E+04</pdfrwt>
<pdfrwt beam="2">  1       -2 0.37565919E+00 0.42176562E+04</pdfrwt>
<totfact> 0.48965981E-03</totfact>
</mgrwt>
</event>
