<event>
12    1  0.3891971E-014  0.4638211E+04  0.7818608E-02  0.7886877E-01
          1   -1    0    0  501    0  0.00000000000E+00  0.00000000000E+00  0.17509280398E+04  0.17509280398E+04  0.00000000000E+00 0. -1.
         -1   -1    0    0    0  501 -0.00000000000E+00 -0.00000000000E+00 -0.30716573108E+04  0.30716573108E+04  0.00000000000E+00 0.  1.
    9900016    2    1    2    0    0 -0.35980693705E+02 -0.28023859243E+03 -0.13153811708E+04  0.25624405611E+04  0.21808360154E+04 0.  0.
         23    2    3    3    0    0 -0.28422632348E+03 -0.17217380784E+03  0.56404955683E+03  0.66360835419E+03  0.10860811266E+03 0.  0.
    9900016    2    1    2    0    0  0.35980693705E+02  0.28023859243E+03 -0.53481002336E+01  0.22601447894E+04  0.22424088806E+04 0.  0.
        -15    1    5    5    0    0  0.18488020852E+03 -0.17702071062E+03 -0.77698010134E+03  0.81805568353E+03  0.00000000000E+00 0.  1.
        -15    1    4    4    0    0 -0.21136039671E+03 -0.17790389395E+03  0.43562705092E+03  0.51584294148E+03  0.00000000000E+00 0. -1.
         15    1    5    5    0    0 -0.18212318085E+03  0.53394866512E+03  0.96893893969E+03  0.11212103722E+04  0.00000000000E+00 0. -1.
         15    1    4    4    0    0 -0.72865926778E+02  0.57300861163E+01  0.12842250590E+03  0.14776541271E+03  0.00000000000E+00 0.  1.
        -16    1    3    3    0    0  0.24824562978E+03 -0.10806478459E+03 -0.18794307276E+04  0.18988322069E+04  0.00000000000E+00 0.  1.
         16    1    5    5    0    0 -0.46534161163E+01 -0.69960693879E+02 -0.20972247334E+03  0.22113269499E+03  0.00000000000E+00 0. -1.
    9900018    1    5    5    0    0  0.37877082156E+02 -0.67286681982E+01  0.12415534755E+02  0.99746038645E+02  0.91187600000E+02 0.  0.
<mgrwt>
<rscale>  0 0.46382113E+04</rscale>
<asrwt>0</asrwt>
<pdfrwt beam="1">  1        1 0.26937355E+00 0.46382113E+04</pdfrwt>
<pdfrwt beam="2">  1       -1 0.47256266E+00 0.46382113E+04</pdfrwt>
<totfact> 0.74295970E-03</totfact>
</mgrwt>
</event>
<event>
13    1  0.3891971E-014  0.6637647E+04  0.7818608E-02  0.7616005E-01
          1   -1    0    0  501    0  0.00000000000E+00  0.00000000000E+00  0.24383890060E+04  0.24383890060E+04  0.00000000000E+00 0. -1.
         -1   -1    0    0    0  501 -0.00000000000E+00 -0.00000000000E+00 -0.45171586422E+04  0.45171586422E+04  0.00000000000E+00 0.  1.
    9900016    2    1    2    0    0 -0.22407325661E+04  0.95511996733E+03 -0.13828614386E+04  0.35604790992E+04  0.21980830451E+04 0.  0.
         23    2    3    3    0    0  0.12696449523E+03 -0.48502786309E+03 -0.15263668401E+03  0.52840586559E+03  0.67400225980E+02 0.  0.
    9900016    2    1    2    0    0  0.21373921022E+04 -0.88426896153E+03 -0.68269617028E+03  0.32395408904E+04  0.21629088110E+04 0.  0.
        -24    2    5    5    0    0  0.61345637066E+03 -0.25228310707E+03  0.78397457079E+03  0.10320741757E+04  0.10288581819E+03 0.  0.
        -15    1    4    4    0    0  0.13305348149E+03 -0.42044965908E+03 -0.13168143305E+03  0.46024031176E+03  0.00000000000E+00 0. -1.
        -15    1    5    5    0    0  0.15239357316E+04 -0.63198585447E+03 -0.14666707411E+04  0.22074667148E+04  0.00000000000E+00 0.  1.
         15    1    6    6    0    0  0.60263694917E+03 -0.24257222700E+03  0.73476050669E+03  0.98075765610E+03  0.00000000000E+00 0. -1.
         15    1    4    4    0    0 -0.60889862526E+01 -0.64578204010E+02 -0.20955250964E+02  0.68165553836E+02  0.00000000000E+00 0.  1.
        -16    1    6    6    0    0  0.10819421490E+02 -0.97108800707E+01  0.49214064102E+02  0.51316519548E+02  0.00000000000E+00 0.  1.
         16    1    3    3    0    0 -0.23676970613E+04  0.14401478304E+04 -0.12302247546E+04  0.30320732337E+04  0.00000000000E+00 0. -1.
    9900018    1    1    2    0    0  0.10334046383E+03 -0.70851005793E+02 -0.13212027389E+02  0.15552765847E+03  0.91187600000E+02 0.  0.
<mgrwt>
<rscale>  0 0.66376472E+04</rscale>
<asrwt>0</asrwt>
<pdfrwt beam="1">  1        1 0.37513677E+00 0.66376472E+04</pdfrwt>
<pdfrwt beam="2">  1       -1 0.69494748E+00 0.66376472E+04</pdfrwt>
<totfact> 0.20302649E-04</totfact>
</mgrwt>
</event>
<event>
11    1  0.3891971E-014  0.5215571E+04  0.7818608E-02  0.7796087E-01
          2   -1    0    0  501    0  0.00000000000E+00  0.00000000000E+00  0.34311921904E+04  0.34311921904E+04  0.00000000000E+00 0. -1.
         -2   -1    0    0    0  501 -0.00000000000E+00 -0.00000000000E+00 -0.19819770875E+04  0.19819770875E+04  0.00000000000E+00 0.  1.
    9900016    2    1    2    0    0  0.13545854470E+04 -0.77029126479E+02  0.73567406632E+03  0.26863425332E+04  0.21987234147E+04 0.  0.
    9900016    2    1    2    0    0 -0.12860985264E+04  0.68230747093E+02  0.69826147348E+03  0.26114295471E+04  0.21617794382E+04 0.  0.
        -15    1    3    3    0    0 -0.19129944078E+03  0.36186199546E+03  0.75740273468E+02  0.41626454188E+03  0.00000000000E+00 0.  1.
        -15    1    4    4    0    0 -0.14711755296E+04  0.55814163842E+03  0.10897310322E+04  0.19139992816E+04  0.00000000000E+00 0.  1.
         15    1    3    3    0    0 -0.22019456556E+03  0.19542486915E+03  0.11436926252E+03  0.31584308508E+03  0.00000000000E+00 0. -1.
         15    1    4    4    0    0  0.92190239924E+02 -0.16192461401E+02 -0.49916883595E+02  0.10607983508E+03  0.00000000000E+00 0. -1.
        -16    1    4    4    0    0  0.92886763259E+02 -0.47371842993E+03 -0.34155267512E+03  0.59135043039E+03  0.00000000000E+00 0.  1.
         16    1    3    3    0    0  0.17660794534E+04 -0.63431599109E+03  0.54556453033E+03  0.19542349063E+04  0.00000000000E+00 0. -1.
    9900018    1    1    2    0    0 -0.68486920592E+02  0.87983793861E+01  0.15279563041E+02  0.11539719759E+03  0.91187600000E+02 0.  0.
<mgrwt>
<rscale>  0 0.52155707E+04</rscale>
<asrwt>0</asrwt>
<pdfrwt beam="1">  1        2 0.52787572E+00 0.52155707E+04</pdfrwt>
<pdfrwt beam="2">  1       -2 0.30491955E+00 0.52155707E+04</pdfrwt>
<totfact> 0.19226423E-02</totfact>
</mgrwt>
</event>
<event>
12    1  0.3891971E-014  0.5523004E+04  0.7818608E-02  0.7752532E-01
         -2   -1    0    0    0  501 -0.00000000000E+00  0.00000000000E+00  0.19109037169E+04  0.19109037169E+04  0.00000000000E+00 0.  1.
          2   -1    0    0  501    0  0.00000000000E+00 -0.00000000000E+00 -0.39907254159E+04  0.39907254159E+04  0.00000000000E+00 0. -1.
    9900016    2    1    2    0    0 -0.10276705132E+04  0.25961555358E+03  0.30381480411E+03  0.24591467071E+04  0.21980882995E+04 0.  0.
         23    2    3    3    0    0  0.13858702444E+03  0.29180962628E+03 -0.79218552839E+03  0.85839381200E+03  0.70162694941E+02 0.  0.
    9900016    2    1    2    0    0  0.10276705132E+04 -0.25961555358E+03 -0.23836365031E+04  0.34424824256E+04  0.22462091070E+04 0.  0.
        -15    1    4    4    0    0  0.10814340746E+03  0.20067972469E+03 -0.47312548004E+03  0.52518098627E+03  0.00000000000E+00 0.  1.
        -15    1    5    5    0    0 -0.46550454585E+03 -0.41030004584E+03 -0.60885685499E+03  0.86933726464E+03  0.00000000000E+00 0.  1.
         15    1    5    5    0    0  0.16040125138E+04  0.24298965519E+03 -0.15361827239E+04  0.22342241334E+04  0.00000000000E+00 0. -1.
         15    1    4    4    0    0  0.30443616978E+02  0.91129901595E+02 -0.31906004835E+03  0.33321282573E+03  0.00000000000E+00 0. -1.
        -16    1    3    3    0    0 -0.11662575376E+04 -0.32194072706E+02  0.10960003325E+04  0.16007528951E+04  0.00000000000E+00 0.  1.
         16    1    5    5    0    0 -0.10696063992E+03 -0.10294430176E+03 -0.15635554921E+03  0.21560418717E+03  0.00000000000E+00 0. -1.
    9900018    1    5    5    0    0 -0.38768148525E+01  0.10639138831E+02 -0.82241375073E+02  0.12331684044E+03  0.91187600000E+02 0.  0.
<mgrwt>
<rscale>  0 0.55230035E+04</rscale>
<asrwt>0</asrwt>
<pdfrwt beam="1">  1        2 0.61395775E+00 0.55230035E+04</pdfrwt>
<pdfrwt beam="2">  1       -2 0.29398519E+00 0.55230035E+04</pdfrwt>
<totfact> 0.83692693E-03</totfact>
</mgrwt>
</event>
