<event>
12    1  0.6682191E-018  0.3133958E+04  0.7818608E-02  0.8543244E-01
          2   -1    0    0  501    0  0.00000000000E+00  0.00000000000E+00  0.27884399313E+04  0.27884399313E+04  0.00000000000E+00 0. -1.
         -2   -1    0    0    0  501 -0.00000000000E+00 -0.00000000000E+00 -0.13599378539E+04  0.13599378539E+04  0.00000000000E+00 0.  1.
         24    2    1    2    0    0 -0.47916597044E+03  0.47619301249E+03 -0.46507552039E+02  0.68465967043E+03  0.10117361093E+03 0.  0.
    9900016    2    1    2    0    0 -0.54111367883E+03 -0.13248418904E+03  0.10570596823E+04  0.21596179180E+04  0.17989492227E+04 0.  0.
        -24    2    4    4    0    0 -0.74367121693E+03 -0.85377985132E+03  0.65287194928E+03  0.13083455102E+04  0.59491835374E+02 0.  0.
        -15    1    4    4    0    0  0.20255753810E+03  0.72129566228E+03  0.40418773306E+03  0.85127240776E+03  0.00000000000E+00 0.  1.
        -15    1    3    3    0    0 -0.31227148584E+03  0.24025630565E+03 -0.31986605178E+02  0.39529699744E+03  0.00000000000E+00 0.  1.
         15    1    5    5    0    0 -0.37579297247E+03 -0.47623802350E+03  0.35371263145E+03  0.70223617026E+03  0.00000000000E+00 0. -1.
         15    1    1    2    0    0  0.10586353000E+04 -0.33302789400E+03  0.29966041175E+03  0.11495271371E+04  0.00000000000E+00 0. -1.
        -16    1    5    5    0    0 -0.36787824446E+03 -0.37754182783E+03  0.29915931783E+03  0.60610933993E+03  0.00000000000E+00 0.  1.
         16    1    3    3    0    0 -0.16689448460E+03  0.23593670684E+03 -0.14520946860E+02  0.28936267299E+03  0.00000000000E+00 0. -1.
    9900018    1    1    2    0    0 -0.38355650769E+02 -0.10680929441E+02  0.11828953539E+03  0.15457305967E+03  0.91187600000E+02 0.  0.
<mgrwt>
<rscale>  0 0.21413492E+04</rscale>
<asrwt>0</asrwt>
<pdfrwt beam="1">  1        2 0.42899076E+00 0.31339575E+04</pdfrwt>
<pdfrwt beam="2">  1       -2 0.20922121E+00 0.31339575E+04</pdfrwt>
<totfact> 0.22474392E-01</totfact>
</mgrwt>
</event>
<event>
12    1  0.6682191E-018  0.4218856E+04  0.7818608E-02  0.7961795E-01
          2   -1    0    0  501    0  0.00000000000E+00  0.00000000000E+00  0.35141014784E+04  0.35141014784E+04  0.00000000000E+00 0. -1.
         -2   -1    0    0    0  501 -0.00000000000E+00 -0.00000000000E+00 -0.12662371422E+04  0.12662371422E+04  0.00000000000E+00 0.  1.
        -24    2    1    2    0    0  0.64174357844E+03 -0.71389288594E+03  0.58480401957E+03  0.11283468695E+04  0.98453255108E+02 0.  0.
    9900016    2    1    2    0    0  0.60350271794E+02  0.67433567046E+03  0.15201619838E+03  0.19216773779E+04  0.17920279765E+04 0.  0.
         24    2    4    4    0    0 -0.24716754942E+03 -0.57429267200E+03  0.85588017157E+02  0.63402344489E+03  0.61290695766E+02 0.  0.
        -15    1    5    5    0    0 -0.30692798573E+02 -0.94620565268E+02  0.34522951233E+02  0.10529450801E+03  0.00000000000E+00 0.  1.
        -15    1    1    2    0    0 -0.67979103831E+03 -0.28741154009E+02  0.14439605182E+04  0.15962342835E+04  0.00000000000E+00 0.  1.
         15    1    4    4    0    0  0.30751782121E+03  0.12486283425E+04  0.66428181225E+02  0.12876539330E+04  0.00000000000E+00 0. -1.
         15    1    3    3    0    0  0.37169463364E+03 -0.46010582511E+03  0.31658552831E+03  0.67088051672E+03  0.00000000000E+00 0. -1.
        -16    1    3    3    0    0  0.27004894480E+03 -0.25378706083E+03  0.26821849127E+03  0.45746635274E+03  0.00000000000E+00 0.  1.
         16    1    5    5    0    0 -0.21647475085E+03 -0.47967210674E+03  0.51065065924E+02  0.52872893688E+03  0.00000000000E+00 0. -1.
    9900018    1    1    2    0    0 -0.22302811926E+02  0.68298369489E+02  0.67083600031E+02  0.13408008980E+03  0.91187600000E+02 0.  0.
<mgrwt>
<rscale>  0 0.42188557E+04</rscale>
<asrwt>0</asrwt>
<pdfrwt beam="1">  1        2 0.54063099E+00 0.42188557E+04</pdfrwt>
<pdfrwt beam="2">  1       -2 0.19480572E+00 0.42188557E+04</pdfrwt>
<totfact> 0.88491949E-02</totfact>
</mgrwt>
</event>
<event>
10    1  0.6682191E-018  0.3301880E+04  0.7818608E-02  0.8483417E-01
          2   -1    0    0  501    0  0.00000000000E+00  0.00000000000E+00  0.34676538526E+04  0.34676538526E+04  0.00000000000E+00 0. -1.
         -2   -1    0    0    0  501 -0.00000000000E+00 -0.00000000000E+00 -0.15689099784E+04  0.15689099784E+04  0.00000000000E+00 0.  1.
    9900016    2    1    2    0    0 -0.72523118114E+02  0.98055168667E+03  0.23996682895E+04  0.31524381046E+04  0.17924053366E+04 0.  0.
        -15    1    1    2    0    0 -0.34665093161E+03 -0.40610454119E+03 -0.53511739548E+03  0.75593544282E+03  0.00000000000E+00 0.  1.
        -15    1    3    3    0    0  0.60327561923E+01 -0.19746922045E+03  0.12154865403E+03  0.23195810499E+03  0.00000000000E+00 0.  1.
         15    1    3    3    0    0 -0.20196142457E+03  0.14820574518E+04  0.19350971100E+04  0.24457889387E+04  0.00000000000E+00 0. -1.
         15    1    1    2    0    0 -0.55896533579E+02 -0.16634664967E+03 -0.52242720688E+01  0.17556458453E+03  0.00000000000E+00 0. -1.
        -16    1    1    2    0    0  0.45651593721E+03 -0.46765479534E+03 -0.20455834340E+03  0.68480064573E+03  0.00000000000E+00 0.  1.
         16    1    3    3    0    0  0.12340555026E+03 -0.30403654467E+03  0.34302252545E+03  0.47469106090E+03  0.00000000000E+00 0. -1.
    9900018    1    1    2    0    0  0.18554646088E+02  0.59554299526E+02  0.24397559573E+03  0.26782505333E+03  0.91187600000E+02 0.  0.
<mgrwt>
<rscale>  0 0.22861128E+04</rscale>
<asrwt>0</asrwt>
<pdfrwt beam="1">  1        2 0.53348521E+00 0.33018799E+04</pdfrwt>
<pdfrwt beam="2">  1       -2 0.24137077E+00 0.33018799E+04</pdfrwt>
<totfact> 0.49798096E-02</totfact>
</mgrwt>
</event>
<event>
11    1  0.6682191E-018  0.3923080E+04  0.7818608E-02  0.8968609E-01
         -2   -1    0    0    0  501 -0.00000000000E+00  0.00000000000E+00  0.16073957816E+04  0.16073957816E+04  0.00000000000E+00 0.  1.
          2   -1    0    0  501    0  0.00000000000E+00 -0.00000000000E+00 -0.30103296535E+04  0.30103296535E+04  0.00000000000E+00 0. -1.
    9900016    2    1    2    0    0 -0.22496638699E+03  0.14570295393E+04 -0.14877367029E+04  0.28275410285E+04  0.18994954111E+04 0.  0.
         24    2    3    3    0    0  0.50698081439E+03 -0.14822106279E+03 -0.77656664490E+02  0.54212747847E+03  0.94194563353E+02 0.  0.
        -15    1    1    2    0    0  0.24859526363E+03 -0.14177662336E+04 -0.24053556630E+03  0.14593553566E+04  0.00000000000E+00 0.  1.
        -15    1    4    4    0    0  0.47479718184E+03 -0.11229947920E+03 -0.64553222845E+02  0.49214901756E+03  0.00000000000E+00 0.  1.
         15    1    3    3    0    0 -0.71556519391E+03  0.14363189669E+04 -0.12839136507E+04  0.20551106987E+04  0.00000000000E+00 0. -1.
         15    1    1    2    0    0  0.65691721585E+01 -0.11089865027E+02  0.30494296071E+02  0.33106513287E+02  0.00000000000E+00 0. -1.
        -16    1    1    2    0    0 -0.30198048799E+02 -0.28173440705E+02  0.29484410118E+03  0.29772253679E+03  0.00000000000E+00 0.  1.
         16    1    4    4    0    0  0.32183632548E+02 -0.35921583595E+02 -0.13103441645E+02  0.49978460910E+02  0.00000000000E+00 0. -1.
    9900018    1    3    3    0    0 -0.16382007475E+02  0.16893163517E+03 -0.12616638767E+03  0.23030285127E+03  0.91187600000E+02 0.  0.
<mgrwt>
<rscale>  0 0.13797493E+04</rscale>
<asrwt>0</asrwt>
<pdfrwt beam="1">  1        2 0.46312763E+00 0.39230799E+04</pdfrwt>
<pdfrwt beam="2">  1       -2 0.24729166E+00 0.39230799E+04</pdfrwt>
<totfact> 0.89343731E-02</totfact>
</mgrwt>
</event>
<event>
12    1  0.6682191E-018  0.3532288E+04  0.7818608E-02  0.8415667E-01
         -1   -1    0    0    0  501 -0.00000000000E+00  0.00000000000E+00  0.19069776830E+04  0.19069776830E+04  0.00000000000E+00 0.  1.
          1   -1    0    0  501    0  0.00000000000E+00 -0.00000000000E+00 -0.27027998641E+04  0.27027998641E+04  0.00000000000E+00 0. -1.
         24    2    1    2    0    0  0.37906083119E+03 -0.74422365398E+03  0.33358040561E+03  0.90132630131E+03  0.59642715695E+02 0.  0.
    9900016    2    1    2    0    0  0.71162447993E+03  0.88246461013E+03 -0.10805640918E+04  0.23830382331E+04  0.17961345371E+04 0.  0.
        -24    2    4    4    0    0  0.58187505901E+03 -0.41317492290E+03 -0.41969298428E+02  0.71744648947E+03  0.60629547394E+02 0.  0.
        -15    1    3    3    0    0  0.20226620219E+03 -0.34984934386E+03  0.13893209770E+03  0.42732693306E+03  0.00000000000E+00 0.  1.
        -15    1    4    4    0    0  0.12974942092E+03  0.12956395330E+04 -0.10385947933E+04  0.16655917437E+04  0.00000000000E+00 0.  1.
         15    1    5    5    0    0  0.84146436661E+02 -0.36844718580E+02  0.23429813513E+01  0.91889311956E+02  0.00000000000E+00 0. -1.
         15    1    1    2    0    0 -0.11594352708E+04 -0.19546413438E+03  0.28404451878E+02  0.11761391023E+04  0.00000000000E+00 0. -1.
        -16    1    5    5    0    0  0.49772862235E+03 -0.37633020432E+03 -0.44312279779E+02  0.62555717751E+03  0.00000000000E+00 0.  1.
         16    1    3    3    0    0  0.17679462900E+03 -0.39437431012E+03  0.19464830791E+03  0.47399936825E+03  0.00000000000E+00 0. -1.
    9900018    1    1    2    0    0  0.68749959709E+02  0.57223178230E+02 -0.77242946783E+02  0.14927391034E+03  0.91187600000E+02 0.  0.
<mgrwt>
<rscale>  0 0.24647088E+04</rscale>
<asrwt>0</asrwt>
<pdfrwt beam="1">  1        1 0.41581536E+00 0.35322883E+04</pdfrwt>
<pdfrwt beam="2">  1       -1 0.29338118E+00 0.35322883E+04</pdfrwt>
<totfact> 0.28062822E-02</totfact>
</mgrwt>
</event>
<event>
12    1  0.6682191E-018  0.3994398E+04  0.7818608E-02  0.8332979E-01
          1   -1    0    0  501    0  0.00000000000E+00  0.00000000000E+00  0.22194459890E+04  0.22194459890E+04  0.00000000000E+00 0. -1.
         -1   -1    0    0    0  501 -0.00000000000E+00 -0.00000000000E+00 -0.26795329041E+04  0.26795329041E+04  0.00000000000E+00 0.  1.
        -24    2    1    2    0    0 -0.49158640525E+02 -0.83744044199E+03 -0.32530508921E+03  0.90230775080E+03  0.67917672741E+02 0.  0.
    9900016    2    1    2    0    0 -0.74817205599E+02 -0.63427161760E+03  0.71553979824E+03  0.20286085201E+04  0.17875562161E+04 0.  0.
         24    2    4    4    0    0  0.53590580894E+02  0.56112032252E+03 -0.10014037798E+03  0.57575457008E+03  0.61133157619E+02 0.  0.
        -15    1    1    2    0    0  0.16500409452E+03  0.15256476939E+04 -0.96004737025E+03  0.18101155185E+04  0.00000000000E+00 0.  1.
        -15    1    5    5    0    0  0.10543538924E+02  0.40180897607E+03 -0.72296895197E+02  0.40839742961E+03  0.00000000000E+00 0.  1.
         15    1    3    3    0    0 -0.25907331803E+02 -0.14490799384E+03 -0.77862165813E+02  0.16652937695E+03  0.00000000000E+00 0. -1.
         15    1    4    4    0    0 -0.12840778649E+03 -0.11953919401E+04  0.81568017622E+03  0.14528539500E+04  0.00000000000E+00 0. -1.
        -16    1    3    3    0    0 -0.23251308722E+02 -0.69253244815E+03 -0.24744292339E+03  0.73577837385E+03  0.00000000000E+00 0.  1.
         16    1    5    5    0    0  0.43047041971E+02  0.15931134645E+03 -0.27843482783E+02  0.16735714046E+03  0.00000000000E+00 0. -1.
    9900018    1    1    2    0    0 -0.41028248393E+02 -0.53935634314E+02  0.10972574608E+03  0.15794710368E+03  0.91187600000E+02 0.  0.
<mgrwt>
<rscale>  0 0.27062533E+04</rscale>
<asrwt>0</asrwt>
<pdfrwt beam="1">  1        1 0.34145323E+00 0.39943978E+04</pdfrwt>
<pdfrwt beam="2">  1       -1 0.41223583E+00 0.39943978E+04</pdfrwt>
<totfact> 0.94774351E-03</totfact>
</mgrwt>
</event>
<event>
12    1  0.6682191E-018  0.3637985E+04  0.7818608E-02  0.8422058E-01
         -2   -1    0    0    0  501 -0.00000000000E+00  0.00000000000E+00  0.15634246913E+04  0.15634246913E+04  0.00000000000E+00 0.  1.
          2   -1    0    0  501    0  0.00000000000E+00 -0.00000000000E+00 -0.32201398702E+04  0.32201398702E+04  0.00000000000E+00 0. -1.
        -24    2    1    2    0    0  0.71868196324E+03  0.16698144690E+03  0.85859758462E+02  0.74976944752E+03  0.10195959205E+03 0.  0.
    9900016    2    1    2    0    0 -0.41696433476E+03  0.94420194501E+03 -0.41761918131E+03  0.21202339480E+04  0.18043308023E+04 0.  0.
         24    2    4    4    0    0  0.97522210270E+02 -0.46430859183E+03  0.16514269330E+03  0.51144255691E+03  0.95960043378E+02 0.  0.
        -15    1    1    2    0    0 -0.26013323411E+03 -0.11832303279E+04 -0.13176037643E+04  0.17899114470E+04  0.00000000000E+00 0.  1.
        -15    1    5    5    0    0  0.16497182808E+02 -0.14726561709E+03  0.97229334088E+02  0.17723674118E+03  0.00000000000E+00 0.  1.
         15    1    3    3    0    0  0.67342280083E+03  0.16881000362E+03  0.10194197219E+03  0.70170310794E+03  0.00000000000E+00 0. -1.
         15    1    4    4    0    0 -0.51448654503E+03  0.14085105368E+04 -0.58276187461E+03  0.16087913911E+04  0.00000000000E+00 0. -1.
        -16    1    3    3    0    0  0.45259162412E+02 -0.18285567222E+01 -0.16082213730E+02  0.48066339577E+02  0.00000000000E+00 0.  1.
         16    1    5    5    0    0  0.81025027462E+02 -0.31704297474E+03  0.67913359210E+02  0.33420581573E+03  0.00000000000E+00 0. -1.
    9900018    1    1    2    0    0 -0.41584394369E+02  0.72046936000E+02 -0.73519918226E+01  0.12364971904E+03  0.91187600000E+02 0.  0.
<mgrwt>
<rscale>  0 0.24471524E+04</rscale>
<asrwt>0</asrwt>
<pdfrwt beam="1">  1        2 0.49540613E+00 0.36379851E+04</pdfrwt>
<pdfrwt beam="2">  1       -2 0.24052688E+00 0.36379851E+04</pdfrwt>
<totfact> 0.72982653E-02</totfact>
</mgrwt>
</event>
<event>
10    1  0.6682191E-018  0.4124727E+04  0.7818608E-02  0.8571013E-01
         -2   -1    0    0    0  501 -0.00000000000E+00  0.00000000000E+00  0.18636889928E+04  0.18636889928E+04  0.00000000000E+00 0.  1.
          2   -1    0    0  501    0  0.00000000000E+00 -0.00000000000E+00 -0.28780367653E+04  0.28780367653E+04  0.00000000000E+00 0. -1.
    9900016    2    1    2    0    0 -0.11013024840E+04 -0.13890137636E+03 -0.19958674212E+04  0.29638041187E+04  0.18890440273E+04 0.  0.
        -15    1    1    2    0    0  0.11922183005E+04 -0.51833855303E+02  0.67027170913E+03  0.13686984286E+04  0.00000000000E+00 0.  1.
        -15    1    3    3    0    0  0.18835958034E+03  0.10151100106E+03 -0.27470892876E+03  0.34820799873E+03  0.00000000000E+00 0.  1.
         15    1    1    2    0    0 -0.46928193029E+02  0.16539427614E+03  0.31442583820E+03  0.35835893963E+03  0.00000000000E+00 0. -1.
         15    1    3    3    0    0 -0.14439218894E+04 -0.34389597180E+03 -0.10791070780E+04  0.18351149686E+04  0.00000000000E+00 0. -1.
        -16    1    1    2    0    0 -0.43987623436E+02  0.25340955521E+02 -0.31778985412E+01  0.50864271168E+02  0.00000000000E+00 0.  1.
         16    1    3    3    0    0  0.26032330083E+03  0.14025553323E+03 -0.47499926278E+03  0.55952134473E+03  0.00000000000E+00 0. -1.
    9900018    1    3    3    0    0 -0.10606347575E+03 -0.36771938841E+02 -0.16705215172E+03  0.22095980667E+03  0.91187600000E+02 0.  0.
<mgrwt>
<rscale>  0 0.20779642E+04</rscale>
<asrwt>0</asrwt>
<pdfrwt beam="1">  1        2 0.44277488E+00 0.41247272E+04</pdfrwt>
<pdfrwt beam="2">  1       -2 0.28672139E+00 0.41247272E+04</pdfrwt>
<totfact> 0.60870959E-02</totfact>
</mgrwt>
</event>
<event>
11    1  0.6682191E-018  0.4009685E+04  0.7818608E-02  0.8435727E-01
         -1   -1    0    0    0  501 -0.00000000000E+00  0.00000000000E+00  0.26276412789E+04  0.26276412789E+04  0.00000000000E+00 0.  1.
          1   -1    0    0  501    0  0.00000000000E+00 -0.00000000000E+00 -0.19946982028E+04  0.19946982028E+04  0.00000000000E+00 0. -1.
        -24    2    1    2    0    0 -0.44934436354E+03  0.26021346909E+03  0.28914768063E+03  0.59794252959E+03  0.65631402106E+02 0.  0.
    9900016    2    1    2    0    0 -0.60129666233E+03  0.87902420018E+03 -0.54753578390E+03  0.22366105264E+04  0.18890182613E+04 0.  0.
        -15    1    4    4    0    0 -0.21068310652E+03 -0.25639858613E+03  0.33605867381E+03  0.47229549923E+03  0.00000000000E+00 0.  1.
        -15    1    1    2    0    0  0.10506410259E+04 -0.11392376693E+04  0.89133117943E+03  0.17877864257E+04  0.00000000000E+00 0.  1.
         15    1    3    3    0    0 -0.22753921339E+03  0.10676920313E+03  0.16768409226E+03  0.30214518226E+03  0.00000000000E+00 0. -1.
         15    1    4    4    0    0 -0.49499071478E+03  0.11432437496E+04 -0.70960274409E+03  0.14337217768E+04  0.00000000000E+00 0. -1.
        -16    1    3    3    0    0 -0.22180515015E+03  0.15344426596E+03  0.12146358837E+03  0.29579734733E+03  0.00000000000E+00 0.  1.
         16    1    4    4    0    0  0.14123042084E+03 -0.61267166289E+02 -0.15234205845E+03  0.21658208654E+03  0.00000000000E+00 0. -1.
    9900018    1    4    4    0    0 -0.36853261870E+02  0.53446202958E+02 -0.21649655174E+02  0.11401116386E+03  0.91187600000E+02 0.  0.
<mgrwt>
<rscale>  0 0.24101135E+04</rscale>
<asrwt>0</asrwt>
<pdfrwt beam="1">  1        1 0.30687664E+00 0.40096852E+04</pdfrwt>
<pdfrwt beam="2">  1       -1 0.40425251E+00 0.40096852E+04</pdfrwt>
<totfact> 0.15416808E-02</totfact>
</mgrwt>
</event>
