<event>
11    1  0.1089981E-014  0.2451664E+04  0.7818608E-02  0.8420411E-01
         -2   -1    0    0    0  501 -0.00000000000E+00  0.00000000000E+00  0.73931274408E+03  0.73931274408E+03  0.00000000000E+00 0.  1.
          2   -1    0    0  501    0  0.00000000000E+00 -0.00000000000E+00 -0.20325153512E+04  0.20325153512E+04  0.00000000000E+00 0. -1.
    9900016    2    1    2    0    0  0.28536880335E+03 -0.50268762084E+03  0.53046002519E+02  0.86570858976E+03  0.64226730099E+03 0.  0.
         23    2    3    3    0    0 -0.89242576891E+02  0.38173734301E+02  0.12881471215E+03  0.20343554255E+03  0.12398112110E+03 0.  0.
        -15    1    4    4    0    0 -0.17961402241E+02  0.17523873681E+02 -0.23262165934E+02  0.34217341848E+02  0.00000000000E+00 0. -1.
        -15    1    1    2    0    0  0.15807659485E+03 -0.94736186708E+02 -0.12109443651E+03  0.22051534519E+03  0.00000000000E+00 0.  1.
         15    1    1    2    0    0 -0.19821487698E+02  0.13057941218E+03 -0.51527102930E+03  0.53192866805E+03  0.00000000000E+00 0.  1.
         15    1    4    4    0    0 -0.71281174650E+02  0.20649860620E+02  0.15207687808E+03  0.16921820070E+03  0.00000000000E+00 0. -1.
        -16    1    1    2    0    0 -0.48615870333E+03  0.51108002685E+03 -0.37629956579E+03  0.79947135151E+03  0.00000000000E+00 0.  1.
         16    1    3    3    0    0  0.37461138024E+03 -0.54086135514E+03 -0.75768709628E+02  0.66227304720E+03  0.00000000000E+00 0. -1.
    9900018    1    1    2    0    0  0.62534792823E+02 -0.44235631486E+02 -0.33358357809E+03  0.35420414082E+03  0.91187600000E+02 0.  0.
<mgrwt>
<rscale>  0 0.24516643E+04</rscale>
<asrwt>0</asrwt>
<pdfrwt beam="1">  1        2 0.31269467E+00 0.24516643E+04</pdfrwt>
<pdfrwt beam="2">  1       -2 0.11374042E+00 0.24516643E+04</pdfrwt>
<totfact> 0.34756139E+00</totfact>
</mgrwt>
</event>
<event>
10    1  0.1089981E-014  0.1829525E+04  0.7818608E-02  0.8690754E-01
          1   -1    0    0  501    0  0.00000000000E+00  0.00000000000E+00  0.17820478041E+04  0.17820478041E+04  0.00000000000E+00 0. -1.
         -1   -1    0    0    0  501 -0.00000000000E+00 -0.00000000000E+00 -0.46956675190E+03  0.46956675190E+03  0.00000000000E+00 0.  1.
    9900016    2    1    2    0    0  0.52510751709E+03  0.36390729376E+02  0.11164035617E+04  0.14661497786E+04  0.79131287806E+03 0.  0.
        -15    1    1    2    0    0 -0.11852922101E+03  0.17928027957E+03  0.21286048192E+03  0.30248996618E+03  0.00000000000E+00 0.  1.
        -15    1    3    3    0    0 -0.14232382175E+02  0.98760852196E+02  0.21318580307E+03  0.23538150577E+03  0.00000000000E+00 0.  1.
         15    1    1    2    0    0 -0.26368627001E+03 -0.20763194980E+03  0.16541050561E+02  0.33602839452E+03  0.00000000000E+00 0. -1.
         15    1    3    3    0    0  0.22203065861E+03  0.17925510388E+03  0.40403555083E+03  0.49464606737E+03  0.00000000000E+00 0. -1.
        -16    1    1    2    0    0 -0.14289202607E+03 -0.80390591481E+01 -0.33324042050E+02  0.14694641664E+03  0.00000000000E+00 0.  1.
         16    1    3    3    0    0  0.35719271285E+03 -0.12538299228E+03  0.41398985150E+03  0.56097693893E+03  0.00000000000E+00 0. -1.
    9900018    1    3    3    0    0 -0.39883472199E+02 -0.11624223442E+03  0.85192356331E+02  0.17514526653E+03  0.91187600000E+02 0.  0.
<mgrwt>
<rscale>  0 0.18295250E+04</rscale>
<asrwt>0</asrwt>
<pdfrwt beam="1">  1        1 0.27416120E+00 0.18295250E+04</pdfrwt>
<pdfrwt beam="2">  1       -1 0.72241040E-01 0.18295250E+04</pdfrwt>
<totfact> 0.76239707E+00</totfact>
</mgrwt>
</event>
<event>
10    1  0.1089981E-014  0.7578187E+03  0.7818608E-02  0.1005076E+00
          1   -1    0    0  501    0  0.00000000000E+00  0.00000000000E+00  0.65129602629E+03  0.65129602629E+03  0.00000000000E+00 0. -1.
         -1   -1    0    0    0  501 -0.00000000000E+00 -0.00000000000E+00 -0.42315619120E+03  0.42315619120E+03  0.00000000000E+00 0.  1.
    9900016    2    1    2    0    0  0.10657837759E+03 -0.10858738708E+03  0.22860996192E+03  0.67003061332E+03  0.61116964657E+03 0.  0.
        -15    1    1    2    0    0 -0.51516580589E+02  0.11386764987E+03 -0.67606956181E+02  0.14209328023E+03  0.00000000000E+00 0. -1.
        -15    1    3    3    0    0 -0.37293263056E+01 -0.29809769134E+02  0.13341079573E+03  0.13675149223E+03  0.00000000000E+00 0.  1.
         15    1    3    3    0    0  0.70743573491E+02 -0.14709973588E+03  0.10189435587E+03  0.19241997101E+03  0.00000000000E+00 0. -1.
         15    1    1    2    0    0  0.33279685206E+02  0.47373767631E+02 -0.70046876665E+02  0.90875608595E+02  0.00000000000E+00 0.  1.
        -16    1    3    3    0    0 -0.58865911950E+02 -0.57067354212E+02 -0.10447477074E+03  0.13280382611E+03  0.00000000000E+00 0.  1.
         16    1    1    2    0    0 -0.88341482211E+02 -0.52654030428E+02  0.13718370602E+03  0.17145271534E+03  0.00000000000E+00 0. -1.
    9900018    1    3    3    0    0  0.98430042359E+02  0.12538947215E+03  0.97779581062E+02  0.20805532397E+03  0.91187600000E+02 0.  0.
<mgrwt>
<rscale>  0 0.53479296E+03</rscale>
<asrwt>0</asrwt>
<pdfrwt beam="1">  1        1 0.10019939E+00 0.75781870E+03</pdfrwt>
<pdfrwt beam="2">  1       -1 0.65100952E-01 0.75781870E+03</pdfrwt>
<totfact> 0.74047418E+01</totfact>
</mgrwt>
</event>
<event>
11    1  0.1089981E-014  0.1210625E+04  0.7818608E-02  0.9493986E-01
         -2   -1    0    0    0  501 -0.00000000000E+00  0.00000000000E+00  0.20338673603E+04  0.20338673603E+04  0.00000000000E+00 0. -1.
          2   -1    0    0  501    0  0.00000000000E+00 -0.00000000000E+00 -0.31385504836E+03  0.31385504836E+03  0.00000000000E+00 0.  1.
    9900016    2    1    2    0    0 -0.27219572216E+03  0.35789002784E+03  0.96557647090E+03  0.12339746811E+04  0.62304077648E+03 0.  0.
         23    2    3    3    0    0  0.15169806527E+03  0.27990473144E+03  0.37719955790E+03  0.50462220028E+03  0.10490518028E+03 0.  0.
        -15    1    4    4    0    0  0.61791253505E+02  0.18074469419E+03  0.28104896911E+03  0.33981660720E+03  0.00000000000E+00 0.  1.
        -15    1    1    2    0    0  0.39840388533E+02 -0.86548679702E+02 -0.52406532810E+02  0.10873994297E+03  0.00000000000E+00 0.  1.
         15    1    1    2    0    0  0.10129473092E+03 -0.13004165685E+03  0.70869201606E+03  0.72760966779E+03  0.00000000000E+00 0. -1.
         15    1    4    4    0    0  0.89906811762E+02  0.99160037247E+02  0.96150588793E+02  0.16480559309E+03  0.00000000000E+00 0. -1.
        -16    1    1    2    0    0  0.43216917856E+02  0.25268028711E+02  0.15098367970E+02  0.52288966133E+02  0.00000000000E+00 0.  1.
         16    1    3    3    0    0 -0.42389378742E+03  0.77985296404E+02  0.58837691300E+03  0.72935248078E+03  0.00000000000E+00 0. -1.
    9900018    1    1    2    0    0  0.87843684844E+02 -0.16656772001E+03  0.83051989787E+02  0.22510915067E+03  0.91187600000E+02 0.  0.
<mgrwt>
<rscale>  0 0.84728665E+03</rscale>
<asrwt>0</asrwt>
<pdfrwt beam="1">  1        2 0.48285393E-01 0.12106252E+04</pdfrwt>
<pdfrwt beam="2">  1       -2 0.31290266E+00 0.12106252E+04</pdfrwt>
<totfact> 0.27400209E+00</totfact>
</mgrwt>
</event>
<event>
11    1  0.1089981E-014  0.2374158E+04  0.7818608E-02  0.8449242E-01
         -2   -1    0    0    0  501 -0.00000000000E+00  0.00000000000E+00  0.11110870676E+04  0.11110870676E+04  0.00000000000E+00 0.  1.
          2   -1    0    0  501    0  0.00000000000E+00 -0.00000000000E+00 -0.12682685036E+04  0.12682685036E+04  0.00000000000E+00 0. -1.
    9900016    2    1    2    0    0  0.16659420741E+03 -0.54650022096E+03 -0.71479919125E+03  0.12121010508E+04  0.79488046409E+03 0.  0.
         23    2    3    3    0    0 -0.14314777871E+02 -0.47191410708E+02 -0.39194274203E+03  0.41067759070E+03  0.11227211746E+03 0.  0.
        -15    1    1    2    0    0 -0.94568733505E+02 -0.56360433506E+02 -0.74629794035E+02  0.13300131571E+03  0.00000000000E+00 0.  1.
        -15    1    4    4    0    0  0.11436522478E+02  0.34559148983E+02 -0.10032828338E+03  0.10672812783E+03  0.00000000000E+00 0.  1.
         15    1    4    4    0    0 -0.25751300349E+02 -0.81750559691E+02 -0.29161445866E+03  0.30394946287E+03  0.00000000000E+00 0. -1.
         15    1    1    2    0    0 -0.91796907984E+02  0.58329054492E+03  0.23417624622E+03  0.63521102509E+03  0.00000000000E+00 0. -1.
        -16    1    1    2    0    0  0.19771434079E+02  0.19570109550E+02  0.39807130301E+03  0.39904217957E+03  0.00000000000E+00 0.  1.
         16    1    3    3    0    0  0.16474990660E+03 -0.48089359299E+02  0.80120782552E+02  0.18940553846E+03  0.00000000000E+00 0. -1.
    9900018    1    3    3    0    0  0.16159078678E+02 -0.45121945095E+03 -0.40297723176E+03  0.61201792168E+03  0.91187600000E+02 0.  0.
<mgrwt>
<rscale>  0 0.23741582E+04</rscale>
<asrwt>0</asrwt>
<pdfrwt beam="1">  1        2 0.19511823E+00 0.23741582E+04</pdfrwt>
<pdfrwt beam="2">  1       -2 0.17093647E+00 0.23741582E+04</pdfrwt>
<totfact> 0.32637560E+00</totfact>
</mgrwt>
</event>
<event>
11    1  0.1089981E-014  0.3570445E+04  0.7818608E-02  0.8097295E-01
         -2   -1    0    0    0  501 -0.00000000000E+00  0.00000000000E+00  0.10849176983E+04  0.10849176983E+04  0.00000000000E+00 0.  1.
          2   -1    0    0  501    0  0.00000000000E+00 -0.00000000000E+00 -0.29375684649E+04  0.29375684649E+04  0.00000000000E+00 0. -1.
    9900016    2    1    2    0    0  0.39872313278E+03 -0.19683493990E+03 -0.20813606447E+03  0.77454074252E+03  0.59905643333E+03 0.  0.
         23    2    3    3    0    0  0.30788376059E+02 -0.33030511267E+03 -0.21940391438E+02  0.34111358500E+03  0.76339410138E+02 0.  0.
        -15    1    1    2    0    0  0.28529629076E+02 -0.52432800348E+02  0.18650024442E+03  0.19582001802E+03  0.00000000000E+00 0.  1.
        -15    1    4    4    0    0  0.41626851739E+02 -0.14597180193E+03 -0.35756374721E+02  0.15594576005E+03  0.00000000000E+00 0. -1.
         15    1    4    4    0    0 -0.10838475680E+02 -0.18433331074E+03  0.13815983283E+02  0.18516782495E+03  0.00000000000E+00 0.  1.
         15    1    1    2    0    0  0.33733067060E+03 -0.46169761866E+03 -0.17307394171E+04  0.18227494623E+04  0.00000000000E+00 0. -1.
        -16    1    1    2    0    0 -0.81656553022E+03  0.60334534820E+03 -0.21801073039E+03  0.10384284053E+04  0.00000000000E+00 0.  1.
         16    1    3    3    0    0  0.36793475672E+03  0.13347017277E+03 -0.18619567303E+03  0.43342715752E+03  0.00000000000E+00 0. -1.
    9900018    1    1    2    0    0  0.51982097767E+02  0.10762001071E+03  0.11773520096E+03  0.19094753503E+03  0.91187600000E+02 0.  0.
<mgrwt>
<rscale>  0 0.35704454E+04</rscale>
<asrwt>0</asrwt>
<pdfrwt beam="1">  1        2 0.45193360E+00 0.35704454E+04</pdfrwt>
<pdfrwt beam="2">  1       -2 0.16691042E+00 0.35704454E+04</pdfrwt>
<totfact> 0.34874855E-01</totfact>
</mgrwt>
</event>
