<event>
13    1  0.1083009E-008  0.4696807E+04  0.7818608E-02  0.7877059E-01
         -2   -1    0    0    0  501 -0.00000000000E+00  0.00000000000E+00  0.20438064921E+04  0.20438064921E+04  0.00000000000E+00 0.  1.
          2   -1    0    0  501    0  0.00000000000E+00 -0.00000000000E+00 -0.26983956558E+04  0.26983956558E+04  0.00000000000E+00 0. -1.
    9900016    2    1    2    0    0 -0.66394558266E+03  0.46903811531E+03 -0.25353400275E+03  0.23643340168E+04  0.22056689149E+04 0.  0.
         23    2    3    3    0    0  0.10790075234E+03  0.21578956335E+03  0.90966448316E+03  0.94556260761E+03  0.91604939819E+02 0.  0.
    9900016    2    1    2    0    0  0.66394558266E+03 -0.46903811531E+03 -0.40105516091E+03  0.23778681311E+04  0.21983155179E+04 0.  0.
         23    2    5    5    0    0  0.13337556358E+03  0.37778623637E+03 -0.98872378114E+03  0.10707772833E+04  0.92074934921E+02 0.  0.
        -15    1    6    6    0    0  0.11734681630E+02  0.14350430365E+03 -0.41413843795E+03  0.43845391287E+03  0.00000000000E+00 0.  1.
        -15    1    4    4    0    0  0.67428685294E+02  0.17605106355E+03  0.80213177520E+03  0.82398785754E+03  0.00000000000E+00 0.  1.
         15    1    4    4    0    0  0.40472067045E+02  0.39738499793E+02  0.10753270795E+03  0.12157475008E+03  0.00000000000E+00 0. -1.
         15    1    6    6    0    0  0.12164088195E+03  0.23428193273E+03 -0.57458534319E+03  0.63232337041E+03  0.00000000000E+00 0. -1.
        -16    1    3    3    0    0 -0.77184633500E+03  0.25324855197E+03 -0.11631984859E+04  0.14187714092E+04  0.00000000000E+00 0.  1.
         16    1    5    5    0    0  0.13417767565E+03 -0.56693294039E+03  0.56693182570E+03  0.81291346559E+03  0.00000000000E+00 0. -1.
    9900018    1    5    5    0    0  0.39639234343E+03 -0.27989141130E+03  0.20736794538E+02  0.49417738221E+03  0.91187600000E+02 0.  0.
<mgrwt>
<rscale>  0 0.46968068E+04</rscale>
<asrwt>0</asrwt>
<pdfrwt beam="1">  1        2 0.41513779E+00 0.46968068E+04</pdfrwt>
<pdfrwt beam="2">  1       -2 0.31443177E+00 0.46968068E+04</pdfrwt>
<totfact> 0.51430251E-02</totfact>
</mgrwt>
</event>
<event>
13    1  0.1083009E-008  0.6011535E+04  0.7818608E-02  0.7688973E-01
         -2   -1    0    0    0  501 -0.00000000000E+00  0.00000000000E+00  0.26374069307E+04  0.26374069307E+04  0.00000000000E+00 0.  1.
          2   -1    0    0  501    0  0.00000000000E+00 -0.00000000000E+00 -0.34255763009E+04  0.34255763009E+04  0.00000000000E+00 0. -1.
    9900016    2    1    2    0    0  0.10291334499E+04  0.17103087307E+04  0.64976603760E+02  0.29690403708E+04  0.21969768211E+04 0.  0.
         23    2    3    3    0    0  0.99616165597E+02 -0.20887402565E+03 -0.66899244645E+03  0.71382964881E+03  0.91924616211E+02 0.  0.
    9900016    2    1    2    0    0 -0.10291334499E+04 -0.17103087307E+04 -0.85314597397E+03  0.30939428608E+04  0.22046207749E+04 0.  0.
         23    2    5    5    0    0  0.33277240618E+03  0.31867742978E+03  0.14756767207E+02  0.47033855448E+03  0.93315674391E+02 0.  0.
        -15    1    6    6    0    0  0.12272606560E+03  0.18182222463E+03  0.36279930402E+01  0.21939501107E+03  0.00000000000E+00 0.  1.
        -15    1    4    4    0    0 -0.57251868109E+01 -0.79827940443E+02 -0.17312277723E+03  0.19072696148E+03  0.00000000000E+00 0.  1.
         15    1    4    4    0    0  0.10534135241E+03 -0.12904608521E+03 -0.49586966922E+03  0.52310268732E+03  0.00000000000E+00 0. -1.
         15    1    6    6    0    0  0.21004634058E+03  0.13685520515E+03  0.11128774167E+02  0.25094354341E+03  0.00000000000E+00 0. -1.
        -16    1    5    5    0    0 -0.39179217713E+03 -0.82037859593E+03 -0.45773840907E+03  0.10178637442E+04  0.00000000000E+00 0.  1.
         16    1    3    3    0    0  0.92951728427E+03  0.19191827563E+04  0.73396905021E+03  0.22552107220E+04  0.00000000000E+00 0. -1.
    9900018    1    5    5    0    0 -0.97011367892E+03 -0.12086075645E+04 -0.41016433211E+03  0.16057405621E+04  0.91187600000E+02 0.  0.
<mgrwt>
<rscale>  0 0.60115351E+04</rscale>
<asrwt>0</asrwt>
<pdfrwt beam="1">  1        2 0.52701174E+00 0.60115351E+04</pdfrwt>
<pdfrwt beam="2">  1       -2 0.40575491E+00 0.60115351E+04</pdfrwt>
<totfact> 0.41895431E-03</totfact>
</mgrwt>
</event>
<event>
13    1  0.1083009E-008  0.5400721E+04  0.7818608E-02  0.7769500E-01
          1   -1    0    0  501    0  0.00000000000E+00  0.00000000000E+00  0.17549723584E+04  0.17549723584E+04  0.00000000000E+00 0. -1.
         -1   -1    0    0    0  501 -0.00000000000E+00 -0.00000000000E+00 -0.41550210724E+04  0.41550210724E+04  0.00000000000E+00 0.  1.
    9900016    2    1    2    0    0 -0.84360572543E+03  0.70630026118E+03 -0.24298640709E+04  0.34548685220E+04  0.21957564578E+04 0.  0.
         23    2    3    3    0    0 -0.41804420844E+03  0.20013973243E+03  0.35602540192E+03  0.59156950849E+03  0.91561585084E+02 0.  0.
    9900016    2    1    2    0    0  0.84360572543E+03 -0.70630026118E+03  0.29815356925E+02  0.24551249089E+04  0.21945884999E+04 0.  0.
         23    2    5    5    0    0 -0.26915241208E+03  0.51148383869E+03  0.42016243174E+03  0.72030020495E+03  0.90758900565E+02 0.  0.
        -15    1    6    6    0    0 -0.22969937784E+03  0.41149314306E+03  0.29799413284E+03  0.55757413335E+03  0.00000000000E+00 0.  1.
        -15    1    4    4    0    0 -0.29165736554E+03  0.14569181488E+03  0.19556159858E+03  0.38017688335E+03  0.00000000000E+00 0. -1.
         15    1    6    6    0    0 -0.39453034232E+02  0.99990695630E+02  0.12216829890E+03  0.16272607160E+03  0.00000000000E+00 0. -1.
         15    1    4    4    0    0 -0.12638684290E+03  0.54447917556E+02  0.16046380333E+03  0.21139262514E+03  0.00000000000E+00 0.  1.
        -16    1    3    3    0    0 -0.42556151699E+03  0.50616052874E+03 -0.27858894728E+04  0.28632990135E+04  0.00000000000E+00 0.  1.
         16    1    5    5    0    0  0.21016713976E+03 -0.21135815983E+03 -0.21731605314E+03  0.36887499957E+03  0.00000000000E+00 0. -1.
    9900018    1    5    5    0    0  0.90259099775E+03 -0.10064259400E+04 -0.17303102168E+03  0.13659497044E+04  0.91187600000E+02 0.  0.
<mgrwt>
<rscale>  0 0.54007211E+04</rscale>
<asrwt>0</asrwt>
<pdfrwt beam="1">  1        1 0.26999575E+00 0.54007211E+04</pdfrwt>
<pdfrwt beam="2">  1       -1 0.63923401E+00 0.54007211E+04</pdfrwt>
<totfact> 0.98696906E-04</totfact>
</mgrwt>
</event>
<event>
13    1  0.1083009E-008  0.6335345E+04  0.7818608E-02  0.7650159E-01
         -2   -1    0    0    0  501 -0.00000000000E+00  0.00000000000E+00  0.24214212651E+04  0.24214212651E+04  0.00000000000E+00 0.  1.
          2   -1    0    0  501    0  0.00000000000E+00 -0.00000000000E+00 -0.41439091143E+04  0.41439091143E+04  0.00000000000E+00 0. -1.
    9900016    2    1    2    0    0 -0.76995136631E+03  0.68836447039E+03 -0.29703352052E+04  0.38378997612E+04  0.21999801351E+04 0.  0.
         23    2    3    3    0    0 -0.48620206638E+03 -0.10393500060E+03  0.20981235037E+03  0.54828115221E+03  0.96933305962E+02 0.  0.
    9900016    2    1    2    0    0  0.76995136631E+03 -0.68836447039E+03  0.12478473560E+04  0.27274306183E+04  0.21943299668E+04 0.  0.
         23    2    5    5    0    0  0.29506151461E+03  0.47206855693E+03 -0.27669769828E+03  0.62847265877E+03  0.92229316073E+02 0.  0.
        -15    1    4    4    0    0 -0.37516387155E+03 -0.12102346754E+03  0.16273193842E+03  0.42646956983E+03  0.00000000000E+00 0.  1.
        -15    1    6    6    0    0  0.28914328387E+03  0.44911745093E+03 -0.24189279034E+03  0.58636374833E+03  0.00000000000E+00 0. -1.
         15    1    6    6    0    0  0.59182307353E+01  0.22951106008E+02 -0.34804907944E+02  0.42108910446E+02  0.00000000000E+00 0.  1.
         15    1    4    4    0    0 -0.11103819482E+03  0.17088466935E+02  0.47080411956E+02  0.12181158238E+03  0.00000000000E+00 0. -1.
        -16    1    5    5    0    0  0.59159237011E+03 -0.54340955502E+03  0.76563473756E+03  0.11097170938E+04  0.00000000000E+00 0.  1.
         16    1    3    3    0    0 -0.28374929994E+03  0.79229947099E+03 -0.31801475556E+04  0.32896186090E+04  0.00000000000E+00 0. -1.
    9900018    1    5    5    0    0 -0.11670251841E+03 -0.61702347230E+03  0.75891031674E+03  0.98924086573E+03  0.91187600000E+02 0.  0.
<mgrwt>
<rscale>  0 0.63353452E+04</rscale>
<asrwt>0</asrwt>
<pdfrwt beam="1">  1        2 0.63752447E+00 0.63353452E+04</pdfrwt>
<pdfrwt beam="2">  1       -2 0.37252635E+00 0.63353452E+04</pdfrwt>
<totfact> 0.18938281E-03</totfact>
</mgrwt>
</event>
<event>
13    1  0.1083009E-008  0.4729416E+04  0.7818608E-02  0.7871659E-01
         -1   -1    0    0    0  501 -0.00000000000E+00  0.00000000000E+00  0.19535424233E+04  0.19535424233E+04  0.00000000000E+00 0.  1.
          1   -1    0    0  501    0  0.00000000000E+00 -0.00000000000E+00 -0.28624127007E+04  0.28624127007E+04  0.00000000000E+00 0. -1.
    9900016    2    1    2    0    0 -0.41664173922E+03  0.26473287383E+03  0.27610220348E+03  0.22653188239E+04  0.21935731384E+04 0.  0.
         23    2    3    3    0    0 -0.94355313621E+02 -0.28039046133E+03  0.11473018596E+04  0.11882780486E+04  0.90451245139E+02 0.  0.
    9900016    2    1    2    0    0  0.41664173922E+03 -0.26473287383E+03 -0.11849724809E+04  0.25506363002E+04  0.22040671319E+04 0.  0.
         23    2    5    5    0    0  0.18041011950E+03 -0.23339390622E+03 -0.93657534209E+03  0.98604006099E+03  0.89894959763E+02 0.  0.
        -15    1    6    6    0    0  0.26054394038E+02 -0.39872575901E+02 -0.28644534350E+03  0.29037835417E+03  0.00000000000E+00 0.  1.
        -15    1    4    4    0    0 -0.10450930031E+03 -0.23568415072E+03  0.10421485572E+04  0.10735654745E+04  0.00000000000E+00 0. -1.
         15    1    6    6    0    0  0.15435572546E+03 -0.19352133032E+03 -0.65012999858E+03  0.69566170681E+03  0.00000000000E+00 0. -1.
         15    1    4    4    0    0  0.10153986690E+02 -0.44706310606E+02  0.10515330239E+03  0.11471257410E+03  0.00000000000E+00 0.  1.
        -16    1    5    5    0    0  0.38299936458E+03  0.39600294610E+03 -0.71903652791E+03  0.90582579730E+03  0.00000000000E+00 0.  1.
         16    1    3    3    0    0 -0.32228642560E+03  0.54512333515E+03 -0.87119965614E+03  0.10770407752E+04  0.00000000000E+00 0. -1.
    9900018    1    5    5    0    0 -0.14676774486E+03 -0.42734191371E+03  0.47063938908E+03  0.65877044187E+03  0.91187600000E+02 0.  0.
<mgrwt>
<rscale>  0 0.47294163E+04</rscale>
<asrwt>0</asrwt>
<pdfrwt beam="1">  1        1 0.44037118E+00 0.47294163E+04</pdfrwt>
<pdfrwt beam="2">  1       -1 0.30054499E+00 0.47294163E+04</pdfrwt>
<totfact> 0.18167076E-02</totfact>
</mgrwt>
</event>
<event>
13    1  0.1083009E-008  0.5446368E+04  0.7818608E-02  0.7763112E-01
          2   -1    0    0  501    0  0.00000000000E+00  0.00000000000E+00  0.31223290294E+04  0.31223290294E+04  0.00000000000E+00 0. -1.
         -2   -1    0    0    0  501 -0.00000000000E+00 -0.00000000000E+00 -0.23750638726E+04  0.23750638726E+04  0.00000000000E+00 0.  1.
    9900016    2    1    2    0    0 -0.15420314565E+04  0.18183279081E+02 -0.42514768695E+02  0.27029754199E+04  0.22194767334E+04 0.  0.
         23    2    3    3    0    0  0.15396964984E+03  0.40032693060E+03  0.68903013899E+03  0.81681225749E+03  0.91931643722E+02 0.  0.
    9900016    2    1    2    0    0  0.15420314565E+04 -0.18183279081E+02  0.78977992551E+03  0.27944174822E+04  0.21924472831E+04 0.  0.
         23    2    5    5    0    0  0.33058745136E+03 -0.18454711721E+02 -0.70848981064E+03  0.78616460516E+03  0.80425961223E+02 0.  0.
        -15    1    4    4    0    0  0.26534691093E+02  0.12050823817E+02  0.59854281626E+02  0.66572120404E+02  0.00000000000E+00 0.  1.
        -15    1    6    6    0    0  0.11843049466E+03 -0.13225653269E+01 -0.17050141626E+03  0.20760121433E+03  0.00000000000E+00 0.  1.
         15    1    4    4    0    0  0.12743495874E+03  0.38827610678E+03  0.62917585737E+03  0.75024013709E+03  0.00000000000E+00 0. -1.
         15    1    6    6    0    0  0.21215695670E+03 -0.17132146394E+02 -0.53798839439E+03  0.57856339083E+03  0.00000000000E+00 0. -1.
        -16    1    5    5    0    0  0.10265202999E+03 -0.16119694344E+03  0.36483061895E+03  0.41185346224E+03  0.00000000000E+00 0.  1.
         16    1    3    3    0    0 -0.16960011063E+04 -0.38214365151E+03 -0.73154490769E+03  0.18861631624E+04  0.00000000000E+00 0. -1.
    9900018    1    5    5    0    0  0.11087919751E+04  0.16146837608E+03  0.11334391172E+04  0.15963994148E+04  0.91187600000E+02 0.  0.
<mgrwt>
<rscale>  0 0.54463679E+04</rscale>
<asrwt>0</asrwt>
<pdfrwt beam="1">  1        2 0.48035831E+00 0.54463679E+04</pdfrwt>
<pdfrwt beam="2">  1       -2 0.36539444E+00 0.54463679E+04</pdfrwt>
<totfact> 0.12707704E-02</totfact>
</mgrwt>
</event>
<event>
13    1  0.1083009E-008  0.4992047E+04  0.7818608E-02  0.7829735E-01
          1   -1    0    0  501    0  0.00000000000E+00  0.00000000000E+00  0.14272070177E+04  0.14272070177E+04  0.00000000000E+00 0. -1.
         -1   -1    0    0    0  501 -0.00000000000E+00 -0.00000000000E+00 -0.43652631858E+04  0.43652631858E+04  0.00000000000E+00 0.  1.
    9900016    2    1    2    0    0  0.61705875727E+02 -0.36331669331E+03 -0.27209867844E+04  0.35153016022E+04  0.21949418304E+04 0.  0.
         23    2    3    3    0    0 -0.29136437691E+02  0.34897144755E+03  0.26216379647E+03  0.44694795409E+03  0.91665774858E+02 0.  0.
    9900016    2    1    2    0    0 -0.61705875727E+02  0.36331669331E+03 -0.21706938364E+03  0.22771686013E+04  0.22366428161E+04 0.  0.
         23    2    5    5    0    0  0.17084363563E+03 -0.49435588091E+03 -0.53293081077E+03  0.75228026772E+03  0.91296589762E+02 0.  0.
        -15    1    6    6    0    0  0.11418029897E+03 -0.42923051330E+03 -0.43420637760E+03  0.62113698373E+03  0.00000000000E+00 0. -1.
        -15    1    4    4    0    0 -0.19407833035E+02  0.33134302028E+03  0.21445802427E+03  0.39516718645E+03  0.00000000000E+00 0.  1.
         15    1    6    6    0    0  0.56663336660E+02 -0.65125367619E+02 -0.98724433178E+02  0.13114328399E+03  0.00000000000E+00 0.  1.
         15    1    4    4    0    0 -0.97286046563E+01  0.17628427272E+02  0.47705772202E+02  0.51780767646E+02  0.00000000000E+00 0. -1.
        -16    1    3    3    0    0  0.90842313419E+02 -0.71228814086E+03 -0.29831505809E+04  0.30683536481E+04  0.00000000000E+00 0.  1.
         16    1    5    5    0    0 -0.33013480885E+03  0.32891076547E+03 -0.40744598238E+03  0.61901818407E+03  0.00000000000E+00 0. -1.
    9900018    1    5    5    0    0  0.97585297498E+02  0.52876180875E+03  0.72330740952E+03  0.90587014949E+03  0.91187600000E+02 0.  0.
<mgrwt>
<rscale>  0 0.49920474E+04</rscale>
<asrwt>0</asrwt>
<pdfrwt beam="1">  1        1 0.21957031E+00 0.49920474E+04</pdfrwt>
<pdfrwt beam="2">  1       -1 0.67157894E+00 0.49920474E+04</pdfrwt>
<totfact> 0.13367213E-03</totfact>
</mgrwt>
</event>
<event>
13    1  0.1083009E-008  0.5090940E+04  0.7818608E-02  0.7814630E-01
          2   -1    0    0  501    0  0.00000000000E+00  0.00000000000E+00  0.19867190623E+04  0.19867190623E+04  0.00000000000E+00 0. -1.
         -2   -1    0    0    0  501 -0.00000000000E+00 -0.00000000000E+00 -0.32613655049E+04  0.32613655049E+04  0.00000000000E+00 0.  1.
    9900016    2    1    2    0    0  0.22999702927E+03  0.10261058120E+04  0.97532569797E+02  0.24535504267E+04  0.22146343543E+04 0.  0.
         23    2    3    3    0    0  0.47665672713E+03  0.23485608468E+03 -0.96540889415E+03  0.11056774011E+04  0.90272732794E+02 0.  0.
    9900016    2    1    2    0    0 -0.22999702927E+03 -0.10261058120E+04 -0.13721790123E+04  0.27945341405E+04  0.21956215634E+04 0.  0.
         23    2    5    5    0    0 -0.38752638033E+03  0.35595898299E+03 -0.12236962938E+04  0.13350634477E+04  0.89879346278E+02 0.  0.
        -15    1    6    6    0    0 -0.95567651089E+02  0.59423493499E+02 -0.19119599921E+03  0.22185634457E+03  0.00000000000E+00 0.  1.
        -15    1    4    4    0    0  0.46691721813E+03  0.21834475991E+03 -0.95096596729E+03  0.10816757341E+04  0.00000000000E+00 0.  1.
         15    1    6    6    0    0 -0.29195872924E+03  0.29653548949E+03 -0.10325002946E+04  0.11132071031E+04  0.00000000000E+00 0. -1.
         15    1    4    4    0    0  0.97395090002E+01  0.16511324773E+02 -0.14442926854E+02  0.24001666972E+02  0.00000000000E+00 0. -1.
        -16    1    5    5    0    0 -0.53772654065E+02 -0.65428828522E+03  0.83300106613E+02  0.66175793631E+03  0.00000000000E+00 0.  1.
         16    1    3    3    0    0 -0.24665969786E+03  0.79124972727E+03  0.10629414639E+04  0.13478730256E+04  0.00000000000E+00 0. -1.
    9900018    1    5    5    0    0  0.21130200512E+03 -0.72777650972E+03 -0.23178282516E+03  0.79771275651E+03  0.91187600000E+02 0.  0.
<mgrwt>
<rscale>  0 0.50909398E+04</rscale>
<asrwt>0</asrwt>
<pdfrwt beam="1">  1        2 0.30564909E+00 0.50909398E+04</pdfrwt>
<pdfrwt beam="2">  1       -2 0.50174854E+00 0.50909398E+04</pdfrwt>
<totfact> 0.79622265E-03</totfact>
</mgrwt>
</event>
<event>
13    1  0.1083009E-008  0.5656304E+04  0.7818608E-02  0.7734540E-01
         -2   -1    0    0    0  501 -0.00000000000E+00  0.00000000000E+00  0.33951705681E+04  0.33951705681E+04  0.00000000000E+00 0.  1.
          2   -1    0    0  501    0  0.00000000000E+00 -0.00000000000E+00 -0.23558297852E+04  0.23558297852E+04  0.00000000000E+00 0. -1.
    9900016    2    1    2    0    0 -0.12828332181E+04  0.11273059394E+04  0.11017067301E+03  0.27998904315E+04  0.22160255199E+04 0.  0.
         23    2    3    3    0    0  0.64885842076E+02 -0.18126376529E+03 -0.71653030231E+03  0.74754157237E+03  0.91301715144E+02 0.  0.
    9900016    2    1    2    0    0  0.12828332181E+04 -0.11273059394E+04  0.92917010983E+03  0.29511099218E+04  0.22201830850E+04 0.  0.
         23    2    5    5    0    0 -0.24972696943E+03  0.20553940156E+03  0.53995655070E+03  0.63524240043E+03  0.85847689545E+02 0.  0.
        -15    1    6    6    0    0 -0.19886706040E+03  0.17515749043E+03  0.36891847021E+03  0.45423462201E+03  0.00000000000E+00 0. -1.
        -15    1    4    4    0    0  0.21788349711E+02 -0.15827678016E+03 -0.47587335689E+03  0.50197781139E+03  0.00000000000E+00 0. -1.
         15    1    4    4    0    0  0.43097492365E+02 -0.22986985129E+02 -0.24065694541E+03  0.24556376098E+03  0.00000000000E+00 0.  1.
         15    1    6    6    0    0 -0.50859909033E+02  0.30381911121E+02  0.17103808049E+03  0.18100777842E+03  0.00000000000E+00 0.  1.
        -16    1    5    5    0    0 -0.72663415926E+02 -0.17944782353E+03 -0.17212519559E+03  0.25905323071E+03  0.00000000000E+00 0.  1.
         16    1    3    3    0    0 -0.13477190601E+04  0.13085697047E+04  0.82670097531E+03  0.20523488592E+04  0.00000000000E+00 0. -1.
    9900018    1    5    5    0    0  0.16052236034E+04 -0.11533975174E+04  0.56133875472E+03  0.20568142906E+04  0.91187600000E+02 0.  0.
<mgrwt>
<rscale>  0 0.56563041E+04</rscale>
<asrwt>0</asrwt>
<pdfrwt beam="1">  1        2 0.36243535E+00 0.56563041E+04</pdfrwt>
<pdfrwt beam="2">  1       -2 0.52233394E+00 0.56563041E+04</pdfrwt>
<totfact> 0.35724351E-03</totfact>
</mgrwt>
</event>
<event>
13    1  0.1083009E-008  0.4546477E+04  0.7818608E-02  0.7902550E-01
         -2   -1    0    0    0  501 -0.00000000000E+00  0.00000000000E+00  0.19519949354E+04  0.19519949354E+04  0.00000000000E+00 0. -1.
          2   -1    0    0  501    0  0.00000000000E+00 -0.00000000000E+00 -0.26473494943E+04  0.26473494943E+04  0.00000000000E+00 0.  1.
    9900016    2    1    2    0    0 -0.15137352929E+03  0.40163465699E+03  0.34374812332E+02  0.22441618187E+04  0.22024659583E+04 0.  0.
         23    2    3    3    0    0  0.78263135947E+02 -0.53275146996E+03 -0.80127636102E+03  0.96975085052E+03  0.91780489015E+02 0.  0.
    9900016    2    1    2    0    0  0.15137352929E+03 -0.40163465699E+03 -0.72972937123E+03  0.23551826111E+04  0.21977615506E+04 0.  0.
         23    2    5    5    0    0 -0.39188091830E+03 -0.22994183008E+03 -0.94345682613E+03  0.10515810835E+04  0.96270936103E+02 0.  0.
        -15    1    4    4    0    0  0.18234007163E+01 -0.13535736580E+02 -0.59783643761E+02  0.61323935101E+02  0.00000000000E+00 0. -1.
        -15    1    6    6    0    0 -0.32918518584E+03 -0.19760761998E+03 -0.70326847439E+03  0.80124790491E+03  0.00000000000E+00 0.  1.
         15    1    4    4    0    0  0.76439735230E+02 -0.51921573338E+03 -0.74149271726E+03  0.90842691542E+03  0.00000000000E+00 0.  1.
         15    1    6    6    0    0 -0.62695732463E+02 -0.32334210099E+02 -0.24018835174E+03  0.25033317863E+03  0.00000000000E+00 0. -1.
        -16    1    5    5    0    0 -0.28928261497E+02  0.32945969365E+03 -0.24418762229E+03  0.41110598261E+03  0.00000000000E+00 0.  1.
         16    1    3    3    0    0 -0.22963666524E+03  0.93438612694E+03  0.83565117336E+03  0.12744109682E+04  0.00000000000E+00 0. -1.
    9900018    1    5    5    0    0  0.57218270909E+03 -0.50115252056E+03  0.45791507719E+03  0.89249554495E+03  0.91187600000E+02 0.  0.
<mgrwt>
<rscale>  0 0.45464768E+04</rscale>
<asrwt>0</asrwt>
<pdfrwt beam="1">  1        2 0.40728454E+00 0.45464768E+04</pdfrwt>
<pdfrwt beam="2">  1       -2 0.30030691E+00 0.45464768E+04</pdfrwt>
<totfact> 0.68168717E-02</totfact>
</mgrwt>
</event>
<event>
13    1  0.1083009E-008  0.5268026E+04  0.7818608E-02  0.7788441E-01
          1   -1    0    0  501    0  0.00000000000E+00  0.00000000000E+00  0.30471900168E+04  0.30471900168E+04  0.00000000000E+00 0. -1.
         -1   -1    0    0    0  501 -0.00000000000E+00 -0.00000000000E+00 -0.22768598438E+04  0.22768598438E+04  0.00000000000E+00 0.  1.
    9900016    2    1    2    0    0  0.16530114974E+03 -0.13467512086E+04 -0.11881913042E+03  0.25992148112E+04  0.22137606829E+04 0.  0.
         23    2    3    3    0    0 -0.53215977053E+02  0.26856482999E+03  0.71304975179E+03  0.76918708562E+03  0.90828497969E+02 0.  0.
    9900016    2    1    2    0    0 -0.16530114974E+03  0.13467512086E+04  0.88914930342E+03  0.27248350494E+04  0.21893095430E+04 0.  0.
         23    2    5    5    0    0  0.33805074811E+03  0.55340493098E+03 -0.60441772059E+03  0.89111494754E+03  0.90717930064E+02 0.  0.
        -15    1    6    6    0    0  0.27191867346E+02  0.40587105081E+02 -0.83676388253E+02  0.96894007553E+02  0.00000000000E+00 0. -1.
        -15    1    4    4    0    0 -0.16502719893E+02  0.23823992413E+03  0.62527935685E+03  0.66933166316E+03  0.00000000000E+00 0. -1.
         15    1    4    4    0    0 -0.36713257159E+02  0.30324905864E+02  0.87770394940E+02  0.99855422461E+02  0.00000000000E+00 0.  1.
         15    1    6    6    0    0  0.31085888076E+03  0.51281782590E+03 -0.52074133234E+03  0.79422093999E+03  0.00000000000E+00 0.  1.
        -16    1    3    3    0    0  0.21851712679E+03 -0.16153160386E+04 -0.83186888221E+03  0.18300277256E+04  0.00000000000E+00 0.  1.
         16    1    5    5    0    0 -0.11650669870E+03 -0.53245107922E+02  0.16191307967E+03  0.20645749618E+03  0.00000000000E+00 0. -1.
    9900018    1    5    5    0    0 -0.38684519915E+03  0.84659138551E+03  0.13316539443E+04  0.16272626057E+04  0.91187600000E+02 0.  0.
<mgrwt>
<rscale>  0 0.52680260E+04</rscale>
<asrwt>0</asrwt>
<pdfrwt beam="1">  1        1 0.46879847E+00 0.52680260E+04</pdfrwt>
<pdfrwt beam="2">  1       -1 0.35028613E+00 0.52680260E+04</pdfrwt>
<totfact> 0.60360646E-03</totfact>
</mgrwt>
</event>
<event>
13    1  0.1083009E-008  0.5968649E+04  0.7818608E-02  0.7694301E-01
          1   -1    0    0  501    0  0.00000000000E+00  0.00000000000E+00  0.21986738046E+04  0.21986738046E+04  0.00000000000E+00 0. -1.
         -1   -1    0    0    0  501 -0.00000000000E+00 -0.00000000000E+00 -0.40507112599E+04  0.40507112599E+04  0.00000000000E+00 0.  1.
    9900016    2    1    2    0    0  0.91516773052E+03  0.22971074264E+03  0.93417826722E+03  0.25719088780E+04  0.22026636696E+04 0.  0.
         23    2    3    3    0    0 -0.35004978546E+03 -0.40301877925E+02  0.11974812572E+04  0.12516775943E+04  0.92608557784E+02 0.  0.
    9900016    2    1    2    0    0 -0.91516773052E+03 -0.22971074264E+03 -0.27862157225E+04  0.36774761865E+04  0.22069286462E+04 0.  0.
         23    2    5    5    0    0 -0.41892562935E+03 -0.29892394257E+03 -0.28466757118E+04  0.28942503843E+04  0.90931142894E+02 0.  0.
        -15    1    6    6    0    0 -0.30996679305E+03 -0.23064531866E+03 -0.23298931229E+04  0.23617109560E+04  0.00000000000E+00 0.  1.
        -15    1    4    4    0    0 -0.22872050395E+03 -0.35538368235E+02  0.62556749422E+03  0.66701629243E+03  0.00000000000E+00 0.  1.
         15    1    4    4    0    0 -0.12132928151E+03 -0.47635096896E+01  0.57191376298E+03  0.58466130184E+03  0.00000000000E+00 0. -1.
         15    1    6    6    0    0 -0.10895883630E+03 -0.68278623907E+02 -0.51678258889E+03  0.53253942828E+03  0.00000000000E+00 0. -1.
        -16    1    3    3    0    0  0.12652175160E+04  0.27001262057E+03 -0.26330298998E+03  0.13202312837E+04  0.00000000000E+00 0.  1.
         16    1    5    5    0    0  0.13748341912E+03  0.15842126707E+02  0.12987202140E+02  0.13900119040E+03  0.00000000000E+00 0. -1.
    9900018    1    5    5    0    0 -0.63372552029E+03  0.53371073222E+02  0.47472787101E+02  0.64422461179E+03  0.91187600000E+02 0.  0.
<mgrwt>
<rscale>  0 0.59686490E+04</rscale>
<asrwt>0</asrwt>
<pdfrwt beam="1">  1        1 0.33825751E+00 0.59686490E+04</pdfrwt>
<pdfrwt beam="2">  1       -1 0.62318635E+00 0.59686490E+04</pdfrwt>
<totfact> 0.53893798E-04</totfact>
</mgrwt>
</event>
<event>
13    1  0.1083009E-008  0.5787482E+04  0.7818608E-02  0.7717324E-01
         -2   -1    0    0    0  501 -0.00000000000E+00  0.00000000000E+00  0.31341220939E+04  0.31341220939E+04  0.00000000000E+00 0.  1.
          2   -1    0    0  501    0  0.00000000000E+00 -0.00000000000E+00 -0.26717969407E+04  0.26717969407E+04  0.00000000000E+00 0. -1.
    9900016    2    1    2    0    0  0.18343662385E+04 -0.35134506130E+03  0.29403270954E+03  0.29026665872E+04  0.22024248530E+04 0.  0.
         23    2    3    3    0    0  0.47873755211E+00 -0.35329274494E+03  0.89979525069E+03  0.97132109359E+03  0.94958837765E+02 0.  0.
    9900016    2    1    2    0    0 -0.18343662385E+04  0.35134506130E+03  0.16829244364E+03  0.29032524474E+04  0.22163505088E+04 0.  0.
         23    2    5    5    0    0 -0.42052543347E+03  0.49687984836E+02 -0.91587450391E+03  0.10138976180E+04  0.99255916112E+02 0.  0.
        -15    1    6    6    0    0 -0.14592323770E+03  0.64667440178E+02 -0.35488163915E+03  0.38912266309E+03  0.00000000000E+00 0.  1.
        -15    1    4    4    0    0 -0.87616502053E+01 -0.33876730890E+03  0.88796541156E+03  0.95043286360E+03  0.00000000000E+00 0. -1.
         15    1    6    6    0    0 -0.27460219577E+03 -0.14979455342E+02 -0.56099286476E+03  0.62477495493E+03  0.00000000000E+00 0. -1.
         15    1    4    4    0    0  0.92403877574E+01 -0.14525436037E+02  0.11829839130E+02  0.20888229983E+02  0.00000000000E+00 0.  1.
        -16    1    3    3    0    0  0.18338875009E+04  0.19476836392E+01 -0.60576254115E+03  0.19313454936E+04  0.00000000000E+00 0.  1.
         16    1    5    5    0    0 -0.21682456098E+03 -0.12820790579E+03  0.30276852230E+03  0.39385141291E+03  0.00000000000E+00 0. -1.
    9900018    1    5    5    0    0 -0.11970162440E+04  0.42986498226E+03  0.78139842525E+03  0.14955034165E+04  0.91187600000E+02 0.  0.
<mgrwt>
<rscale>  0 0.57874823E+04</rscale>
<asrwt>0</asrwt>
<pdfrwt beam="1">  1        2 0.41104569E+00 0.57874823E+04</pdfrwt>
<pdfrwt beam="2">  1       -2 0.48217263E+00 0.57874823E+04</pdfrwt>
<totfact> 0.40711754E-03</totfact>
</mgrwt>
</event>
<event>
13    1  0.1083009E-008  0.4752459E+04  0.7818608E-02  0.7867870E-01
          1   -1    0    0  501    0  0.00000000000E+00  0.00000000000E+00  0.16932218781E+04  0.16932218781E+04  0.00000000000E+00 0. -1.
         -1   -1    0    0    0  501 -0.00000000000E+00 -0.00000000000E+00 -0.33347467804E+04  0.33347467804E+04  0.00000000000E+00 0.  1.
    9900016    2    1    2    0    0 -0.36516332199E+03 -0.53284629388E+03 -0.95064106201E+02  0.22777609065E+04  0.21821750934E+04 0.  0.
         23    2    3    3    0    0  0.52294666801E+03  0.47015274807E+03  0.44099787013E+03  0.83480946073E+03  0.88943185032E+02 0.  0.
    9900016    2    1    2    0    0  0.36516332199E+03  0.53284629388E+03 -0.15464607961E+04  0.27502077520E+04  0.21805577866E+04 0.  0.
         23    2    5    5    0    0 -0.41604503366E+03  0.49471371554E+02  0.27813099730E+03  0.51104413941E+03  0.90930600647E+02 0.  0.
        -15    1    6    6    0    0 -0.27765768545E+03 -0.85283738046E+01  0.16469522502E+03  0.32294123396E+03  0.00000000000E+00 0.  1.
        -15    1    4    4    0    0  0.21911518482E+02  0.51251629450E+02  0.35158048112E+02  0.65900929512E+02  0.00000000000E+00 0. -1.
         15    1    6    6    0    0 -0.13838734821E+03  0.57999745358E+02  0.11343577229E+03  0.18810290545E+03  0.00000000000E+00 0. -1.
         15    1    4    4    0    0  0.50103514952E+03  0.41890111862E+03  0.40583982202E+03  0.76890853121E+03  0.00000000000E+00 0.  1.
        -16    1    5    5    0    0  0.41368262419E+03 -0.14693347635E+03 -0.25954314752E+03  0.50998569142E+03  0.00000000000E+00 0.  1.
         16    1    3    3    0    0 -0.88810999000E+03 -0.10029990420E+04 -0.53606197633E+03  0.14429514458E+04  0.00000000000E+00 0. -1.
    9900018    1    5    5    0    0  0.36752573146E+03  0.63030839868E+03 -0.15650486459E+04  0.17291779212E+04  0.91187600000E+02 0.  0.
<mgrwt>
<rscale>  0 0.47524588E+04</rscale>
<asrwt>0</asrwt>
<pdfrwt beam="1">  1        1 0.26049567E+00 0.47524588E+04</pdfrwt>
<pdfrwt beam="2">  1       -1 0.51303797E+00 0.47524588E+04</pdfrwt>
<totfact> 0.43912204E-03</totfact>
</mgrwt>
</event>
<event>
13    1  0.1083009E-008  0.5840336E+04  0.7818608E-02  0.7710519E-01
         -2   -1    0    0    0  501 -0.00000000000E+00  0.00000000000E+00  0.42589792984E+04  0.42589792984E+04  0.00000000000E+00 0.  1.
          2   -1    0    0  501    0  0.00000000000E+00 -0.00000000000E+00 -0.20022122596E+04  0.20022122596E+04  0.00000000000E+00 0. -1.
    9900016    2    1    2    0    0  0.12468301935E+04 -0.92782094564E+03 -0.87173539341E+02  0.26942407359E+04  0.21990672291E+04 0.  0.
         23    2    3    3    0    0  0.48822186397E+03 -0.99222280132E+01  0.97768031639E+03  0.10967619762E+04  0.92568852046E+02 0.  0.
    9900016    2    1    2    0    0 -0.12468301935E+04  0.92782094564E+03  0.23439405781E+04  0.35669508222E+04  0.21940017081E+04 0.  0.
         23    2    5    5    0    0  0.14781926496E+03 -0.26418265783E+03  0.98048359711E+03  0.10302733349E+04  0.92043732118E+02 0.  0.
        -15    1    6    6    0    0  0.64683029972E+02 -0.16742091929E+03  0.69095506276E+03  0.71388553517E+03  0.00000000000E+00 0. -1.
        -15    1    4    4    0    0  0.12684232064E+03  0.20187253647E+02  0.33586891974E+03  0.35958925285E+03  0.00000000000E+00 0.  1.
         15    1    4    4    0    0  0.36137954333E+03 -0.30109481661E+02  0.64181139664E+03  0.73717272337E+03  0.00000000000E+00 0. -1.
         15    1    6    6    0    0  0.83136234985E+02 -0.96761738543E+02  0.28952853435E+03  0.31638779973E+03  0.00000000000E+00 0.  1.
        -16    1    5    5    0    0 -0.13760181200E+03  0.80166404196E+03  0.42647678764E+03  0.91841273142E+03  0.00000000000E+00 0.  1.
         16    1    3    3    0    0  0.75860832957E+03 -0.91789871763E+03 -0.10648538557E+04  0.15974787597E+04  0.00000000000E+00 0. -1.
    9900018    1    5    5    0    0 -0.12570476465E+04  0.39033956151E+03  0.93698019335E+03  0.16182647558E+04  0.91187600000E+02 0.  0.
<mgrwt>
<rscale>  0 0.58403358E+04</rscale>
<asrwt>0</asrwt>
<pdfrwt beam="1">  1        2 0.30803266E+00 0.58403358E+04</pdfrwt>
<pdfrwt beam="2">  1       -2 0.65522758E+00 0.58403358E+04</pdfrwt>
<totfact> 0.14936619E-03</totfact>
</mgrwt>
</event>
<event>
13    1  0.1083009E-008  0.5382903E+04  0.7818608E-02  0.7772011E-01
         -2   -1    0    0    0  501 -0.00000000000E+00  0.00000000000E+00  0.20881613840E+04  0.20881613840E+04  0.00000000000E+00 0. -1.
          2   -1    0    0  501    0  0.00000000000E+00 -0.00000000000E+00 -0.34690375546E+04  0.34690375546E+04  0.00000000000E+00 0.  1.
    9900016    2    1    2    0    0 -0.12434572431E+04 -0.18388504778E+02  0.26176931840E+03  0.25464213630E+04  0.22066296766E+04 0.  0.
         23    2    3    3    0    0  0.41301026632E+03  0.13376384508E+03  0.69725435110E+03  0.82692080733E+03  0.95729541498E+02 0.  0.
    9900016    2    1    2    0    0  0.12434572431E+04  0.18388504778E+02 -0.16426454890E+04  0.30107775755E+04  0.21954437716E+04 0.  0.
         23    2    5    5    0    0 -0.46061034393E+03 -0.21612600900E+03 -0.61794842104E+03  0.80567084034E+03  0.91503613051E+02 0.  0.
        -15    1    6    6    0    0 -0.40431103704E+03 -0.17386242893E+03 -0.48284064626E+03  0.65332277516E+03  0.00000000000E+00 0. -1.
        -15    1    4    4    0    0  0.10703620495E+03  0.70403397121E+02  0.15511699615E+03  0.20118317522E+03  0.00000000000E+00 0. -1.
         15    1    4    4    0    0  0.30597406137E+03  0.63360447963E+02  0.54213735495E+03  0.62573763211E+03  0.00000000000E+00 0.  1.
         15    1    6    6    0    0 -0.56299306899E+02 -0.42263580063E+02 -0.13510777479E+03  0.15234806518E+03  0.00000000000E+00 0.  1.
        -16    1    5    5    0    0  0.67716332160E+03 -0.30677344435E+03 -0.63357164723E+03  0.97676667760E+03  0.00000000000E+00 0.  1.
         16    1    3    3    0    0 -0.16564675094E+04 -0.15215234986E+03 -0.43548503270E+03  0.17195005557E+04  0.00000000000E+00 0. -1.
    9900018    1    5    5    0    0  0.10269042654E+04  0.54128795812E+03 -0.39112542070E+03  0.12283400576E+04  0.91187600000E+02 0.  0.
<mgrwt>
<rscale>  0 0.53829027E+04</rscale>
<asrwt>0</asrwt>
<pdfrwt beam="1">  1        2 0.53369808E+00 0.53829027E+04</pdfrwt>
<pdfrwt beam="2">  1       -2 0.32125560E+00 0.53829027E+04</pdfrwt>
<totfact> 0.14167320E-02</totfact>
</mgrwt>
</event>
<event>
13    1  0.1083009E-008  0.5065698E+04  0.7818608E-02  0.7818452E-01
          2   -1    0    0  501    0  0.00000000000E+00  0.00000000000E+00  0.27503128457E+04  0.27503128457E+04  0.00000000000E+00 0.  1.
         -2   -1    0    0    0  501 -0.00000000000E+00 -0.00000000000E+00 -0.23325793015E+04  0.23325793015E+04  0.00000000000E+00 0. -1.
    9900016    2    1    2    0    0 -0.49768775267E+03  0.10292977758E+03 -0.93894463395E+03  0.24465194764E+04  0.22012616574E+04 0.  0.
         23    2    3    3    0    0  0.88190790760E+02  0.14867419293E+03  0.68906097518E+03  0.71569641129E+03  0.86802617415E+02 0.  0.
    9900016    2    1    2    0    0  0.49768775267E+03 -0.10292977758E+03  0.13566781782E+04  0.26363726709E+04  0.22026342280E+04 0.  0.
         23    2    5    5    0    0  0.11513269377E+03 -0.20626917189E+03 -0.56140514229E+03  0.61603598290E+03  0.92315166629E+02 0.  0.
        -15    1    4    4    0    0  0.54088331219E+02  0.14978016557E+03  0.57442338456E+03  0.59608881075E+03  0.00000000000E+00 0. -1.
        -15    1    6    6    0    0  0.11913831728E+02 -0.10486943683E+03 -0.18838995045E+03  0.21594052792E+03  0.00000000000E+00 0. -1.
         15    1    6    6    0    0  0.10321886204E+03 -0.10139973506E+03 -0.37301519184E+03  0.40009545498E+03  0.00000000000E+00 0.  1.
         15    1    4    4    0    0  0.34102459542E+02 -0.11059726390E+01  0.11463759063E+03  0.11960760054E+03  0.00000000000E+00 0.  1.
        -16    1    5    5    0    0  0.39229171568E+03  0.10311547851E+03  0.18761538421E+04  0.19194996305E+04  0.00000000000E+00 0.  1.
         16    1    3    3    0    0 -0.58587854343E+03 -0.45744415348E+02 -0.16280056091E+04  0.17308230651E+04  0.00000000000E+00 0. -1.
    9900018    1    5    5    0    0 -0.97366567722E+01  0.22391579474E+00  0.41929478313E+02  0.10083705752E+03  0.91187600000E+02 0.  0.
<mgrwt>
<rscale>  0 0.50656975E+04</rscale>
<asrwt>0</asrwt>
<pdfrwt beam="1">  1        2 0.42312505E+00 0.50656975E+04</pdfrwt>
<pdfrwt beam="2">  1       -2 0.35885835E+00 0.50656975E+04</pdfrwt>
<totfact> 0.24537513E-02</totfact>
</mgrwt>
</event>
<event>
13    1  0.1083009E-008  0.5064195E+04  0.7818608E-02  0.7818680E-01
          1   -1    0    0  501    0  0.00000000000E+00  0.00000000000E+00  0.20307643378E+04  0.20307643378E+04  0.00000000000E+00 0. -1.
         -1   -1    0    0    0  501 -0.00000000000E+00 -0.00000000000E+00 -0.31571941369E+04  0.31571941369E+04  0.00000000000E+00 0.  1.
    9900016    2    1    2    0    0  0.16525240050E+03 -0.45973732096E+02  0.69458776205E+03  0.23174298628E+04  0.22042248229E+04 0.  0.
         23    2    3    3    0    0  0.44777313162E+01  0.40725345183E+03 -0.71520545876E+03  0.82787278103E+03  0.89325635840E+02 0.  0.
    9900016    2    1    2    0    0 -0.16525240050E+03  0.45973732096E+02 -0.18210175612E+04  0.28705286118E+04  0.22123308100E+04 0.  0.
         23    2    5    5    0    0 -0.38476725040E+03 -0.16735626165E+02 -0.19055305174E+04  0.19461994792E+04  0.91213715148E+02 0.  0.
        -15    1    4    4    0    0  0.30638555045E+02  0.28435726563E+03 -0.55414149259E+03  0.62359487601E+03  0.00000000000E+00 0.  1.
        -15    1    6    6    0    0 -0.21889315029E+03  0.35741632064E+02 -0.10765266083E+04  0.10991365766E+04  0.00000000000E+00 0.  1.
         15    1    6    6    0    0 -0.16587410011E+03 -0.52477258229E+02 -0.82900390910E+03  0.84706290264E+03  0.00000000000E+00 0. -1.
         15    1    4    4    0    0 -0.26160823729E+02  0.12289618620E+03 -0.16106396617E+03  0.20427790502E+03  0.00000000000E+00 0. -1.
        -16    1    5    5    0    0  0.33939549005E+03 -0.33499883786E+03 -0.46986675461E+02  0.47918813394E+03  0.00000000000E+00 0.  1.
         16    1    3    3    0    0  0.16077466918E+03 -0.45322718392E+03  0.14097932208E+04  0.14895570818E+04  0.00000000000E+00 0. -1.
    9900018    1    5    5    0    0 -0.11988064015E+03  0.39770819612E+03  0.13149963171E+03  0.44514099865E+03  0.91187600000E+02 0.  0.
<mgrwt>
<rscale>  0 0.50641948E+04</rscale>
<asrwt>0</asrwt>
<pdfrwt beam="1">  1        1 0.31242529E+00 0.50641948E+04</pdfrwt>
<pdfrwt beam="2">  1       -1 0.48572217E+00 0.50641948E+04</pdfrwt>
<totfact> 0.37914007E-03</totfact>
</mgrwt>
</event>
<event>
13    1  0.1083009E-008  0.5083824E+04  0.7818608E-02  0.7815705E-01
         -2   -1    0    0    0  501 -0.00000000000E+00  0.00000000000E+00  0.16900630705E+04  0.16900630705E+04  0.00000000000E+00 0.  1.
          2   -1    0    0  501    0  0.00000000000E+00 -0.00000000000E+00 -0.38231213617E+04  0.38231213617E+04  0.00000000000E+00 0. -1.
    9900016    2    1    2    0    0 -0.11859159286E+04 -0.31975203947E+03 -0.70153291834E+03  0.26194123887E+04  0.22046620761E+04 0.  0.
         23    2    3    3    0    0  0.11145150549E+03  0.26543966785E+03 -0.11005796771E+04  0.11412886087E+04  0.91566409214E+02 0.  0.
    9900016    2    1    2    0    0  0.11859159286E+04  0.31975203947E+03 -0.14315253728E+04  0.28937720436E+04  0.21945418180E+04 0.  0.
         23    2    5    5    0    0 -0.13780898867E+03 -0.24194279949E+03  0.37984711296E+03  0.47909612399E+03  0.87872812743E+02 0.  0.
        -15    1    6    6    0    0 -0.25770070459E+02 -0.12985271809E+03  0.15225989255E+03  0.20176446617E+03  0.00000000000E+00 0. -1.
        -15    1    4    4    0    0  0.87087310001E+02  0.13102070625E+03 -0.45552271775E+03  0.48192486076E+03  0.00000000000E+00 0. -1.
         15    1    4    4    0    0  0.24364195490E+02  0.13441896160E+03 -0.64505695936E+03  0.65936374792E+03  0.00000000000E+00 0.  1.
         15    1    6    6    0    0 -0.11203891821E+03 -0.11209008140E+03  0.22758722040E+03  0.27733165783E+03  0.00000000000E+00 0.  1.
        -16    1    3    3    0    0 -0.12973674341E+04 -0.58519170731E+03  0.39904675876E+03  0.14781237800E+04  0.00000000000E+00 0.  1.
         16    1    5    5    0    0  0.35253949973E+03  0.33213384790E+03 -0.21520384232E+03  0.53000913723E+03  0.00000000000E+00 0. -1.
    9900018    1    5    5    0    0  0.97118541752E+03  0.22956099106E+03 -0.15961686434E+04  0.18846667823E+04  0.91187600000E+02 0.  0.
<mgrwt>
<rscale>  0 0.50838238E+04</rscale>
<asrwt>0</asrwt>
<pdfrwt beam="1">  1        2 0.58817252E+00 0.50838238E+04</pdfrwt>
<pdfrwt beam="2">  1       -2 0.26000970E+00 0.50838238E+04</pdfrwt>
<totfact> 0.18956325E-02</totfact>
</mgrwt>
</event>
<event>
13    1  0.1083009E-008  0.5298157E+04  0.7818608E-02  0.7784090E-01
         -1   -1    0    0    0  501 -0.00000000000E+00  0.00000000000E+00  0.26599071357E+04  0.26599071357E+04  0.00000000000E+00 0.  1.
          1   -1    0    0  501    0  0.00000000000E+00 -0.00000000000E+00 -0.26382938815E+04  0.26382938815E+04  0.00000000000E+00 0. -1.
    9900016    2    1    2    0    0  0.13532746087E+04  0.19805671253E+03  0.54185378999E+03  0.26512082048E+04  0.22056112050E+04 0.  0.
         23    2    3    3    0    0  0.26529481506E+03 -0.34307400488E+03 -0.75384588711E+03  0.87487486390E+03  0.95085720522E+02 0.  0.
    9900016    2    1    2    0    0 -0.13532746087E+04 -0.19805671253E+03 -0.52024053581E+03  0.26469928125E+04  0.22057520501E+04 0.  0.
         23    2    5    5    0    0  0.39571376172E+03  0.20118981335E+03 -0.11688494476E+03  0.46842837665E+03  0.93254123416E+02 0.  0.
        -15    1    4    4    0    0  0.74395392704E+02 -0.99782498835E+02 -0.13860703415E+03  0.18628776515E+03  0.00000000000E+00 0.  1.
        -15    1    6    6    0    0  0.17474503110E+03  0.12535687376E+03 -0.21656284844E+02  0.21614616898E+03  0.00000000000E+00 0.  1.
         15    1    6    6    0    0  0.22096873062E+03  0.75832939594E+02 -0.95228659915E+02  0.25228220767E+03  0.00000000000E+00 0. -1.
         15    1    4    4    0    0  0.19089942235E+03 -0.24329150604E+03 -0.61523885296E+03  0.68858709875E+03  0.00000000000E+00 0. -1.
        -16    1    3    3    0    0  0.10879797936E+04  0.54113071741E+03  0.12956996771E+04  0.17763333409E+04  0.00000000000E+00 0.  1.
         16    1    5    5    0    0 -0.98086773060E+03 -0.29433630407E+03 -0.80323215139E+03  0.13015057640E+04  0.00000000000E+00 0. -1.
    9900018    1    5    5    0    0 -0.76812063977E+03 -0.10491022181E+03  0.39987656033E+03  0.87705867180E+03  0.91187600000E+02 0.  0.
<mgrwt>
<rscale>  0 0.52981569E+04</rscale>
<asrwt>0</asrwt>
<pdfrwt beam="1">  1        1 0.40589137E+00 0.52981569E+04</pdfrwt>
<pdfrwt beam="2">  1       -1 0.40921648E+00 0.52981569E+04</pdfrwt>
<totfact> 0.47358948E-03</totfact>
</mgrwt>
</event>
<event>
13    1  0.1083009E-008  0.5162044E+04  0.7818608E-02  0.7803985E-01
         -1   -1    0    0    0  501 -0.00000000000E+00  0.00000000000E+00  0.20025052561E+04  0.20025052561E+04  0.00000000000E+00 0.  1.
          1   -1    0    0  501    0  0.00000000000E+00 -0.00000000000E+00 -0.33266702625E+04  0.33266702625E+04  0.00000000000E+00 0. -1.
    9900016    2    1    2    0    0  0.10257875402E+04 -0.58115815376E+03 -0.13557957032E+04  0.28503645843E+04  0.22127836309E+04 0.  0.
         23    2    3    3    0    0 -0.56412452186E+03 -0.71032814147E+03 -0.46520144438E+03  0.10234372774E+04  0.90603157261E+02 0.  0.
    9900016    2    1    2    0    0 -0.10257875402E+04  0.58115815376E+03  0.31630696776E+02  0.24788109344E+04  0.21802564689E+04 0.  0.
         23    2    5    5    0    0 -0.24354389167E+03  0.27091133825E+03  0.10187786675E+04  0.10859181328E+04  0.92745012497E+02 0.  0.
        -15    1    4    4    0    0 -0.46358599608E+02 -0.27560386099E+02 -0.37917912956E+02  0.65927708609E+02  0.00000000000E+00 0.  1.
        -15    1    6    6    0    0 -0.86092168493E+02  0.16316289630E+03  0.46926768983E+03  0.50422827858E+03  0.00000000000E+00 0.  1.
         15    1    4    4    0    0 -0.51776592225E+03 -0.68276775537E+03 -0.42728353142E+03  0.95750956875E+03  0.00000000000E+00 0. -1.
         15    1    6    6    0    0 -0.15745172317E+03  0.10774844196E+03  0.54951097767E+03  0.58168985418E+03  0.00000000000E+00 0. -1.
        -16    1    3    3    0    0  0.15899120621E+04  0.12916998772E+03 -0.89059425881E+03  0.18269273069E+04  0.00000000000E+00 0.  1.
         16    1    5    5    0    0 -0.30021008585E+03  0.27695026532E+03 -0.73364594545E+03  0.83968084317E+03  0.00000000000E+00 0. -1.
    9900018    1    5    5    0    0 -0.48203356270E+03  0.33296550182E+02 -0.25350202527E+03  0.55321195851E+03  0.91187600000E+02 0.  0.
<mgrwt>
<rscale>  0 0.51620440E+04</rscale>
<asrwt>0</asrwt>
<pdfrwt beam="1">  1        1 0.51179542E+00 0.51620440E+04</pdfrwt>
<pdfrwt beam="2">  1       -1 0.30807773E+00 0.51620440E+04</pdfrwt>
<totfact> 0.71042529E-03</totfact>
</mgrwt>
</event>
<event>
13    1  0.1287835E-008  0.5426251E+04  0.7818608E-02  0.7765919E-01
          2   -1    0    0  501    0  0.00000000000E+00  0.00000000000E+00  0.34487576809E+04  0.34487576809E+04  0.00000000000E+00 0. -1.
         -2   -1    0    0    0  501 -0.00000000000E+00 -0.00000000000E+00 -0.21344063659E+04  0.21344063659E+04  0.00000000000E+00 0.  1.
    9900016    2    1    2    0    0 -0.13776377259E+04 -0.79547969936E+03  0.72391299302E+03  0.27988617672E+04  0.21860703362E+04 0.  0.
         23    2    3    3    0    0  0.37618509660E+03  0.23166914717E+03  0.61582885039E+03  0.76352115013E+03  0.92377232475E+02 0.  0.
    9900016    2    1    2    0    0  0.13776377259E+04  0.79547969936E+03  0.59043832197E+03  0.27843022796E+04  0.22074981577E+04 0.  0.
         23    2    5    5    0    0 -0.32677258144E+03 -0.23736276735E+03  0.26011662052E+03  0.48894806867E+03  0.91039300733E+02 0.  0.
        -15    1    4    4    0    0  0.19982077620E+03  0.12412825437E+03  0.40502066153E+03  0.46837794824E+03  0.00000000000E+00 0.  1.
        -15    1    6    6    0    0 -0.21836622552E+03 -0.20294378732E+03  0.21003735664E+03  0.36467201764E+03  0.00000000000E+00 0. -1.
         15    1    6    6    0    0 -0.10840635592E+03 -0.34418980029E+02  0.50079263882E+02  0.12427605104E+03  0.00000000000E+00 0.  1.
         15    1    4    4    0    0  0.17636432040E+03  0.10754089280E+03  0.21080818886E+03  0.29514320189E+03  0.00000000000E+00 0. -1.
        -16    1    5    5    0    0  0.78514456272E+03  0.45188974981E+03 -0.39158547937E+03  0.98691211260E+03  0.00000000000E+00 0.  1.
         16    1    3    3    0    0 -0.17538228225E+04 -0.10271488465E+04  0.10808414263E+03  0.20353406171E+04  0.00000000000E+00 0. -1.
    9900018    1    5    5    0    0  0.91926574465E+03  0.58095271690E+03  0.72190718082E+03  0.13084420983E+04  0.91187600000E+02 0.  0.
<mgrwt>
<rscale>  0 0.54262511E+04</rscale>
<asrwt>0</asrwt>
<pdfrwt beam="1">  1        2 0.53057811E+00 0.54262511E+04</pdfrwt>
<pdfrwt beam="2">  1       -2 0.32837021E+00 0.54262511E+04</pdfrwt>
<totfact> 0.13176391E-02</totfact>
</mgrwt>
</event>
<event>
13    1  0.1083009E-008  0.5295750E+04  0.7818608E-02  0.7784437E-01
         -2   -1    0    0    0  501 -0.00000000000E+00  0.00000000000E+00  0.23186173800E+04  0.23186173800E+04  0.00000000000E+00 0.  1.
          2   -1    0    0  501    0  0.00000000000E+00 -0.00000000000E+00 -0.30238892014E+04  0.30238892014E+04  0.00000000000E+00 0. -1.
    9900016    2    1    2    0    0  0.12750225323E+04 -0.66683567168E+03  0.12593902974E+02  0.26227218244E+04  0.21927514430E+04 0.  0.
         23    2    3    3    0    0 -0.42254651585E+03  0.13310822153E+03  0.50981559159E+03  0.68136139594E+03  0.89878015953E+02 0.  0.
    9900016    2    1    2    0    0 -0.12750225323E+04  0.66683567168E+03 -0.71786572439E+03  0.27197847570E+04  0.21935235707E+04 0.  0.
         23    2    5    5    0    0 -0.25686966960E+03  0.32713267257E+02  0.57985584884E+03  0.64149020289E+03  0.90690076381E+02 0.  0.
        -15    1    4    4    0    0 -0.11834362736E+03  0.74726391869E+02  0.12766968663E+03  0.18944338643E+03  0.00000000000E+00 0.  1.
        -15    1    6    6    0    0 -0.18293817999E+03  0.63100282998E+02  0.43342365820E+03  0.47466208075E+03  0.00000000000E+00 0.  1.
         15    1    6    6    0    0 -0.73931489606E+02 -0.30387015741E+02  0.14643219064E+03  0.16682812214E+03  0.00000000000E+00 0. -1.
         15    1    4    4    0    0 -0.30420288849E+03  0.58381829664E+02  0.38214590496E+03  0.49191800951E+03  0.00000000000E+00 0. -1.
        -16    1    5    5    0    0 -0.29931964919E+03 -0.30754194992E+03 -0.42552716998E+03  0.60435724182E+03  0.00000000000E+00 0.  1.
         16    1    3    3    0    0  0.16975690482E+04 -0.79994389321E+03 -0.49722168861E+03  0.19413604285E+04  0.00000000000E+00 0. -1.
    9900018    1    5    5    0    0 -0.71883321354E+03  0.94166435434E+03 -0.87219440324E+03  0.14739373123E+04  0.91187600000E+02 0.  0.
<mgrwt>
<rscale>  0 0.52957500E+04</rscale>
<asrwt>0</asrwt>
<pdfrwt beam="1">  1        2 0.46521372E+00 0.52957500E+04</pdfrwt>
<pdfrwt beam="2">  1       -2 0.35671037E+00 0.52957500E+04</pdfrwt>
<totfact> 0.16872234E-02</totfact>
</mgrwt>
</event>
<event>
13    1  0.1083009E-008  0.5685868E+04  0.7818608E-02  0.7730619E-01
         -2   -1    0    0    0  501 -0.00000000000E+00  0.00000000000E+00  0.45365426026E+04  0.45365426026E+04  0.00000000000E+00 0.  1.
          2   -1    0    0  501    0  0.00000000000E+00 -0.00000000000E+00 -0.17815932057E+04  0.17815932057E+04  0.00000000000E+00 0. -1.
    9900016    2    1    2    0    0 -0.16773795948E+03  0.13752413310E+04  0.26351935700E+04  0.37085651746E+04  0.22112859973E+04 0.  0.
         23    2    3    3    0    0  0.84794241090E+02  0.74701154932E+03 -0.20948506594E+03  0.78441714273E+03  0.78803190344E+02 0.  0.
    9900016    2    1    2    0    0  0.16773795948E+03 -0.13752413310E+04  0.11975582689E+03  0.26095706336E+04  0.22081876488E+04 0.  0.
         23    2    5    5    0    0  0.24677071977E+03 -0.16603777802E+03  0.61282043755E+03  0.68711368938E+03  0.90066650871E+02 0.  0.
        -15    1    6    6    0    0  0.22462636020E+03 -0.11925500892E+03  0.45803285335E+03  0.52390156862E+03  0.00000000000E+00 0.  1.
        -15    1    4    4    0    0  0.29389143773E+01  0.51877350926E+02 -0.36265043007E+02  0.63364422992E+02  0.00000000000E+00 0.  1.
         15    1    6    6    0    0  0.22144359577E+02 -0.46782769096E+02  0.15478758419E+03  0.16321212077E+03  0.00000000000E+00 0. -1.
         15    1    4    4    0    0  0.81855326712E+02  0.69513419840E+03 -0.17322002294E+03  0.72105271974E+03  0.00000000000E+00 0. -1.
        -16    1    3    3    0    0 -0.25253220057E+03  0.62822978169E+03  0.28446786359E+04  0.29241480319E+04  0.00000000000E+00 0.  1.
         16    1    5    5    0    0 -0.71719757803E+03 -0.44947680479E+03 -0.10380050023E+03  0.85274633264E+03  0.00000000000E+00 0. -1.
    9900018    1    5    5    0    0  0.63816481773E+03 -0.75972674820E+03 -0.38926411042E+03  0.10697106116E+04  0.91187600000E+02 0.  0.
<mgrwt>
<rscale>  0 0.56858679E+04</rscale>
<asrwt>0</asrwt>
<pdfrwt beam="1">  1        2 0.27409126E+00 0.56858679E+04</pdfrwt>
<pdfrwt beam="2">  1       -2 0.69792963E+00 0.56858679E+04</pdfrwt>
<totfact> 0.14315471E-03</totfact>
</mgrwt>
</event>
<event>
13    1  0.1083009E-008  0.6108347E+04  0.7818608E-02  0.7677111E-01
          2   -1    0    0  501    0  0.00000000000E+00  0.00000000000E+00  0.17815539562E+04  0.17815539562E+04  0.00000000000E+00 0. -1.
         -2   -1    0    0    0  501 -0.00000000000E+00 -0.00000000000E+00 -0.52358653091E+04  0.52358653091E+04  0.00000000000E+00 0.  1.
    9900016    2    1    2    0    0 -0.20168475314E+04  0.20137062001E+03 -0.24297145627E+04  0.38552216787E+04  0.22024979555E+04 0.  0.
         23    2    3    3    0    0 -0.51037245903E+03 -0.35871972328E+02 -0.22621795075E+04  0.23210055316E+04  0.88564711336E+02 0.  0.
    9900016    2    1    2    0    0  0.20168475314E+04 -0.20137062001E+03 -0.10245967901E+04  0.31621975866E+04  0.22003342707E+04 0.  0.
         23    2    5    5    0    0 -0.25491556838E+03 -0.49288849922E+03  0.26701246547E+02  0.56315158789E+03  0.92226540203E+02 0.  0.
        -15    1    6    6    0    0 -0.49863404102E+01 -0.13575376159E+02 -0.15185904200E+02  0.20970601205E+02  0.00000000000E+00 0.  1.
        -15    1    4    4    0    0 -0.78387119489E+02  0.83601467580E+01 -0.23608516622E+03  0.24889885147E+03  0.00000000000E+00 0.  1.
         15    1    4    4    0    0 -0.43198533954E+03 -0.44232119086E+02 -0.20260943413E+04  0.20721066801E+04  0.00000000000E+00 0. -1.
         15    1    6    6    0    0 -0.24992922797E+03 -0.47931312306E+03  0.41887150747E+02  0.54218098669E+03  0.00000000000E+00 0. -1.
        -16    1    5    5    0    0  0.19689489012E+04  0.61507012419E+02 -0.98490814340E+03  0.22024048082E+04  0.00000000000E+00 0.  1.
         16    1    3    3    0    0 -0.15064750724E+04  0.23724259234E+03 -0.16753505520E+03  0.15342161471E+04  0.00000000000E+00 0. -1.
    9900018    1    5    5    0    0  0.30281419857E+03  0.23001086679E+03 -0.66389893283E+02  0.39664119052E+03  0.91187600000E+02 0.  0.
<mgrwt>
<rscale>  0 0.61083473E+04</rscale>
<asrwt>0</asrwt>
<pdfrwt beam="1">  1        2 0.27408523E+00 0.61083473E+04</pdfrwt>
<pdfrwt beam="2">  1       -2 0.80551774E+00 0.61083473E+04</pdfrwt>
<totfact> 0.42719895E-04</totfact>
</mgrwt>
</event>
<event>
13    1  0.1083009E-008  0.6352159E+04  0.7818608E-02  0.7648208E-01
          1   -1    0    0  501    0  0.00000000000E+00  0.00000000000E+00  0.40014023364E+04  0.40014023364E+04  0.00000000000E+00 0. -1.
         -1   -1    0    0    0  501 -0.00000000000E+00 -0.00000000000E+00 -0.25209864827E+04  0.25209864827E+04  0.00000000000E+00 0.  1.
    9900016    2    1    2    0    0 -0.18672795468E+04  0.75303202448E+03 -0.37718585662E+03  0.30074047657E+04  0.22019137400E+04 0.  0.
         23    2    3    3    0    0 -0.17577106281E+02 -0.44543981552E+03  0.46201544045E+03  0.64901703532E+03  0.95075028275E+02 0.  0.
    9900016    2    1    2    0    0  0.18672795468E+04 -0.75303202448E+03  0.18576017104E+04  0.35149840534E+04  0.22024165468E+04 0.  0.
         23    2    5    5    0    0 -0.19544098091E+03  0.22271687149E+03  0.64461744989E+03  0.71536167030E+03  0.91709763787E+02 0.  0.
        -15    1    6    6    0    0 -0.13372082741E+03  0.19930299972E+03  0.54901682277E+03  0.59918479375E+03  0.00000000000E+00 0. -1.
        -15    1    4    4    0    0  0.23841305512E+02 -0.29458144368E+03  0.34087426899E+03  0.45115618367E+03  0.00000000000E+00 0. -1.
         15    1    6    6    0    0 -0.61720153506E+02  0.23413871773E+02  0.95600627120E+02  0.11617687655E+03  0.00000000000E+00 0.  1.
         15    1    4    4    0    0 -0.41418411793E+02 -0.15085837184E+03  0.12114117146E+03  0.19786085165E+03  0.00000000000E+00 0.  1.
        -16    1    5    5    0    0  0.13354944316E+04 -0.95560374323E+03  0.37176820764E+03  0.16837266676E+04  0.00000000000E+00 0.  1.
         16    1    3    3    0    0 -0.18497024405E+04  0.11984718400E+04 -0.83920129707E+03  0.23583877304E+04  0.00000000000E+00 0. -1.
    9900018    1    5    5    0    0  0.72722609609E+03 -0.20145152745E+02  0.84121605283E+03  0.11158957155E+04  0.91187600000E+02 0.  0.
<mgrwt>
<rscale>  0 0.63521591E+04</rscale>
<asrwt>0</asrwt>
<pdfrwt beam="1">  1        1 0.61560036E+00 0.63521591E+04</pdfrwt>
<pdfrwt beam="2">  1       -1 0.38784407E+00 0.63521591E+04</pdfrwt>
<totfact> 0.53707049E-04</totfact>
</mgrwt>
</event>
<event>
13    1  0.1083009E-008  0.5071276E+04  0.7818608E-02  0.7817605E-01
          1   -1    0    0  501    0  0.00000000000E+00  0.00000000000E+00  0.16907321244E+04  0.16907321244E+04  0.00000000000E+00 0. -1.
         -1   -1    0    0    0  501 -0.00000000000E+00 -0.00000000000E+00 -0.38027671213E+04  0.38027671213E+04  0.00000000000E+00 0.  1.
    9900016    2    1    2    0    0 -0.46646151833E+03  0.94065715829E+03 -0.32378451378E+03  0.24627773885E+04  0.22040902469E+04 0.  0.
         23    2    3    3    0    0 -0.40832966238E+03  0.22556691425E+03 -0.12231495802E+04  0.13123031852E+04  0.91821611008E+02 0.  0.
    9900016    2    1    2    0    0  0.46646151833E+03 -0.94065715829E+03 -0.17882504831E+04  0.30307218573E+04  0.22102065397E+04 0.  0.
         23    2    5    5    0    0  0.11440021363E+03 -0.52091669725E+03 -0.22251033326E+02  0.54157350417E+03  0.91461126100E+02 0.  0.
        -15    1    4    4    0    0 -0.56541985105E+02  0.23789249770E+02 -0.26223929056E+03  0.26931834322E+03  0.00000000000E+00 0.  1.
        -15    1    6    6    0    0  0.69068297248E+02 -0.45434481389E+03 -0.70959327922E+01  0.45961939891E+03  0.00000000000E+00 0. -1.
         15    1    6    6    0    0  0.45331916386E+02 -0.66571883355E+02 -0.15155100534E+02  0.81954105259E+02  0.00000000000E+00 0.  1.
         15    1    4    4    0    0 -0.35178767727E+03  0.20177766448E+03 -0.96091028966E+03  0.10429848419E+04  0.00000000000E+00 0. -1.
        -16    1    5    5    0    0 -0.15502475396E+03  0.46209716191E+03 -0.47042362321E+02  0.48967279405E+03  0.00000000000E+00 0.  1.
         16    1    3    3    0    0 -0.58131855956E+02  0.71509024405E+03  0.89936506643E+03  0.11504742033E+04  0.00000000000E+00 0. -1.
    9900018    1    5    5    0    0  0.50708605866E+03 -0.88183762295E+03 -0.17189570875E+04  0.19994755590E+04  0.91187600000E+02 0.  0.
<mgrwt>
<rscale>  0 0.50712762E+04</rscale>
<asrwt>0</asrwt>
<pdfrwt beam="1">  1        1 0.26011264E+00 0.50712762E+04</pdfrwt>
<pdfrwt beam="2">  1       -1 0.58504109E+00 0.50712762E+04</pdfrwt>
<totfact> 0.17863150E-03</totfact>
</mgrwt>
</event>
<event>
13    1  0.1083009E-008  0.5551530E+04  0.7818608E-02  0.7748638E-01
          1   -1    0    0  501    0  0.00000000000E+00  0.00000000000E+00  0.35940246184E+04  0.35940246184E+04  0.00000000000E+00 0. -1.
         -1   -1    0    0    0  501 -0.00000000000E+00 -0.00000000000E+00 -0.21438004294E+04  0.21438004294E+04  0.00000000000E+00 0.  1.
    9900016    2    1    2    0    0 -0.80257977212E+03  0.75942191025E+03 -0.59670075954E+03  0.25391411808E+04  0.22068824642E+04 0.  0.
         23    2    3    3    0    0  0.25857993666E+03 -0.26246277574E+03 -0.95185143294E+03  0.10237401646E+04  0.79199001919E+02 0.  0.
    9900016    2    1    2    0    0  0.80257977212E+03 -0.75942191025E+03  0.20469249485E+04  0.31986838671E+04  0.21956367660E+04 0.  0.
         23    2    5    5    0    0 -0.67940099396E+03 -0.21379416259E+03  0.68887528899E+03  0.99511750737E+03  0.91738951007E+02 0.  0.
        -15    1    4    4    0    0  0.51010580369E+02 -0.10347948294E+03 -0.29749219101E+03  0.31907943589E+03  0.00000000000E+00 0.  1.
        -15    1    6    6    0    0 -0.62427665243E+02  0.68212494324E+01  0.55649556441E+02  0.83908378388E+02  0.00000000000E+00 0.  1.
         15    1    4    4    0    0  0.20756935629E+03 -0.15898329279E+03 -0.65435924193E+03  0.70466072869E+03  0.00000000000E+00 0. -1.
         15    1    6    6    0    0 -0.61697332872E+03 -0.22061541203E+03  0.63322573255E+03  0.91120912898E+03  0.00000000000E+00 0. -1.
        -16    1    5    5    0    0  0.65334310984E+03 -0.54855763193E+03  0.94532981051E+03  0.12733503624E+04  0.00000000000E+00 0.  1.
         16    1    3    3    0    0 -0.10611597088E+04  0.10218846860E+04  0.35515067340E+03  0.15154010162E+04  0.00000000000E+00 0. -1.
    9900018    1    5    5    0    0  0.82863765624E+03  0.29298842757E+01  0.41271984899E+03  0.93021599734E+03  0.91187600000E+02 0.  0.
<mgrwt>
<rscale>  0 0.55515301E+04</rscale>
<asrwt>0</asrwt>
<pdfrwt beam="1">  1        1 0.55292686E+00 0.55515301E+04</pdfrwt>
<pdfrwt beam="2">  1       -1 0.32981545E+00 0.55515301E+04</pdfrwt>
<totfact> 0.30654617E-03</totfact>
</mgrwt>
</event>
<event>
13    1  0.1083009E-008  0.5182345E+04  0.7818608E-02  0.7800978E-01
          2   -1    0    0  501    0  0.00000000000E+00  0.00000000000E+00  0.17573483771E+04  0.17573483771E+04  0.00000000000E+00 0. -1.
         -2   -1    0    0    0  501 -0.00000000000E+00 -0.00000000000E+00 -0.38206285940E+04  0.38206285940E+04  0.00000000000E+00 0.  1.
    9900016    2    1    2    0    0 -0.36495896729E+03 -0.12891431127E+04 -0.76467844076E+03  0.26928099205E+04  0.22071264435E+04 0.  0.
         23    2    3    3    0    0 -0.11279505145E+03  0.45522981607E+03 -0.79783458372E+03  0.92999317313E+03  0.91598962994E+02 0.  0.
    9900016    2    1    2    0    0  0.36495896729E+03  0.12891431127E+04 -0.12986017761E+04  0.28851670506E+04  0.22006220312E+04 0.  0.
         23    2    5    5    0    0  0.25624031528E+03 -0.32016588948E+02  0.41046151095E+03  0.49152246626E+03  0.80196768813E+02 0.  0.
        -15    1    6    6    0    0  0.22497742362E+03 -0.47433008783E+02  0.38472214997E+03  0.44819177161E+03  0.00000000000E+00 0.  1.
        -15    1    4    4    0    0 -0.10975384965E+03  0.43468187608E+03 -0.78888082022E+03  0.90737378705E+03  0.00000000000E+00 0.  1.
         15    1    6    6    0    0  0.31262891658E+02  0.15416419835E+02  0.25739360973E+02  0.43330694648E+02  0.00000000000E+00 0. -1.
         15    1    4    4    0    0 -0.30412017992E+01  0.20547939986E+02 -0.89537635007E+01  0.22619386086E+02  0.00000000000E+00 0. -1.
        -16    1    5    5    0    0  0.21777461162E+03 -0.80202497868E+02 -0.44122479016E+03  0.49853539250E+03  0.00000000000E+00 0.  1.
         16    1    3    3    0    0 -0.25216391584E+03 -0.17443729288E+04  0.33156142961E+02  0.17628167474E+04  0.00000000000E+00 0. -1.
    9900018    1    5    5    0    0 -0.10905595960E+03  0.14013621995E+04 -0.12678384969E+04  0.18951091919E+04  0.91187600000E+02 0.  0.
<mgrwt>
<rscale>  0 0.51823452E+04</rscale>
<asrwt>0</asrwt>
<pdfrwt beam="1">  1        2 0.27036129E+00 0.51823452E+04</pdfrwt>
<pdfrwt beam="2">  1       -2 0.58778901E+00 0.51823452E+04</pdfrwt>
<totfact> 0.37682333E-03</totfact>
</mgrwt>
</event>
<event>
13    1  0.1083009E-008  0.5062989E+04  0.7818608E-02  0.7818863E-01
         -2   -1    0    0    0  501 -0.00000000000E+00  0.00000000000E+00  0.16263132419E+04  0.16263132419E+04  0.00000000000E+00 0. -1.
          2   -1    0    0  501    0  0.00000000000E+00 -0.00000000000E+00 -0.39404863040E+04  0.39404863040E+04  0.00000000000E+00 0.  1.
    9900016    2    1    2    0    0  0.33255888499E+03 -0.87760257720E+03 -0.20559106872E+04  0.31550657277E+04  0.22015651926E+04 0.  0.
         23    2    3    3    0    0  0.36165080300E+03 -0.18079076915E+03  0.41569020535E+03  0.58695280040E+03  0.90766940901E+02 0.  0.
    9900016    2    1    2    0    0 -0.33255888499E+03  0.87760257720E+03 -0.25826237493E+03  0.24117338182E+04  0.22065762756E+04 0.  0.
         23    2    5    5    0    0 -0.84468123994E+03 -0.13618595429E+03  0.72297509815E+02  0.86363260676E+03  0.92743400182E+02 0.  0.
        -15    1    6    6    0    0 -0.79501662671E+03 -0.11547450571E+03  0.48577737177E+02  0.80482643766E+03  0.00000000000E+00 0.  1.
        -15    1    4    4    0    0  0.29098160820E+03 -0.14951658039E+03  0.27914401326E+03  0.43005451313E+03  0.00000000000E+00 0.  1.
         15    1    6    6    0    0 -0.49664613238E+02 -0.20711448578E+02  0.23719772639E+02  0.58806169101E+02  0.00000000000E+00 0. -1.
         15    1    4    4    0    0  0.70669194797E+02 -0.31274188754E+02  0.13654619209E+03  0.15689828728E+03  0.00000000000E+00 0. -1.
        -16    1    3    3    0    0 -0.29091918008E+02 -0.69681180806E+03 -0.24716008925E+04  0.25681129273E+04  0.00000000000E+00 0.  1.
         16    1    5    5    0    0  0.53586262531E+03  0.21324848117E+03 -0.45224102656E+03  0.73290218585E+03  0.00000000000E+00 0. -1.
    9900018    1    5    5    0    0 -0.23740270357E+02  0.80054005033E+03  0.12168114182E+03  0.81519902556E+03  0.91187600000E+02 0.  0.
<mgrwt>
<rscale>  0 0.50629893E+04</rscale>
<asrwt>0</asrwt>
<pdfrwt beam="1">  1        2 0.60622866E+00 0.50629893E+04</pdfrwt>
<pdfrwt beam="2">  1       -2 0.25020204E+00 0.50629893E+04</pdfrwt>
<totfact> 0.17650727E-02</totfact>
</mgrwt>
</event>
<event>
13    1  0.1083009E-008  0.6095489E+04  0.7818608E-02  0.7678674E-01
          2   -1    0    0  501    0  0.00000000000E+00  0.00000000000E+00  0.41904550287E+04  0.41904550287E+04  0.00000000000E+00 0. -1.
         -2   -1    0    0    0  501 -0.00000000000E+00 -0.00000000000E+00 -0.22166440058E+04  0.22166440058E+04  0.00000000000E+00 0.  1.
    9900016    2    1    2    0    0 -0.35990427909E+03  0.16010646747E+04  0.23722470077E+04  0.36266373855E+04  0.21981819028E+04 0.  0.
         23    2    3    3    0    0 -0.12721888716E+03  0.10680269542E+04  0.27355900237E+04  0.29408605629E+04  0.91333743051E+02 0.  0.
    9900016    2    1    2    0    0  0.35990427909E+03 -0.16010646747E+04 -0.39843598471E+03  0.27804616490E+04  0.22089084556E+04 0.  0.
         23    2    5    5    0    0  0.25685482257E+03  0.29981501964E+02  0.46367443050E+03  0.53875516368E+03  0.91596171070E+02 0.  0.
        -15    1    4    4    0    0  0.68575114680E+00  0.28007808356E+02  0.11901278977E+03  0.12226590576E+03  0.00000000000E+00 0.  1.
        -15    1    6    6    0    0  0.10661974177E+03  0.44039116466E+02  0.26709414352E+03  0.29094070636E+03  0.00000000000E+00 0.  1.
         15    1    4    4    0    0 -0.12790463830E+03  0.10400191459E+04  0.26165772339E+04  0.28185946572E+04  0.00000000000E+00 0. -1.
         15    1    6    6    0    0  0.15023508080E+03 -0.14057614503E+02  0.19658028698E+03  0.24781445732E+03  0.00000000000E+00 0. -1.
        -16    1    3    3    0    0 -0.23268539193E+03  0.53303772047E+03 -0.36334301603E+03  0.68577682256E+03  0.00000000000E+00 0.  1.
         16    1    5    5    0    0 -0.37062461009E+03 -0.15167160591E+04 -0.54743546950E+03  0.16545318972E+04  0.00000000000E+00 0. -1.
    9900018    1    5    5    0    0  0.47367406660E+03 -0.11433011758E+03 -0.31467494571E+03  0.58717458818E+03  0.91187600000E+02 0.  0.
<mgrwt>
<rscale>  0 0.60954892E+04</rscale>
<asrwt>0</asrwt>
<pdfrwt beam="1">  1        2 0.64468539E+00 0.60954892E+04</pdfrwt>
<pdfrwt beam="2">  1       -2 0.34102215E+00 0.60954892E+04</pdfrwt>
<totfact> 0.27849971E-03</totfact>
</mgrwt>
</event>
<event>
13    1  0.1083009E-008  0.5705238E+04  0.7818608E-02  0.7728063E-01
          2   -1    0    0  501    0  0.00000000000E+00  0.00000000000E+00  0.34134864844E+04  0.34134864844E+04  0.00000000000E+00 0. -1.
         -2   -1    0    0    0  501 -0.00000000000E+00 -0.00000000000E+00 -0.23839074578E+04  0.23839074578E+04  0.00000000000E+00 0.  1.
    9900016    2    1    2    0    0 -0.82544642115E+03 -0.63902042402E+03  0.20185142407E+04  0.31645042899E+04  0.22022667333E+04 0.  0.
         23    2    3    3    0    0 -0.45353810363E+03 -0.74685307808E+02 -0.42294020825E+03  0.63122780554E+03  0.91079174802E+02 0.  0.
    9900016    2    1    2    0    0  0.82544642115E+03  0.63902042402E+03 -0.98893521406E+03  0.26328896522E+04  0.22055398810E+04 0.  0.
         23    2    5    5    0    0 -0.41325503724E+03 -0.45045568741E+02 -0.10802330616E+04  0.11610305307E+04  0.90992288870E+02 0.  0.
        -15    1    4    4    0    0 -0.38520078206E+03 -0.31487636153E+02 -0.33156084992E+03  0.50921872602E+03  0.00000000000E+00 0.  1.
        -15    1    6    6    0    0 -0.22913186805E+03 -0.22280348988E+02 -0.71875396894E+03  0.75472186584E+03  0.00000000000E+00 0.  1.
         15    1    4    4    0    0 -0.68337321568E+02 -0.43197671655E+02 -0.91379358328E+02  0.12200907951E+03  0.00000000000E+00 0. -1.
         15    1    6    6    0    0 -0.18412316919E+03 -0.22765219753E+02 -0.36147909270E+03  0.40630866484E+03  0.00000000000E+00 0. -1.
        -16    1    5    5    0    0  0.53446312673E+03  0.87928075585E+02  0.21791277896E+02  0.54208582356E+03  0.00000000000E+00 0.  1.
         16    1    3    3    0    0 -0.37190831752E+03 -0.56433511621E+03  0.24414544490E+04  0.25332764844E+04  0.00000000000E+00 0. -1.
    9900018    1    5    5    0    0  0.70423833166E+03  0.59613791718E+03  0.69506569687E+02  0.92977329801E+03  0.91187600000E+02 0.  0.
<mgrwt>
<rscale>  0 0.57052383E+04</rscale>
<asrwt>0</asrwt>
<pdfrwt beam="1">  1        2 0.52515176E+00 0.57052383E+04</pdfrwt>
<pdfrwt beam="2">  1       -2 0.36675500E+00 0.57052383E+04</pdfrwt>
<totfact> 0.78161094E-03</totfact>
</mgrwt>
</event>
<event>
13    1  0.1083009E-008  0.5943800E+04  0.7818608E-02  0.7697409E-01
          1   -1    0    0  501    0  0.00000000000E+00  0.00000000000E+00  0.28372384818E+04  0.28372384818E+04  0.00000000000E+00 0. -1.
         -1   -1    0    0    0  501 -0.00000000000E+00 -0.00000000000E+00 -0.31129528465E+04  0.31129528465E+04  0.00000000000E+00 0.  1.
    9900016    2    1    2    0    0 -0.98951108852E+03 -0.46223087088E+03  0.15401165933E+04  0.28927560737E+04  0.21916407116E+04 0.  0.
         23    2    3    3    0    0 -0.17464157310E+03 -0.35529698241E+03 -0.52838955888E+03  0.66696073608E+03  0.94368812519E+02 0.  0.
    9900016    2    1    2    0    0  0.98951108852E+03  0.46223087088E+03 -0.18158309580E+04  0.30574352546E+04  0.22040595944E+04 0.  0.
         23    2    5    5    0    0 -0.88705713372E+01  0.16005789894E+03 -0.73868256299E+03  0.76137728716E+03  0.91357684370E+02 0.  0.
        -15    1    6    6    0    0 -0.50322941609E+02  0.88391294437E+02 -0.40445280526E+03  0.41704614981E+03  0.00000000000E+00 0.  1.
        -15    1    4    4    0    0 -0.51303077084E+02 -0.12510583211E+03 -0.25655413728E+03  0.29000603494E+03  0.00000000000E+00 0.  1.
         15    1    6    6    0    0  0.41452370272E+02  0.71666604502E+02 -0.33422975773E+03  0.34433113736E+03  0.00000000000E+00 0. -1.
         15    1    4    4    0    0 -0.12333849602E+03 -0.23019115030E+03 -0.27183542159E+03  0.37695470113E+03  0.00000000000E+00 0. -1.
        -16    1    5    5    0    0 -0.31927061663E+03  0.58491946802E+03 -0.46814285375E+03  0.81438457883E+03  0.00000000000E+00 0.  1.
         16    1    3    3    0    0 -0.81486951542E+03 -0.10693388847E+03  0.20685061521E+04  0.22257953376E+04  0.00000000000E+00 0. -1.
    9900018    1    5    5    0    0  0.13176522765E+04 -0.28274649608E+03 -0.60900554126E+03  0.14816733886E+04  0.91187600000E+02 0.  0.
<mgrwt>
<rscale>  0 0.59438000E+04</rscale>
<asrwt>0</asrwt>
<pdfrwt beam="1">  1        1 0.43649823E+00 0.59438000E+04</pdfrwt>
<pdfrwt beam="2">  1       -1 0.47891582E+00 0.59438000E+04</pdfrwt>
<totfact> 0.10876932E-03</totfact>
</mgrwt>
</event>
<event>
13    1  0.1083009E-008  0.4729825E+04  0.7818608E-02  0.7871592E-01
          1   -1    0    0  501    0  0.00000000000E+00  0.00000000000E+00  0.21696483039E+04  0.21696483039E+04  0.00000000000E+00 0. -1.
         -1   -1    0    0    0  501 -0.00000000000E+00 -0.00000000000E+00 -0.25777499936E+04  0.25777499936E+04  0.00000000000E+00 0.  1.
    9900016    2    1    2    0    0  0.36593758555E+03 -0.59639627013E+03  0.29929696456E+03  0.23315101587E+04  0.22038062799E+04 0.  0.
         23    2    3    3    0    0  0.17606847314E+03 -0.29857346528E+03 -0.95947133551E+03  0.10241286779E+04  0.90044899247E+02 0.  0.
    9900016    2    1    2    0    0 -0.36593758555E+03  0.59639627013E+03 -0.70739865427E+03  0.24158881389E+04  0.22014776438E+04 0.  0.
         23    2    5    5    0    0  0.41965223271E+03  0.74328703801E+02 -0.10124151592E+04  0.11023778761E+04  0.92842740937E+02 0.  0.
        -15    1    6    6    0    0  0.16217592435E+03  0.24452927209E+01 -0.47920739847E+03  0.50591179137E+03  0.00000000000E+00 0. -1.
        -15    1    4    4    0    0  0.41927195533E+02 -0.14073358789E+03 -0.47641903619E+03  0.49853678954E+03  0.00000000000E+00 0.  1.
         15    1    4    4    0    0  0.13414127761E+03 -0.15783987739E+03 -0.48305229932E+03  0.52559188838E+03  0.00000000000E+00 0. -1.
         15    1    6    6    0    0  0.25747630835E+03  0.71883411080E+02 -0.53320776076E+03  0.59646608478E+03  0.00000000000E+00 0.  1.
        -16    1    5    5    0    0 -0.74389623086E+03  0.82232111382E+02 -0.34007969739E+02  0.74919974936E+03  0.00000000000E+00 0.  1.
         16    1    3    3    0    0  0.18986911240E+03 -0.29782280485E+03  0.12587683001E+04  0.13073814807E+04  0.00000000000E+00 0. -1.
    9900018    1    5    5    0    0 -0.41693587393E+02  0.43983545495E+03  0.33902447470E+03  0.56431051337E+03  0.91187600000E+02 0.  0.
<mgrwt>
<rscale>  0 0.47298249E+04</rscale>
<asrwt>0</asrwt>
<pdfrwt beam="1">  1        1 0.33379205E+00 0.47298249E+04</pdfrwt>
<pdfrwt beam="2">  1       -1 0.39657692E+00 0.47298249E+04</pdfrwt>
<totfact> 0.12724463E-02</totfact>
</mgrwt>
</event>
<event>
13    1  0.1083009E-008  0.5843781E+04  0.7818608E-02  0.7710078E-01
          2   -1    0    0  501    0  0.00000000000E+00  0.00000000000E+00  0.44686248721E+04  0.44686248721E+04  0.00000000000E+00 0. -1.
         -2   -1    0    0    0  501 -0.00000000000E+00 -0.00000000000E+00 -0.19105307704E+04  0.19105307704E+04  0.00000000000E+00 0.  1.
    9900016    2    1    2    0    0 -0.15834624364E+04  0.49664778298E+03  0.23559390690E+04  0.36174701233E+04  0.21866935972E+04 0.  0.
         23    2    3    3    0    0  0.45087821087E+03  0.12777753865E+03 -0.66775758155E+01  0.47795351454E+03  0.93684105461E+02 0.  0.
    9900016    2    1    2    0    0  0.15834624364E+04 -0.49664778298E+03  0.20215503275E+03  0.27616855192E+04  0.21981874219E+04 0.  0.
         23    2    5    5    0    0 -0.29605706295E+03  0.31773148258E+03 -0.41891097273E+03  0.60987349768E+03  0.88635210634E+02 0.  0.
        -15    1    6    6    0    0 -0.29488121821E+03  0.28398049152E+03 -0.38992809519E+03  0.56537047308E+03  0.00000000000E+00 0. -1.
        -15    1    4    4    0    0  0.31740992605E+03  0.90619466319E+02 -0.47565344822E+02  0.33350174041E+03  0.00000000000E+00 0.  1.
         15    1    6    6    0    0 -0.11758447401E+01  0.33750991062E+02 -0.28982877534E+02  0.44503024602E+02  0.00000000000E+00 0.  1.
         15    1    4    4    0    0  0.13346828482E+03  0.37158072330E+02  0.40887769007E+02  0.14445177412E+03  0.00000000000E+00 0. -1.
        -16    1    5    5    0    0  0.38099528653E+03 -0.82096670622E+02  0.10811290666E+03  0.40445725642E+03  0.00000000000E+00 0.  1.
         16    1    3    3    0    0 -0.20343406472E+04  0.36887024433E+03  0.23626166449E+04  0.31395166088E+04  0.00000000000E+00 0. -1.
    9900018    1    5    5    0    0  0.14985242128E+04 -0.73228259494E+03  0.51295309882E+03  0.17473547651E+04  0.91187600000E+02 0.  0.
<mgrwt>
<rscale>  0 0.58437814E+04</rscale>
<asrwt>0</asrwt>
<pdfrwt beam="1">  1        2 0.68748075E+00 0.58437814E+04</pdfrwt>
<pdfrwt beam="2">  1       -2 0.29392781E+00 0.58437814E+04</pdfrwt>
<totfact> 0.30801169E-03</totfact>
</mgrwt>
</event>
<event>
13    1  0.1086361E-008  0.5829971E+04  0.7818608E-02  0.7711848E-01
         -2   -1    0    0    0  501 -0.00000000000E+00  0.00000000000E+00  0.43744582991E+04  0.43744582991E+04  0.00000000000E+00 0.  1.
          2   -1    0    0  501    0  0.00000000000E+00 -0.00000000000E+00 -0.19424441229E+04  0.19424441229E+04  0.00000000000E+00 0. -1.
    9900016    2    1    2    0    0 -0.15122126883E+04  0.49247728544E+03  0.23649608420E+04  0.35967895561E+04  0.21942046931E+04 0.  0.
         23    2    3    3    0    0  0.22827799641E+03 -0.23521200385E+03 -0.21376258441E+03  0.40169111703E+03  0.90696089246E+02 0.  0.
    9900016    2    1    2    0    0  0.15122126883E+04 -0.49247728544E+03  0.67053334195E+02  0.27201128659E+04  0.22057191032E+04 0.  0.
         23    2    5    5    0    0 -0.34993653833E+03 -0.24427755796E+03 -0.51227216154E+03  0.67270657353E+03  0.89354688753E+02 0.  0.
        -15    1    6    6    0    0 -0.26083626634E+03 -0.20221947843E+03 -0.33736290014E+03  0.47195550816E+03  0.00000000000E+00 0. -1.
        -15    1    4    4    0    0  0.31580036552E+02 -0.90311124801E+02 -0.64754631088E+02  0.11552731374E+03  0.00000000000E+00 0. -1.
         15    1    4    4    0    0  0.19669795986E+03 -0.14490087905E+03 -0.14900795332E+03  0.28616380329E+03  0.00000000000E+00 0.  1.
         15    1    6    6    0    0 -0.89100271985E+02 -0.42058079525E+02 -0.17490926140E+03  0.20075106536E+03  0.00000000000E+00 0.  1.
        -16    1    3    3    0    0 -0.17404906847E+04  0.72768928929E+03  0.25787234264E+04  0.31950984391E+04  0.00000000000E+00 0.  1.
         16    1    5    5    0    0  0.21677731753E+03 -0.10409424500E+03  0.27525782514E+03  0.36550634404E+03  0.00000000000E+00 0. -1.
    9900018    1    5    5    0    0  0.16453719091E+04 -0.14410548249E+03  0.30406767059E+03  0.16818999483E+04  0.91187600000E+02 0.  0.
<mgrwt>
<rscale>  0 0.58299711E+04</rscale>
<asrwt>0</asrwt>
<pdfrwt beam="1">  1        2 0.29883756E+00 0.58299711E+04</pdfrwt>
<pdfrwt beam="2">  1       -2 0.67299358E+00 0.58299711E+04</pdfrwt>
<totfact> 0.14071187E-03</totfact>
</mgrwt>
</event>
<event>
13    1  0.1083009E-008  0.5582406E+04  0.7818608E-02  0.7744451E-01
          2   -1    0    0  501    0  0.00000000000E+00  0.00000000000E+00  0.20780988671E+04  0.20780988671E+04  0.00000000000E+00 0. -1.
         -2   -1    0    0    0  501 -0.00000000000E+00 -0.00000000000E+00 -0.37490098371E+04  0.37490098371E+04  0.00000000000E+00 0.  1.
    9900016    2    1    2    0    0  0.12454394862E+04 -0.96897347833E+03 -0.15159255427E+04  0.31119130672E+04  0.22126779186E+04 0.  0.
         23    2    3    3    0    0  0.16626007996E+03  0.27265106076E+03 -0.14263347342E+04  0.14644039778E+04  0.89817709268E+02 0.  0.
    9900016    2    1    2    0    0 -0.12454394862E+04  0.96897347833E+03 -0.15498542733E+03  0.27151956369E+04  0.22041410455E+04 0.  0.
         23    2    5    5    0    0  0.28975868909E+03 -0.16725720263E+03 -0.95197273843E+02  0.35975542256E+03  0.91795279719E+02 0.  0.
        -15    1    6    6    0    0  0.16563828815E+03 -0.96559794262E+02 -0.10117839712E+03  0.21678769433E+03  0.00000000000E+00 0.  1.
        -15    1    4    4    0    0  0.97899022110E+02  0.23112851575E+03 -0.10380000187E+04  0.10679179033E+04  0.00000000000E+00 0.  1.
         15    1    4    4    0    0  0.68361057853E+02  0.41522545011E+02 -0.38833471554E+03  0.39648607449E+03  0.00000000000E+00 0. -1.
         15    1    6    6    0    0  0.12412040094E+03 -0.70697408365E+02  0.59811232759E+01  0.14296772823E+03  0.00000000000E+00 0. -1.
        -16    1    5    5    0    0 -0.10812211784E+04 -0.39624694606E+02 -0.13011058289E+03  0.10897422250E+04  0.00000000000E+00 0.  1.
         16    1    3    3    0    0  0.10791794062E+04 -0.12416245391E+04 -0.89590808441E+02  0.16475090895E+04  0.00000000000E+00 0. -1.
    9900018    1    5    5    0    0 -0.45397699685E+03  0.11758553756E+04  0.70322429402E+02  0.12656979894E+04  0.91187600000E+02 0.  0.
<mgrwt>
<rscale>  0 0.55824056E+04</rscale>
<asrwt>0</asrwt>
<pdfrwt beam="1">  1        2 0.31970752E+00 0.55824056E+04</pdfrwt>
<pdfrwt beam="2">  1       -2 0.57677074E+00 0.55824056E+04</pdfrwt>
<totfact> 0.27131391E-03</totfact>
</mgrwt>
</event>
<event>
13    1  0.1083009E-008  0.5126635E+04  0.7818608E-02  0.7809264E-01
         -2   -1    0    0    0  501 -0.00000000000E+00  0.00000000000E+00  0.17775023649E+04  0.17775023649E+04  0.00000000000E+00 0. -1.
          2   -1    0    0  501    0  0.00000000000E+00 -0.00000000000E+00 -0.36965332290E+04  0.36965332290E+04  0.00000000000E+00 0.  1.
    9900016    2    1    2    0    0 -0.10644233507E+04 -0.50806593781E+03 -0.15574784013E+04  0.29511493741E+04  0.22118805553E+04 0.  0.
         23    2    3    3    0    0 -0.43616380015E+03  0.10709927743E+03  0.52124478075E+03  0.69410963753E+03  0.91558460364E+02 0.  0.
    9900016    2    1    2    0    0  0.10644233507E+04  0.50806593781E+03 -0.36155246277E+03  0.25228862198E+04  0.22007059386E+04 0.  0.
         23    2    5    5    0    0 -0.11743841814E+03 -0.12038384295E+03  0.66240800688E+03  0.68909549077E+03  0.88227978098E+02 0.  0.
        -15    1    4    4    0    0 -0.31483819213E+03  0.33919469053E+02  0.36232999169E+03  0.48120332551E+03  0.00000000000E+00 0. -1.
        -15    1    6    6    0    0 -0.88938990255E+01 -0.64558373042E+02  0.28851826441E+03  0.29578653429E+03  0.00000000000E+00 0.  1.
         15    1    4    4    0    0 -0.12132560802E+03  0.73179808376E+02  0.15891478906E+03  0.21290631202E+03  0.00000000000E+00 0.  1.
         15    1    6    6    0    0 -0.10854451912E+03 -0.55825469904E+02  0.37388974248E+03  0.39330895648E+03  0.00000000000E+00 0. -1.
        -16    1    3    3    0    0 -0.62825955056E+03 -0.61516521524E+03 -0.20787231820E+04  0.22570397366E+04  0.00000000000E+00 0.  1.
         16    1    5    5    0    0  0.27666837760E+03  0.11884363152E+03 -0.66663968367E+03  0.73149003258E+03  0.00000000000E+00 0. -1.
    9900018    1    5    5    0    0  0.90519339125E+03  0.50960614924E+03 -0.35732078599E+03  0.11023006965E+04  0.91187600000E+02 0.  0.
<mgrwt>
<rscale>  0 0.51266350E+04</rscale>
<asrwt>0</asrwt>
<pdfrwt beam="1">  1        2 0.56869741E+00 0.51266350E+04</pdfrwt>
<pdfrwt beam="2">  1       -2 0.27346191E+00 0.51266350E+04</pdfrwt>
<totfact> 0.19479542E-02</totfact>
</mgrwt>
</event>
<event>
13    1  0.1083009E-008  0.6855454E+04  0.7818608E-02  0.7592529E-01
         -2   -1    0    0    0  501 -0.00000000000E+00  0.00000000000E+00  0.27848582819E+04  0.27848582819E+04  0.00000000000E+00 0.  1.
          2   -1    0    0  501    0  0.00000000000E+00 -0.00000000000E+00 -0.42189983947E+04  0.42189983947E+04  0.00000000000E+00 0. -1.
    9900016    2    1    2    0    0  0.16856643033E+04  0.18753070617E+04 -0.14778998268E+04  0.36577565996E+04  0.21992623138E+04 0.  0.
         23    2    3    3    0    0 -0.41291055000E+03 -0.13072099993E+03 -0.21070030987E+03  0.49011400385E+03  0.90741468270E+02 0.  0.
    9900016    2    1    2    0    0 -0.16856643033E+04 -0.18753070617E+04  0.43759714039E+02  0.33461000769E+04  0.21991430361E+04 0.  0.
         23    2    5    5    0    0 -0.51415325880E+03 -0.16332272141E+03  0.32229519344E+03  0.63484499017E+03  0.90144799963E+02 0.  0.
        -15    1    4    4    0    0 -0.20940777025E+03 -0.56236247863E+02 -0.56262550804E+02  0.22400804547E+03  0.00000000000E+00 0. -1.
        -15    1    6    6    0    0 -0.47012398163E+03 -0.12230290354E+03  0.27425354932E+03  0.55784367670E+03  0.00000000000E+00 0.  1.
         15    1    4    4    0    0 -0.20350277976E+03 -0.74484752062E+02 -0.15443775906E+03  0.26610595838E+03  0.00000000000E+00 0.  1.
         15    1    6    6    0    0 -0.44029277177E+02 -0.41019817869E+02  0.48041644118E+02  0.77001313471E+02  0.00000000000E+00 0. -1.
        -16    1    5    5    0    0  0.38352534303E+03 -0.30244433310E+03  0.24470136671E+03  0.54629938883E+03  0.00000000000E+00 0.  1.
         16    1    3    3    0    0  0.20985748533E+04  0.20060280616E+04 -0.12671995170E+04  0.31676425958E+04  0.00000000000E+00 0. -1.
    9900018    1    5    5    0    0 -0.15550363875E+04 -0.14095400072E+04 -0.52323684611E+03  0.21649556979E+04  0.91187600000E+02 0.  0.
<mgrwt>
<rscale>  0 0.68554541E+04</rscale>
<asrwt>0</asrwt>
<pdfrwt beam="1">  1        2 0.64907667E+00 0.68554541E+04</pdfrwt>
<pdfrwt beam="2">  1       -2 0.42843974E+00 0.68554541E+04</pdfrwt>
<totfact> 0.67709421E-04</totfact>
</mgrwt>
</event>
<event>
13    1  0.1083009E-008  0.5726526E+04  0.7818608E-02  0.7725266E-01
          1   -1    0    0  501    0  0.00000000000E+00  0.00000000000E+00  0.33215568276E+04  0.33215568276E+04  0.00000000000E+00 0. -1.
         -1   -1    0    0    0  501 -0.00000000000E+00 -0.00000000000E+00 -0.24682027198E+04  0.24682027198E+04  0.00000000000E+00 0.  1.
    9900016    2    1    2    0    0  0.59194219731E+03 -0.16252585971E+04  0.10380245978E+04  0.29858504121E+04  0.22013510727E+04 0.  0.
         23    2    3    3    0    0 -0.19963299490E+02  0.36222287951E+03 -0.32708289987E+03  0.49827540075E+03  0.98443912128E+02 0.  0.
    9900016    2    1    2    0    0 -0.59194219731E+03  0.16252585971E+04 -0.18467049002E+03  0.28039091352E+04  0.21990775740E+04 0.  0.
         23    2    5    5    0    0  0.49015832260E+02  0.34016870691E+03  0.31534013411E+03  0.47520031068E+03  0.90877027453E+02 0.  0.
        -15    1    6    6    0    0 -0.17417264298E+02  0.19464548679E+03  0.16775909913E+03  0.25755260039E+03  0.00000000000E+00 0.  1.
        -15    1    4    4    0    0 -0.15120625352E+02  0.18235660945E+03 -0.22972243684E+03  0.29369195479E+03  0.00000000000E+00 0.  1.
         15    1    6    6    0    0  0.66433096558E+02  0.14552322012E+03  0.14758103498E+03  0.21764771030E+03  0.00000000000E+00 0. -1.
         15    1    4    4    0    0 -0.48426741383E+01  0.17986627006E+03 -0.97360463033E+02  0.20458344596E+03  0.00000000000E+00 0. -1.
        -16    1    5    5    0    0  0.38317302964E+03  0.22365598074E+03 -0.70885739006E+03  0.83625496579E+03  0.00000000000E+00 0.  1.
         16    1    3    3    0    0  0.61190549680E+03 -0.19874814766E+04  0.13651074977E+04  0.24875750113E+04  0.00000000000E+00 0. -1.
    9900018    1    5    5    0    0 -0.10241310592E+04  0.10614339094E+04  0.20884676593E+03  0.14924538588E+04  0.91187600000E+02 0.  0.
<mgrwt>
<rscale>  0 0.57265262E+04</rscale>
<asrwt>0</asrwt>
<pdfrwt beam="1">  1        1 0.51100874E+00 0.57265262E+04</pdfrwt>
<pdfrwt beam="2">  1       -1 0.37972350E+00 0.57265262E+04</pdfrwt>
<totfact> 0.23039238E-03</totfact>
</mgrwt>
</event>
<event>
13    1  0.1181304E-008  0.6131311E+04  0.7818608E-02  0.7674331E-01
         -1   -1    0    0    0  501 -0.00000000000E+00  0.00000000000E+00  0.24126482202E+04  0.24126482202E+04  0.00000000000E+00 0.  1.
          1   -1    0    0  501    0  0.00000000000E+00 -0.00000000000E+00 -0.38954058782E+04  0.38954058782E+04  0.00000000000E+00 0. -1.
    9900016    2    1    2    0    0  0.65152101528E+03 -0.40043938604E+03  0.13053542054E+04  0.26618318070E+04  0.21901067626E+04 0.  0.
         23    2    3    3    0    0 -0.36592256062E+03 -0.21808102596E+03 -0.44908964614E+03  0.62553142883E+03  0.90274049045E+02 0.  0.
    9900016    2    1    2    0    0 -0.65152101528E+03  0.40043938604E+03 -0.27881118635E+04  0.36462222914E+04  0.22218321043E+04 0.  0.
         23    2    5    5    0    0  0.42102431703E+02  0.52489942556E+03  0.16962856876E+03  0.56073383176E+03  0.91414205854E+02 0.  0.
        -15    1    6    6    0    0  0.57071395285E+02  0.42084828450E+03  0.16463049447E+03  0.45549272490E+03  0.00000000000E+00 0. -1.
        -15    1    4    4    0    0 -0.20018684162E+03 -0.14261417765E+03 -0.19948840173E+03  0.31655836373E+03  0.00000000000E+00 0. -1.
         15    1    4    4    0    0 -0.16573571900E+03 -0.75466848316E+02 -0.24960124440E+03  0.30897306510E+03  0.00000000000E+00 0.  1.
         15    1    6    6    0    0 -0.14968963582E+02  0.10405114106E+03  0.49980742887E+01  0.10524110686E+03  0.00000000000E+00 0.  1.
        -16    1    3    3    0    0  0.10174435759E+04 -0.18235836008E+03  0.17544438516E+04  0.20363003781E+04  0.00000000000E+00 0.  1.
         16    1    5    5    0    0  0.63413580139E+02 -0.49862982227E+02 -0.10951736779E+03  0.13602078146E+03  0.00000000000E+00 0. -1.
    9900018    1    5    5    0    0 -0.75703702712E+03 -0.74597057294E+02 -0.28482230644E+04  0.29494676782E+04  0.91187600000E+02 0.  0.
<mgrwt>
<rscale>  0 0.61313111E+04</rscale>
<asrwt>0</asrwt>
<pdfrwt beam="1">  1        1 0.59929321E+00 0.61313111E+04</pdfrwt>
<pdfrwt beam="2">  1       -1 0.37117665E+00 0.61313111E+04</pdfrwt>
<totfact> 0.87543988E-04</totfact>
</mgrwt>
</event>
<event>
13    1  0.1083009E-008  0.6124121E+04  0.7818608E-02  0.7675200E-01
          2   -1    0    0  501    0  0.00000000000E+00  0.00000000000E+00  0.36135664640E+04  0.36135664640E+04  0.00000000000E+00 0. -1.
         -2   -1    0    0    0  501 -0.00000000000E+00 -0.00000000000E+00 -0.25947262400E+04  0.25947262400E+04  0.00000000000E+00 0.  1.
    9900016    2    1    2    0    0  0.90117812752E+03 -0.18263265161E+04 -0.13403297510E+03  0.29968561898E+04  0.21944456300E+04 0.  0.
         23    2    3    3    0    0 -0.68835316201E+03 -0.22159538833E+03 -0.11587181983E+03  0.73807299076E+03  0.91601688194E+02 0.  0.
    9900016    2    1    2    0    0 -0.90117812752E+03  0.18263265161E+04  0.11528731991E+04  0.32114365142E+04  0.21992310725E+04 0.  0.
         23    2    5    5    0    0 -0.18838191154E+03  0.43152946311E+02 -0.39075886211E+03  0.44519372283E+03  0.90305266498E+02 0.  0.
        -15    1    6    6    0    0 -0.14041931969E+03 -0.10953652006E+02 -0.26648545587E+03  0.30141676467E+03  0.00000000000E+00 0. -1.
        -15    1    4    4    0    0 -0.62981530126E+03 -0.21591606323E+03 -0.83707289265E+02  0.67103947003E+03  0.00000000000E+00 0. -1.
         15    1    6    6    0    0 -0.47962591848E+02  0.54106598317E+02 -0.12427340625E+03  0.14377695816E+03  0.00000000000E+00 0.  1.
         15    1    4    4    0    0 -0.58537860742E+02 -0.56793251032E+01 -0.32164530570E+02  0.67033520724E+02  0.00000000000E+00 0.  1.
        -16    1    3    3    0    0  0.15895312895E+04 -0.16047311278E+04 -0.18161155262E+02  0.22587831991E+04  0.00000000000E+00 0.  1.
         16    1    5    5    0    0 -0.57020617951E+03  0.48756211217E+03  0.84310894471E+01  0.75028193611E+03  0.00000000000E+00 0. -1.
    9900018    1    5    5    0    0 -0.14259003647E+03  0.12956114576E+04  0.15352009718E+04  0.20159608552E+04  0.91187600000E+02 0.  0.
<mgrwt>
<rscale>  0 0.61241214E+04</rscale>
<asrwt>0</asrwt>
<pdfrwt beam="1">  1        2 0.55593330E+00 0.61241214E+04</pdfrwt>
<pdfrwt beam="2">  1       -2 0.39918865E+00 0.61241214E+04</pdfrwt>
<totfact> 0.33766600E-03</totfact>
</mgrwt>
</event>
<event>
13    1  0.1083009E-008  0.5492116E+04  0.7818608E-02  0.7756775E-01
          1   -1    0    0  501    0  0.00000000000E+00  0.00000000000E+00  0.27856804665E+04  0.27856804665E+04  0.00000000000E+00 0. -1.
         -1   -1    0    0    0  501 -0.00000000000E+00 -0.00000000000E+00 -0.27069991948E+04  0.27069991948E+04  0.00000000000E+00 0.  1.
    9900016    2    1    2    0    0 -0.12892147251E+04 -0.10167322893E+04  0.14762378808E+03  0.27467664624E+04  0.21970694255E+04 0.  0.
         23    2    3    3    0    0  0.11311925722E+03  0.45642636858E+03  0.48860005615E+03  0.68448572383E+03  0.93111196798E+02 0.  0.
    9900016    2    1    2    0    0  0.12892147251E+04  0.10167322893E+04 -0.68942516367E+02  0.27459131989E+04  0.21998788761E+04 0.  0.
         23    2    5    5    0    0  0.87795904792E+02  0.44074632551E+03 -0.50793190024E+03  0.68445126913E+03  0.92267438407E+02 0.  0.
        -15    1    6    6    0    0  0.29092485338E+02  0.34140595407E+03 -0.39652492355E+03  0.52405764299E+03  0.00000000000E+00 0.  1.
        -15    1    4    4    0    0  0.82921815399E+02  0.15005576290E+03  0.16932477396E+03  0.24096397765E+03  0.00000000000E+00 0. -1.
         15    1    4    4    0    0  0.30197441824E+02  0.30637060568E+03  0.31927528219E+03  0.44352174618E+03  0.00000000000E+00 0.  1.
         15    1    6    6    0    0  0.58703419454E+02  0.99340371437E+02 -0.11140697670E+03  0.16039362615E+03  0.00000000000E+00 0. -1.
        -16    1    3    3    0    0 -0.14023339823E+04 -0.14731586579E+04 -0.34097626807E+03  0.20622807386E+04  0.00000000000E+00 0.  1.
         16    1    5    5    0    0  0.23967094609E+03 -0.24485135406E+03  0.68887108574E+03  0.76937488960E+03  0.00000000000E+00 0. -1.
    9900018    1    5    5    0    0  0.96174787419E+03  0.82083731789E+03 -0.24988170186E+03  0.12920870401E+04  0.91187600000E+02 0.  0.
<mgrwt>
<rscale>  0 0.54921161E+04</rscale>
<asrwt>0</asrwt>
<pdfrwt beam="1">  1        1 0.42856623E+00 0.54921161E+04</pdfrwt>
<pdfrwt beam="2">  1       -1 0.41646141E+00 0.54921161E+04</pdfrwt>
<totfact> 0.32727020E-03</totfact>
</mgrwt>
</event>
<event>
13    1  0.1083009E-008  0.6879250E+04  0.7818608E-02  0.7590018E-01
          2   -1    0    0  501    0  0.00000000000E+00  0.00000000000E+00  0.35883227045E+04  0.35883227045E+04  0.00000000000E+00 0. -1.
         -2   -1    0    0    0  501 -0.00000000000E+00 -0.00000000000E+00 -0.32970888121E+04  0.32970888121E+04  0.00000000000E+00 0.  1.
    9900016    2    1    2    0    0 -0.25252731070E+04 -0.62788553805E+03 -0.32727996991E+03  0.34210240341E+04  0.21965993602E+04 0.  0.
         23    2    3    3    0    0 -0.19118298862E+03  0.10918614909E+03 -0.88001782334E+03  0.91168737129E+03  0.90939228538E+02 0.  0.
    9900016    2    1    2    0    0  0.25252731070E+04  0.62788553805E+03  0.61851386227E+03  0.34643874825E+04  0.22018575607E+04 0.  0.
         23    2    5    5    0    0  0.15927572491E+03  0.41026033080E+03  0.61930691308E+03  0.76518879989E+03  0.91052464576E+02 0.  0.
        -15    1    4    4    0    0 -0.12873748071E+03  0.23783425313E+02 -0.53679888385E+03  0.55253238092E+03  0.00000000000E+00 0.  1.
        -15    1    6    6    0    0  0.96332439765E+02  0.14215258838E+03  0.20098348861E+03  0.26435139499E+03  0.00000000000E+00 0.  1.
         15    1    4    4    0    0 -0.62445507904E+02  0.85402723776E+02 -0.34321893948E+03  0.35915499037E+03  0.00000000000E+00 0. -1.
         15    1    6    6    0    0  0.62943285144E+02  0.26810774241E+03  0.41832342447E+03  0.50083740490E+03  0.00000000000E+00 0. -1.
        -16    1    5    5    0    0  0.57979565323E+03 -0.34188514184E+03 -0.40024186999E+03  0.78309769774E+03  0.00000000000E+00 0.  1.
         16    1    3    3    0    0 -0.23340901183E+04 -0.73707168714E+03  0.55273785342E+03  0.25093366628E+04  0.00000000000E+00 0. -1.
    9900018    1    5    5    0    0  0.17862017288E+04  0.55951034909E+03  0.39944881918E+03  0.19161009849E+04  0.91187600000E+02 0.  0.
<mgrwt>
<rscale>  0 0.68792496E+04</rscale>
<asrwt>0</asrwt>
<pdfrwt beam="1">  1        2 0.55204965E+00 0.68792496E+04</pdfrwt>
<pdfrwt beam="2">  1       -2 0.50724443E+00 0.68792496E+04</pdfrwt>
<totfact> 0.66824477E-04</totfact>
</mgrwt>
</event>
<event>
13    1  0.1083009E-008  0.5861496E+04  0.7818608E-02  0.7707816E-01
         -2   -1    0    0    0  501 -0.00000000000E+00  0.00000000000E+00  0.43168169439E+04  0.43168169439E+04  0.00000000000E+00 0.  1.
          2   -1    0    0  501    0  0.00000000000E+00 -0.00000000000E+00 -0.19897264519E+04  0.19897264519E+04  0.00000000000E+00 0. -1.
    9900016    2    1    2    0    0 -0.69852079293E+03  0.19261202509E+03  0.31004178472E+04  0.38652083344E+04  0.21913954345E+04 0.  0.
         23    2    3    3    0    0 -0.39993500280E+02 -0.14508238922E+03 -0.31981270688E+03  0.36582656674E+03  0.94342618836E+02 0.  0.
    9900016    2    1    2    0    0  0.69852079293E+03 -0.19261202509E+03 -0.77332735523E+03  0.24413350614E+04  0.21993296690E+04 0.  0.
         23    2    5    5    0    0 -0.40538956216E+03  0.29557292445E+03  0.49907170241E+02  0.51215578006E+03  0.90048690299E+02 0.  0.
        -15    1    4    4    0    0 -0.43253030785E+02 -0.10375492880E+03 -0.13146692325E+03  0.17297243084E+03  0.00000000000E+00 0. -1.
        -15    1    6    6    0    0 -0.37146160115E+03  0.25644381285E+03  0.18870098239E+02  0.45177785569E+03  0.00000000000E+00 0.  1.
         15    1    4    4    0    0  0.32595305050E+01 -0.41327460420E+02 -0.18834578363E+03  0.19285413590E+03  0.00000000000E+00 0.  1.
         15    1    6    6    0    0 -0.33927961011E+02  0.39129111593E+02  0.31037072002E+02  0.60377924367E+02  0.00000000000E+00 0. -1.
        -16    1    3    3    0    0 -0.65852729265E+03  0.33769441432E+03  0.34202305541E+04  0.34993817676E+04  0.00000000000E+00 0.  1.
         16    1    5    5    0    0  0.96055819819E+03 -0.61034009238E+03 -0.62046652072E+02  0.11397529853E+04  0.00000000000E+00 0. -1.
    9900018    1    5    5    0    0  0.14335215691E+03  0.12215514284E+03 -0.76118787340E+03  0.78942629600E+03  0.91187600000E+02 0.  0.
<mgrwt>
<rscale>  0 0.58614963E+04</rscale>
<asrwt>0</asrwt>
<pdfrwt beam="1">  1        2 0.30611176E+00 0.58614963E+04</pdfrwt>
<pdfrwt beam="2">  1       -2 0.66412568E+00 0.58614963E+04</pdfrwt>
<totfact> 0.14152836E-03</totfact>
</mgrwt>
</event>
<event>
13    1  0.1083009E-008  0.4936200E+04  0.7818608E-02  0.7838425E-01
          2   -1    0    0  501    0  0.00000000000E+00  0.00000000000E+00  0.23047136356E+04  0.23047136356E+04  0.00000000000E+00 0. -1.
         -2   -1    0    0    0  501 -0.00000000000E+00 -0.00000000000E+00 -0.26430688946E+04  0.26430688946E+04  0.00000000000E+00 0.  1.
    9900016    2    1    2    0    0 -0.10580712231E+03 -0.10188751553E+04  0.29910498784E+03  0.24435378732E+04  0.21982064996E+04 0.  0.
         23    2    3    3    0    0  0.23749552266E+03 -0.38148888291E+03  0.12018907317E+04  0.12863256777E+04  0.90302419152E+02 0.  0.
    9900016    2    1    2    0    0  0.10580712231E+03  0.10188751553E+04 -0.63746024681E+03  0.25042446570E+04  0.21944438946E+04 0.  0.
         23    2    5    5    0    0 -0.36106450766E+03 -0.13511230710E+03  0.59134339641E+03  0.71177589823E+03  0.91186636086E+02 0.  0.
        -15    1    4    4    0    0  0.21279598828E+03 -0.34917277221E+03  0.11490776249E+04  0.12196651777E+04  0.00000000000E+00 0. -1.
        -15    1    6    6    0    0 -0.86349265346E+02 -0.16707237264E+02  0.20566561571E+03  0.22368207995E+03  0.00000000000E+00 0.  1.
         15    1    4    4    0    0  0.24699534378E+02 -0.32316110705E+02  0.52813106795E+02  0.66660499990E+02  0.00000000000E+00 0.  1.
         15    1    6    6    0    0 -0.27471524231E+03 -0.11840506983E+03  0.38567778070E+03  0.48809381828E+03  0.00000000000E+00 0. -1.
        -16    1    5    5    0    0  0.50513405987E+03  0.89954504729E+03 -0.98795306271E+03  0.14284232442E+04  0.00000000000E+00 0.  1.
         16    1    3    3    0    0 -0.34330264497E+03 -0.63738627235E+03 -0.90278574390E+03  0.11572121956E+04  0.00000000000E+00 0. -1.
    9900018    1    5    5    0    0 -0.38262429899E+02  0.25444241506E+03 -0.24085058051E+03  0.36404551453E+03  0.91187600000E+02 0.  0.
<mgrwt>
<rscale>  0 0.49361997E+04</rscale>
<asrwt>0</asrwt>
<pdfrwt beam="1">  1        2 0.35457133E+00 0.49361997E+04</pdfrwt>
<pdfrwt beam="2">  1       -2 0.40662598E+00 0.49361997E+04</pdfrwt>
<totfact> 0.22160093E-02</totfact>
</mgrwt>
</event>
<event>
13    1  0.1083009E-008  0.4987225E+04  0.7818608E-02  0.7830481E-01
         -2   -1    0    0    0  501 -0.00000000000E+00  0.00000000000E+00  0.22675626567E+04  0.22675626567E+04  0.00000000000E+00 0.  1.
          2   -1    0    0  501    0  0.00000000000E+00 -0.00000000000E+00 -0.27421974413E+04  0.27421974413E+04  0.00000000000E+00 0. -1.
    9900016    2    1    2    0    0 -0.10073131004E+03 -0.10393770315E+04 -0.77907891243E+03  0.25497590079E+04  0.21917699780E+04 0.  0.
         23    2    3    3    0    0 -0.30714266863E+03  0.20294491174E+03 -0.11707941629E+04  0.12308919574E+04  0.93876423689E+02 0.  0.
    9900016    2    1    2    0    0  0.10073131004E+03  0.10393770315E+04  0.30444412782E+03  0.24600010900E+04  0.22064604518E+04 0.  0.
         23    2    5    5    0    0 -0.22692816556E+01 -0.90774786721E+02 -0.63897531386E+03  0.65171972255E+03  0.90575567858E+02 0.  0.
        -15    1    6    6    0    0  0.43442177405E+02 -0.47708862089E+02 -0.36285203680E+03  0.36854437848E+03  0.00000000000E+00 0.  1.
        -15    1    4    4    0    0 -0.19533623645E+03  0.79744304140E+02 -0.58286536344E+03  0.61987694844E+03  0.00000000000E+00 0. -1.
         15    1    4    4    0    0 -0.11180643218E+03  0.12320060760E+03 -0.58792879942E+03  0.61101500896E+03  0.00000000000E+00 0.  1.
         15    1    6    6    0    0 -0.45711459060E+02 -0.43065924632E+02 -0.27612327707E+03  0.28317534407E+03  0.00000000000E+00 0. -1.
        -16    1    5    5    0    0 -0.30495077076E+03  0.56374350081E+03  0.12369665013E+02  0.64105749812E+03  0.00000000000E+00 0.  1.
         16    1    3    3    0    0  0.20641135859E+03 -0.12423219432E+04  0.39171525043E+03  0.13188670505E+04  0.00000000000E+00 0. -1.
    9900018    1    5    5    0    0  0.40795136245E+03  0.56640831738E+03  0.93104977667E+03  0.11672238693E+04  0.91187600000E+02 0.  0.
<mgrwt>
<rscale>  0 0.49872255E+04</rscale>
<asrwt>0</asrwt>
<pdfrwt beam="1">  1        2 0.42187653E+00 0.49872255E+04</pdfrwt>
<pdfrwt beam="2">  1       -2 0.34885580E+00 0.49872255E+04</pdfrwt>
<totfact> 0.28883403E-02</totfact>
</mgrwt>
</event>
<event>
13    1  0.1083009E-008  0.7671030E+04  0.7818608E-02  0.7511931E-01
         -2   -1    0    0    0  501 -0.00000000000E+00  0.00000000000E+00  0.58942220843E+04  0.58942220843E+04  0.00000000000E+00 0.  1.
          2   -1    0    0  501    0  0.00000000000E+00 -0.00000000000E+00 -0.24958636607E+04  0.24958636607E+04  0.00000000000E+00 0. -1.
    9900016    2    1    2    0    0 -0.18616898414E+04 -0.19764480642E+04  0.34290396125E+04  0.49001143713E+04  0.22092017047E+04 0.  0.
         23    2    3    3    0    0 -0.14626531285E+03  0.45732938746E+03  0.74512925007E+03  0.89145763488E+03  0.94527271714E+02 0.  0.
    9900016    2    1    2    0    0  0.18616898414E+04  0.19764480642E+04 -0.30681188929E+02  0.34899713736E+04  0.21924239639E+04 0.  0.
         23    2    5    5    0    0 -0.20049242122E+03  0.74898603200E+02 -0.18383778910E+03  0.29663826230E+03  0.91601933570E+02 0.  0.
        -15    1    6    6    0    0 -0.95754103643E+02  0.44603277534E+02 -0.14807437252E+03  0.18189095780E+03  0.00000000000E+00 0.  1.
        -15    1    4    4    0    0 -0.28293307472E+02  0.10110927118E+03  0.24208023568E+03  0.26386821801E+03  0.00000000000E+00 0.  1.
         15    1    4    4    0    0 -0.11797200538E+03  0.35622011627E+03  0.50304901439E+03  0.62758941687E+03  0.00000000000E+00 0. -1.
         15    1    6    6    0    0 -0.10473831757E+03  0.30295325666E+02 -0.35763416579E+02  0.11474730450E+03  0.00000000000E+00 0. -1.
        -16    1    3    3    0    0 -0.17154245286E+04 -0.24337774516E+04  0.26839103625E+04  0.40086567365E+04  0.00000000000E+00 0.  1.
         16    1    5    5    0    0  0.16900724792E+04  0.55801797990E+03  0.22736128267E+03  0.17942748407E+04  0.00000000000E+00 0. -1.
    9900018    1    5    5    0    0  0.37210978339E+03  0.13435314811E+04 -0.74204682494E+02  0.13990582707E+04  0.91187600000E+02 0.  0.
<mgrwt>
<rscale>  0 0.76710298E+04</rscale>
<asrwt>0</asrwt>
<pdfrwt beam="1">  1        2 0.38397903E+00 0.76710298E+04</pdfrwt>
<pdfrwt beam="2">  1       -2 0.90680339E+00 0.76710298E+04</pdfrwt>
<totfact> 0.13915094E-05</totfact>
</mgrwt>
</event>
<event>
13    1  0.1083009E-008  0.4958671E+04  0.7818608E-02  0.7834914E-01
          2   -1    0    0  501    0  0.00000000000E+00  0.00000000000E+00  0.18568123999E+04  0.18568123999E+04  0.00000000000E+00 0.  1.
         -2   -1    0    0    0  501 -0.00000000000E+00 -0.00000000000E+00 -0.33105685232E+04  0.33105685232E+04  0.00000000000E+00 0. -1.
    9900016    2    1    2    0    0 -0.84470397513E+03  0.47180704596E+03 -0.13775125860E+04  0.27698261356E+04  0.21996066017E+04 0.  0.
         23    2    3    3    0    0 -0.44775964210E+03 -0.56317656209E+02  0.55870527460E+03  0.72399620414E+03  0.91425074500E+02 0.  0.
    9900016    2    1    2    0    0  0.84470397513E+03 -0.47180704596E+03 -0.76243537237E+02  0.23975547875E+04  0.21923341871E+04 0.  0.
         23    2    5    5    0    0 -0.51478338885E+03  0.40252817780E+02 -0.34779552766E+03  0.62954294059E+03  0.93489882982E+02 0.  0.
        -15    1    4    4    0    0 -0.34312914492E+03 -0.18582206568E+02  0.37006372673E+03  0.50500502011E+03  0.00000000000E+00 0.  1.
        -15    1    6    6    0    0 -0.12091167924E+03  0.14369193247E+02 -0.13239570542E+03  0.17987420801E+03  0.00000000000E+00 0.  1.
         15    1    6    6    0    0 -0.39387170961E+03  0.25883624533E+02 -0.21539982224E+03  0.44966873259E+03  0.00000000000E+00 0. -1.
         15    1    4    4    0    0 -0.10463049718E+03 -0.37735449641E+02  0.18864154787E+03  0.21899118403E+03  0.00000000000E+00 0. -1.
        -16    1    5    5    0    0  0.14030640926E+04 -0.35909634468E+03  0.44552867029E+03  0.15152672467E+04  0.00000000000E+00 0.  1.
         16    1    3    3    0    0 -0.39694433303E+03  0.52812470217E+03 -0.19362178606E+04  0.20458299314E+04  0.00000000000E+00 0. -1.
    9900018    1    5    5    0    0 -0.43576728637E+02 -0.15296351906E+03 -0.17397667987E+03  0.25274460029E+03  0.91187600000E+02 0.  0.
<mgrwt>
<rscale>  0 0.49586711E+04</rscale>
<asrwt>0</asrwt>
<pdfrwt beam="1">  1        2 0.28566345E+00 0.49586711E+04</pdfrwt>
<pdfrwt beam="2">  1       -2 0.50931823E+00 0.49586711E+04</pdfrwt>
<totfact> 0.85388098E-03</totfact>
</mgrwt>
</event>
<event>
13    1  0.1083009E-008  0.4515103E+04  0.7818608E-02  0.7907998E-01
         -2   -1    0    0    0  501 -0.00000000000E+00  0.00000000000E+00  0.25367820738E+04  0.25367820738E+04  0.00000000000E+00 0. -1.
          2   -1    0    0  501    0  0.00000000000E+00 -0.00000000000E+00 -0.20090563591E+04  0.20090563591E+04  0.00000000000E+00 0.  1.
    9900016    2    1    2    0    0 -0.17563600858E+03  0.41499731278E+03  0.45460342816E+03  0.23075068486E+04  0.22169467297E+04 0.  0.
         23    2    3    3    0    0  0.42672483615E+03 -0.19343280497E+03 -0.71375122563E+03  0.85903234331E+03  0.94791449678E+02 0.  0.
    9900016    2    1    2    0    0  0.17563600858E+03 -0.41499731278E+03  0.73122286523E+02  0.22383315842E+04  0.21912805925E+04 0.  0.
         23    2    5    5    0    0 -0.32883852792E+03  0.20005329743E+03  0.90254981035E+03  0.98542220595E+03  0.91129932245E+02 0.  0.
        -15    1    6    6    0    0 -0.41476193356E+02  0.67177997234E+02  0.18212975566E+03  0.19850543021E+03  0.00000000000E+00 0.  1.
        -15    1    4    4    0    0  0.19804739947E+03 -0.12237374051E+03 -0.28558533195E+03  0.36845228541E+03  0.00000000000E+00 0. -1.
         15    1    6    6    0    0 -0.28736233457E+03  0.13287530020E+03  0.72042005469E+03  0.78691677573E+03  0.00000000000E+00 0. -1.
         15    1    4    4    0    0  0.22867743668E+03 -0.71059064461E+02 -0.42816589369E+03  0.49058005790E+03  0.00000000000E+00 0.  1.
        -16    1    5    5    0    0  0.23479038048E+03 -0.21831142573E+02 -0.40888372939E+03  0.47200532382E+03  0.00000000000E+00 0.  1.
         16    1    3    3    0    0 -0.60236084474E+03  0.60843011775E+03  0.11683546538E+04  0.14484745053E+04  0.00000000000E+00 0. -1.
    9900018    1    5    5    0    0  0.26968415603E+03 -0.59321946764E+03 -0.42054379443E+03  0.78090405443E+03  0.91187600000E+02 0.  0.
<mgrwt>
<rscale>  0 0.45151027E+04</rscale>
<asrwt>0</asrwt>
<pdfrwt beam="1">  1        2 0.30908559E+00 0.45151027E+04</pdfrwt>
<pdfrwt beam="2">  1       -2 0.39027417E+00 0.45151027E+04</pdfrwt>
<totfact> 0.42932922E-02</totfact>
</mgrwt>
</event>
<event>
13    1  0.1083009E-008  0.4970949E+04  0.7818608E-02  0.7833004E-01
          1   -1    0    0  501    0  0.00000000000E+00  0.00000000000E+00  0.14176214913E+04  0.14176214913E+04  0.00000000000E+00 0. -1.
         -1   -1    0    0    0  501 -0.00000000000E+00 -0.00000000000E+00 -0.43577095237E+04  0.43577095237E+04  0.00000000000E+00 0.  1.
    9900016    2    1    2    0    0  0.93685611541E+03  0.66303073396E+01 -0.23046585362E+04  0.33192947270E+04  0.21973900824E+04 0.  0.
         23    2    3    3    0    0  0.68574091108E+03  0.17112816217E+03  0.24353745539E+03  0.75347688433E+03  0.94294634160E+02 0.  0.
    9900016    2    1    2    0    0 -0.93685611541E+03 -0.66303073396E+01 -0.63542949615E+03  0.24560362881E+04  0.21795871769E+04 0.  0.
         23    2    5    5    0    0  0.57313310766E+03 -0.14549151617E+03 -0.87554653819E+02  0.60449364173E+03  0.89985582817E+02 0.  0.
        -15    1    4    4    0    0  0.62752359550E+03  0.16459195868E+03  0.19506779047E+03  0.67744211461E+03  0.00000000000E+00 0.  1.
        -15    1    6    6    0    0  0.62482931847E+02 -0.35200535738E+02  0.11870755561E+02  0.72691879368E+02  0.00000000000E+00 0. -1.
         15    1    6    6    0    0  0.51065017581E+03 -0.11029098043E+03 -0.99425409380E+02  0.53180176236E+03  0.00000000000E+00 0.  1.
         15    1    4    4    0    0  0.58217315576E+02  0.65362034915E+01  0.48469664915E+02  0.76034769717E+02  0.00000000000E+00 0. -1.
        -16    1    3    3    0    0  0.25111520434E+03 -0.16449785483E+03 -0.25481959916E+04  0.25658178427E+04  0.00000000000E+00 0.  1.
         16    1    5    5    0    0 -0.24608243832E+02 -0.89131185103E+02 -0.31476101481E+03  0.32806162572E+03  0.00000000000E+00 0. -1.
    9900018    1    5    5    0    0 -0.14853809792E+04  0.22799239394E+03 -0.23311382751E+03  0.15234810206E+04  0.91187600000E+02 0.  0.
<mgrwt>
<rscale>  0 0.49709487E+04</rscale>
<asrwt>0</asrwt>
<pdfrwt beam="1">  1        1 0.21809561E+00 0.49709487E+04</pdfrwt>
<pdfrwt beam="2">  1       -1 0.67041685E+00 0.49709487E+04</pdfrwt>
<totfact> 0.13714761E-03</totfact>
</mgrwt>
</event>
