<event>
12    1  0.7501097E-013  0.9985929E+03  0.7818608E-02  0.9310089E-01
         -2   -1    0    0    0  501 -0.00000000000E+00  0.00000000000E+00  0.28065369372E+03  0.28065369372E+03  0.00000000000E+00 0.  1.
          2   -1    0    0  501    0  0.00000000000E+00 -0.00000000000E+00 -0.88827253279E+03  0.88827253279E+03  0.00000000000E+00 0. -1.
    9900016    2    1    2    0    0  0.21225208003E+03 -0.67067497842E+02 -0.40368254939E+03  0.86703385331E+03  0.73432901847E+03 0.  0.
         23    2    3    3    0    0  0.79743155985E+01  0.51648003006E+01 -0.40154054208E+02  0.88141488625E+02  0.77886514085E+02 0.  0.
         23    2    3    3    0    0 -0.46395365887E+02 -0.19089226707E+03 -0.12314100874E+03  0.25041193447E+03  0.94604657874E+02 0.  0.
        -15    1    5    5    0    0  0.18654431584E+02 -0.10750596483E+03 -0.41227947873E+02  0.11664160484E+03  0.00000000000E+00 0.  1.
        -15    1    4    4    0    0 -0.19065468009E+02  0.18230190168E+02  0.11194711609E+02  0.28655775543E+02  0.00000000000E+00 0.  1.
         15    1    4    4    0    0  0.27039783607E+02 -0.13065389868E+02 -0.51348765817E+02  0.59485713082E+02  0.00000000000E+00 0. -1.
         15    1    5    5    0    0 -0.65049797471E+02 -0.83386302234E+02 -0.81913060866E+02  0.13377032964E+03  0.00000000000E+00 0. -1.
        -16    1    1    2    0    0 -0.21225208003E+03  0.67067497842E+02 -0.20393628969E+03  0.30189237320E+03  0.00000000000E+00 0.  1.
         16    1    3    3    0    0  0.31357923757E+03  0.24583675224E+02 -0.10998023125E+03  0.33321456539E+03  0.00000000000E+00 0. -1.
    9900018    1    3    3    0    0 -0.62906107243E+02  0.94076293702E+02 -0.13040725519E+03  0.19526586483E+03  0.91187600000E+02 0.  0.
<mgrwt>
<rscale>  0 0.99859294E+03</rscale>
<asrwt>0</asrwt>
<pdfrwt beam="1">  1        2 0.13665731E+00 0.99859294E+03</pdfrwt>
<pdfrwt beam="2">  1       -2 0.43177492E-01 0.99859294E+03</pdfrwt>
<totfact> 0.15157141E+02</totfact>
</mgrwt>
</event>
<event>
11    1  0.7501097E-013  0.1283688E+04  0.7818608E-02  0.9042602E-01
         -1   -1    0    0    0  501 -0.00000000000E+00  0.00000000000E+00  0.65648092348E+03  0.65648092348E+03  0.00000000000E+00 0.  1.
          1   -1    0    0  501    0  0.00000000000E+00 -0.00000000000E+00 -0.62753349053E+03  0.62753349053E+03  0.00000000000E+00 0. -1.
    9900016    2    1    2    0    0 -0.62930717299E+02  0.36580800671E+03  0.26230473899E+03  0.84557239363E+03  0.71303094170E+03 0.  0.
         23    2    3    3    0    0  0.19142135402E+03  0.33351398637E+03  0.26092975472E+03  0.47478249736E+03  0.97264428360E+02 0.  0.
        -15    1    4    4    0    0  0.84300778295E+02  0.15165482956E+03  0.60609604431E+02  0.18379154687E+03  0.00000000000E+00 0. -1.
        -15    1    3    3    0    0 -0.72097210315E+01  0.42389380679E+02 -0.32858272826E+00  0.42999391138E+02  0.00000000000E+00 0.  1.
         15    1    3    3    0    0  0.19191211402E+02  0.11307468389E+02 -0.15035946191E+02  0.26874543983E+02  0.00000000000E+00 0. -1.
         15    1    4    4    0    0  0.10712057573E+03  0.18185915681E+03  0.20032015029E+03  0.29099095050E+03  0.00000000000E+00 0.  1.
        -16    1    3    3    0    0 -0.37284148823E+02  0.91055851366E+01  0.34851396696E+02  0.51842446758E+02  0.00000000000E+00 0.  1.
         16    1    1    2    0    0  0.62930717299E+02 -0.36580800671E+03 -0.23335730604E+03  0.43844202038E+03  0.00000000000E+00 0. -1.
    9900018    1    3    3    0    0 -0.22904941287E+03 -0.30508413869E+02 -0.18111883502E+02  0.24907351439E+03  0.91187600000E+02 0.  0.
<mgrwt>
<rscale>  0 0.12836881E+04</rscale>
<asrwt>0</asrwt>
<pdfrwt beam="1">  1        1 0.96543614E-01 0.12836881E+04</pdfrwt>
<pdfrwt beam="2">  1       -1 0.10099707E+00 0.12836881E+04</pdfrwt>
<totfact> 0.29415060E+01</totfact>
</mgrwt>
</event>
<event>
12    1  0.7501097E-013  0.9096432E+03  0.7818608E-02  0.9413607E-01
         -1   -1    0    0    0  501 -0.00000000000E+00  0.00000000000E+00  0.58352593890E+03  0.58352593890E+03  0.00000000000E+00 0.  1.
          1   -1    0    0  501    0  0.00000000000E+00 -0.00000000000E+00 -0.35450467364E+03  0.35450467364E+03  0.00000000000E+00 0. -1.
    9900016    2    1    2    0    0 -0.10631357932E+03  0.70437737834E+02  0.23937655729E+03  0.81008029354E+03  0.76332489396E+03 0.  0.
         23    2    3    3    0    0  0.13655108818E+02 -0.30129357968E+02 -0.34453643102E+02  0.83275257742E+02  0.68216382347E+02 0.  0.
         23    2    3    3    0    0 -0.77000425070E+02 -0.46161079117E+02  0.32299546375E+03  0.34710525859E+03  0.89978220994E+02 0.  0.
        -15    1    5    5    0    0  0.73030473163E+00 -0.49231212932E+02  0.11930586310E+03  0.12906639625E+03  0.00000000000E+00 0.  1.
        -15    1    4    4    0    0 -0.25051836401E+02 -0.16058444855E+02 -0.27960778203E+00  0.29758130632E+02  0.00000000000E+00 0. -1.
         15    1    5    5    0    0 -0.77730729802E+02  0.30701338153E+01  0.20368960065E+03  0.21803886234E+03  0.00000000000E+00 0. -1.
         15    1    4    4    0    0  0.38706945218E+02 -0.14070913113E+02 -0.34174035320E+02  0.53517127109E+02  0.00000000000E+00 0.  1.
        -16    1    3    3    0    0 -0.11869245220E+03  0.11925764233E+03  0.93264444810E+02  0.19237603834E+03  0.00000000000E+00 0.  1.
         16    1    1    2    0    0  0.10631357932E+03 -0.70437737834E+02 -0.10355292030E+02  0.12795031900E+03  0.00000000000E+00 0. -1.
    9900018    1    3    3    0    0  0.75724189132E+02  0.27470532593E+02 -0.14242970817E+03  0.18732373887E+03  0.91187600000E+02 0.  0.
<mgrwt>
<rscale>  0 0.90964317E+03</rscale>
<asrwt>0</asrwt>
<pdfrwt beam="1">  1        1 0.54539181E-01 0.90964317E+03</pdfrwt>
<pdfrwt beam="2">  1       -1 0.89773221E-01 0.90964317E+03</pdfrwt>
<totfact> 0.86230317E+01</totfact>
</mgrwt>
</event>
<event>
12    1  0.7501097E-013  0.9383690E+03  0.7818608E-02  0.1010244E+00
         -3   -1    0    0    0  501 -0.00000000000E+00  0.00000000000E+00  0.41222315596E+03  0.41222315596E+03  0.00000000000E+00 0.  1.
          3   -1    0    0  501    0  0.00000000000E+00 -0.00000000000E+00 -0.64600595656E+03  0.64600595656E+03  0.00000000000E+00 0. -1.
         23    2    1    2    0    0  0.56491957394E+02  0.23546851889E+02  0.18927640671E+02  0.86427211048E+02  0.58013892682E+02 0.  0.
    9900016    2    1    2    0    0  0.64907078508E+02  0.11074946712E+03 -0.52355203101E+02  0.70177329432E+03  0.68794354131E+03 0.  0.
         23    2    4    4    0    0 -0.22612855939E+02 -0.36522919928E+02  0.13955354518E+03  0.17187302296E+03  0.90663549001E+02 0.  0.
        -15    1    3    3    0    0  0.29979940121E+02 -0.13581762866E+02  0.23696647873E+02  0.40556037931E+02  0.00000000000E+00 0.  1.
        -15    1    5    5    0    0 -0.57643165285E+02 -0.16817842866E+02  0.87072072205E+02  0.10576918313E+03  0.00000000000E+00 0.  1.
         15    1    5    5    0    0  0.35030309346E+02 -0.19705077062E+02  0.52481472972E+02  0.66103839829E+02  0.00000000000E+00 0. -1.
         15    1    3    3    0    0  0.26512017273E+02  0.37128614755E+02 -0.47690072019E+01  0.45871173117E+02  0.00000000000E+00 0. -1.
        -16    1    4    4    0    0  0.57217423740E+02  0.29809736084E+03 -0.17474337741E+03  0.35024436907E+03  0.00000000000E+00 0.  1.
         16    1    1    2    0    0 -0.12139903590E+03 -0.13429631901E+03 -0.20035523817E+03  0.27002860715E+03  0.00000000000E+00 0. -1.
    9900018    1    4    4    0    0  0.30302510706E+02 -0.15082497380E+03 -0.17165370870E+02  0.17965590229E+03  0.91187600000E+02 0.  0.
<mgrwt>
<rscale>  0 0.51377703E+03</rscale>
<asrwt>0</asrwt>
<pdfrwt beam="1">  1        3 0.99385532E-01 0.93836899E+03</pdfrwt>
<pdfrwt beam="2">  1       -3 0.63418947E-01 0.93836899E+03</pdfrwt>
<totfact> 0.55999082E+00</totfact>
</mgrwt>
</event>
<event>
12    1  0.7501097E-013  0.1301369E+04  0.7818608E-02  0.9885872E-01
         -1   -1    0    0    0  501 -0.00000000000E+00  0.00000000000E+00  0.54902338706E+03  0.54902338706E+03  0.00000000000E+00 0.  1.
          1   -1    0    0  501    0  0.00000000000E+00 -0.00000000000E+00 -0.87291158258E+03  0.87291158258E+03  0.00000000000E+00 0. -1.
         23    2    1    2    0    0  0.10777102330E+02 -0.15781640314E+02  0.35327771699E+02  0.71898621437E+02  0.59633499023E+02 0.  0.
    9900016    2    1    2    0    0  0.22314645429E+03 -0.10907556881E+03  0.16273777700E+03  0.76459184690E+03  0.70457454432E+03 0.  0.
         23    2    4    4    0    0  0.18989349196E+03 -0.10780506861E+03 -0.33248976423E+02  0.24044861080E+03  0.95018781804E+02 0.  0.
        -15    1    5    5    0    0  0.66853237313E+02 -0.27538329187E+01 -0.41008139517E+02  0.78476789190E+02  0.00000000000E+00 0.  1.
        -15    1    3    3    0    0  0.33968776233E+01 -0.38067120190E+02  0.15772530440E+02  0.41345098060E+02  0.00000000000E+00 0.  1.
         15    1    3    3    0    0  0.73802247072E+01  0.22285479876E+02  0.19555241259E+02  0.30553523377E+02  0.00000000000E+00 0. -1.
         15    1    5    5    0    0  0.12304025465E+03 -0.10505123569E+03  0.77591630941E+01  0.16197182161E+03  0.00000000000E+00 0. -1.
        -16    1    4    4    0    0 -0.65746636560E+02  0.12004824616E+03 -0.10521309983E+03  0.17263834453E+03  0.00000000000E+00 0.  1.
         16    1    1    2    0    0 -0.23392355662E+03  0.12485720913E+03 -0.52195374422E+03  0.58544450132E+03  0.00000000000E+00 0. -1.
    9900018    1    4    4    0    0  0.98999598895E+02 -0.12131874637E+03  0.30119985326E+03  0.35150489157E+03  0.91187600000E+02 0.  0.
<mgrwt>
<rscale>  0 0.60950884E+03</rscale>
<asrwt>0</asrwt>
<pdfrwt beam="1">  1        1 0.13429409E+00 0.13013693E+04</pdfrwt>
<pdfrwt beam="2">  1       -1 0.84465137E-01 0.13013693E+04</pdfrwt>
<totfact> 0.26100722E+01</totfact>
</mgrwt>
</event>
<event>
11    1  0.7501097E-013  0.9979763E+03  0.7818608E-02  0.1012355E+00
         -1   -1    0    0    0  501 -0.00000000000E+00  0.00000000000E+00  0.66340813339E+03  0.66340813339E+03  0.00000000000E+00 0.  1.
          1   -1    0    0  501    0  0.00000000000E+00 -0.00000000000E+00 -0.42730480196E+03  0.42730480196E+03  0.00000000000E+00 0. -1.
    9900016    2    1    2    0    0  0.19546477756E+03  0.16095787042E+02  0.34968126416E+03  0.80189439120E+03  0.69447251530E+03 0.  0.
         23    2    3    3    0    0 -0.60258499017E+02  0.38365773128E+02 -0.83900334424E+02  0.14401828614E+03  0.92730692731E+02 0.  0.
        -15    1    1    2    0    0  0.12303851555E+02  0.63686061149E+01  0.61190930374E+01  0.15145534211E+02  0.00000000000E+00 0.  1.
        -15    1    4    4    0    0 -0.75782085883E+02  0.41879476404E+02 -0.36403608640E+02  0.93925703652E+02  0.00000000000E+00 0.  1.
         15    1    4    4    0    0  0.15523586866E+02 -0.35137032761E+01 -0.47496725784E+02  0.50092582486E+02  0.00000000000E+00 0. -1.
         15    1    1    2    0    0 -0.47479551050E+02  0.20785324371E+02  0.21126744440E+02  0.55970320776E+02  0.00000000000E+00 0. -1.
        -16    1    3    3    0    0  0.25305347198E+03  0.13362860335E+03  0.15387414935E+03  0.32491524610E+03  0.00000000000E+00 0.  1.
         16    1    1    2    0    0 -0.16028907807E+03 -0.43249717528E+02 -0.14082377021E+03  0.21770268917E+03  0.00000000000E+00 0. -1.
    9900018    1    3    3    0    0  0.26698045992E+01 -0.15589858943E+03  0.27970744924E+03  0.33296085896E+03  0.91187600000E+02 0.  0.
<mgrwt>
<rscale>  0 0.50549214E+03</rscale>
<asrwt>0</asrwt>
<pdfrwt beam="1">  1        1 0.65739201E-01 0.99797633E+03</pdfrwt>
<pdfrwt beam="2">  1       -1 0.10206279E+00 0.99797633E+03</pdfrwt>
<totfact> 0.50097357E+01</totfact>
</mgrwt>
</event>
<event>
12    1  0.7501097E-013  0.1233541E+04  0.7818608E-02  0.9083994E-01
         -1   -1    0    0    0  501 -0.00000000000E+00  0.00000000000E+00  0.18799286241E+03  0.18799286241E+03  0.00000000000E+00 0.  1.
          1   -1    0    0  501    0  0.00000000000E+00 -0.00000000000E+00 -0.20235124601E+04  0.20235124601E+04  0.00000000000E+00 0. -1.
    9900016    2    1    2    0    0 -0.33508811417E+03 -0.14346458175E+03 -0.15130586710E+04  0.17248358456E+04  0.74353616058E+03 0.  0.
         23    2    3    3    0    0 -0.43878001193E+02 -0.34475975486E+02 -0.20782483871E+03  0.22549579388E+03  0.67404136354E+02 0.  0.
         23    2    3    3    0    0 -0.41035339540E+03 -0.86344712041E+02 -0.73869158752E+03  0.85444539849E+03  0.92554627764E+02 0.  0.
        -15    1    4    4    0    0 -0.32091364690E+01 -0.39378632172E+02 -0.58044546719E+02  0.70214988659E+02  0.00000000000E+00 0.  1.
        -15    1    5    5    0    0 -0.15921965774E+03  0.12061426313E+02 -0.26979416246E+03  0.31350481258E+03  0.00000000000E+00 0. -1.
         15    1    5    5    0    0 -0.25113373766E+03 -0.98406138354E+02 -0.46889742506E+03  0.54094058591E+03  0.00000000000E+00 0.  1.
         15    1    4    4    0    0 -0.40668864724E+02  0.49026566859E+01 -0.14978029199E+03  0.15528080522E+03  0.00000000000E+00 0. -1.
        -16    1    1    2    0    0  0.33508811417E+03  0.14346458175E+03 -0.32246092670E+03  0.48666947687E+03  0.00000000000E+00 0.  1.
         16    1    3    3    0    0  0.33716029182E+02  0.89057629059E+02 -0.39003599003E+03  0.40149234792E+03  0.00000000000E+00 0. -1.
    9900018    1    3    3    0    0  0.85427253245E+02 -0.11170152328E+03 -0.17650625473E+03  0.24340230535E+03  0.91187600000E+02 0.  0.
<mgrwt>
<rscale>  0 0.12335411E+04</rscale>
<asrwt>0</asrwt>
<pdfrwt beam="1">  1        1 0.31130961E+00 0.12335411E+04</pdfrwt>
<pdfrwt beam="2">  1       -1 0.28921979E-01 0.12335411E+04</pdfrwt>
<totfact> 0.30912702E+01</totfact>
</mgrwt>
</event>
<event>
12    1  0.7501097E-013  0.8491374E+03  0.7818608E-02  0.9491495E-01
         -1   -1    0    0    0  501 -0.00000000000E+00  0.00000000000E+00  0.16360343720E+03  0.16360343720E+03  0.00000000000E+00 0.  1.
          1   -1    0    0  501    0  0.00000000000E+00 -0.00000000000E+00 -0.11018019928E+04  0.11018019928E+04  0.00000000000E+00 0. -1.
    9900016    2    1    2    0    0 -0.66058126549E+02 -0.23831700586E+02 -0.94589224522E+03  0.11947597019E+04  0.72650325509E+03 0.  0.
         23    2    3    3    0    0 -0.31210473545E+02  0.26657647358E+02 -0.13579830024E+03  0.15400026544E+03  0.59918107343E+02 0.  0.
         23    2    3    3    0    0  0.27510218243E+02  0.19861424220E+03 -0.22888752865E+03  0.31745858974E+03  0.90476660619E+02 0.  0.
        -15    1    4    4    0    0 -0.11007071798E+02  0.22933288129E+02 -0.13026335229E+03  0.13272389492E+03  0.00000000000E+00 0. -1.
        -15    1    5    5    0    0 -0.16596032061E+01  0.17647377432E+03 -0.21532455825E+03  0.27840691926E+03  0.00000000000E+00 0. -1.
         15    1    5    5    0    0  0.29169821449E+02  0.22140467877E+02 -0.13562970397E+02  0.39051670479E+02  0.00000000000E+00 0.  1.
         15    1    4    4    0    0 -0.20203401747E+02  0.37243592285E+01 -0.55349479515E+01  0.21276370523E+02  0.00000000000E+00 0.  1.
        -16    1    1    2    0    0  0.66058126549E+02  0.23831700586E+02  0.76936896353E+01  0.70645728082E+02  0.00000000000E+00 0.  1.
         16    1    3    3    0    0  0.94118391021E+02 -0.22918201191E+03 -0.35338558026E+03  0.43158317210E+03  0.00000000000E+00 0. -1.
    9900018    1    3    3    0    0 -0.15647626227E+03 -0.19921578235E+02 -0.22782083608E+03  0.29171767460E+03  0.91187600000E+02 0.  0.
<mgrwt>
<rscale>  0 0.84913743E+03</rscale>
<asrwt>0</asrwt>
<pdfrwt beam="1">  1        1 0.16950799E+00 0.84913743E+03</pdfrwt>
<pdfrwt beam="2">  1       -1 0.25169761E-01 0.84913743E+03</pdfrwt>
<totfact> 0.17646741E+02</totfact>
</mgrwt>
</event>
<event>
12    1  0.7501097E-013  0.3013312E+04  0.7818608E-02  0.9092325E-01
          2   -1    0    0  501    0  0.00000000000E+00  0.00000000000E+00  0.35459972719E+04  0.35459972719E+04  0.00000000000E+00 0. -1.
         -2   -1    0    0    0  501 -0.00000000000E+00 -0.00000000000E+00 -0.78045916610E+03  0.78045916610E+03  0.00000000000E+00 0.  1.
         23    2    1    2    0    0 -0.12206646948E+02  0.23056131156E+02 -0.12593150678E+03  0.15025637045E+03  0.77702284704E+02 0.  0.
    9900016    2    1    2    0    0  0.14838581638E+03  0.27410852809E+03 -0.41938297480E+03  0.84925004445E+03  0.66946973252E+03 0.  0.
         23    2    4    4    0    0  0.17234272146E+03  0.32196028740E+03 -0.22835853886E+02  0.37699753883E+03  0.90803236473E+02 0.  0.
        -15    1    5    5    0    0  0.26148150503E+02  0.13476942434E+03  0.78598637921E+01  0.13750745787E+03  0.00000000000E+00 0. -1.
        -15    1    3    3    0    0 -0.27764656904E+02  0.45354161785E+02 -0.96541288026E+02  0.11021840344E+03  0.00000000000E+00 0.  1.
         15    1    3    3    0    0  0.15558009955E+02 -0.22298030630E+02 -0.29390218753E+02  0.40037967008E+02  0.00000000000E+00 0. -1.
         15    1    5    5    0    0  0.14619457096E+03  0.18719086306E+03 -0.30695717679E+02  0.23949008096E+03  0.00000000000E+00 0.  1.
        -16    1    4    4    0    0 -0.59355666091E+02 -0.10907348615E+03 -0.28883441660E+03  0.31439694765E+03  0.00000000000E+00 0.  1.
         16    1    1    2    0    0 -0.13617916943E+03 -0.29716465925E+03  0.33108525874E+04  0.33269500231E+04  0.00000000000E+00 0. -1.
    9900018    1    4    4    0    0  0.35398761006E+02  0.61221726833E+02 -0.10771270431E+03  0.15785555797E+03  0.91187600000E+02 0.  0.
<mgrwt>
<rscale>  0 0.12237423E+04</rscale>
<asrwt>0</asrwt>
<pdfrwt beam="1">  1        2 0.54553803E+00 0.30133122E+04</pdfrwt>
<pdfrwt beam="2">  1       -2 0.12007064E+00 0.30133122E+04</pdfrwt>
<totfact> 0.33868292E-01</totfact>
</mgrwt>
</event>
<event>
11    1  0.7501097E-013  0.9641323E+03  0.7818608E-02  0.9348783E-01
         -1   -1    0    0    0  501 -0.00000000000E+00  0.00000000000E+00  0.18464795761E+03  0.18464795761E+03  0.00000000000E+00 0.  1.
          1   -1    0    0  501    0  0.00000000000E+00 -0.00000000000E+00 -0.12585449932E+04  0.12585449932E+04  0.00000000000E+00 0. -1.
    9900016    2    1    2    0    0 -0.11705580890E+03  0.14738181006E+03 -0.83012593455E+03  0.11352192343E+04  0.75112594316E+03 0.  0.
         23    2    3    3    0    0  0.94084685834E+02 -0.69330782250E+02 -0.40911540165E+03  0.43544338006E+03  0.92611229820E+02 0.  0.
        -15    1    3    3    0    0 -0.27303622961E+02  0.15502760901E+02 -0.59704160053E+02  0.67456727982E+02  0.00000000000E+00 0. -1.
        -15    1    4    4    0    0  0.13845272665E+02 -0.66892806034E+02 -0.20646096740E+03  0.21746831984E+03  0.00000000000E+00 0.  1.
         15    1    4    4    0    0  0.80239413169E+02 -0.24379762168E+01 -0.20265443425E+03  0.21797506022E+03  0.00000000000E+00 0. -1.
         15    1    3    3    0    0 -0.92315889474E+01 -0.19647801038E+02 -0.13044982597E+03  0.13224377269E+03  0.00000000000E+00 0.  1.
        -16    1    1    2    0    0  0.11705580890E+03 -0.14738181006E+03 -0.24377110106E+03  0.30797371648E+03  0.00000000000E+00 0.  1.
         16    1    3    3    0    0 -0.23834237460E+03  0.23095009963E+03 -0.17149089382E+03  0.37356948847E+03  0.00000000000E+00 0. -1.
    9900018    1    3    3    0    0  0.63737091779E+02 -0.10092467181E+02 -0.59365653049E+02  0.12650586515E+03  0.91187600000E+02 0.  0.
<mgrwt>
<rscale>  0 0.96413228E+03</rscale>
<asrwt>0</asrwt>
<pdfrwt beam="1">  1        1 0.19362230E+00 0.96413228E+03</pdfrwt>
<pdfrwt beam="2">  1       -1 0.28407379E-01 0.96413228E+03</pdfrwt>
<totfact> 0.10915887E+02</totfact>
</mgrwt>
</event>
<event>
12    1  0.7501097E-013  0.1180249E+04  0.7818608E-02  0.9858160E-01
         -1   -1    0    0    0  501 -0.00000000000E+00  0.00000000000E+00  0.10574741147E+04  0.10574741147E+04  0.00000000000E+00 0.  1.
          1   -1    0    0  501    0  0.00000000000E+00 -0.00000000000E+00 -0.38805363217E+03  0.38805363217E+03  0.00000000000E+00 0. -1.
         23    2    1    2    0    0  0.36777328981E+02  0.43431165347E+02  0.97771680404E+02  0.13412805466E+03  0.72056890769E+02 0.  0.
    9900016    2    1    2    0    0  0.25921378618E+03  0.15213797903E+03  0.60725000176E+03  0.95485309509E+03  0.67279574683E+03 0.  0.
         23    2    4    4    0    0 -0.25960847071E+02  0.22520572344E+03  0.20756174229E+02  0.24563587728E+03  0.92274492621E+02 0.  0.
        -15    1    3    3    0    0 -0.21914776633E+02  0.15308088498E+02  0.27732358323E+02  0.38518550161E+02  0.00000000000E+00 0. -1.
        -15    1    5    5    0    0 -0.44110497178E+02  0.13810201625E+03  0.47783084417E+02  0.15264706355E+03  0.00000000000E+00 0.  1.
         15    1    3    3    0    0  0.58692105614E+02  0.28123076848E+02  0.70039322081E+02  0.95609504498E+02  0.00000000000E+00 0.  1.
         15    1    5    5    0    0  0.18149650107E+02  0.87103707188E+02 -0.27026910187E+02  0.92988813732E+02  0.00000000000E+00 0. -1.
        -16    1    1    2    0    0 -0.29599111516E+03 -0.19556914438E+03 -0.35601199643E+02  0.35654659710E+03  0.00000000000E+00 0.  1.
         16    1    4    4    0    0  0.53974074804E+02 -0.13207169122E+03  0.22985684497E+03  0.27053706133E+03  0.00000000000E+00 0. -1.
    9900018    1    4    4    0    0  0.23120055845E+03  0.59003946821E+02  0.35663698256E+03  0.43868015648E+03  0.91187600000E+02 0.  0.
<mgrwt>
<rscale>  0 0.62332598E+03</rscale>
<asrwt>0</asrwt>
<pdfrwt beam="1">  1        1 0.59700559E-01 0.11802486E+04</pdfrwt>
<pdfrwt beam="2">  1       -1 0.16268832E+00 0.11802486E+04</pdfrwt>
<totfact> 0.17253187E+01</totfact>
</mgrwt>
</event>
<event>
12    1  0.7501097E-013  0.1799812E+04  0.7818608E-02  0.9476411E-01
          1   -1    0    0  501    0  0.00000000000E+00  0.00000000000E+00  0.92720646983E+03  0.92720646983E+03  0.00000000000E+00 0. -1.
         -1   -1    0    0    0  501 -0.00000000000E+00 -0.00000000000E+00 -0.97031191217E+03  0.97031191217E+03  0.00000000000E+00 0.  1.
         23    2    1    2    0    0 -0.26981728837E+02 -0.69430123200E+02 -0.26285067653E+02  0.97627344977E+02  0.57372798495E+02 0.  0.
    9900016    2    1    2    0    0 -0.24971831651E+03 -0.68282742671E+03 -0.21694928081E+02  0.99834372230E+03  0.68381794777E+03 0.  0.
         23    2    4    4    0    0  0.72389813435E+02  0.60878044564E+02 -0.13548435600E+02  0.13264621389E+03  0.92005633272E+02 0.  0.
        -15    1    5    5    0    0 -0.14513541883E+02  0.20245870740E+02  0.19013334505E+02  0.31337598329E+02  0.00000000000E+00 0. -1.
        -15    1    3    3    0    0 -0.95204075844E+00 -0.39049944913E+02  0.13381095195E+02  0.41289929619E+02  0.00000000000E+00 0. -1.
         15    1    3    3    0    0 -0.26029688079E+02 -0.30380178287E+02 -0.39666162847E+02  0.56337415359E+02  0.00000000000E+00 0.  1.
         15    1    5    5    0    0  0.86903355317E+02  0.40632173824E+02 -0.32561770105E+02  0.10130861556E+03  0.00000000000E+00 0.  1.
        -16    1    1    2    0    0  0.27670004535E+03  0.75225754991E+03  0.48745533938E+01  0.80154731473E+03  0.00000000000E+00 0.  1.
         16    1    4    4    0    0 -0.11071421224E+03 -0.40765797057E+03  0.11918130651E+03  0.43891552898E+03  0.00000000000E+00 0. -1.
    9900018    1    4    4    0    0 -0.21139391770E+03 -0.33604750070E+03 -0.12732779899E+03  0.42678197942E+03  0.91187600000E+02 0.  0.
<mgrwt>
<rscale>  0 0.86045499E+03</rscale>
<asrwt>0</asrwt>
<pdfrwt beam="1">  1        1 0.14264715E+00 0.17998124E+04</pdfrwt>
<pdfrwt beam="2">  1       -1 0.14927875E+00 0.17998124E+04</pdfrwt>
<totfact> 0.57517768E+00</totfact>
</mgrwt>
</event>
<event>
12    1  0.8662272E-013  0.9802956E+03  0.7818608E-02  0.9330424E-01
          1   -1    0    0  501    0  0.00000000000E+00  0.00000000000E+00  0.41134333198E+03  0.41134333198E+03  0.00000000000E+00 0. -1.
         -1   -1    0    0    0  501 -0.00000000000E+00 -0.00000000000E+00 -0.58404946535E+03  0.58404946535E+03  0.00000000000E+00 0.  1.
    9900016    2    1    2    0    0 -0.13654133502E+03  0.60190269444E+02  0.32619253564E+02  0.74157215352E+03  0.72567130195E+03 0.  0.
         23    2    3    3    0    0 -0.15062595094E+02 -0.74946836944E+01  0.13298654599E+02  0.67368162457E+02  0.63863628491E+02 0.  0.
         23    2    3    3    0    0 -0.13151785716E+03  0.18286919993E+01 -0.32863883619E+02  0.16077217213E+03  0.86413920288E+02 0.  0.
        -15    1    4    4    0    0  0.34886014473E+01  0.23673924831E+02 -0.80897775735E+01  0.25260038760E+02  0.00000000000E+00 0.  1.
        -15    1    5    5    0    0 -0.35925891976E+02  0.32316737103E+02 -0.36204340020E+02  0.60380422717E+02  0.00000000000E+00 0. -1.
         15    1    4    4    0    0 -0.18551196542E+02 -0.31168608525E+02  0.21388432173E+02  0.42108123697E+02  0.00000000000E+00 0.  1.
         15    1    5    5    0    0 -0.95591965180E+02 -0.30488045104E+02  0.33404564008E+01  0.10039174941E+03  0.00000000000E+00 0. -1.
        -16    1    1    2    0    0  0.13654133502E+03 -0.60190269444E+02 -0.20532538693E+03  0.25382064381E+03  0.00000000000E+00 0.  1.
         16    1    3    3    0    0  0.69068666456E+02 -0.62092448009E+02  0.24250107258E+03  0.25967811419E+03  0.00000000000E+00 0. -1.
    9900018    1    3    3    0    0 -0.59029549224E+02  0.12794870915E+03 -0.19031658999E+03  0.25375370475E+03  0.91187600000E+02 0.  0.
<mgrwt>
<rscale>  0 0.98029557E+03</rscale>
<asrwt>0</asrwt>
<pdfrwt beam="1">  1        1 0.63283590E-01 0.98029557E+03</pdfrwt>
<pdfrwt beam="2">  1       -1 0.89853764E-01 0.98029557E+03</pdfrwt>
<totfact> 0.70370224E+01</totfact>
</mgrwt>
</event>
<event>
11    1  0.7501097E-013  0.8682632E+03  0.7818608E-02  0.9466147E-01
          1   -1    0    0  501    0  0.00000000000E+00  0.00000000000E+00  0.84361848568E+03  0.84361848568E+03  0.00000000000E+00 0. -1.
         -1   -1    0    0    0  501 -0.00000000000E+00 -0.00000000000E+00 -0.22340694752E+03  0.22340694752E+03  0.00000000000E+00 0.  1.
    9900016    2    1    2    0    0 -0.67860974010E+02  0.10687826781E+03  0.59917827218E+03  0.93868808788E+03  0.71140188962E+03 0.  0.
         23    2    3    3    0    0  0.11163250809E+02  0.93095293574E+02  0.20821970128E+03  0.24624758647E+03  0.92147045436E+02 0.  0.
        -15    1    3    3    0    0 -0.68105163252E+00  0.21827301225E+02  0.31412694640E+02  0.38257708957E+02  0.00000000000E+00 0.  1.
        -15    1    4    4    0    0  0.40087234556E+02  0.87068736724E+02  0.12228390804E+03  0.15537472592E+03  0.00000000000E+00 0.  1.
         15    1    3    3    0    0  0.23857201335E+02 -0.20606079693E+02  0.10849695492E+02  0.33339053198E+02  0.00000000000E+00 0. -1.
         15    1    4    4    0    0 -0.28923983747E+02  0.60265568501E+01  0.85935793241E+02  0.90872860543E+02  0.00000000000E+00 0. -1.
        -16    1    1    2    0    0  0.67860974010E+02 -0.10687826781E+03  0.21033265973E+02  0.12833734531E+03  0.00000000000E+00 0.  1.
         16    1    3    3    0    0  0.15195058650E+03 -0.13712587035E+03  0.12929687794E+03  0.24209536902E+03  0.00000000000E+00 0. -1.
    9900018    1    3    3    0    0 -0.25415096102E+03  0.14968762306E+03  0.21939930283E+03  0.37874837024E+03  0.91187600000E+02 0.  0.
<mgrwt>
<rscale>  0 0.86826316E+03</rscale>
<asrwt>0</asrwt>
<pdfrwt beam="1">  1        1 0.12978746E+00 0.86826316E+03</pdfrwt>
<pdfrwt beam="2">  1       -1 0.34370300E-01 0.86826316E+03</pdfrwt>
<totfact> 0.16380930E+02</totfact>
</mgrwt>
</event>
<event>
11    1  0.7501097E-013  0.7675080E+03  0.7818608E-02  0.9608277E-01
         -2   -1    0    0    0  501 -0.00000000000E+00  0.00000000000E+00  0.14888401247E+03  0.14888401247E+03  0.00000000000E+00 0.  1.
          2   -1    0    0  501    0  0.00000000000E+00 -0.00000000000E+00 -0.98913988991E+03  0.98913988991E+03  0.00000000000E+00 0. -1.
    9900016    2    1    2    0    0  0.38486342572E+02  0.27447104054E+02 -0.80425508420E+03  0.10786050569E+04  0.71716670740E+03 0.  0.
         23    2    3    3    0    0 -0.17942266899E+03 -0.15032260940E+03 -0.28840406891E+03  0.38299018011E+03  0.93355182230E+02 0.  0.
        -15    1    3    3    0    0  0.16947488251E+02 -0.88141452575E+01 -0.74645542008E+01  0.20509170731E+02  0.00000000000E+00 0. -1.
        -15    1    4    4    0    0 -0.15618895024E+03 -0.14690720904E+03 -0.20613945030E+03  0.29743938746E+03  0.00000000000E+00 0.  1.
         15    1    3    3    0    0  0.26627919252E+02  0.17921683893E+02 -0.10408301701E+03  0.10891972855E+03  0.00000000000E+00 0. -1.
         15    1    4    4    0    0 -0.23233718747E+02 -0.34154003619E+01 -0.82264618611E+02  0.85550792642E+02  0.00000000000E+00 0.  1.
        -16    1    3    3    0    0  0.15920281771E+03  0.21031028645E+03 -0.37889273835E+03  0.46166617910E+03  0.00000000000E+00 0.  1.
         16    1    1    2    0    0 -0.38486342572E+02 -0.27447104054E+02 -0.36000793243E+02  0.59418845492E+02  0.00000000000E+00 0. -1.
    9900018    1    3    3    0    0  0.15130786346E+02 -0.41648111633E+02 -0.25410705728E+02  0.10451979840E+03  0.91187600000E+02 0.  0.
<mgrwt>
<rscale>  0 0.76750796E+03</rscale>
<asrwt>0</asrwt>
<pdfrwt beam="1">  1        2 0.15217536E+00 0.76750796E+03</pdfrwt>
<pdfrwt beam="2">  1       -2 0.22905233E-01 0.76750796E+03</pdfrwt>
<totfact> 0.43190320E+02</totfact>
</mgrwt>
</event>
<event>
12    1  0.7501097E-013  0.8888831E+03  0.7818608E-02  0.1015037E+00
         -2   -1    0    0    0  501 -0.00000000000E+00  0.00000000000E+00  0.21979867587E+03  0.21979867587E+03  0.00000000000E+00 0.  1.
          2   -1    0    0  501    0  0.00000000000E+00 -0.00000000000E+00 -0.10820839743E+04  0.10820839743E+04  0.00000000000E+00 0. -1.
         23    2    1    2    0    0 -0.38401631931E+02  0.40957054414E+02 -0.60835613229E+02  0.10503895572E+03  0.64653265503E+02 0.  0.
    9900016    2    1    2    0    0 -0.14557534677E+03 -0.25222924395E+02 -0.54783319898E+03  0.88312979036E+03  0.67673379937E+03 0.  0.
         23    2    4    4    0    0 -0.43515955880E+02 -0.22554214930E+03 -0.36109959122E+02  0.24896486222E+03  0.88975692986E+02 0.  0.
        -15    1    5    5    0    0  0.23311101794E+02 -0.10734388631E+03 -0.68031353862E+01  0.11005634941E+03  0.00000000000E+00 0.  1.
        -15    1    3    3    0    0 -0.63130503271E+01  0.17271081581E+02 -0.62471630426E+02  0.65121804885E+02  0.00000000000E+00 0. -1.
         15    1    3    3    0    0 -0.32088581604E+02  0.23685972832E+02  0.16360171966E+01  0.39917150834E+02  0.00000000000E+00 0.  1.
         15    1    5    5    0    0 -0.66827057674E+02 -0.11819826300E+03 -0.29306823736E+02  0.13890851281E+03  0.00000000000E+00 0. -1.
        -16    1    4    4    0    0 -0.14165967800E+03  0.22803641310E+03 -0.33245542959E+03  0.42731099066E+03  0.00000000000E+00 0.  1.
         16    1    1    2    0    0  0.18397697870E+03 -0.15734130019E+02 -0.25361648624E+03  0.31371390411E+03  0.00000000000E+00 0. -1.
    9900018    1    4    4    0    0  0.39600287108E+02 -0.27717188196E+02 -0.17926781027E+03  0.20685393749E+03  0.91187600000E+02 0.  0.
<mgrwt>
<rscale>  0 0.49520824E+03</rscale>
<asrwt>0</asrwt>
<pdfrwt beam="1">  1        2 0.16647446E+00 0.88888314E+03</pdfrwt>
<pdfrwt beam="2">  1       -2 0.33815180E-01 0.88888314E+03</pdfrwt>
<totfact> 0.18335627E+02</totfact>
</mgrwt>
</event>
<event>
11    1  0.7501097E-013  0.1119827E+04  0.7818608E-02  0.1008022E+00
         -1   -1    0    0    0  501 -0.00000000000E+00  0.00000000000E+00  0.10901725466E+04  0.10901725466E+04  0.00000000000E+00 0.  1.
          1   -1    0    0  501    0  0.00000000000E+00 -0.00000000000E+00 -0.32988098996E+03  0.32988098996E+03  0.00000000000E+00 0. -1.
    9900016    2    1    2    0    0 -0.30553565709E+02  0.60324024821E+01  0.83666807969E+03  0.10961525019E+04  0.70750754170E+03 0.  0.
         23    2    3    3    0    0 -0.44742380809E+02 -0.17806596786E+03  0.15573749758E+03  0.25737580261E+03  0.90987724791E+02 0.  0.
        -15    1    1    2    0    0 -0.11579242302E+01 -0.21624990713E+02  0.84836118858E+02  0.87556542159E+02  0.00000000000E+00 0. -1.
        -15    1    4    4    0    0  0.60165491427E+01 -0.12979873528E+03  0.12690909407E+03  0.18163102351E+03  0.00000000000E+00 0.  1.
         15    1    1    2    0    0  0.24156680372E+02 -0.78307705610E+01  0.32404497497E+02  0.41169377360E+02  0.00000000000E+00 0.  1.
         15    1    4    4    0    0 -0.50758929952E+02 -0.48267232582E+02  0.28828403510E+02  0.75744779093E+02  0.00000000000E+00 0. -1.
        -16    1    3    3    0    0 -0.14948723310E+03  0.21502202308E+03  0.22641495155E+03  0.34618583673E+03  0.00000000000E+00 0.  1.
         16    1    1    2    0    0  0.75548095671E+01  0.23423358792E+02 -0.19361713944E+03  0.19517511513E+03  0.00000000000E+00 0. -1.
    9900018    1    3    3    0    0  0.16367604820E+03 -0.30923652738E+02  0.45451563056E+03  0.49259086255E+03  0.91187600000E+02 0.  0.
<mgrwt>
<rscale>  0 0.52268557E+03</rscale>
<asrwt>0</asrwt>
<pdfrwt beam="1">  1        1 0.50750922E-01 0.11198270E+04</pdfrwt>
<pdfrwt beam="2">  1       -1 0.16771885E+00 0.11198270E+04</pdfrwt>
<totfact> 0.19703138E+01</totfact>
</mgrwt>
</event>
<event>
12    1  0.7501097E-013  0.1323388E+04  0.7818608E-02  0.9011221E-01
          2   -1    0    0  501    0  0.00000000000E+00  0.00000000000E+00  0.14271974845E+04  0.14271974845E+04  0.00000000000E+00 0. -1.
         -2   -1    0    0    0  501 -0.00000000000E+00 -0.00000000000E+00 -0.30678237082E+03  0.30678237082E+03  0.00000000000E+00 0.  1.
    9900016    2    1    2    0    0  0.25542186454E+02  0.45759163840E+03  0.76330931853E+03  0.11529746404E+04  0.73257552162E+03 0.  0.
         23    2    3    3    0    0  0.13797022819E+02  0.47381824199E+02  0.50378642392E+02  0.10321547114E+03  0.75365978860E+02 0.  0.
         23    2    3    3    0    0  0.37701069644E+02  0.37790295366E+03  0.33314316205E+03  0.51350990133E+03  0.92065407754E+02 0.  0.
        -15    1    5    5    0    0  0.41225429917E+02  0.20504688647E+03  0.23543680323E+03  0.31491943420E+03  0.00000000000E+00 0. -1.
        -15    1    4    4    0    0 -0.18759312215E+02  0.31493080498E+00 -0.89463174044E+01  0.20785754047E+02  0.00000000000E+00 0.  1.
         15    1    5    5    0    0 -0.35243602730E+01  0.17285606719E+03  0.97706358818E+02  0.19859046713E+03  0.00000000000E+00 0.  1.
         15    1    4    4    0    0  0.32556335034E+02  0.47066893394E+02  0.59324959797E+02  0.82429717090E+02  0.00000000000E+00 0. -1.
        -16    1    1    2    0    0 -0.25542186454E+02 -0.45759163840E+03  0.35710579520E+03  0.58100521494E+03  0.00000000000E+00 0.  1.
         16    1    3    3    0    0  0.58877239638E+02  0.73839121530E+02  0.39310204059E+03  0.40428697670E+03  0.00000000000E+00 0. -1.
    9900018    1    3    3    0    0 -0.84833145648E+02 -0.41532260985E+02 -0.13314526505E+02  0.13196229125E+03  0.91187600000E+02 0.  0.
<mgrwt>
<rscale>  0 0.13233881E+04</rscale>
<asrwt>0</asrwt>
<pdfrwt beam="1">  1        2 0.21956884E+00 0.13233881E+04</pdfrwt>
<pdfrwt beam="2">  1       -2 0.47197289E-01 0.13233881E+04</pdfrwt>
<totfact> 0.58114548E+01</totfact>
</mgrwt>
</event>
<event>
11    1  0.7501097E-013  0.1023547E+04  0.7818608E-02  0.9283089E-01
         -2   -1    0    0    0  501 -0.00000000000E+00  0.00000000000E+00  0.13178922344E+03  0.13178922344E+03  0.00000000000E+00 0.  1.
          2   -1    0    0  501    0  0.00000000000E+00 -0.00000000000E+00 -0.19873561499E+04  0.19873561499E+04  0.00000000000E+00 0. -1.
    9900016    2    1    2    0    0 -0.15545219027E+03 -0.13794840290E+03 -0.10632753661E+04  0.13000476612E+04  0.71859186751E+03 0.  0.
         23    2    3    3    0    0  0.15343515057E+03  0.13270633220E+03 -0.21220016987E+03  0.30727562832E+03  0.90752871216E+02 0.  0.
        -15    1    4    4    0    0  0.55256251240E+02  0.57354327946E+00 -0.34994876926E+02  0.65408131483E+02  0.00000000000E+00 0. -1.
        -15    1    3    3    0    0 -0.17957206791E+02 -0.18777199841E+02 -0.16258145247E+02  0.30649172852E+02  0.00000000000E+00 0.  1.
         15    1    3    3    0    0 -0.28829766978E+01 -0.15318803442E+02  0.51583294722E+01  0.16419063813E+02  0.00000000000E+00 0. -1.
         15    1    4    4    0    0  0.98178899327E+02  0.13213278892E+03 -0.17720529294E+03  0.24186749684E+03  0.00000000000E+00 0.  1.
        -16    1    3    3    0    0 -0.26975226821E+02 -0.12275597358E+03 -0.34768867423E+03  0.36970813638E+03  0.00000000000E+00 0.  1.
         16    1    1    2    0    0  0.15545219027E+03  0.13794840290E+03 -0.79229156044E+03  0.81909771216E+03  0.00000000000E+00 0. -1.
    9900018    1    3    3    0    0 -0.26107193052E+03 -0.11380275824E+03 -0.49228670619E+03  0.57599565986E+03  0.91187600000E+02 0.  0.
<mgrwt>
<rscale>  0 0.10235470E+04</rscale>
<asrwt>0</asrwt>
<pdfrwt beam="1">  1        2 0.30574711E+00 0.10235470E+04</pdfrwt>
<pdfrwt beam="2">  1       -2 0.20275264E-01 0.10235470E+04</pdfrwt>
<totfact> 0.14172535E+02</totfact>
</mgrwt>
</event>
<event>
11    1  0.7501097E-013  0.1215463E+04  0.7818608E-02  0.9099428E-01
          1   -1    0    0  501    0  0.00000000000E+00  0.00000000000E+00  0.44676674150E+03  0.44676674150E+03  0.00000000000E+00 0. -1.
         -1   -1    0    0    0  501 -0.00000000000E+00 -0.00000000000E+00 -0.82669047884E+03  0.82669047884E+03  0.00000000000E+00 0.  1.
    9900016    2    1    2    0    0 -0.21185382138E+03 -0.25292168641E+03 -0.31034915593E+02  0.79327513921E+03  0.72074326873E+03 0.  0.
         23    2    3    3    0    0  0.27620649496E+02  0.51994335818E+02 -0.22767939780E+02  0.11061981902E+03  0.90840817053E+02 0.  0.
        -15    1    4    4    0    0  0.36065184381E+02 -0.15170823514E+02  0.22747376112E+00  0.39126757530E+02  0.00000000000E+00 0.  1.
        -15    1    3    3    0    0 -0.34678535603E+02  0.30599536725E+01  0.40736506894E+01  0.35050802815E+02  0.00000000000E+00 0.  1.
         15    1    3    3    0    0  0.97710837641E+01  0.60297901556E+01 -0.15457771718E+02  0.19255522681E+02  0.00000000000E+00 0. -1.
         15    1    4    4    0    0 -0.84445348853E+01  0.67165159332E+02 -0.22995413541E+02  0.71493061491E+02  0.00000000000E+00 0. -1.
        -16    1    1    2    0    0  0.21185382138E+03  0.25292168641E+03 -0.34888882175E+03  0.48018208113E+03  0.00000000000E+00 0.  1.
         16    1    3    3    0    0 -0.33129796869E+03 -0.75658394482E+02 -0.47702292733E+02  0.34315892156E+03  0.00000000000E+00 0. -1.
    9900018    1    3    3    0    0  0.11673094965E+03 -0.23834737158E+03  0.50819437948E+02  0.28519007313E+03  0.91187600000E+02 0.  0.
<mgrwt>
<rscale>  0 0.12154634E+04</rscale>
<asrwt>0</asrwt>
<pdfrwt beam="1">  1        1 0.68733346E-01 0.12154634E+04</pdfrwt>
<pdfrwt beam="2">  1       -1 0.12718315E+00 0.12154634E+04</pdfrwt>
<totfact> 0.27404343E+01</totfact>
</mgrwt>
</event>
<event>
12    1  0.7501097E-013  0.9235605E+03  0.7818608E-02  0.9396600E-01
         -3   -1    0    0    0  501 -0.00000000000E+00  0.00000000000E+00  0.17525046444E+04  0.17525046444E+04  0.00000000000E+00 0.  1.
          3   -1    0    0  501    0  0.00000000000E+00 -0.00000000000E+00 -0.12167785914E+03  0.12167785914E+03  0.00000000000E+00 0. -1.
    9900016    2    1    2    0    0  0.36954002280E+02  0.65028496969E+02  0.16388554470E+04  0.17989577529E+04  0.73811077541E+03 0.  0.
         23    2    3    3    0    0  0.24084771096E+02  0.18311587450E+02  0.13559585769E+03  0.15547137223E+03  0.69783382896E+02 0.  0.
         23    2    3    3    0    0 -0.10448131219E+03  0.12169702787E+03  0.46752149512E+03  0.50306199268E+03  0.93640316551E+02 0.  0.
        -15    1    5    5    0    0 -0.26790752881E+02  0.81002719842E+02  0.32239560573E+03  0.33349379553E+03  0.00000000000E+00 0.  1.
        -15    1    4    4    0    0  0.38563489323E+02  0.21848515046E+02  0.13319350735E+03  0.14037453729E+03  0.00000000000E+00 0.  1.
         15    1    4    4    0    0 -0.14478718227E+02 -0.35369275959E+01  0.24023503407E+01  0.15096834949E+02  0.00000000000E+00 0. -1.
         15    1    5    5    0    0 -0.77690559313E+02  0.40694308027E+02  0.14512588940E+03  0.16956819715E+03  0.00000000000E+00 0. -1.
        -16    1    3    3    0    0  0.25616106727E+03 -0.10037805882E+03  0.83220086752E+03  0.87650016028E+03  0.00000000000E+00 0.  1.
         16    1    1    2    0    0 -0.36954002280E+02 -0.65028496969E+02 -0.80286617384E+01  0.75224750660E+02  0.00000000000E+00 0. -1.
    9900018    1    3    3    0    0 -0.13881052389E+03  0.25397940466E+02  0.20353722666E+03  0.26392422768E+03  0.91187600000E+02 0.  0.
<mgrwt>
<rscale>  0 0.92356053E+03</rscale>
<asrwt>0</asrwt>
<pdfrwt beam="1">  1        3 0.18719672E-01 0.92356053E+03</pdfrwt>
<pdfrwt beam="2">  1       -3 0.26961608E+00 0.92356053E+03</pdfrwt>
<totfact> 0.38813518E+00</totfact>
</mgrwt>
</event>
<event>
12    1  0.7501097E-013  0.1096411E+04  0.7818608E-02  0.9999827E-01
         -1   -1    0    0    0  501 -0.00000000000E+00  0.00000000000E+00  0.27705145558E+03  0.27705145558E+03  0.00000000000E+00 0.  1.
          1   -1    0    0  501    0  0.00000000000E+00 -0.00000000000E+00 -0.12338990833E+04  0.12338990833E+04  0.00000000000E+00 0. -1.
         23    2    1    2    0    0 -0.28376079005E+02 -0.26404820376E+02 -0.53941835547E+02  0.90613754711E+02  0.61633712542E+02 0.  0.
    9900016    2    1    2    0    0  0.21627292824E+03 -0.25110935712E+03 -0.53085182231E+03  0.91959383498E+03  0.67380952454E+03 0.  0.
         23    2    4    4    0    0 -0.20575774815E+02 -0.14223183270E+03 -0.49122453673E+02  0.17745640889E+03  0.91785101491E+02 0.  0.
        -15    1    3    3    0    0 -0.78755579161E+01 -0.25974595314E+02  0.55355274454E+01  0.27701012225E+02  0.00000000000E+00 0.  1.
        -15    1    5    5    0    0  0.25093175611E+02 -0.10159676802E+03 -0.50747122052E+02  0.11630494887E+03  0.00000000000E+00 0. -1.
         15    1    5    5    0    0 -0.45668950426E+02 -0.40635064684E+02  0.16246683796E+01  0.61151460017E+02  0.00000000000E+00 0.  1.
         15    1    3    3    0    0 -0.20500521089E+02 -0.43022506271E+00 -0.59477362992E+02  0.62912742486E+02  0.00000000000E+00 0. -1.
        -16    1    4    4    0    0  0.29833006170E+03 -0.23540237652E+02 -0.69753572806E+02  0.30727923689E+03  0.00000000000E+00 0.  1.
         16    1    1    2    0    0 -0.18789684924E+03  0.27751417750E+03 -0.37205396982E+03  0.50074294915E+03  0.00000000000E+00 0. -1.
    9900018    1    4    4    0    0 -0.61481358647E+02 -0.85337286763E+02 -0.41197579583E+03  0.43485818921E+03  0.91187600000E+02 0.  0.
<mgrwt>
<rscale>  0 0.55657820E+03</rscale>
<asrwt>0</asrwt>
<pdfrwt beam="1">  1        1 0.18983063E+00 0.10964113E+04</pdfrwt>
<pdfrwt beam="2">  1       -1 0.42623301E-01 0.10964113E+04</pdfrwt>
<totfact> 0.54479684E+01</totfact>
</mgrwt>
</event>
<event>
12    1  0.7501097E-013  0.9405459E+03  0.7818608E-02  0.1006812E+00
          4   -1    0    0  501    0  0.00000000000E+00  0.00000000000E+00  0.10920731119E+04  0.10920731119E+04  0.00000000000E+00 0. -1.
         -4   -1    0    0    0  501 -0.00000000000E+00 -0.00000000000E+00 -0.24654457111E+03  0.24654457111E+03  0.00000000000E+00 0.  1.
         23    2    1    2    0    0 -0.40858917342E+02  0.38769430067E+02  0.44638586840E+02  0.10328318962E+03  0.74177449333E+02 0.  0.
    9900016    2    1    2    0    0 -0.14950590159E+03 -0.10248431652E+03  0.44944459988E+03  0.83059730960E+03  0.67456385362E+03 0.  0.
         23    2    4    4    0    0  0.19862069215E+03 -0.82029084494E+02  0.29459903488E+03  0.37554968916E+03  0.89833332460E+02 0.  0.
        -15    1    3    3    0    0 -0.59412943809E+02  0.25014845106E+02  0.47410353702E+02  0.80021134745E+02  0.00000000000E+00 0. -1.
        -15    1    5    5    0    0  0.12603280215E+03 -0.32199587342E+02  0.23695626627E+03  0.27031343431E+03  0.00000000000E+00 0. -1.
         15    1    3    3    0    0  0.18554026468E+02  0.13754584961E+02 -0.27717668614E+01  0.23262054878E+02  0.00000000000E+00 0.  1.
         15    1    5    5    0    0  0.72587890004E+02 -0.49829497152E+02  0.57642768604E+02  0.10523625485E+03  0.00000000000E+00 0.  1.
        -16    1    4    4    0    0 -0.28596853022E+03 -0.24465875584E+02  0.30320512213E+02  0.28861031306E+03  0.00000000000E+00 0.  1.
         16    1    1    2    0    0  0.19036481894E+03  0.63714886451E+02  0.35144535402E+03  0.40473718374E+03  0.00000000000E+00 0. -1.
    9900018    1    4    4    0    0 -0.62158063529E+02  0.40106435606E+01  0.12452505279E+03  0.16643730739E+03  0.91187600000E+02 0.  0.
<mgrwt>
<rscale>  0 0.52761546E+03</rscale>
<asrwt>0</asrwt>
<pdfrwt beam="1">  1        4 0.16801125E+00 0.94054590E+03</pdfrwt>
<pdfrwt beam="2">  1       -4 0.37929935E-01 0.94054590E+03</pdfrwt>
<totfact> 0.29417940E+00</totfact>
</mgrwt>
</event>
<event>
12    1  0.7501097E-013  0.1126996E+04  0.7818608E-02  0.9179272E-01
         -2   -1    0    0    0  501 -0.00000000000E+00  0.00000000000E+00  0.52478577854E+03  0.52478577854E+03  0.00000000000E+00 0.  1.
          2   -1    0    0  501    0  0.00000000000E+00 -0.00000000000E+00 -0.60506608586E+03  0.60506608586E+03  0.00000000000E+00 0. -1.
    9900016    2    1    2    0    0 -0.48062659538E+02  0.94894410477E+02 -0.34376810565E+03  0.84570262853E+03  0.76532441295E+03 0.  0.
         23    2    3    3    0    0 -0.59606592702E+02 -0.44305133587E+02 -0.69775119542E+02  0.12535771173E+03  0.73007518975E+02 0.  0.
         23    2    3    3    0    0  0.17687070604E+03 -0.82555765163E+02 -0.22502938859E+03  0.31463616707E+03  0.10128667672E+03 0.  0.
        -15    1    5    5    0    0  0.92775438631E+02  0.11753229548E+02 -0.98259255561E+02  0.13564771182E+03  0.00000000000E+00 0.  1.
        -15    1    4    4    0    0 -0.41133551234E+02 -0.50321082776E+02 -0.14257805482E+02  0.66539202175E+02  0.00000000000E+00 0.  1.
         15    1    4    4    0    0 -0.18473041468E+02  0.60159491889E+01 -0.55517314060E+02  0.58818509554E+02  0.00000000000E+00 0. -1.
         15    1    5    5    0    0  0.84095267406E+02 -0.94308994711E+02 -0.12677013303E+03  0.17898845525E+03  0.00000000000E+00 0. -1.
        -16    1    1    2    0    0  0.48062659538E+02 -0.94894410477E+02  0.26348779832E+03  0.28414923587E+03  0.00000000000E+00 0.  1.
         16    1    3    3    0    0 -0.21654453648E+03  0.15117906042E+03 -0.79674566611E+02  0.27585264391E+03  0.00000000000E+00 0. -1.
    9900018    1    3    3    0    0  0.51217763603E+02  0.70576248805E+02  0.30710969097E+02  0.12985610583E+03  0.91187600000E+02 0.  0.
<mgrwt>
<rscale>  0 0.11269961E+04</rscale>
<asrwt>0</asrwt>
<pdfrwt beam="1">  1        2 0.93087089E-01 0.11269961E+04</pdfrwt>
<pdfrwt beam="2">  1       -2 0.80736274E-01 0.11269961E+04</pdfrwt>
<totfact> 0.65932636E+01</totfact>
</mgrwt>
</event>
<event>
12    1  0.7501097E-013  0.1296277E+04  0.7818608E-02  0.9032523E-01
         -1   -1    0    0    0  501 -0.00000000000E+00  0.00000000000E+00  0.64367589782E+03  0.64367589782E+03  0.00000000000E+00 0.  1.
          1   -1    0    0  501    0  0.00000000000E+00 -0.00000000000E+00 -0.65263225698E+03  0.65263225698E+03  0.00000000000E+00 0. -1.
    9900016    2    1    2    0    0  0.19977162210E+03 -0.10904040882E+03  0.35010905971E+03  0.87118877536E+03  0.76458813545E+03 0.  0.
         23    2    3    3    0    0 -0.97893224502E+01  0.46956781053E+02  0.15919148808E+02  0.90738918617E+02  0.75361541466E+02 0.  0.
         23    2    3    3    0    0  0.23137437171E+03 -0.17845965967E+03  0.44848548018E+03  0.54283410215E+03  0.90264536269E+02 0.  0.
        -15    1    5    5    0    0  0.15802341164E+03 -0.16171319444E+03  0.29295536016E+03  0.37006134482E+03  0.00000000000E+00 0.  1.
        -15    1    4    4    0    0 -0.13273232512E+02  0.45229782821E+00  0.37184052845E+02  0.39484643352E+02  0.00000000000E+00 0.  1.
         15    1    4    4    0    0  0.34839100613E+01  0.46504483225E+02 -0.21264904037E+02  0.51254275265E+02  0.00000000000E+00 0. -1.
         15    1    5    5    0    0  0.73350960066E+02 -0.16746465225E+02  0.15553012002E+03  0.17277275733E+03  0.00000000000E+00 0. -1.
        -16    1    3    3    0    0  0.23462346128E+02  0.10419632096E+02 -0.13122147779E+03  0.13370911208E+03  0.00000000000E+00 0.  1.
         16    1    1    2    0    0 -0.19977162210E+03  0.10904040882E+03 -0.35906541886E+03  0.42511937944E+03  0.00000000000E+00 0. -1.
    9900018    1    3    3    0    0 -0.45275773287E+02  0.12042837697E+02  0.16925908509E+02  0.10390664252E+03  0.91187600000E+02 0.  0.
<mgrwt>
<rscale>  0 0.12962772E+04</rscale>
<asrwt>0</asrwt>
<pdfrwt beam="1">  1        1 0.10040496E+00 0.12962772E+04</pdfrwt>
<pdfrwt beam="2">  1       -1 0.99027061E-01 0.12962772E+04</pdfrwt>
<totfact> 0.29014335E+01</totfact>
</mgrwt>
</event>
<event>
11    1  0.7501097E-013  0.1435150E+04  0.7818608E-02  0.8928761E-01
         -2   -1    0    0    0  501 -0.00000000000E+00  0.00000000000E+00  0.81261270830E+03  0.81261270830E+03  0.00000000000E+00 0.  1.
          2   -1    0    0  501    0  0.00000000000E+00 -0.00000000000E+00 -0.63365185390E+03  0.63365185390E+03  0.00000000000E+00 0. -1.
    9900016    2    1    2    0    0 -0.34442755050E+03  0.41212490008E+03  0.29657489864E+02  0.88879818162E+03  0.70753471302E+03 0.  0.
         23    2    3    3    0    0 -0.85819089509E+02 -0.72406201969E+02 -0.18680255025E+03  0.23261490181E+03  0.81282996727E+02 0.  0.
        -15    1    4    4    0    0 -0.58068994988E+02 -0.38204235210E+02 -0.17302747527E+03  0.18646736702E+03  0.00000000000E+00 0.  1.
        -15    1    3    3    0    0 -0.18757756244E+02  0.46423623248E+01  0.15810248069E+02  0.24967356513E+02  0.00000000000E+00 0.  1.
         15    1    3    3    0    0 -0.33300895219E+02  0.40118422875E+02  0.16007388103E+02  0.54540571598E+02  0.00000000000E+00 0. -1.
         15    1    4    4    0    0 -0.27750094520E+02 -0.34201966759E+02 -0.13775074978E+02  0.46147534785E+02  0.00000000000E+00 0. -1.
        -16    1    1    2    0    0  0.34442755050E+03 -0.41212490008E+03  0.14930336454E+03  0.55746638058E+03  0.00000000000E+00 0.  1.
         16    1    3    3    0    0  0.49710933648E+02  0.46752753502E+02  0.26965669890E+02  0.73376728169E+02  0.00000000000E+00 0. -1.
    9900018    1    3    3    0    0 -0.25626074317E+03  0.39301756335E+03  0.15767673405E+03  0.50329862353E+03  0.91187600000E+02 0.  0.
<mgrwt>
<rscale>  0 0.14351495E+04</rscale>
<asrwt>0</asrwt>
<pdfrwt beam="1">  1        2 0.97484900E-01 0.14351495E+04</pdfrwt>
<pdfrwt beam="2">  1       -2 0.12501734E+00 0.14351495E+04</pdfrwt>
<totfact> 0.21585117E+01</totfact>
</mgrwt>
</event>
<event>
12    1  0.7501098E-013  0.1211353E+04  0.7818608E-02  0.9849939E-01
         -2   -1    0    0    0  501 -0.00000000000E+00  0.00000000000E+00  0.76229408252E+03  0.76229408252E+03  0.00000000000E+00 0.  1.
          2   -1    0    0  501    0  0.00000000000E+00 -0.00000000000E+00 -0.55467625952E+03  0.55467625952E+03  0.00000000000E+00 0. -1.
         23    2    1    2    0    0  0.59410181183E+02  0.11075255832E+02  0.32212556656E+02  0.92983495103E+02  0.62897143301E+02 0.  0.
    9900016    2    1    2    0    0  0.16409007982E+03 -0.14580955222E+03  0.45238995899E+03  0.84342644798E+03  0.67714512355E+03 0.  0.
         23    2    4    4    0    0 -0.88617562839E+02 -0.17568380020E+03  0.22302543237E+02  0.21789509742E+03  0.90901044813E+02 0.  0.
        -15    1    3    3    0    0  0.42844061172E+02 -0.14886107722E+02 -0.38984272230E+01  0.45523702789E+02  0.00000000000E+00 0. -1.
        -15    1    5    5    0    0 -0.64203768821E+02 -0.14501077081E+03  0.53948459343E+02  0.16751323484E+03  0.00000000000E+00 0. -1.
         15    1    3    3    0    0  0.16566120010E+02  0.25961363554E+02  0.36110983879E+02  0.47459792314E+02  0.00000000000E+00 0.  1.
         15    1    5    5    0    0 -0.24413794018E+02 -0.30673029383E+02 -0.31645916107E+02  0.50381862571E+02  0.00000000000E+00 0.  1.
        -16    1    4    4    0    0  0.22347781552E+03 -0.13609572056E+03  0.22817860391E+03  0.34717409820E+03  0.00000000000E+00 0.  1.
         16    1    1    2    0    0 -0.22350026100E+03  0.13473429639E+03 -0.27698469264E+03  0.38056039895E+03  0.00000000000E+00 0. -1.
    9900018    1    4    4    0    0  0.29229827139E+02  0.16596996853E+03  0.20190881184E+03  0.27835725236E+03  0.91187600000E+02 0.  0.
<mgrwt>
<rscale>  0 0.62750030E+03</rscale>
<asrwt>0</asrwt>
<pdfrwt beam="1">  1        2 0.85334808E-01 0.12113533E+04</pdfrwt>
<pdfrwt beam="2">  1       -2 0.11727601E+00 0.12113533E+04</pdfrwt>
<totfact> 0.30143717E+01</totfact>
</mgrwt>
</event>
<event>
11    1  0.7501097E-013  0.1176597E+04  0.7818608E-02  0.9133592E-01
         -1   -1    0    0    0  501 -0.00000000000E+00  0.00000000000E+00  0.22632880465E+03  0.22632880465E+03  0.00000000000E+00 0.  1.
          1   -1    0    0  501    0  0.00000000000E+00 -0.00000000000E+00 -0.15291687674E+04  0.15291687674E+04  0.00000000000E+00 0. -1.
    9900016    2    1    2    0    0  0.77741892124E+02  0.32505326479E+03 -0.64731389823E+03  0.10196865583E+04  0.71347177065E+03 0.  0.
         23    2    3    3    0    0 -0.11180070781E+03  0.62430231250E+02 -0.17684140787E+03  0.23668302792E+03  0.91373082076E+02 0.  0.
        -15    1    3    3    0    0 -0.11320905886E+02  0.28892488203E+02 -0.12179308251E+02  0.33335781589E+02  0.00000000000E+00 0.  1.
        -15    1    4    4    0    0 -0.25106078259E+02  0.57119936145E+02 -0.11230860902E+03  0.12847655790E+03  0.00000000000E+00 0. -1.
         15    1    4    4    0    0 -0.86694629548E+02  0.53102951053E+01 -0.64532798860E+02  0.10820647002E+03  0.00000000000E+00 0. -1.
         15    1    3    3    0    0  0.36562407392E+02  0.24864774940E+02 -0.14027894292E+02  0.46388020926E+02  0.00000000000E+00 0.  1.
        -16    1    3    3    0    0  0.14957241566E+03 -0.11322762427E+03 -0.26080804879E+03  0.32126817573E+03  0.00000000000E+00 0.  1.
         16    1    1    2    0    0 -0.77741892124E+02 -0.32505326479E+03 -0.65552606451E+03  0.73581101378E+03  0.00000000000E+00 0. -1.
    9900018    1    3    3    0    0  0.14728682769E+02  0.32209339467E+03 -0.18345723901E+03  0.38201155209E+03  0.91187600000E+02 0.  0.
<mgrwt>
<rscale>  0 0.11765967E+04</rscale>
<asrwt>0</asrwt>
<pdfrwt beam="1">  1        1 0.23525673E+00 0.11765967E+04</pdfrwt>
<pdfrwt beam="2">  1       -1 0.34819817E-01 0.11765967E+04</pdfrwt>
<totfact> 0.48473648E+01</totfact>
</mgrwt>
</event>
<event>
11    1  0.7501097E-013  0.1249875E+04  0.7818608E-02  0.9070288E-01
          1   -1    0    0  501    0  0.00000000000E+00  0.00000000000E+00  0.14085166842E+04  0.14085166842E+04  0.00000000000E+00 0. -1.
         -1   -1    0    0    0  501 -0.00000000000E+00 -0.00000000000E+00 -0.27727515173E+03  0.27727515173E+03  0.00000000000E+00 0.  1.
    9900016    2    1    2    0    0  0.92280312768E+02 -0.36769813302E+03  0.10022293700E+04  0.12853399522E+04  0.70987147392E+03 0.  0.
         23    2    3    3    0    0  0.56313045524E+02 -0.30114212090E+02 -0.23125863432E+02  0.11171288972E+03  0.88695768244E+02 0.  0.
        -15    1    4    4    0    0  0.79928535254E+01  0.29884110076E+02 -0.14597203260E+02  0.34205614825E+02  0.00000000000E+00 0.  1.
        -15    1    3    3    0    0  0.18936169437E+02 -0.49271315158E+02  0.38801194079E+02  0.65511630054E+02  0.00000000000E+00 0.  1.
         15    1    4    4    0    0  0.48320191998E+02 -0.59998322166E+02 -0.85286601727E+01  0.77507274896E+02  0.00000000000E+00 0. -1.
         15    1    3    3    0    0 -0.15429317288E+02 -0.82120889699E+01  0.12505949121E+02  0.21491882203E+02  0.00000000000E+00 0. -1.
        -16    1    1    2    0    0 -0.92280312768E+02  0.36769813302E+03  0.12901216253E+03  0.40045188379E+03  0.00000000000E+00 0.  1.
         16    1    3    3    0    0 -0.71221055044E+02 -0.32127850507E+03  0.76450973842E+03  0.83232653246E+03  0.00000000000E+00 0. -1.
    9900018    1    3    3    0    0  0.10368147014E+03  0.41177988270E+02  0.20953835178E+03  0.25429701774E+03  0.91187600000E+02 0.  0.
<mgrwt>
<rscale>  0 0.12498747E+04</rscale>
<asrwt>0</asrwt>
<pdfrwt beam="1">  1        1 0.21669487E+00 0.12498747E+04</pdfrwt>
<pdfrwt beam="2">  1       -1 0.42657716E-01 0.12498747E+04</pdfrwt>
<totfact> 0.40415853E+01</totfact>
</mgrwt>
</event>
<event>
12    1  0.7501097E-013  0.1089713E+04  0.7818608E-02  0.9215277E-01
         -1   -1    0    0    0  501 -0.00000000000E+00  0.00000000000E+00  0.37264686734E+03  0.37264686734E+03  0.00000000000E+00 0.  1.
          1   -1    0    0  501    0  0.00000000000E+00 -0.00000000000E+00 -0.79664792348E+03  0.79664792348E+03  0.00000000000E+00 0. -1.
         23    2    1    2    0    0  0.30041700203E+02 -0.61496319033E+02  0.43805614160E+02  0.10292451018E+03  0.63168203696E+02 0.  0.
    9900016    2    1    2    0    0 -0.43246376847E+02  0.14074749942E+02 -0.73072927825E+02  0.66857900855E+03  0.66301575411E+03 0.  0.
         23    2    4    4    0    0  0.11699335431E+03 -0.17008925535E+02  0.63507987268E+02  0.16269911573E+03  0.91983636101E+02 0.  0.
        -15    1    5    5    0    0  0.88872708927E+01 -0.22184908851E+02 -0.15688333833E+02  0.28588067145E+02  0.00000000000E+00 0.  1.
        -15    1    3    3    0    0  0.43750107984E+02 -0.63054702716E+02  0.45183686490E+02  0.89059154544E+02  0.00000000000E+00 0.  1.
         15    1    3    3    0    0 -0.13708407781E+02  0.15583836828E+01 -0.13780723297E+01  0.13865355637E+02  0.00000000000E+00 0. -1.
         15    1    5    5    0    0  0.10810608342E+03  0.51759833161E+01  0.79196321101E+02  0.13411104858E+03  0.00000000000E+00 0. -1.
        -16    1    4    4    0    0 -0.29184242823E+03  0.69107754852E+02 -0.13201482788E+02  0.30020353736E+03  0.00000000000E+00 0.  1.
         16    1    1    2    0    0  0.13204676644E+02  0.47421569091E+02 -0.39473374247E+03  0.39779127209E+03  0.00000000000E+00 0. -1.
    9900018    1    4    4    0    0  0.13160269707E+03 -0.38024079375E+02 -0.12337943231E+03  0.20567635547E+03  0.91187600000E+02 0.  0.
<mgrwt>
<rscale>  0 0.10897125E+04</rscale>
<asrwt>0</asrwt>
<pdfrwt beam="1">  1        1 0.12256122E+00 0.10897125E+04</pdfrwt>
<pdfrwt beam="2">  1       -1 0.57330287E-01 0.10897125E+04</pdfrwt>
<totfact> 0.68386001E+01</totfact>
</mgrwt>
</event>
<event>
12    1  0.7501097E-013  0.9031437E+03  0.7818608E-02  0.9421660E-01
         -1   -1    0    0    0  501 -0.00000000000E+00  0.00000000000E+00  0.18644883329E+03  0.18644883329E+03  0.00000000000E+00 0.  1.
          1   -1    0    0  501    0  0.00000000000E+00 -0.00000000000E+00 -0.10936895127E+04  0.10936895127E+04  0.00000000000E+00 0. -1.
    9900016    2    1    2    0    0 -0.72893413278E+02  0.10658234248E+03 -0.64582644026E+03  0.98857248747E+03  0.73723166415E+03 0.  0.
         23    2    3    3    0    0 -0.36780064022E+02  0.17848455914E+02 -0.55669277472E+02  0.10317514775E+03  0.76646605743E+02 0.  0.
         23    2    3    3    0    0 -0.17532621543E+02  0.27756460805E+03 -0.14171387845E+03  0.32514436897E+03  0.91030395280E+02 0.  0.
        -15    1    4    4    0    0 -0.27641624772E+02 -0.26863722591E+02 -0.12944932868E+02  0.40660672627E+02  0.00000000000E+00 0.  1.
        -15    1    5    5    0    0  0.22630604791E+02  0.22320206852E+03 -0.11821328862E+03  0.25358566456E+03  0.00000000000E+00 0. -1.
         15    1    4    4    0    0 -0.91384392494E+01  0.44712178505E+02 -0.42724344604E+02  0.62514475127E+02  0.00000000000E+00 0. -1.
         15    1    5    5    0    0 -0.40163226334E+02  0.54362539535E+02 -0.23500589831E+02  0.71558704408E+02  0.00000000000E+00 0.  1.
        -16    1    3    3    0    0  0.78399897769E+02 -0.15452835647E+03 -0.14072122878E+03  0.22322191011E+03  0.00000000000E+00 0.  1.
         16    1    1    2    0    0  0.72893413278E+02 -0.10658234248E+03 -0.26141423920E+03  0.29156585857E+03  0.00000000000E+00 0. -1.
    9900018    1    3    3    0    0 -0.96980625483E+02 -0.34302365019E+02 -0.30772205555E+03  0.33703106063E+03  0.91187600000E+02 0.  0.
<mgrwt>
<rscale>  0 0.90314370E+03</rscale>
<asrwt>0</asrwt>
<pdfrwt beam="1">  1        1 0.16825993E+00 0.90314370E+03</pdfrwt>
<pdfrwt beam="2">  1       -1 0.28684436E-01 0.90314370E+03</pdfrwt>
<totfact> 0.14236724E+02</totfact>
</mgrwt>
</event>
<event>
12    1  0.7501097E-013  0.1002245E+04  0.7818608E-02  0.1007565E+00
          2   -1    0    0  501    0  0.00000000000E+00  0.00000000000E+00  0.10433083320E+04  0.10433083320E+04  0.00000000000E+00 0. -1.
         -2   -1    0    0    0  501 -0.00000000000E+00 -0.00000000000E+00 -0.27830616229E+03  0.27830616229E+03  0.00000000000E+00 0.  1.
         23    2    1    2    0    0 -0.75983915707E+01  0.39691111669E+02  0.60931773703E+02  0.96783947059E+02  0.63413968979E+02 0.  0.
    9900016    2    1    2    0    0  0.18213042402E+03  0.13958346054E+03  0.63467944928E+03  0.96518481537E+03  0.69000629757E+03 0.  0.
         23    2    4    4    0    0  0.10728962004E+03 -0.13257149741E+03  0.13285844795E+03  0.23460944648E+03  0.91126070321E+02 0.  0.
        -15    1    5    5    0    0  0.74259537508E+02 -0.21239677624E+02  0.53061593180E+02  0.93707713062E+02  0.00000000000E+00 0.  1.
        -15    1    3    3    0    0 -0.16608385300E+02  0.25756225394E+01 -0.75084903872E+01  0.18407871187E+02  0.00000000000E+00 0.  1.
         15    1    5    5    0    0  0.33030082531E+02 -0.11133181979E+03  0.79796854766E+02  0.14090173342E+03  0.00000000000E+00 0. -1.
         15    1    3    3    0    0  0.90099937293E+01  0.37115489130E+02  0.68440264090E+02  0.78376075872E+02  0.00000000000E+00 0. -1.
        -16    1    1    2    0    0 -0.17453203245E+03 -0.17927457221E+03  0.69390946741E+02  0.25964573187E+03  0.00000000000E+00 0.  1.
         16    1    4    4    0    0 -0.18953058158E+01  0.30894420229E+03  0.12435858653E+03  0.33303929251E+03  0.00000000000E+00 0. -1.
    9900018    1    4    4    0    0  0.76736109793E+02 -0.36789244338E+02  0.37746241480E+03  0.39753607638E+03  0.91187600000E+02 0.  0.
<mgrwt>
<rscale>  0 0.52454069E+03</rscale>
<asrwt>0</asrwt>
<pdfrwt beam="1">  1        2 0.16050897E+00 0.10022449E+04</pdfrwt>
<pdfrwt beam="2">  1       -2 0.42816333E-01 0.10022449E+04</pdfrwt>
<totfact> 0.12191842E+02</totfact>
</mgrwt>
</event>
<event>
11    1  0.7501097E-013  0.8400362E+03  0.7818608E-02  0.9503808E-01
         -1   -1    0    0    0  501 -0.00000000000E+00  0.00000000000E+00  0.43454206598E+03  0.43454206598E+03  0.00000000000E+00 0.  1.
          1   -1    0    0  501    0  0.00000000000E+00 -0.00000000000E+00 -0.40597959369E+03  0.40597959369E+03  0.00000000000E+00 0. -1.
    9900016    2    1    2    0    0 -0.10882423374E+03  0.44415993769E+02 -0.11965968684E+02  0.71619125760E+03  0.70637896253E+03 0.  0.
         23    2    3    3    0    0 -0.39967187511E+02  0.44638631544E+02 -0.18181929472E+03  0.21238381558E+03  0.91970895850E+02 0.  0.
        -15    1    4    4    0    0 -0.68345213763E+02  0.28533803630E+02 -0.14737445755E+03  0.16493779716E+03  0.00000000000E+00 0. -1.
        -15    1    3    3    0    0 -0.61500544417E+01  0.93309884307E+01  0.39938729183E+01  0.11867667657E+02  0.00000000000E+00 0.  1.
         15    1    4    4    0    0  0.28378026253E+02  0.16104827914E+02 -0.34444837176E+02  0.47446018423E+02  0.00000000000E+00 0.  1.
         15    1    3    3    0    0  0.15513662779E+02  0.30069398218E+02 -0.22076078367E+02  0.40400441558E+02  0.00000000000E+00 0. -1.
        -16    1    1    2    0    0  0.10882423374E+03 -0.44415993769E+02  0.40528440968E+02  0.12433040207E+03  0.00000000000E+00 0.  1.
         16    1    3    3    0    0  0.10597967925E+03 -0.11044205078E+03  0.17680951732E+03  0.23386052341E+03  0.00000000000E+00 0. -1.
    9900018    1    3    3    0    0 -0.18420033382E+03  0.70819026361E+02  0.11126014170E+02  0.21767880939E+03  0.91187600000E+02 0.  0.
<mgrwt>
<rscale>  0 0.84003622E+03</rscale>
<asrwt>0</asrwt>
<pdfrwt beam="1">  1        1 0.62458399E-01 0.84003622E+03</pdfrwt>
<pdfrwt beam="2">  1       -1 0.66852625E-01 0.84003622E+03</pdfrwt>
<totfact> 0.13478565E+02</totfact>
</mgrwt>
</event>
<event>
11    1  0.7501097E-013  0.1212166E+04  0.7818608E-02  0.9102274E-01
          2   -1    0    0  501    0  0.00000000000E+00  0.00000000000E+00  0.13534347882E+04  0.13534347882E+04  0.00000000000E+00 0. -1.
         -2   -1    0    0    0  501 -0.00000000000E+00 -0.00000000000E+00 -0.27141076743E+03  0.27141076743E+03  0.00000000000E+00 0.  1.
    9900016    2    1    2    0    0 -0.26728405334E+03  0.11878968714E+03  0.38179869345E+03  0.86598636977E+03  0.72014609307E+03 0.  0.
         23    2    3    3    0    0  0.94513542545E+02  0.35618054047E+02 -0.57459351355E+02  0.14800143848E+03  0.91659114312E+02 0.  0.
        -15    1    4    4    0    0  0.21174169400E+02  0.54134558686E+02 -0.39435852226E+02  0.70243023388E+02  0.00000000000E+00 0.  1.
        -15    1    3    3    0    0 -0.19934810718E+02  0.93255126813E+01  0.60150418044E+01  0.22815402540E+02  0.00000000000E+00 0.  1.
         15    1    3    3    0    0 -0.17052637522E+02 -0.30875954017E+02  0.17736704327E+02  0.39480471923E+02  0.00000000000E+00 0. -1.
         15    1    4    4    0    0  0.73339373145E+02 -0.18516504639E+02 -0.18023499129E+02  0.77758415096E+02  0.00000000000E+00 0. -1.
        -16    1    3    3    0    0 -0.67576450500E+02 -0.11114835965E+03  0.22260773291E+03  0.25782695217E+03  0.00000000000E+00 0.  1.
         16    1    1    2    0    0  0.26728405334E+03 -0.11878968714E+03  0.70022532731E+03  0.75885918584E+03  0.00000000000E+00 0. -1.
    9900018    1    3    3    0    0 -0.25723369714E+03  0.21587043407E+03  0.19289856577E+03  0.39786210466E+03  0.91187600000E+02 0.  0.
<mgrwt>
<rscale>  0 0.12121663E+04</rscale>
<asrwt>0</asrwt>
<pdfrwt beam="1">  1        2 0.20822073E+00 0.12121663E+04</pdfrwt>
<pdfrwt beam="2">  1       -2 0.41755503E-01 0.12121663E+04</pdfrwt>
<totfact> 0.82429838E+01</totfact>
</mgrwt>
</event>
<event>
12    1  0.7501097E-013  0.1146798E+04  0.7818608E-02  0.9926475E-01
         -1   -1    0    0    0  501 -0.00000000000E+00  0.00000000000E+00  0.33219208904E+03  0.33219208904E+03  0.00000000000E+00 0.  1.
          1   -1    0    0  501    0  0.00000000000E+00 -0.00000000000E+00 -0.11388312937E+04  0.11388312937E+04  0.00000000000E+00 0. -1.
         23    2    1    2    0    0 -0.49106325103E+01 -0.15491403754E+02 -0.28827682101E+02  0.85333520562E+02  0.78655429401E+02 0.  0.
    9900016    2    1    2    0    0 -0.21564031873E+03  0.13326989425E+03 -0.19481283232E+03  0.75133825011E+03  0.67992316820E+03 0.  0.
         23    2    4    4    0    0 -0.19129689774E+03  0.18382536255E+03 -0.40475514971E+03  0.49197770394E+03  0.88481992263E+02 0.  0.
        -15    1    5    5    0    0 -0.17428029115E+03  0.19323971156E+03 -0.37621943932E+03  0.45744537655E+03  0.00000000000E+00 0. -1.
        -15    1    3    3    0    0 -0.21334097718E+02  0.18543816322E+02  0.11090347370E+02  0.30364661270E+02  0.00000000000E+00 0.  1.
         15    1    5    5    0    0 -0.17016606595E+02 -0.94143490119E+01 -0.28535710388E+02  0.34532327386E+02  0.00000000000E+00 0.  1.
         15    1    3    3    0    0  0.16423465208E+02 -0.34035220076E+02 -0.39918029471E+02  0.54968859292E+02  0.00000000000E+00 0. -1.
        -16    1    4    4    0    0 -0.33597087335E+02 -0.21753752925E+02  0.12454554860E+03  0.13081889665E+03  0.00000000000E+00 0.  1.
         16    1    1    2    0    0  0.22055095124E+03 -0.11777849050E+03 -0.58299869028E+03  0.63435161211E+03  0.00000000000E+00 0. -1.
    9900018    1    4    4    0    0  0.92536663429E+01 -0.28801715377E+02  0.85396768779E+02  0.12854164952E+03  0.91187600000E+02 0.  0.
<mgrwt>
<rscale>  0 0.58995200E+03</rscale>
<asrwt>0</asrwt>
<pdfrwt beam="1">  1        1 0.17520481E+00 0.11467980E+04</pdfrwt>
<pdfrwt beam="2">  1       -1 0.51106476E-01 0.11467980E+04</pdfrwt>
<totfact> 0.45307198E+01</totfact>
</mgrwt>
</event>
<event>
12    1  0.7501097E-013  0.8152597E+03  0.7818608E-02  0.1025290E+00
         -2   -1    0    0    0  501 -0.00000000000E+00  0.00000000000E+00  0.50916912099E+03  0.50916912099E+03  0.00000000000E+00 0.  1.
          2   -1    0    0  501    0  0.00000000000E+00 -0.00000000000E+00 -0.40360188672E+03  0.40360188672E+03  0.00000000000E+00 0. -1.
         23    2    1    2    0    0 -0.10374475536E+02 -0.35847532584E+02  0.50231526914E+02  0.95635470704E+02  0.72320547742E+02 0.  0.
    9900016    2    1    2    0    0  0.64947090184E+02 -0.88974135668E+02  0.18382417322E+02  0.67598255341E+03  0.66669331623E+03 0.  0.
         23    2    4    4    0    0 -0.21845711710E+03 -0.14524130169E+02 -0.89032217480E+02  0.25334732957E+03  0.91234156326E+02 0.  0.
        -15    1    5    5    0    0 -0.15087594274E+03  0.44409600585E+01 -0.10172123427E+03  0.18201780607E+03  0.00000000000E+00 0. -1.
        -15    1    3    3    0    0  0.18253267163E+02 -0.20320485851E+02  0.56236390914E+02  0.62519081650E+02  0.00000000000E+00 0.  1.
         15    1    5    5    0    0 -0.67581174363E+02 -0.18965090228E+02  0.12689016794E+02  0.71329523501E+02  0.00000000000E+00 0.  1.
         15    1    3    3    0    0 -0.28627742700E+02 -0.15527046733E+02 -0.60048640000E+01  0.33116389054E+02  0.00000000000E+00 0. -1.
        -16    1    1    2    0    0 -0.54572614647E+02  0.12482166825E+03  0.36953290033E+02  0.14115298360E+03  0.00000000000E+00 0.  1.
         16    1    4    4    0    0  0.19269724913E+03 -0.58620108940E+01  0.17645398843E+03  0.26134766696E+03  0.00000000000E+00 0. -1.
    9900018    1    4    4    0    0  0.90706958154E+02 -0.68587994604E+02 -0.69039353628E+02  0.16128755688E+03  0.91187600000E+02 0.  0.
<mgrwt>
<rscale>  0 0.45825090E+03</rscale>
<asrwt>0</asrwt>
<pdfrwt beam="1">  1        2 0.62092598E-01 0.81525974E+03</pdfrwt>
<pdfrwt beam="2">  1       -2 0.78333711E-01 0.81525974E+03</pdfrwt>
<totfact> 0.11492608E+02</totfact>
</mgrwt>
</event>
