<event>
13    1  0.1990759E-010  0.4331356E+04  0.7818608E-02  0.7940845E-01
          2   -1    0    0  501    0  0.00000000000E+00  0.00000000000E+00  0.29946912457E+04  0.29946912457E+04  0.00000000000E+00 0. -1.
         -2   -1    0    0    0  501 -0.00000000000E+00 -0.00000000000E+00 -0.15661585228E+04  0.15661585228E+04  0.00000000000E+00 0.  1.
    9900016    2    1    2    0    0 -0.52558883763E+02 -0.56775207309E+03  0.14746878329E+04  0.23819393489E+04  0.17815235066E+04 0.  0.
         23    2    3    3    0    0 -0.40067604958E+03  0.23949467912E+03 -0.17584347402E+03  0.51188948987E+03  0.11493878566E+03 0.  0.
    9900016    2    1    2    0    0 -0.29756582298E+02  0.71211155425E+03 -0.11979784990E+03  0.19755537691E+04  0.18386062248E+04 0.  0.
        -24    2    5    5    0    0  0.13502207835E+03  0.91697869926E+03  0.66800783603E+03  0.11450356460E+04  0.76100361699E+02 0.  0.
        -15    1    5    5    0    0 -0.16477866065E+03 -0.20486714501E+03 -0.78780568593E+03  0.83051812315E+03  0.00000000000E+00 0.  1.
        -15    1    4    4    0    0 -0.83957668724E+02  0.49060424899E+02  0.10856657430E+02  0.97845196302E+02  0.00000000000E+00 0. -1.
         15    1    6    6    0    0  0.58057899862E+02  0.63423580879E+03  0.45112033732E+03  0.78047122922E+03  0.00000000000E+00 0. -1.
         15    1    4    4    0    0 -0.31671838086E+03  0.19043425422E+03 -0.18670013145E+03  0.41404429357E+03  0.00000000000E+00 0.  1.
        -16    1    6    6    0    0  0.76964178488E+02  0.28274289047E+03  0.21688749871E+03  0.36456441677E+03  0.00000000000E+00 0.  1.
         16    1    3    3    0    0  0.34811716582E+03 -0.80724675221E+03  0.16505313070E+04  0.18700498590E+04  0.00000000000E+00 0. -1.
    9900018    1    1    2    0    0  0.82315466061E+02 -0.14435948117E+03  0.73642739908E+02  0.20335665047E+03  0.91187600000E+02 0.  0.
<mgrwt>
<rscale>  0 0.43313560E+04</rscale>
<asrwt>0</asrwt>
<pdfrwt beam="1">  1        2 0.46072173E+00 0.43313560E+04</pdfrwt>
<pdfrwt beam="2">  1       -2 0.24094746E+00 0.43313560E+04</pdfrwt>
<totfact> 0.98434358E-02</totfact>
</mgrwt>
</event>
<event>
11    1  0.2023243E-010  0.4096406E+04  0.7818608E-02  0.8480378E-01
         -3   -1    0    0    0  501 -0.00000000000E+00  0.00000000000E+00  0.26266988967E+04  0.26266988967E+04  0.00000000000E+00 0.  1.
          3   -1    0    0  501    0  0.00000000000E+00 -0.00000000000E+00 -0.19634128839E+04  0.19634128839E+04  0.00000000000E+00 0. -1.
    9900016    2    1    2    0    0 -0.63384975688E+02 -0.10170508268E+04  0.27159682394E+03  0.21292923525E+04  0.18497867575E+04 0.  0.
         24    2    3    3    0    0 -0.74532959195E+03 -0.67598643795E+03  0.72431958071E+03  0.12425391335E+04  0.82406178387E+02 0.  0.
        -15    1    4    4    0    0 -0.50106592464E+03 -0.48553127656E+03  0.53829584582E+03  0.88123214818E+03  0.00000000000E+00 0.  1.
        -15    1    1    2    0    0  0.14955700570E+02  0.10271385909E+03 -0.19893126504E+03  0.22438239244E+03  0.00000000000E+00 0.  1.
         15    1    1    2    0    0 -0.17790629282E+03 -0.73663200459E+01  0.80464708587E+02  0.19539570370E+03  0.00000000000E+00 0. -1.
         15    1    3    3    0    0  0.68194461627E+03 -0.34106438884E+03 -0.45272275678E+03  0.88675321905E+03  0.00000000000E+00 0. -1.
        -16    1    1    2    0    0  0.68575044897E+03  0.56246937125E+03  0.95394210978E+03  0.13025478957E+04  0.00000000000E+00 0.  1.
         16    1    4    4    0    0 -0.24426366731E+03 -0.19045516139E+03  0.18602373489E+03  0.36130698528E+03  0.00000000000E+00 0. -1.
    9900018    1    1    2    0    0 -0.45941488103E+03  0.35923391650E+03 -0.44378636443E+03  0.73849343621E+03  0.91187600000E+02 0.  0.
<mgrwt>
<rscale>  0 0.22937798E+04</rscale>
<asrwt>0</asrwt>
<pdfrwt beam="1">  1        3 0.30206352E+00 0.40964065E+04</pdfrwt>
<pdfrwt beam="2">  1       -3 0.40410752E+00 0.40964065E+04</pdfrwt>
<totfact> 0.74637195E-04</totfact>
</mgrwt>
</event>
<event>
13    1  0.1990759E-010  0.5345923E+04  0.7818608E-02  0.7777253E-01
          2   -1    0    0  501    0  0.00000000000E+00  0.00000000000E+00  0.20507948010E+04  0.20507948010E+04  0.00000000000E+00 0. -1.
         -2   -1    0    0    0  501 -0.00000000000E+00 -0.00000000000E+00 -0.34838798147E+04  0.34838798147E+04  0.00000000000E+00 0.  1.
    9900016    2    1    2    0    0  0.12126003884E+04  0.91955003691E+03 -0.15446370544E+04  0.29315295667E+04  0.19728127123E+04 0.  0.
         23    2    3    3    0    0  0.28442467902E+03  0.10653941028E+03  0.46899111263E+03  0.56992104243E+03  0.11229108113E+03 0.  0.
    9900016    2    1    2    0    0 -0.10265949541E+04 -0.56492362090E+03  0.99963591985E+02  0.21922832875E+04  0.18501560463E+04 0.  0.
         24    2    5    5    0    0 -0.66239372540E+03 -0.78378268077E+03 -0.72870578190E+03  0.12610288893E+04  0.78108929285E+02 0.  0.
        -15    1    6    6    0    0 -0.10046048955E+03 -0.82814439786E+02 -0.78577939253E+02  0.15206917483E+03  0.00000000000E+00 0.  1.
        -15    1    4    4    0    0  0.23647598952E+03  0.12456500704E+03  0.35008811557E+03  0.44045320212E+03  0.00000000000E+00 0. -1.
         15    1    4    4    0    0  0.47948689499E+02 -0.18025596766E+02  0.11890299706E+03  0.12946784031E+03  0.00000000000E+00 0.  1.
         15    1    5    5    0    0 -0.36420122868E+03  0.21885905987E+03  0.82866937388E+03  0.93125439825E+03  0.00000000000E+00 0. -1.
        -16    1    3    3    0    0  0.92817570941E+03  0.81301062663E+03 -0.20136281671E+04  0.23616085243E+04  0.00000000000E+00 0.  1.
         16    1    6    6    0    0 -0.56193323586E+03 -0.70096824099E+03 -0.65012784264E+03  0.11089597144E+04  0.00000000000E+00 0. -1.
    9900018    1    1    2    0    0 -0.18600543434E+03 -0.35462641601E+03  0.11588448818E+02  0.41086176151E+03  0.91187600000E+02 0.  0.
<mgrwt>
<rscale>  0 0.53459228E+04</rscale>
<asrwt>0</asrwt>
<pdfrwt beam="1">  1        2 0.31550689E+00 0.53459228E+04</pdfrwt>
<pdfrwt beam="2">  1       -2 0.53598151E+00 0.53459228E+04</pdfrwt>
<totfact> 0.45499302E-03</totfact>
</mgrwt>
</event>
<event>
12    1  0.1990759E-010  0.4274509E+04  0.7818608E-02  0.7951348E-01
         -2   -1    0    0    0  501 -0.00000000000E+00  0.00000000000E+00  0.15349080106E+04  0.15349080106E+04  0.00000000000E+00 0. -1.
          2   -1    0    0  501    0  0.00000000000E+00 -0.00000000000E+00 -0.29759813844E+04  0.29759813844E+04  0.00000000000E+00 0.  1.
    9900016    2    1    2    0    0 -0.35982442542E+03  0.20083083307E+03 -0.47134186131E+03  0.18887495826E+04  0.17819666649E+04 0.  0.
    9900016    2    1    2    0    0  0.15987935430E+03 -0.60235728559E+03 -0.60556493577E+03  0.20372175974E+04  0.18425935364E+04 0.  0.
        -24    2    4    4    0    0  0.65566202332E+03  0.28481624043E+03  0.19298272459E+03  0.74471781560E+03  0.79682578081E+02 0.  0.
        -15    1    3    3    0    0  0.27771087400E+02 -0.25645521258E+03  0.32955716805E+03  0.41850739105E+03  0.00000000000E+00 0.  1.
        -15    1    4    4    0    0 -0.49578266901E+03 -0.88717352602E+03 -0.79854766036E+03  0.12924997818E+04  0.00000000000E+00 0.  1.
         15    1    5    5    0    0  0.59908326336E+03  0.26867257556E+03  0.15478644507E+03  0.67456990214E+03  0.00000000000E+00 0. -1.
         15    1    3    3    0    0 -0.33498527854E+02 -0.61363074193E+02  0.24253028066E+03  0.25240545811E+03  0.00000000000E+00 0. -1.
        -16    1    5    5    0    0  0.56578759959E+02  0.16143664872E+02  0.38196279520E+02  0.70147913462E+02  0.00000000000E+00 0.  1.
         16    1    3    3    0    0 -0.35409698497E+03  0.51864911984E+03 -0.10434293100E+04  0.12178367334E+04  0.00000000000E+00 0. -1.
    9900018    1    1    2    0    0  0.19994507112E+03  0.40152645252E+03 -0.36416657679E+03  0.58492221499E+03  0.91187600000E+02 0.  0.
<mgrwt>
<rscale>  0 0.42745094E+04</rscale>
<asrwt>0</asrwt>
<pdfrwt beam="1">  1        2 0.45784329E+00 0.42745094E+04</pdfrwt>
<pdfrwt beam="2">  1       -2 0.23613969E+00 0.42745094E+04</pdfrwt>
<totfact> 0.10881453E-01</totfact>
</mgrwt>
</event>
<event>
13    1  0.1990759E-010  0.4390446E+04  0.7818608E-02  0.7930102E-01
          1   -1    0    0  501    0  0.00000000000E+00  0.00000000000E+00  0.46162401027E+04  0.46162401027E+04  0.00000000000E+00 0. -1.
         -1   -1    0    0    0  501 -0.00000000000E+00 -0.00000000000E+00 -0.10439239135E+04  0.10439239135E+04  0.00000000000E+00 0.  1.
    9900016    2    1    2    0    0  0.60909764016E+02  0.17017021335E+03  0.26998713523E+04  0.33139575495E+04  0.19132018765E+04 0.  0.
         23    2    3    3    0    0 -0.50663415388E+02 -0.19579183084E+03 -0.25547952703E+03  0.33394486299E+03  0.73131115827E+02 0.  0.
    9900016    2    1    2    0    0 -0.97417241795E+02  0.14941210387E+02  0.10040090529E+04  0.20987729273E+04  0.18404076351E+04 0.  0.
        -24    2    5    5    0    0  0.65198088256E+02 -0.84792129934E+03  0.85422625189E+03  0.12080370833E+04  0.80185938376E+02 0.  0.
        -15    1    4    4    0    0 -0.30714740668E+02 -0.30464648674E+02 -0.86419220005E+02  0.96642494274E+02  0.00000000000E+00 0. -1.
        -15    1    5    5    0    0 -0.16261533005E+03  0.86286250973E+03  0.14978280097E+03  0.89073584397E+03  0.00000000000E+00 0.  1.
         15    1    4    4    0    0 -0.19948674720E+02 -0.16532718217E+03 -0.16906030702E+03  0.23730236871E+03  0.00000000000E+00 0.  1.
         15    1    6    6    0    0  0.82727347575E+02 -0.61649978496E+03  0.61443795885E+03  0.87432820163E+03  0.00000000000E+00 0. -1.
        -16    1    6    6    0    0 -0.17529259319E+02 -0.23142151438E+03  0.23978829304E+03  0.33370888170E+03  0.00000000000E+00 0.  1.
         16    1    3    3    0    0  0.11157317940E+03  0.36596204419E+03  0.29553508793E+04  0.29800126866E+04  0.00000000000E+00 0. -1.
    9900018    1    1    2    0    0  0.36507477779E+02 -0.18511142373E+03 -0.13156421595E+03  0.24743353945E+03  0.91187600000E+02 0.  0.
<mgrwt>
<rscale>  0 0.43904457E+04</rscale>
<asrwt>0</asrwt>
<pdfrwt beam="1">  1        1 0.71019078E+00 0.43904457E+04</pdfrwt>
<pdfrwt beam="2">  1       -1 0.16060368E+00 0.43904457E+04</pdfrwt>
<totfact> 0.52899449E-03</totfact>
</mgrwt>
</event>
<event>
13    1  0.1990759E-010  0.4242076E+04  0.7818608E-02  0.7957416E-01
          1   -1    0    0  501    0  0.00000000000E+00  0.00000000000E+00  0.12989561895E+04  0.12989561895E+04  0.00000000000E+00 0. -1.
         -1   -1    0    0    0  501 -0.00000000000E+00 -0.00000000000E+00 -0.34633975998E+04  0.34633975998E+04  0.00000000000E+00 0.  1.
    9900016    2    1    2    0    0  0.61720144535E+03  0.35909089693E+03 -0.86272203028E+03  0.20861441173E+04  0.17600636580E+04 0.  0.
         23    2    3    3    0    0  0.30668794030E+03 -0.19478785667E+02 -0.13554571940E+04  0.13915063822E+04  0.67741354772E+02 0.  0.
    9900016    2    1    2    0    0 -0.35835541907E+03 -0.52897861965E+03 -0.87279368520E+03  0.21394084670E+04  0.18458230644E+04 0.  0.
         24    2    5    5    0    0  0.14377959578E+03 -0.57582181036E+03  0.43344359337E+03  0.73919788082E+03  0.79352560986E+02 0.  0.
        -15    1    6    6    0    0  0.15050223024E+03 -0.48839078254E+03  0.37292085077E+03  0.63265032894E+03  0.00000000000E+00 0.  1.
        -15    1    4    4    0    0  0.21319914246E+03 -0.41753022226E+02 -0.99648131805E+03  0.10198883304E+04  0.00000000000E+00 0. -1.
         15    1    4    4    0    0  0.93488797841E+02  0.22274236558E+02 -0.35897587598E+03  0.37161805187E+03  0.00000000000E+00 0.  1.
         15    1    5    5    0    0 -0.50213501485E+03  0.46843190711E+02 -0.13062372786E+04  0.14002105862E+04  0.00000000000E+00 0. -1.
        -16    1    3    3    0    0  0.31051350506E+03  0.37856968260E+03  0.49273516375E+03  0.69463773508E+03  0.00000000000E+00 0.  1.
         16    1    6    6    0    0 -0.67226344576E+01 -0.87431027825E+02  0.60522742596E+02  0.10654755188E+03  0.00000000000E+00 0. -1.
    9900018    1    1    2    0    0 -0.25884602628E+03  0.16988772272E+03 -0.42892569477E+03  0.53680120499E+03  0.91187600000E+02 0.  0.
<mgrwt>
<rscale>  0 0.42420758E+04</rscale>
<asrwt>0</asrwt>
<pdfrwt beam="1">  1        1 0.19983942E+00 0.42420758E+04</pdfrwt>
<pdfrwt beam="2">  1       -1 0.53283039E+00 0.42420758E+04</pdfrwt>
<totfact> 0.65270808E-03</totfact>
</mgrwt>
</event>
<event>
13    1  0.1990759E-010  0.5154617E+04  0.7818608E-02  0.7805089E-01
          2   -1    0    0  501    0  0.00000000000E+00  0.00000000000E+00  0.38193688211E+04  0.38193688211E+04  0.00000000000E+00 0. -1.
         -2   -1    0    0    0  501 -0.00000000000E+00 -0.00000000000E+00 -0.17391665611E+04  0.17391665611E+04  0.00000000000E+00 0.  1.
    9900016    2    1    2    0    0 -0.10758167795E+03 -0.57591733820E+03  0.18628224060E+04  0.26196926509E+04  0.17462610547E+04 0.  0.
         23    2    3    3    0    0 -0.71170431434E+02  0.14905135085E+03 -0.28681803622E+03  0.35080318472E+03  0.11626157150E+03 0.  0.
    9900016    2    1    2    0    0  0.61787815678E+03 -0.23773100894E+03  0.14721661620E+03  0.19715453687E+04  0.18512236385E+04 0.  0.
         24    2    5    5    0    0  0.24980592709E+03  0.56046160173E+03  0.69868864989E+03  0.93389898681E+03  0.86494392030E+02 0.  0.
        -15    1    4    4    0    0 -0.23303278501E+02  0.13483996315E+03 -0.14017641866E+03  0.19589355987E+03  0.00000000000E+00 0. -1.
        -15    1    6    6    0    0  0.19927057174E+03  0.48180676186E+03  0.54674984030E+03  0.75550109490E+03  0.00000000000E+00 0.  1.
         15    1    5    5    0    0  0.36807222969E+03 -0.79819261067E+03 -0.55147203369E+03  0.10376463819E+04  0.00000000000E+00 0. -1.
         15    1    4    4    0    0 -0.47867152933E+02  0.14211387700E+02 -0.14664161756E+03  0.15490962485E+03  0.00000000000E+00 0.  1.
        -16    1    3    3    0    0 -0.36411246519E+02 -0.72496868905E+03  0.21496404422E+04  0.22688894662E+04  0.00000000000E+00 0.  1.
         16    1    6    6    0    0  0.50535355352E+02  0.78654839871E+02  0.15193880960E+03  0.17839789191E+03  0.00000000000E+00 0. -1.
    9900018    1    1    2    0    0 -0.51029647883E+03  0.81364834714E+03  0.70163237811E+02  0.96729736247E+03  0.91187600000E+02 0.  0.
<mgrwt>
<rscale>  0 0.51546168E+04</rscale>
<asrwt>0</asrwt>
<pdfrwt beam="1">  1        2 0.58759520E+00 0.51546168E+04</pdfrwt>
<pdfrwt beam="2">  1       -2 0.26756409E+00 0.51546168E+04</pdfrwt>
<totfact> 0.17060736E-02</totfact>
</mgrwt>
</event>
<event>
12    1  0.1990759E-010  0.5428061E+04  0.7818608E-02  0.7765666E-01
         -2   -1    0    0    0  501 -0.00000000000E+00  0.00000000000E+00  0.25519238068E+04  0.25519238068E+04  0.00000000000E+00 0.  1.
          2   -1    0    0  501    0  0.00000000000E+00 -0.00000000000E+00 -0.28864342358E+04  0.28864342358E+04  0.00000000000E+00 0. -1.
    9900016    2    1    2    0    0 -0.74191326500E+03 -0.21720103317E+03  0.40269326855E+03  0.21006947755E+04  0.19113202478E+04 0.  0.
    9900016    2    1    2    0    0  0.16347397839E+03  0.10818282211E+04 -0.80396632881E+03  0.22912672571E+04  0.18456618716E+04 0.  0.
         24    2    4    4    0    0  0.46718507795E+03  0.15158663773E+02  0.42422894964E+03  0.63642949515E+03  0.81121011152E+02 0.  0.
        -15    1    3    3    0    0 -0.15827740368E+02  0.26616930183E+02 -0.73556509842E+02  0.79809388405E+02  0.00000000000E+00 0. -1.
        -15    1    5    5    0    0  0.11367037946E+03  0.88213689239E+01  0.60096349927E+02  0.12888111960E+03  0.00000000000E+00 0.  1.
         15    1    4    4    0    0 -0.30371109956E+03  0.10666695573E+04 -0.12281952784E+04  0.16548377620E+04  0.00000000000E+00 0. -1.
         15    1    3    3    0    0 -0.14667005312E+03 -0.14847553934E+03 -0.68690539427E+03  0.71791093524E+03  0.00000000000E+00 0.  1.
        -16    1    3    3    0    0 -0.57941547151E+03 -0.95342424015E+02  0.11631551727E+04  0.13029744518E+04  0.00000000000E+00 0.  1.
         16    1    5    5    0    0  0.35351469849E+03  0.63372948488E+01  0.36413259971E+03  0.50754837555E+03  0.00000000000E+00 0. -1.
    9900018    1    1    2    0    0  0.57843928661E+03 -0.86462718790E+03  0.66762631235E+02  0.10463960100E+04  0.91187600000E+02 0.  0.
<mgrwt>
<rscale>  0 0.54280605E+04</rscale>
<asrwt>0</asrwt>
<pdfrwt beam="1">  1        2 0.44406680E+00 0.54280605E+04</pdfrwt>
<pdfrwt beam="2">  1       -2 0.39260366E+00 0.54280605E+04</pdfrwt>
<totfact> 0.11962746E-02</totfact>
</mgrwt>
</event>
<event>
12    1  0.1990759E-010  0.5489044E+04  0.7818608E-02  0.7757199E-01
          1   -1    0    0  501    0  0.00000000000E+00  0.00000000000E+00  0.33562883408E+04  0.33562883408E+04  0.00000000000E+00 0. -1.
         -1   -1    0    0    0  501 -0.00000000000E+00 -0.00000000000E+00 -0.22442647579E+04  0.22442647579E+04  0.00000000000E+00 0.  1.
         23    2    1    2    0    0  0.47533626021E+03 -0.15628007576E+03 -0.14833054537E+04  0.15695090135E+04  0.11311698415E+03 0.  0.
    9900016    2    1    2    0    0  0.15824975406E+03  0.29050883812E+03  0.15590395607E+04  0.24294563707E+04  0.18336345154E+04 0.  0.
        -24    2    4    4    0    0 -0.68391030024E+03 -0.12280194443E+03  0.12664765261E+04  0.14467801834E+04  0.79978069699E+02 0.  0.
        -15    1    4    4    0    0  0.84216005430E+03  0.41331078254E+03  0.29256303460E+03  0.98267618738E+03  0.00000000000E+00 0.  1.
        -15    1    3    3    0    0  0.75362842921E+02 -0.27859265735E+02 -0.13318093010E+03  0.15554053144E+03  0.00000000000E+00 0.  1.
         15    1    5    5    0    0 -0.14300312831E+03  0.32836994220E+00  0.30195991021E+03  0.33411044567E+03  0.00000000000E+00 0. -1.
         15    1    3    3    0    0  0.39997341729E+03 -0.12842081003E+03 -0.13501245236E+04  0.14139684821E+04  0.00000000000E+00 0. -1.
        -16    1    5    5    0    0 -0.54090717193E+03 -0.12313031437E+03  0.96451661584E+03  0.11126697377E+04  0.00000000000E+00 0.  1.
         16    1    1    2    0    0  0.93079513476E+01  0.37094812764E+03  0.17414232462E+03  0.40989596312E+03  0.00000000000E+00 0. -1.
    9900018    1    1    2    0    0 -0.64289396562E+03 -0.50517688999E+03  0.86214715131E+03  0.11916917513E+04  0.91187600000E+02 0.  0.
<mgrwt>
<rscale>  0 0.54890435E+04</rscale>
<asrwt>0</asrwt>
<pdfrwt beam="1">  1        1 0.51635205E+00 0.54890435E+04</pdfrwt>
<pdfrwt beam="2">  1       -1 0.34527150E+00 0.54890435E+04</pdfrwt>
<totfact> 0.37495732E-03</totfact>
</mgrwt>
</event>
<event>
11    1  0.1990759E-010  0.3347020E+04  0.7818608E-02  0.8528661E-01
         -2   -1    0    0    0  501 -0.00000000000E+00  0.00000000000E+00  0.11914228475E+04  0.11914228475E+04  0.00000000000E+00 0.  1.
          2   -1    0    0  501    0  0.00000000000E+00 -0.00000000000E+00 -0.33770999962E+04  0.33770999962E+04  0.00000000000E+00 0. -1.
    9900016    2    1    2    0    0  0.89832235208E+02 -0.63540751973E+03 -0.68609293854E+03  0.20677060108E+04  0.18419750487E+04 0.  0.
        -24    2    3    3    0    0 -0.22505065995E+03 -0.36421805009E+03 -0.12748027888E+04  0.13470991458E+04  0.79065610060E+02 0.  0.
        -15    1    1    2    0    0  0.21086143992E+03  0.41494391448E+03 -0.59187349660E+03  0.75296429862E+03  0.00000000000E+00 0. -1.
        -15    1    3    3    0    0  0.31488289516E+03 -0.27118946964E+03  0.58870985024E+03  0.72060686500E+03  0.00000000000E+00 0.  1.
         15    1    4    4    0    0 -0.21168313086E+03 -0.28533842341E+03 -0.10508391301E+04  0.11092748267E+04  0.00000000000E+00 0. -1.
         15    1    1    2    0    0  0.99505165649E+02  0.65507538142E+02 -0.67828747122E+02  0.13708849142E+03  0.00000000000E+00 0.  1.
        -16    1    4    4    0    0 -0.13367529094E+02 -0.78879626682E+02 -0.22396365870E+03  0.23782431910E+03  0.00000000000E+00 0.  1.
         16    1    1    2    0    0 -0.19884990060E+03 -0.30105046831E+03  0.22935260735E+03  0.42752226367E+03  0.00000000000E+00 0. -1.
    9900018    1    1    2    0    0 -0.20134894017E+03  0.45600653542E+03 -0.10692345737E+04  0.11832417792E+04  0.91187600000E+02 0.  0.
<mgrwt>
<rscale>  0 0.21755810E+04</rscale>
<asrwt>0</asrwt>
<pdfrwt beam="1">  1        2 0.51955384E+00 0.33470199E+04</pdfrwt>
<pdfrwt beam="2">  1       -2 0.18329582E+00 0.33470199E+04</pdfrwt>
<totfact> 0.13838855E-01</totfact>
</mgrwt>
</event>
<event>
12    1  0.1990759E-010  0.4402190E+04  0.7818608E-02  0.8392767E-01
          1   -1    0    0  501    0  0.00000000000E+00  0.00000000000E+00  0.39728895930E+04  0.39728895930E+04  0.00000000000E+00 0. -1.
         -1   -1    0    0    0  501 -0.00000000000E+00 -0.00000000000E+00 -0.15373889975E+04  0.15373889975E+04  0.00000000000E+00 0.  1.
         23    2    1    2    0    0 -0.22817472272E+03 -0.40577163543E+03  0.27126178786E+00  0.47941220690E+03  0.11454984217E+03 0.  0.
    9900016    2    1    2    0    0 -0.79292792129E+03  0.77877185564E+03 -0.14099300992E+03  0.21605314750E+04  0.18473756884E+04 0.  0.
        -24    2    4    4    0    0  0.20799207744E+02 -0.11846073034E+03  0.68135596561E+03  0.69648366449E+03  0.79862327460E+02 0.  0.
        -15    1    3    3    0    0 -0.14654501436E+03 -0.26968650077E+03  0.54461117377E+02  0.31172465934E+03  0.00000000000E+00 0. -1.
        -15    1    4    4    0    0 -0.81372712904E+03  0.89723258599E+03 -0.82234897554E+03  0.14640478105E+04  0.00000000000E+00 0.  1.
         15    1    3    3    0    0 -0.81629708357E+02 -0.13608513465E+03 -0.54189855590E+02  0.16768754756E+03  0.00000000000E+00 0.  1.
         15    1    5    5    0    0  0.23062540538E+02 -0.11863086748E+03  0.47557133418E+03  0.49068651641E+03  0.00000000000E+00 0. -1.
        -16    1    5    5    0    0 -0.22633327943E+01  0.17013714162E+00  0.20578463143E+03  0.20579714808E+03  0.00000000000E+00 0.  1.
         16    1    1    2    0    0  0.10578920851E+04 -0.21839849164E+03  0.22595899250E+04  0.25045119672E+04  0.00000000000E+00 0. -1.
    9900018    1    1    2    0    0 -0.36789441077E+02 -0.15460172857E+03  0.31663241872E+03  0.36582294136E+03  0.91187600000E+02 0.  0.
<mgrwt>
<rscale>  0 0.25288835E+04</rscale>
<asrwt>0</asrwt>
<pdfrwt beam="1">  1        1 0.61121378E+00 0.44021898E+04</pdfrwt>
<pdfrwt beam="2">  1       -1 0.23652139E+00 0.44021898E+04</pdfrwt>
<totfact> 0.64266389E-03</totfact>
</mgrwt>
</event>
<event>
12    1  0.1990759E-010  0.3854729E+04  0.7818608E-02  0.8665191E-01
          2   -1    0    0  501    0  0.00000000000E+00  0.00000000000E+00  0.19320690937E+04  0.19320690937E+04  0.00000000000E+00 0. -1.
         -2   -1    0    0    0  501 -0.00000000000E+00 -0.00000000000E+00 -0.23876879345E+04  0.23876879345E+04  0.00000000000E+00 0.  1.
         23    2    1    2    0    0  0.33770041305E+02  0.20311570423E+03  0.32066226375E+03  0.38763981481E+03  0.71020656438E+02 0.  0.
    9900016    2    1    2    0    0 -0.61983648458E+03  0.69584051009E+03 -0.22709191309E+03  0.20828813739E+04  0.18489004293E+04 0.  0.
         24    2    4    4    0    0  0.60973085808E+03  0.30863610978E+03  0.21418382359E+03  0.72035160411E+03  0.77483906024E+02 0.  0.
        -15    1    5    5    0    0  0.31991093404E+03  0.12334725029E+03  0.12552700515E+03  0.36512269019E+03  0.00000000000E+00 0.  1.
        -15    1    3    3    0    0  0.40575556785E+02  0.49344461131E+02  0.94728639664E+02  0.11425745851E+03  0.00000000000E+00 0.  1.
         15    1    3    3    0    0 -0.68055154791E+01  0.15377124310E+03  0.22593362408E+03  0.27338235630E+03  0.00000000000E+00 0. -1.
         15    1    4    4    0    0 -0.12295673427E+04  0.38720440032E+03 -0.44127573668E+03  0.13625297698E+04  0.00000000000E+00 0. -1.
        -16    1    1    2    0    0  0.99272910409E+02 -0.10459349650E+04 -0.75432979944E+03  0.12933864496E+04  0.00000000000E+00 0.  1.
         16    1    5    5    0    0  0.28981992405E+03  0.18528885949E+03  0.88656818436E+02  0.35522891391E+03  0.00000000000E+00 0. -1.
    9900018    1    1    2    0    0  0.48679353287E+03  0.14697875064E+03  0.20514060803E+03  0.55584938989E+03  0.91187600000E+02 0.  0.
<mgrwt>
<rscale>  0 0.18793767E+04</rscale>
<asrwt>0</asrwt>
<pdfrwt beam="1">  1        2 0.29724140E+00 0.38547287E+04</pdfrwt>
<pdfrwt beam="2">  1       -2 0.36733661E+00 0.38547287E+04</pdfrwt>
<totfact> 0.69125753E-02</totfact>
</mgrwt>
</event>
