<event>
12    1  0.1417731E-014  0.9689137E+03  0.7818608E-02  0.9343313E-01
         -1   -1    0    0    0  501 -0.00000000000E+00  0.00000000000E+00  0.16885481951E+03  0.16885481951E+03  0.00000000000E+00 0.  1.
          1   -1    0    0  501    0  0.00000000000E+00 -0.00000000000E+00 -0.13899421139E+04  0.13899421139E+04  0.00000000000E+00 0. -1.
    9900016    2    1    2    0    0  0.46641824594E+02  0.53099295152E+02 -0.67662448160E+03  0.95739286020E+03  0.67363595859E+03 0.  0.
         23    2    3    3    0    0  0.42614314221E+02  0.11514427274E+03 -0.19264869289E+03  0.24579878514E+03  0.90715712973E+02 0.  0.
         23    2    3    3    0    0 -0.11302516889E+03  0.12649891276E+03 -0.45045268609E+03  0.48715270917E+03  0.75056484805E+02 0.  0.
        -15    1    5    5    0    0 -0.90189213856E+02  0.48412743579E+02 -0.28394288198E+03  0.30183016460E+03  0.00000000000E+00 0. -1.
        -15    1    4    4    0    0  0.47235377601E+02  0.12824341133E+03 -0.18479886363E+03  0.22984380228E+03  0.00000000000E+00 0.  1.
         15    1    4    4    0    0 -0.46210633796E+01 -0.13099138590E+02 -0.78498292633E+01  0.15954982859E+02  0.00000000000E+00 0. -1.
         15    1    5    5    0    0 -0.22835955038E+02  0.78086169178E+02 -0.16650980412E+03  0.18532254457E+03  0.00000000000E+00 0.  1.
        -16    1    3    3    0    0  0.11705267927E+03 -0.18854389035E+03 -0.33523102609E+02  0.22444136589E+03  0.00000000000E+00 0.  1.
         16    1    1    2    0    0 -0.61158008311E+02 -0.43256632485E+02 -0.48585685655E+03  0.49159772506E+03  0.00000000000E+00 0. -1.
    9900018    1    1    2    0    0  0.14516183717E+02 -0.98426626668E+01 -0.58605956290E+02  0.10980634820E+03  0.91187600000E+02 0.  0.
<mgrwt>
<rscale>  0 0.96891367E+03</rscale>
<asrwt>0</asrwt>
<pdfrwt beam="1">  1        1 0.21383724E+00 0.96891367E+03</pdfrwt>
<pdfrwt beam="2">  1       -1 0.25977665E-01 0.96891367E+03</pdfrwt>
<totfact> 0.10278743E+02</totfact>
</mgrwt>
</event>
<event>
12    1  0.1417731E-014  0.1012860E+04  0.7818608E-02  0.9294552E-01
         -2   -1    0    0    0  501 -0.00000000000E+00  0.00000000000E+00  0.20810786821E+03  0.20810786821E+03  0.00000000000E+00 0.  1.
          2   -1    0    0  501    0  0.00000000000E+00 -0.00000000000E+00 -0.12323963220E+04  0.12323963220E+04  0.00000000000E+00 0. -1.
    9900016    2    1    2    0    0  0.45325644950E+02 -0.12350923428E+03 -0.81077342707E+03  0.10484762239E+04  0.65164399559E+03 0.  0.
         23    2    3    3    0    0 -0.25250554558E+02 -0.77632701506E+02 -0.13099729294E+03  0.17911749913E+03  0.90875524143E+02 0.  0.
         23    2    3    3    0    0 -0.99240245468E+02  0.16777871915E+03 -0.50403200687E+03  0.54474789635E+03  0.68583392340E+02 0.  0.
        -15    1    4    4    0    0 -0.17131641135E+02 -0.26848151111E+02 -0.12301673402E+03  0.12707255091E+03  0.00000000000E+00 0. -1.
        -15    1    5    5    0    0 -0.35068914521E+02  0.51193708565E+02 -0.86040409550E+02  0.10608287627E+03  0.00000000000E+00 0. -1.
         15    1    4    4    0    0 -0.81189134229E+01 -0.50784550395E+02 -0.79805589147E+01  0.52044948214E+02  0.00000000000E+00 0.  1.
         15    1    5    5    0    0 -0.64171330946E+02  0.11658501059E+03 -0.41799159732E+03  0.43866502008E+03  0.00000000000E+00 0.  1.
        -16    1    1    2    0    0 -0.59798577480E+02  0.10529939131E+03  0.35198098828E+02  0.12610605790E+03  0.00000000000E+00 0.  1.
         16    1    3    3    0    0  0.16981644497E+03 -0.21365525193E+03 -0.17574412726E+03  0.32461082842E+03  0.00000000000E+00 0. -1.
    9900018    1    1    2    0    0  0.14472932530E+02  0.18209842974E+02 -0.24871312555E+03  0.26592190841E+03  0.91187600000E+02 0.  0.
<mgrwt>
<rscale>  0 0.10128601E+04</rscale>
<asrwt>0</asrwt>
<pdfrwt beam="1">  1        2 0.18959944E+00 0.10128601E+04</pdfrwt>
<pdfrwt beam="2">  1       -2 0.32016595E-01 0.10128601E+04</pdfrwt>
<totfact> 0.16381949E+02</totfact>
</mgrwt>
</event>
<event>
12    1  0.1417731E-014  0.1030210E+04  0.7818608E-02  0.9276018E-01
         -2   -1    0    0    0  501 -0.00000000000E+00  0.00000000000E+00  0.11441060243E+04  0.11441060243E+04  0.00000000000E+00 0. -1.
          2   -1    0    0  501    0  0.00000000000E+00 -0.00000000000E+00 -0.23191314832E+03  0.23191314832E+03  0.00000000000E+00 0.  1.
    9900016    2    1    2    0    0 -0.98902774051E+02  0.15540663605E+03  0.67439241804E+03  0.96067475643E+03  0.65890657372E+03 0.  0.
         23    2    3    3    0    0 -0.51843086472E+02 -0.13308129351E+03  0.20842590664E+03  0.26855584088E+03  0.91008487592E+02 0.  0.
         23    2    3    3    0    0 -0.17897477081E+03  0.20650868676E+03  0.45773667205E+03  0.53658783927E+03  0.61039675847E+02 0.  0.
        -15    1    5    5    0    0 -0.11403493757E+03  0.12714845015E+03  0.33977395725E+03  0.38028546828E+03  0.00000000000E+00 0.  1.
        -15    1    4    4    0    0  0.94257754047E+01 -0.98421527172E+02  0.12603033203E+03  0.16018516425E+03  0.00000000000E+00 0.  1.
         15    1    4    4    0    0 -0.61268861877E+02 -0.34659766336E+02  0.82395574609E+02  0.10837067663E+03  0.00000000000E+00 0. -1.
         15    1    5    5    0    0 -0.64939833236E+02  0.79360236603E+02  0.11796271480E+03  0.15630237099E+03  0.00000000000E+00 0. -1.
        -16    1    3    3    0    0  0.13191508323E+03  0.81979242803E+02  0.82298393495E+01  0.15553107628E+03  0.00000000000E+00 0.  1.
         16    1    1    2    0    0  0.14736989222E+03 -0.15648848839E+03  0.85512400937E+02  0.23134152858E+03  0.00000000000E+00 0. -1.
    9900018    1    1    2    0    0 -0.48467118170E+02  0.10818523392E+01  0.15228805701E+03  0.18400288761E+03  0.91187600000E+02 0.  0.
<mgrwt>
<rscale>  0 0.10302101E+04</rscale>
<asrwt>0</asrwt>
<pdfrwt beam="1">  1        2 0.35678947E-01 0.10302101E+04</pdfrwt>
<pdfrwt beam="2">  1       -2 0.17601631E+00 0.10302101E+04</pdfrwt>
<totfact> 0.28192303E+01</totfact>
</mgrwt>
</event>
<event>
11    1  0.1417731E-014  0.1220913E+04  0.7818608E-02  0.9094745E-01
         -2   -1    0    0    0  501 -0.00000000000E+00  0.00000000000E+00  0.50217125896E+03  0.50217125896E+03  0.00000000000E+00 0.  1.
          2   -1    0    0  501    0  0.00000000000E+00 -0.00000000000E+00 -0.74209226429E+03  0.74209226429E+03  0.00000000000E+00 0. -1.
    9900016    2    1    2    0    0  0.76910209655E+02  0.22081109554E+03  0.13015657107E+03  0.80650773195E+03  0.76081618571E+03 0.  0.
         23    2    3    3    0    0  0.41723676723E+02 -0.49090406122E+02 -0.16902631173E+02  0.11310729916E+03  0.91415693461E+02 0.  0.
        -15    1    3    3    0    0 -0.29564808505E+02 -0.73773556619E+02  0.83535686726E+00  0.79481528541E+02  0.00000000000E+00 0.  1.
        -15    1    4    4    0    0  0.19892122301E+02 -0.54885936260E+02  0.26551004755E+02  0.64133597921E+02  0.00000000000E+00 0. -1.
         15    1    4    4    0    0  0.21831554422E+02  0.57955301382E+01 -0.43453635928E+02  0.48973701243E+02  0.00000000000E+00 0.  1.
         15    1    3    3    0    0 -0.66945459473E+02  0.57943843637E+02 -0.10078582508E+03  0.13415277148E+03  0.00000000000E+00 0. -1.
        -16    1    3    3    0    0  0.17012457367E+03  0.24392306293E+03  0.21726712691E+03  0.36830128377E+03  0.00000000000E+00 0.  1.
         16    1    1    2    0    0 -0.76910209655E+02 -0.22081109554E+03 -0.37007757640E+03  0.43775579130E+03  0.00000000000E+00 0. -1.
    9900018    1    3    3    0    0 -0.38427772760E+02  0.41808151721E+02  0.29742543547E+02  0.11146484899E+03  0.91187600000E+02 0.  0.
<mgrwt>
<rscale>  0 0.12209134E+04</rscale>
<asrwt>0</asrwt>
<pdfrwt beam="1">  1        2 0.11416804E+00 0.12209134E+04</pdfrwt>
<pdfrwt beam="2">  1       -2 0.77257117E-01 0.12209134E+04</pdfrwt>
<totfact> 0.56028204E+01</totfact>
</mgrwt>
</event>
<event>
12    1  0.1417731E-014  0.1195430E+04  0.7818608E-02  0.9116866E-01
         -2   -1    0    0    0  501 -0.00000000000E+00  0.00000000000E+00  0.30018286971E+03  0.30018286971E+03  0.00000000000E+00 0.  1.
          2   -1    0    0  501    0  0.00000000000E+00 -0.00000000000E+00 -0.11901515241E+04  0.11901515241E+04  0.00000000000E+00 0. -1.
    9900016    2    1    2    0    0 -0.12201156588E+03  0.33318790771E+03 -0.58155766199E+03  0.10202085125E+04  0.75941759966E+03 0.  0.
         23    2    3    3    0    0  0.88544115903E+02 -0.61483874397E+02 -0.25858169849E+02  0.14165338364E+03  0.88185650055E+02 0.  0.
         23    2    3    3    0    0  0.85179489526E+02  0.77324300969E+02 -0.31775974150E+01  0.13793267167E+03  0.76031124099E+02 0.  0.
        -15    1    4    4    0    0 -0.13306907588E+02 -0.57892945062E+01  0.12750194667E+02  0.19317276840E+02  0.00000000000E+00 0. -1.
        -15    1    5    5    0    0  0.42449327404E+02 -0.67498310196E+01  0.49831455940E+01  0.43270513700E+02  0.00000000000E+00 0. -1.
         15    1    5    5    0    0  0.42730162122E+02  0.84074131989E+02 -0.81607430090E+01  0.94662157968E+02  0.00000000000E+00 0.  1.
         15    1    4    4    0    0  0.10185102349E+03 -0.55694579890E+02 -0.38608364516E+02  0.12233610680E+03  0.00000000000E+00 0.  1.
        -16    1    1    2    0    0  0.12201156588E+03 -0.33318790771E+03 -0.30841099239E+03  0.47012588131E+03  0.00000000000E+00 0.  1.
         16    1    3    3    0    0 -0.28202053159E+03  0.23156704709E+03 -0.44101831786E+03  0.57241246861E+03  0.00000000000E+00 0. -1.
    9900018    1    3    3    0    0 -0.13714639722E+02  0.85780434040E+02 -0.11150357687E+03  0.16820998857E+03  0.91187600000E+02 0.  0.
<mgrwt>
<rscale>  0 0.11954298E+04</rscale>
<asrwt>0</asrwt>
<pdfrwt beam="1">  1        2 0.18310024E+00 0.11954298E+04</pdfrwt>
<pdfrwt beam="2">  1       -2 0.46181979E-01 0.11954298E+04</pdfrwt>
<totfact> 0.84214289E+01</totfact>
</mgrwt>
</event>
<event>
12    1  0.1417731E-014  0.1055757E+04  0.7818608E-02  0.9249421E-01
         -1   -1    0    0    0  501 -0.00000000000E+00  0.00000000000E+00  0.10305162588E+03  0.10305162588E+03  0.00000000000E+00 0. -1.
          1   -1    0    0  501    0  0.00000000000E+00 -0.00000000000E+00 -0.27040386375E+04  0.27040386375E+04  0.00000000000E+00 0.  1.
    9900016    2    1    2    0    0  0.89605898544E+02 -0.13052502991E+03 -0.14202781060E+04  0.16158138386E+04  0.75405468107E+03 0.  0.
         23    2    3    3    0    0  0.10345787474E+03 -0.73231424757E+02 -0.28650084817E+03  0.32729839348E+03  0.94737157221E+02 0.  0.
         23    2    3    3    0    0  0.16334841315E+03  0.56550006979E+02 -0.74362229437E+03  0.76571216090E+03  0.58825073781E+02 0.  0.
        -15    1    4    4    0    0  0.29665157307E+02 -0.78475621186E+02 -0.14103185263E+03  0.16409883648E+03  0.00000000000E+00 0. -1.
        -15    1    5    5    0    0  0.10465347861E+03  0.54774964410E+02 -0.39880042213E+03  0.41592598380E+03  0.00000000000E+00 0. -1.
         15    1    5    5    0    0  0.58694934548E+02  0.17750425694E+01 -0.34482187224E+03  0.34978617711E+03  0.00000000000E+00 0.  1.
         15    1    4    4    0    0  0.73792717438E+02  0.52441964293E+01 -0.14546899554E+03  0.16319955700E+03  0.00000000000E+00 0.  1.
        -16    1    1    2    0    0 -0.89605898544E+02  0.13052502991E+03 -0.11807089055E+04  0.11912764247E+04  0.00000000000E+00 0.  1.
         16    1    3    3    0    0 -0.18783398460E+03 -0.10756615848E+03 -0.14391212434E+03  0.25992842044E+03  0.00000000000E+00 0. -1.
    9900018    1    3    3    0    0  0.10633595242E+02 -0.62774536465E+01 -0.24624283917E+03  0.26287486378E+03  0.91187600000E+02 0.  0.
<mgrwt>
<rscale>  0 0.10557567E+04</rscale>
<asrwt>0</asrwt>
<pdfrwt beam="1">  1        1 0.41600590E+00 0.10557567E+04</pdfrwt>
<pdfrwt beam="2">  1       -1 0.15854098E-01 0.10557567E+04</pdfrwt>
<totfact> 0.29690250E+01</totfact>
</mgrwt>
</event>
<event>
11    1  0.1417731E-014  0.1138645E+04  0.7818608E-02  0.9168324E-01
          2   -1    0    0  501    0  0.00000000000E+00  0.00000000000E+00  0.49503858181E+03  0.49503858181E+03  0.00000000000E+00 0. -1.
         -2   -1    0    0    0  501 -0.00000000000E+00 -0.00000000000E+00 -0.65475274443E+03  0.65475274443E+03  0.00000000000E+00 0.  1.
    9900016    2    1    2    0    0 -0.19857273747E+03  0.14037067069E+03 -0.32471657081E+02  0.70505015608E+03  0.66098884773E+03 0.  0.
         23    2    3    3    0    0  0.10338892824E+03  0.41202382711E+02  0.15602549185E+02  0.14561278826E+03  0.92589080028E+02 0.  0.
        -15    1    3    3    0    0 -0.63003761364E+02  0.28951194576E+02 -0.11519851223E+03  0.13445572816E+03  0.00000000000E+00 0.  1.
        -15    1    4    4    0    0  0.54002675482E+02 -0.10646266061E+02  0.42063863835E+02  0.69274819242E+02  0.00000000000E+00 0. -1.
         15    1    3    3    0    0 -0.75085304747E+00 -0.11475934730E+03 -0.50467458875E+01  0.11487271746E+03  0.00000000000E+00 0. -1.
         15    1    4    4    0    0  0.49386252760E+02  0.51848648772E+02 -0.26461314650E+02  0.76337969020E+02  0.00000000000E+00 0.  1.
        -16    1    3    3    0    0 -0.23820705130E+03  0.18497644070E+03  0.72171051856E+02  0.31010892220E+03  0.00000000000E+00 0.  1.
         16    1    1    2    0    0  0.27020382248E+03 -0.15002248993E+03 -0.80708019910E+02  0.31942234994E+03  0.00000000000E+00 0. -1.
    9900018    1    1    2    0    0 -0.71631085009E+02  0.96518192359E+01 -0.46534485634E+02  0.12531882022E+03  0.91187600000E+02 0.  0.
<mgrwt>
<rscale>  0 0.11386446E+04</rscale>
<asrwt>0</asrwt>
<pdfrwt beam="1">  1        2 0.76159782E-01 0.11386446E+04</pdfrwt>
<pdfrwt beam="2">  1       -2 0.10073119E+00 0.11386446E+04</pdfrwt>
<totfact> 0.50109202E+01</totfact>
</mgrwt>
</event>
<event>
12    1  0.1417731E-014  0.1116854E+04  0.7818608E-02  0.9188919E-01
         -2   -1    0    0    0  501 -0.00000000000E+00  0.00000000000E+00  0.18179430303E+03  0.18179430303E+03  0.00000000000E+00 0. -1.
          2   -1    0    0  501    0  0.00000000000E+00 -0.00000000000E+00 -0.17153478094E+04  0.17153478094E+04  0.00000000000E+00 0.  1.
    9900016    2    1    2    0    0 -0.11130405578E+03 -0.18054430330E+03 -0.79036053965E+03  0.10525694559E+04  0.66200289921E+03 0.  0.
         23    2    3    3    0    0 -0.91264397629E+02 -0.91301180508E+02 -0.34334269748E+03  0.37549872291E+03  0.80311812084E+02 0.  0.
         23    2    3    3    0    0  0.17704180135E+03 -0.41835266967E+01 -0.41891298876E+03  0.46058489198E+03  0.72725849916E+02 0.  0.
        -15    1    4    4    0    0 -0.25495152892E+02 -0.81641143070E+02 -0.19701357126E+03  0.21477808623E+03  0.00000000000E+00 0.  1.
        -15    1    5    5    0    0  0.68801284125E+02 -0.22158020086E+02 -0.24055093341E+03  0.25117592662E+03  0.00000000000E+00 0.  1.
         15    1    5    5    0    0  0.10824051723E+03  0.17974493389E+02 -0.17836205535E+03  0.20940896536E+03  0.00000000000E+00 0. -1.
         15    1    4    4    0    0 -0.65769244737E+02 -0.96600374384E+01 -0.14632912622E+03  0.16072063668E+03  0.00000000000E+00 0. -1.
        -16    1    1    2    0    0  0.81760852919E+02  0.25106822223E+03 -0.61696600852E+03  0.67109399115E+03  0.00000000000E+00 0.  1.
         16    1    3    3    0    0 -0.19708145951E+03 -0.85059596093E+02 -0.28104853405E+02  0.21648584100E+03  0.00000000000E+00 0. -1.
    9900018    1    1    2    0    0  0.29543202863E+02 -0.70523918933E+02 -0.12622695822E+03  0.17347866541E+03  0.91187600000E+02 0.  0.
<mgrwt>
<rscale>  0 0.11168535E+04</rscale>
<asrwt>0</asrwt>
<pdfrwt beam="1">  1        2 0.26389967E+00 0.11168535E+04</pdfrwt>
<pdfrwt beam="2">  1       -2 0.27968354E-01 0.11168535E+04</pdfrwt>
<totfact> 0.11141581E+02</totfact>
</mgrwt>
</event>
<event>
12    1  0.1417731E-014  0.9968796E+03  0.7818608E-02  0.9311974E-01
          4   -1    0    0  501    0  0.00000000000E+00  0.00000000000E+00  0.32965795549E+03  0.32965795549E+03  0.00000000000E+00 0. -1.
         -4   -1    0    0    0  501 -0.00000000000E+00 -0.00000000000E+00 -0.75363645080E+03  0.75363645080E+03  0.00000000000E+00 0.  1.
    9900016    2    1    2    0    0  0.52376239827E+02  0.63272336179E+02 -0.18748942959E+03  0.68853662674E+03  0.65740683076E+03 0.  0.
         23    2    3    3    0    0  0.59546935557E+02  0.20251040362E+02 -0.19053479257E+03  0.22069144143E+03  0.91898111898E+02 0.  0.
         23    2    3    3    0    0  0.86578774512E+02  0.20141472926E+03 -0.89688456494E+02  0.26174568457E+03  0.11136878740E+03 0.  0.
        -15    1    4    4    0    0  0.77812381239E+02  0.16269993141E+02 -0.97516156356E+02  0.12581287733E+03  0.00000000000E+00 0.  1.
        -15    1    5    5    0    0 -0.23983596237E+02  0.66869867793E+02 -0.17045118328E+02  0.73057019964E+02  0.00000000000E+00 0.  1.
         15    1    4    4    0    0 -0.18265445682E+02  0.39810472211E+01 -0.93018636214E+02  0.94878564102E+02  0.00000000000E+00 0. -1.
         15    1    5    5    0    0  0.11056237075E+03  0.13454486146E+03 -0.72643338166E+02  0.18868866461E+03  0.00000000000E+00 0. -1.
        -16    1    1    2    0    0 -0.10372457978E+03 -0.12120720201E+03 -0.22327691164E+03  0.27441310745E+03  0.00000000000E+00 0.  1.
         16    1    3    3    0    0 -0.93749470242E+02 -0.15839343344E+03  0.92733819475E+02  0.20609950073E+03  0.00000000000E+00 0. -1.
    9900018    1    1    2    0    0  0.51348339952E+02  0.57934865830E+02 -0.13212154089E+02  0.12034467210E+03  0.91187600000E+02 0.  0.
<mgrwt>
<rscale>  0 0.99687963E+03</rscale>
<asrwt>0</asrwt>
<pdfrwt beam="1">  1        4 0.50716609E-01 0.99687963E+03</pdfrwt>
<pdfrwt beam="2">  1       -4 0.11594407E+00 0.99687963E+03</pdfrwt>
<totfact> 0.42849665E+00</totfact>
</mgrwt>
</event>
<event>
12    1  0.1417731E-014  0.9170362E+03  0.7818608E-02  0.9404532E-01
          1   -1    0    0  501    0  0.00000000000E+00  0.00000000000E+00  0.12140744299E+03  0.12140744299E+03  0.00000000000E+00 0. -1.
         -1   -1    0    0    0  501 -0.00000000000E+00 -0.00000000000E+00 -0.17316798925E+04  0.17316798925E+04  0.00000000000E+00 0.  1.
    9900016    2    1    2    0    0 -0.12881569616E+03  0.28731044745E+02 -0.12698908525E+04  0.14880139345E+04  0.76429296447E+03 0.  0.
         23    2    3    3    0    0  0.11145480704E+03 -0.88228852938E+02 -0.80605787404E+03  0.82368916992E+03  0.92347430027E+02 0.  0.
         23    2    3    3    0    0 -0.24955723390E+03  0.15900949105E+03 -0.30719649434E+03  0.44021681540E+03  0.10889594663E+03 0.  0.
        -15    1    5    5    0    0 -0.31306490680E+02 -0.52476422164E+01 -0.37954423730E+01  0.31969352360E+02  0.00000000000E+00 0.  1.
        -15    1    4    4    0    0  0.86693557377E+02 -0.13560500320E+02 -0.34595813777E+03  0.35691272484E+03  0.00000000000E+00 0.  1.
         15    1    5    5    0    0 -0.21825074322E+03  0.16425713326E+03 -0.30340105197E+03  0.40824746304E+03  0.00000000000E+00 0. -1.
         15    1    4    4    0    0  0.24761249665E+02 -0.74668352618E+02 -0.46009973627E+03  0.46677644508E+03  0.00000000000E+00 0. -1.
        -16    1    1    2    0    0  0.12881569616E+03 -0.28731044745E+02 -0.34038159704E+03  0.36507340100E+03  0.00000000000E+00 0.  1.
         16    1    3    3    0    0  0.29979505438E+02 -0.51223280393E+02 -0.94065420076E+02  0.11122454070E+03  0.00000000000E+00 0. -1.
    9900018    1    3    3    0    0 -0.20692774740E+02  0.91736870298E+01 -0.62571063995E+02  0.11288340845E+03  0.91187600000E+02 0.  0.
<mgrwt>
<rscale>  0 0.91703616E+03</rscale>
<asrwt>0</asrwt>
<pdfrwt beam="1">  1        1 0.18678070E-01 0.91703616E+03</pdfrwt>
<pdfrwt beam="2">  1       -1 0.26641227E+00 0.91703616E+03</pdfrwt>
<totfact> 0.15956835E+01</totfact>
</mgrwt>
</event>
<event>
11    1  0.1417731E-014  0.9397569E+03  0.7818608E-02  0.9377204E-01
          2   -1    0    0  501    0  0.00000000000E+00  0.00000000000E+00  0.14694199686E+04  0.14694199686E+04  0.00000000000E+00 0. -1.
         -2   -1    0    0    0  501 -0.00000000000E+00 -0.00000000000E+00 -0.15025369480E+03  0.15025369480E+03  0.00000000000E+00 0.  1.
    9900016    2    1    2    0    0  0.10438488658E+03 -0.21092836358E+01  0.13104297393E+04  0.15149025764E+04  0.75286324178E+03 0.  0.
         23    2    3    3    0    0 -0.11760043742E+03  0.10287970373E+03  0.27021992551E+03  0.32536120025E+03  0.91798726378E+02 0.  0.
        -15    1    4    4    0    0 -0.12239245152E+03  0.62710251960E+02  0.18030665822E+03  0.22676635308E+03  0.00000000000E+00 0.  1.
        -15    1    3    3    0    0 -0.96666198786E+02 -0.45313192947E+02  0.33943861887E+03  0.35583172347E+03  0.00000000000E+00 0. -1.
         15    1    3    3    0    0  0.65934556476E+02  0.31122024381E+02  0.16487489994E+03  0.18027667284E+03  0.00000000000E+00 0.  1.
         15    1    4    4    0    0  0.47920140936E+01  0.40169451774E+02  0.89913267291E+02  0.98594847177E+02  0.00000000000E+00 0. -1.
        -16    1    1    2    0    0 -0.10438488658E+03  0.21092836358E+01  0.87365344770E+01  0.10477108694E+03  0.00000000000E+00 0.  1.
         16    1    3    3    0    0  0.24905993404E+03 -0.73458597243E+02  0.28331032881E+03  0.38430685482E+03  0.00000000000E+00 0. -1.
    9900018    1    3    3    0    0  0.36570322776E+01 -0.17339221561E+02  0.25258596617E+03  0.26912612506E+03  0.91187600000E+02 0.  0.
<mgrwt>
<rscale>  0 0.93975695E+03</rscale>
<asrwt>0</asrwt>
<pdfrwt beam="1">  1        2 0.22606460E+00 0.93975695E+03</pdfrwt>
<pdfrwt beam="2">  1       -2 0.23115954E-01 0.93975695E+03</pdfrwt>
<totfact> 0.21840871E+02</totfact>
</mgrwt>
</event>
<event>
12    1  0.1883430E-014  0.1366048E+04  0.7818608E-02  0.8978768E-01
         -2   -1    0    0    0  501 -0.00000000000E+00  0.00000000000E+00  0.10076095000E+04  0.10076095000E+04  0.00000000000E+00 0.  1.
          2   -1    0    0  501    0  0.00000000000E+00 -0.00000000000E+00 -0.46299882799E+03  0.46299882799E+03  0.00000000000E+00 0. -1.
    9900016    2    1    2    0    0 -0.84267157103E+02 -0.42781823107E+03  0.37663532404E+03  0.87594229716E+03  0.65976613132E+03 0.  0.
         23    2    3    3    0    0 -0.97651449862E+02 -0.13883173271E+02  0.85091577309E+02  0.15938503936E+03  0.91839349308E+02 0.  0.
         23    2    3    3    0    0 -0.13584974830E+02  0.51863349435E+02 -0.79494543225E+02  0.12043234624E+03  0.72871181292E+02 0.  0.
        -15    1    4    4    0    0 -0.97107163078E+02 -0.24632369569E+02  0.31934454466E+02  0.10514924695E+03  0.00000000000E+00 0. -1.
        -15    1    5    5    0    0  0.14994840950E+02  0.48089335737E+01 -0.59995098343E+02  0.62027275633E+02  0.00000000000E+00 0.  1.
         15    1    5    5    0    0 -0.28579815779E+02  0.47054415862E+02 -0.19499444882E+02  0.58405070608E+02  0.00000000000E+00 0. -1.
         15    1    4    4    0    0 -0.54428678373E+00  0.10749196299E+02  0.53157122843E+02  0.54235792408E+02  0.00000000000E+00 0.  1.
        -16    1    1    2    0    0  0.78290778196E+02  0.46125813367E+03  0.16873685418E+03  0.49735363453E+03  0.00000000000E+00 0.  1.
         16    1    3    3    0    0  0.26969267588E+02 -0.46579840723E+03  0.37103828996E+03  0.59612491157E+03  0.00000000000E+00 0. -1.
    9900018    1    1    2    0    0  0.59763789077E+01 -0.33439902600E+02 -0.76150618601E+00  0.97312396313E+02  0.91187600000E+02 0.  0.
<mgrwt>
<rscale>  0 0.13660483E+04</rscale>
<asrwt>0</asrwt>
<pdfrwt beam="1">  1        2 0.71230589E-01 0.13660483E+04</pdfrwt>
<pdfrwt beam="2">  1       -2 0.15501685E+00 0.13660483E+04</pdfrwt>
<totfact> 0.18005366E+01</totfact>
</mgrwt>
</event>
<event>
12    1  0.1417731E-014  0.1118503E+04  0.7818608E-02  0.9187343E-01
         -2   -1    0    0    0  501 -0.00000000000E+00  0.00000000000E+00  0.25271534332E+03  0.25271534332E+03  0.00000000000E+00 0. -1.
          2   -1    0    0  501    0  0.00000000000E+00 -0.00000000000E+00 -0.12376071129E+04  0.12376071129E+04  0.00000000000E+00 0.  1.
    9900016    2    1    2    0    0  0.13881666509E+03  0.26634747960E+03 -0.74097249927E+03  0.11034017191E+04  0.76042360736E+03 0.  0.
         23    2    3    3    0    0 -0.89822378777E+02  0.18704706465E+03 -0.15348553022E+03  0.27422506859E+03  0.92665614615E+02 0.  0.
         23    2    3    3    0    0  0.13287931421E+03 -0.14427279168E+03 -0.12968320366E+03  0.26152259258E+03  0.11447612219E+03 0.  0.
        -15    1    5    5    0    0  0.10097672526E+03 -0.65379127848E+02 -0.18810993957E+02  0.12175624377E+03  0.00000000000E+00 0.  1.
        -15    1    4    4    0    0 -0.10348310487E+03  0.12873749155E+03 -0.12877098913E+03  0.20943749035E+03  0.00000000000E+00 0. -1.
         15    1    5    5    0    0  0.31902588953E+02 -0.78893663836E+02 -0.11087220971E+03  0.13976634881E+03  0.00000000000E+00 0. -1.
         15    1    4    4    0    0  0.13660726090E+02  0.58309573105E+02 -0.24714541096E+02  0.64787578243E+02  0.00000000000E+00 0.  1.
        -16    1    1    2    0    0 -0.13881666509E+03 -0.26634747960E+03 -0.24391927035E+03  0.38692073716E+03  0.00000000000E+00 0.  1.
         16    1    3    3    0    0  0.95375979565E+02  0.22493137243E+03 -0.32672077350E+03  0.40796711095E+03  0.00000000000E+00 0. -1.
    9900018    1    3    3    0    0  0.38375008984E+00 -0.13581657921E+01 -0.13108299189E+03  0.15968694697E+03  0.91187600000E+02 0.  0.
<mgrwt>
<rscale>  0 0.11185031E+04</rscale>
<asrwt>0</asrwt>
<pdfrwt beam="1">  1        2 0.19040110E+00 0.11185031E+04</pdfrwt>
<pdfrwt beam="2">  1       -2 0.38879283E-01 0.11185031E+04</pdfrwt>
<totfact> 0.11145455E+02</totfact>
</mgrwt>
</event>
<event>
11    1  0.1417731E-014  0.1402130E+04  0.7818608E-02  0.8952278E-01
          2   -1    0    0  501    0  0.00000000000E+00  0.00000000000E+00  0.15574119613E+04  0.15574119613E+04  0.00000000000E+00 0. -1.
         -2   -1    0    0    0  501 -0.00000000000E+00 -0.00000000000E+00 -0.31558247478E+03  0.31558247478E+03  0.00000000000E+00 0.  1.
    9900016    2    1    2    0    0 -0.12062749752E+03  0.17817421495E+03  0.23849457445E+03  0.74017531844E+03  0.66684540634E+03 0.  0.
         23    2    3    3    0    0 -0.91372676284E+02 -0.61944261940E+02 -0.12948298248E+03  0.19272122659E+03  0.90496247817E+02 0.  0.
        -15    1    4    4    0    0 -0.74502454582E+02 -0.11975553354E+02 -0.11583308525E+03  0.13824374581E+03  0.00000000000E+00 0.  1.
        -15    1    3    3    0    0 -0.14508714125E+02  0.25656367376E+03  0.22742644373E+03  0.34315915955E+03  0.00000000000E+00 0.  1.
         15    1    4    4    0    0 -0.16870221703E+02 -0.49968708586E+02 -0.13649897227E+02  0.54477480782E+02  0.00000000000E+00 0. -1.
         15    1    3    3    0    0 -0.65435390071E+02  0.27161214029E+02  0.34201606247E+02  0.78671924415E+02  0.00000000000E+00 0. -1.
        -16    1    3    3    0    0  0.50689282961E+02 -0.43606410906E+02  0.10634950696E+03  0.12562300788E+03  0.00000000000E+00 0.  1.
         16    1    1    2    0    0  0.13496169887E+03 -0.23289215844E+03  0.98849887048E+03  0.10244917933E+04  0.00000000000E+00 0. -1.
    9900018    1    1    2    0    0 -0.14334201353E+02  0.54717943495E+02  0.14836041567E+02  0.10832732431E+03  0.91187600000E+02 0.  0.
<mgrwt>
<rscale>  0 0.14021297E+04</rscale>
<asrwt>0</asrwt>
<pdfrwt beam="1">  1        2 0.23960184E+00 0.14021297E+04</pdfrwt>
<pdfrwt beam="2">  1       -2 0.48551151E-01 0.14021297E+04</pdfrwt>
<totfact> 0.46059954E+01</totfact>
</mgrwt>
</event>
<event>
12    1  0.1417731E-014  0.9110956E+03  0.7818608E-02  0.9411817E-01
          1   -1    0    0  501    0  0.00000000000E+00  0.00000000000E+00  0.24666832393E+03  0.24666832393E+03  0.00000000000E+00 0. -1.
         -1   -1    0    0    0  501 -0.00000000000E+00 -0.00000000000E+00 -0.84130706179E+03  0.84130706179E+03  0.00000000000E+00 0.  1.
    9900016    2    1    2    0    0 -0.45284741415E+02 -0.28624965090E+02 -0.58773319931E+03  0.88734183185E+03  0.66262743420E+03 0.  0.
         23    2    3    3    0    0  0.37469197889E+02 -0.46463013380E+02 -0.13997749837E+02  0.10793779394E+03  0.88836242362E+02 0.  0.
         23    2    3    3    0    0  0.15383336649E+03 -0.69748601569E+02 -0.47490355568E+03  0.50845622426E+03  0.66818954839E+02 0.  0.
        -15    1    5    5    0    0  0.73499201144E+02 -0.35836945577E+01 -0.25066744584E+03  0.26124537095E+03  0.00000000000E+00 0.  1.
        -15    1    4    4    0    0  0.54988665536E+02 -0.61369093757E+02 -0.30362857891E+01  0.82456885931E+02  0.00000000000E+00 0. -1.
         15    1    5    5    0    0  0.80334165342E+02 -0.66164907011E+02 -0.22423610983E+03  0.24721085331E+03  0.00000000000E+00 0. -1.
         15    1    4    4    0    0 -0.17519467647E+02  0.14906080376E+02 -0.10961464048E+02  0.25480908008E+02  0.00000000000E+00 0.  1.
        -16    1    3    3    0    0 -0.23658730579E+03  0.87586649859E+02 -0.98831893800E+02  0.27094781366E+03  0.00000000000E+00 0.  1.
         16    1    1    2    0    0  0.60020195895E+02  0.63646808504E+02  0.33804138680E+02  0.93787312254E+02  0.00000000000E+00 0. -1.
    9900018    1    1    2    0    0 -0.14735454480E+02 -0.35021843413E+02 -0.40709677225E+02  0.10684624162E+03  0.91187600000E+02 0.  0.
<mgrwt>
<rscale>  0 0.91109561E+03</rscale>
<asrwt>0</asrwt>
<pdfrwt beam="1">  1        1 0.37948973E-01 0.91109561E+03</pdfrwt>
<pdfrwt beam="2">  1       -1 0.12943186E+00 0.91109561E+03</pdfrwt>
<totfact> 0.58491943E+01</totfact>
</mgrwt>
</event>
<event>
12    1  0.1417731E-014  0.1040218E+04  0.7818608E-02  0.9265502E-01
         -1   -1    0    0    0  501 -0.00000000000E+00  0.00000000000E+00  0.69107356959E+03  0.69107356959E+03  0.00000000000E+00 0.  1.
          1   -1    0    0  501    0  0.00000000000E+00 -0.00000000000E+00 -0.39143910183E+03  0.39143910183E+03  0.00000000000E+00 0. -1.
    9900016    2    1    2    0    0  0.27321523874E+02  0.14581318165E+03  0.27491735476E+03  0.72968189290E+03  0.65943018074E+03 0.  0.
         23    2    3    3    0    0 -0.12451810517E+03  0.13521507842E+02 -0.26239508998E+02  0.15611945523E+03  0.89426968976E+02 0.  0.
         23    2    3    3    0    0 -0.85792853425E+02  0.19406559638E+02  0.28734969016E+03  0.31011816696E+03  0.76592459068E+02 0.  0.
        -15    1    5    5    0    0 -0.50252557133E+02  0.46172880958E+02  0.13303880908E+03  0.14952116625E+03  0.00000000000E+00 0.  1.
        -15    1    4    4    0    0 -0.28961299715E+02  0.43204562284E+02 -0.20456719398E+02  0.55891577647E+02  0.00000000000E+00 0. -1.
         15    1    4    4    0    0 -0.95556805457E+02 -0.29683054442E+02 -0.57827896008E+01  0.10022787759E+03  0.00000000000E+00 0.  1.
         15    1    5    5    0    0 -0.35540296291E+02 -0.26766321320E+02  0.15431088108E+03  0.16059700071E+03  0.00000000000E+00 0. -1.
        -16    1    1    2    0    0 -0.80460701897E+02 -0.21149060714E+03  0.10041385957E+01  0.22628126248E+03  0.00000000000E+00 0.  1.
         16    1    3    3    0    0  0.23763248247E+03  0.11288511417E+03  0.13807173597E+02  0.26344427071E+03  0.00000000000E+00 0. -1.
    9900018    1    1    2    0    0  0.53139178023E+02  0.65677425483E+02  0.23712974409E+02  0.12654951603E+03  0.91187600000E+02 0.  0.
<mgrwt>
<rscale>  0 0.10402177E+04</rscale>
<asrwt>0</asrwt>
<pdfrwt beam="1">  1        1 0.60221400E-01 0.10402177E+04</pdfrwt>
<pdfrwt beam="2">  1       -1 0.10631901E+00 0.10402177E+04</pdfrwt>
<totfact> 0.51101013E+01</totfact>
</mgrwt>
</event>
<event>
11    1  0.1417731E-014  0.1024472E+04  0.7818608E-02  0.9282104E-01
          1   -1    0    0  501    0  0.00000000000E+00  0.00000000000E+00  0.18810540219E+04  0.18810540219E+04  0.00000000000E+00 0. -1.
         -1   -1    0    0    0  501 -0.00000000000E+00 -0.00000000000E+00 -0.13948870560E+03  0.13948870560E+03  0.00000000000E+00 0.  1.
    9900016    2    1    2    0    0 -0.15708643393E+03 -0.87497026438E+02  0.13766028563E+04  0.15402915982E+04  0.66718131433E+03 0.  0.
         23    2    3    3    0    0 -0.27174280460E+03 -0.90490038814E+02  0.60199801350E+03  0.67280816413E+03  0.90755817915E+02 0.  0.
        -15    1    4    4    0    0 -0.75368728747E+02 -0.12630650871E+02  0.84915631805E+02  0.11423941150E+03  0.00000000000E+00 0. -1.
        -15    1    3    3    0    0  0.44415765204E+02  0.84852313745E+02  0.24538736430E+02  0.98867714306E+02  0.00000000000E+00 0.  1.
         15    1    3    3    0    0 -0.36474000990E+02 -0.37385927348E+02  0.23274214150E+03  0.23853084652E+03  0.00000000000E+00 0.  1.
         15    1    4    4    0    0 -0.19637407585E+03 -0.77859387943E+02  0.51708238169E+03  0.55856875263E+03  0.00000000000E+00 0. -1.
        -16    1    1    2    0    0  0.19484242577E+03  0.61953070896E+02  0.19793838106E+03  0.28457223436E+03  0.00000000000E+00 0.  1.
         16    1    3    3    0    0  0.10671460645E+03 -0.44473374021E+02  0.51732396485E+03  0.53008487324E+03  0.00000000000E+00 0. -1.
    9900018    1    1    2    0    0 -0.37755991837E+02  0.25543955542E+02  0.16702407901E+03  0.19567889500E+03  0.91187600000E+02 0.  0.
<mgrwt>
<rscale>  0 0.10244721E+04</rscale>
<asrwt>0</asrwt>
<pdfrwt beam="1">  1        1 0.28939291E+00 0.10244721E+04</pdfrwt>
<pdfrwt beam="2">  1       -1 0.21459802E-01 0.10244721E+04</pdfrwt>
<totfact> 0.65467768E+01</totfact>
</mgrwt>
</event>
<event>
12    1  0.1417731E-014  0.1077601E+04  0.7818608E-02  0.9227302E-01
         -3   -1    0    0    0  501 -0.00000000000E+00  0.00000000000E+00  0.49043301653E+03  0.49043301653E+03  0.00000000000E+00 0.  1.
          3   -1    0    0  501    0  0.00000000000E+00 -0.00000000000E+00 -0.59193843934E+03  0.59193843934E+03  0.00000000000E+00 0. -1.
    9900016    2    1    2    0    0  0.15288118674E+03  0.22511440917E+03 -0.46956612532E+02  0.80483816565E+03  0.75598306525E+03 0.  0.
         23    2    3    3    0    0  0.10864401334E+02  0.63283405681E+02 -0.16693821480E+03  0.20082844523E+03  0.91328375666E+02 0.  0.
         23    2    3    3    0    0 -0.24220727577E+02  0.70668776483E+02  0.25116723694E+03  0.27185497188E+03  0.72383873951E+02 0.  0.
        -15    1    5    5    0    0  0.10370890910E+02  0.66043360217E+02  0.13645649074E+03  0.15195280409E+03  0.00000000000E+00 0. -1.
        -15    1    4    4    0    0 -0.27852559722E+02  0.50897860520E+01 -0.11805150671E+02  0.30676254457E+02  0.00000000000E+00 0.  1.
         15    1    4    4    0    0  0.38716961056E+02  0.58193619629E+02 -0.15513306413E+03  0.17015219077E+03  0.00000000000E+00 0. -1.
         15    1    5    5    0    0 -0.34591618487E+02  0.46254162661E+01  0.11471074620E+03  0.11990216779E+03  0.00000000000E+00 0.  1.
        -16    1    3    3    0    0  0.15974625371E+03  0.22728025076E+02 -0.14524410103E+03  0.21709739193E+03  0.00000000000E+00 0.  1.
         16    1    1    2    0    0 -0.15288118674E+03 -0.22511440917E+03 -0.54548810279E+02  0.27753329021E+03  0.00000000000E+00 0. -1.
    9900018    1    3    3    0    0  0.64912592707E+01  0.68434201929E+02  0.14058466357E+02  0.11505735661E+03  0.91187600000E+02 0.  0.
<mgrwt>
<rscale>  0 0.10776013E+04</rscale>
<asrwt>0</asrwt>
<pdfrwt beam="1">  1        3 0.91067453E-01 0.10776013E+04</pdfrwt>
<pdfrwt beam="2">  1       -3 0.75451233E-01 0.10776013E+04</pdfrwt>
<totfact> 0.46866979E+00</totfact>
</mgrwt>
</event>
<event>
12    1  0.1417731E-014  0.8451502E+03  0.7818608E-02  0.9496869E-01
         -2   -1    0    0    0  501 -0.00000000000E+00  0.00000000000E+00  0.26125992005E+03  0.26125992005E+03  0.00000000000E+00 0.  1.
          2   -1    0    0  501    0  0.00000000000E+00 -0.00000000000E+00 -0.68349445415E+03  0.68349445415E+03  0.00000000000E+00 0. -1.
    9900016    2    1    2    0    0  0.87158075711E+01 -0.30921225410E+02 -0.46703039077E+03  0.88962945917E+03  0.75649924074E+03 0.  0.
         23    2    3    3    0    0 -0.72524196834E+02 -0.65300288304E+01 -0.28093200005E+02  0.11956995882E+03  0.90583369134E+02 0.  0.
         23    2    3    3    0    0  0.22164576397E+03 -0.14341413531E+03 -0.28181309695E+03  0.39052559132E+03  0.58285135061E+02 0.  0.
        -15    1    4    4    0    0 -0.50064528840E+02 -0.47649124149E+02 -0.20613102521E+02  0.72123477979E+02  0.00000000000E+00 0.  1.
        -15    1    5    5    0    0  0.16896614110E+03 -0.87765746632E+02 -0.17177616344E+03  0.25643602213E+03  0.00000000000E+00 0.  1.
         15    1    4    4    0    0 -0.22459667994E+02  0.41119095319E+02 -0.74800974838E+01  0.47446480845E+02  0.00000000000E+00 0. -1.
         15    1    5    5    0    0  0.52679622866E+02 -0.55648388683E+02 -0.11003693351E+03  0.13408956919E+03  0.00000000000E+00 0. -1.
        -16    1    1    2    0    0 -0.87158075711E+01  0.30921225410E+02  0.44795856670E+02  0.55124915032E+02  0.00000000000E+00 0.  1.
         16    1    3    3    0    0 -0.17132496926E+03  0.15138705638E+03 -0.54282193175E+02  0.23498264282E+03  0.00000000000E+00 0. -1.
    9900018    1    3    3    0    0  0.30919209696E+02 -0.32364117648E+02 -0.10284190064E+03  0.14455126620E+03  0.91187600000E+02 0.  0.
<mgrwt>
<rscale>  0 0.84515018E+03</rscale>
<asrwt>0</asrwt>
<pdfrwt beam="1">  1        2 0.10515299E+00 0.84515018E+03</pdfrwt>
<pdfrwt beam="2">  1       -2 0.40193834E-01 0.84515018E+03</pdfrwt>
<totfact> 0.24849305E+02</totfact>
</mgrwt>
</event>
<event>
12    1  0.1417731E-014  0.9126096E+03  0.7818608E-02  0.9409955E-01
          2   -1    0    0  501    0  0.00000000000E+00  0.00000000000E+00  0.93956483048E+03  0.93956483048E+03  0.00000000000E+00 0. -1.
         -2   -1    0    0    0  501 -0.00000000000E+00 -0.00000000000E+00 -0.22160692887E+03  0.22160692887E+03  0.00000000000E+00 0.  1.
    9900016    2    1    2    0    0  0.80639827169E+02 -0.28046313372E+02  0.49822830187E+03  0.82980088253E+03  0.65806434826E+03 0.  0.
         23    2    3    3    0    0  0.17649484325E+03  0.15202822453E+03  0.16924638930E+03  0.30221448579E+03  0.91794577078E+02 0.  0.
         23    2    3    3    0    0 -0.21143758195E+03 -0.10488780966E+03  0.30199019924E+03  0.38708399026E+03  0.54116831089E+02 0.  0.
        -15    1    5    5    0    0 -0.98283174443E+02 -0.66079703566E+02  0.18569536301E+03  0.22024730973E+03  0.00000000000E+00 0.  1.
        -15    1    4    4    0    0  0.11821522699E+03  0.58749918117E+02  0.53197584559E+02  0.14232489513E+03  0.00000000000E+00 0. -1.
         15    1    4    4    0    0  0.58279616264E+02  0.93278306416E+02  0.11604880474E+03  0.15988959066E+03  0.00000000000E+00 0.  1.
         15    1    5    5    0    0 -0.11315440751E+03 -0.38808106090E+02  0.11629483623E+03  0.16683668053E+03  0.00000000000E+00 0. -1.
        -16    1    1    2    0    0 -0.13640429441E+03  0.14613068194E+02  0.96691863986E+02  0.16783619948E+03  0.00000000000E+00 0.  1.
         16    1    3    3    0    0  0.11558256586E+03 -0.75186728249E+02  0.26991713331E+02  0.14050240647E+03  0.00000000000E+00 0. -1.
    9900018    1    1    2    0    0  0.55764467237E+02  0.13433245177E+02  0.12303773575E+03  0.16353467735E+03  0.91187600000E+02 0.  0.
<mgrwt>
<rscale>  0 0.91260961E+03</rscale>
<asrwt>0</asrwt>
<pdfrwt beam="1">  1        2 0.14454843E+00 0.91260961E+03</pdfrwt>
<pdfrwt beam="2">  1       -2 0.34093374E-01 0.91260961E+03</pdfrwt>
<totfact> 0.22241602E+02</totfact>
</mgrwt>
</event>
<event>
12    1  0.1417731E-014  0.1134540E+04  0.7818608E-02  0.9172165E-01
          1   -1    0    0  501    0  0.00000000000E+00  0.00000000000E+00  0.42549491944E+03  0.42549491944E+03  0.00000000000E+00 0. -1.
         -1   -1    0    0    0  501 -0.00000000000E+00 -0.00000000000E+00 -0.75628494711E+03  0.75628494711E+03  0.00000000000E+00 0.  1.
    9900016    2    1    2    0    0 -0.24930775450E+03 -0.16380251224E+03 -0.16928724093E+03  0.84256198731E+03  0.76958879478E+03 0.  0.
         23    2    3    3    0    0 -0.17921053911E+03 -0.20200783648E+03 -0.59013344992E+02  0.29029980127E+03  0.88700712530E+02 0.  0.
         23    2    3    3    0    0 -0.16310285184E+03  0.34186915404E+02 -0.12925258629E+03  0.23532566356E+03  0.10440618468E+03 0.  0.
        -15    1    4    4    0    0 -0.26137028204E+02 -0.53515627097E+02 -0.48448510684E+02  0.76774506019E+02  0.00000000000E+00 0.  1.
        -15    1    5    5    0    0 -0.74028859481E+02  0.34815622645E+02 -0.43617601017E+01  0.81923284647E+02  0.00000000000E+00 0. -1.
         15    1    4    4    0    0 -0.15307351091E+03 -0.14849220938E+03 -0.10564834308E+02  0.21352529525E+03  0.00000000000E+00 0. -1.
         15    1    5    5    0    0 -0.89073992363E+02 -0.62870724027E+00 -0.12489082619E+03  0.15340237891E+03  0.00000000000E+00 0.  1.
        -16    1    1    2    0    0  0.24930775450E+03  0.16380251224E+03 -0.16150278673E+03  0.33921787924E+03  0.00000000000E+00 0.  1.
         16    1    3    3    0    0  0.17047676414E+03 -0.29025916525E+02  0.64720483797E+02  0.18464444743E+03  0.00000000000E+00 0. -1.
    9900018    1    3    3    0    0 -0.77471127689E+02  0.33044325353E+02 -0.45741793447E+02  0.13229207506E+03  0.91187600000E+02 0.  0.
<mgrwt>
<rscale>  0 0.11345403E+04</rscale>
<asrwt>0</asrwt>
<pdfrwt beam="1">  1        1 0.65460756E-01 0.11345403E+04</pdfrwt>
<pdfrwt beam="2">  1       -1 0.11635153E+00 0.11345403E+04</pdfrwt>
<totfact> 0.36659685E+01</totfact>
</mgrwt>
</event>
<event>
12    1  0.1417731E-014  0.1575487E+04  0.7818608E-02  0.8835751E-01
          1   -1    0    0  501    0  0.00000000000E+00  0.00000000000E+00  0.10894829045E+04  0.10894829045E+04  0.00000000000E+00 0. -1.
         -1   -1    0    0    0  501 -0.00000000000E+00 -0.00000000000E+00 -0.56957258579E+03  0.56957258579E+03  0.00000000000E+00 0.  1.
    9900016    2    1    2    0    0  0.53031418979E+03 -0.49639105903E+02  0.39017552291E+02  0.84478181482E+03  0.65455081128E+03 0.  0.
         23    2    3    3    0    0 -0.79784710766E+02 -0.13279483477E+02 -0.11119863701E+02  0.12172181460E+03  0.90280695757E+02 0.  0.
         23    2    3    3    0    0  0.52066709654E+03 -0.12589544169E+03  0.14189802481E+03  0.56674391074E+03  0.11882644175E+03 0.  0.
        -15    1    4    4    0    0 -0.79645211032E+02 -0.43152257919E+02 -0.14200037973E+02  0.91690337999E+02  0.00000000000E+00 0. -1.
        -15    1    5    5    0    0  0.18245250318E+03 -0.96204131318E+02  0.82107416955E+02  0.22200400608E+03  0.00000000000E+00 0. -1.
         15    1    4    4    0    0 -0.13949973402E+00  0.29872774443E+02  0.30801742724E+01  0.30031476597E+02  0.00000000000E+00 0.  1.
         15    1    5    5    0    0  0.33821459336E+03 -0.29691310372E+02  0.59790607856E+02  0.34473990466E+03  0.00000000000E+00 0.  1.
        -16    1    3    3    0    0  0.89431804013E+02  0.89535819264E+02 -0.91760608820E+02  0.15631608948E+03  0.00000000000E+00 0.  1.
         16    1    1    2    0    0 -0.52829416948E+03  0.63853352915E+02  0.48755662259E+03  0.72172255086E+03  0.00000000000E+00 0. -1.
    9900018    1    1    2    0    0 -0.20200203044E+01 -0.14214247011E+02 -0.66638561392E+01  0.92551124642E+02  0.91187600000E+02 0.  0.
<mgrwt>
<rscale>  0 0.15754867E+04</rscale>
<asrwt>0</asrwt>
<pdfrwt beam="1">  1        1 0.16761275E+00 0.15754867E+04</pdfrwt>
<pdfrwt beam="2">  1       -1 0.87626552E-01 0.15754867E+04</pdfrwt>
<totfact> 0.15908233E+01</totfact>
</mgrwt>
</event>
<event>
12    1  0.1417731E-014  0.8661765E+03  0.7818608E-02  0.9468879E-01
         -2   -1    0    0    0  501 -0.00000000000E+00  0.00000000000E+00  0.23679570847E+03  0.23679570847E+03  0.00000000000E+00 0. -1.
          2   -1    0    0  501    0  0.00000000000E+00 -0.00000000000E+00 -0.79209808289E+03  0.79209808289E+03  0.00000000000E+00 0.  1.
    9900016    2    1    2    0    0 -0.68953197695E+02  0.58155194052E+00 -0.32262039352E+03  0.73132207467E+03  0.65268152794E+03 0.  0.
         23    2    3    3    0    0 -0.59171418796E+02 -0.51897866556E+02 -0.38088440500E+03  0.39933176445E+03  0.90544369078E+02 0.  0.
         23    2    3    3    0    0  0.10050778671E+03  0.14096713303E+03  0.34057591842E+02  0.18853364548E+03  0.66418883849E+02 0.  0.
        -15    1    4    4    0    0 -0.45318193446E+02 -0.58633634883E+02 -0.37590951077E+03  0.38314436193E+03  0.00000000000E+00 0.  1.
        -15    1    5    5    0    0  0.85401281639E+02  0.13453045588E+03  0.10335783947E+02  0.15968296996E+03  0.00000000000E+00 0.  1.
         15    1    5    5    0    0  0.15106505071E+02  0.64366771500E+01  0.23721807895E+02  0.28850675521E+02  0.00000000000E+00 0. -1.
         15    1    4    4    0    0 -0.13853225350E+02  0.67357683275E+01 -0.49748942305E+01  0.16187402514E+02  0.00000000000E+00 0. -1.
        -16    1    1    2    0    0  0.88230992727E+02 -0.73289223973E+00 -0.82356933803E+02  0.12069759631E+03  0.00000000000E+00 0.  1.
         16    1    3    3    0    0 -0.11028956561E+03 -0.88487714537E+02  0.24206419636E+02  0.14345666474E+03  0.00000000000E+00 0. -1.
    9900018    1    1    2    0    0 -0.19277795031E+02  0.15134029921E+00 -0.15032504709E+03  0.17687412039E+03  0.91187600000E+02 0.  0.
<mgrwt>
<rscale>  0 0.86617649E+03</rscale>
<asrwt>0</asrwt>
<pdfrwt beam="1">  1        2 0.12186124E+00 0.86617649E+03</pdfrwt>
<pdfrwt beam="2">  1       -2 0.36430109E-01 0.86617649E+03</pdfrwt>
<totfact> 0.24836491E+02</totfact>
</mgrwt>
</event>
<event>
12    1  0.1417731E-014  0.1005208E+04  0.7818608E-02  0.9302851E-01
         -2   -1    0    0    0  501 -0.00000000000E+00  0.00000000000E+00  0.25432194057E+03  0.25432194057E+03  0.00000000000E+00 0.  1.
          2   -1    0    0  501    0  0.00000000000E+00 -0.00000000000E+00 -0.99327231407E+03  0.99327231407E+03  0.00000000000E+00 0. -1.
    9900016    2    1    2    0    0 -0.78752137327E+02  0.17860521492E+03 -0.57750862482E+03  0.90421296988E+03  0.66781970713E+03 0.  0.
         23    2    3    3    0    0  0.28934750948E+02  0.19543346465E+02 -0.95695673036E+02  0.13831323922E+03  0.93561360094E+02 0.  0.
         23    2    3    3    0    0  0.16605450828E+03  0.49348543965E+02 -0.76422163750E+01  0.20750090179E+03  0.11396860210E+03 0.  0.
        -15    1    4    4    0    0  0.34395015816E+02  0.47287764759E+02 -0.27761322476E+02  0.64728979866E+02  0.00000000000E+00 0.  1.
        -15    1    5    5    0    0  0.46323241761E+02 -0.10486207476E+02  0.43313813443E+02  0.64279776831E+02  0.00000000000E+00 0.  1.
         15    1    4    4    0    0 -0.54602648676E+01 -0.27744418294E+02 -0.67934350560E+02  0.73584259355E+02  0.00000000000E+00 0. -1.
         15    1    5    5    0    0  0.11973126651E+03  0.59834751441E+02 -0.50956029818E+02  0.14322112496E+03  0.00000000000E+00 0. -1.
        -16    1    3    3    0    0 -0.27374139655E+03  0.10971332449E+03 -0.47417073541E+03  0.55839882886E+03  0.00000000000E+00 0.  1.
         16    1    1    2    0    0  0.10710304614E+03 -0.17754576287E+03 -0.10447894257E+03  0.23218399998E+03  0.00000000000E+00 0. -1.
    9900018    1    1    2    0    0 -0.28350908815E+02 -0.10594520494E+01 -0.56962806107E+02  0.11119728478E+03  0.91187600000E+02 0.  0.
<mgrwt>
<rscale>  0 0.10052083E+04</rscale>
<asrwt>0</asrwt>
<pdfrwt beam="1">  1        2 0.15281113E+00 0.10052083E+04</pdfrwt>
<pdfrwt beam="2">  1       -2 0.39126451E-01 0.10052083E+04</pdfrwt>
<totfact> 0.15666648E+02</totfact>
</mgrwt>
</event>
<event>
12    1  0.1417731E-014  0.9970992E+03  0.7818608E-02  0.9311732E-01
         -2   -1    0    0    0  501 -0.00000000000E+00  0.00000000000E+00  0.15961324855E+03  0.15961324855E+03  0.00000000000E+00 0. -1.
          2   -1    0    0  501    0  0.00000000000E+00 -0.00000000000E+00 -0.15572123816E+04  0.15572123816E+04  0.00000000000E+00 0.  1.
    9900016    2    1    2    0    0 -0.14296457010E+03  0.81298647577E+02 -0.97169178692E+03  0.11955424837E+04  0.67682240149E+03 0.  0.
         23    2    3    3    0    0 -0.93558030253E+02 -0.85113061981E+01 -0.67512953059E+02  0.14813650919E+03  0.92525019141E+02 0.  0.
         23    2    3    3    0    0 -0.26315497461E+03  0.10724578667E+03 -0.48636133323E+03  0.57776370057E+03  0.12849648949E+03 0.  0.
        -15    1    5    5    0    0  0.14020638575E+02  0.12373292314E+02 -0.24436888172E+02  0.30770735648E+02  0.00000000000E+00 0.  1.
        -15    1    4    4    0    0 -0.33513239142E+02 -0.48977902703E+02 -0.33332996615E+02  0.68066591029E+02  0.00000000000E+00 0.  1.
         15    1    4    4    0    0 -0.60044791111E+02  0.40466596505E+02 -0.34179956443E+02  0.80069918163E+02  0.00000000000E+00 0. -1.
         15    1    5    5    0    0 -0.27717561319E+03  0.94872494356E+02 -0.46192444506E+03  0.54699296492E+03  0.00000000000E+00 0. -1.
        -16    1    3    3    0    0  0.21374843477E+03 -0.17435832895E+02 -0.41781750063E+03  0.46964227393E+03  0.00000000000E+00 0.  1.
         16    1    1    2    0    0  0.17607236019E+03 -0.91642424102E+02 -0.32575785320E+03  0.38146820161E+03  0.00000000000E+00 0. -1.
    9900018    1    1    2    0    0 -0.33107790091E+02  0.10343776525E+02 -0.10014949297E+03  0.13981494488E+03  0.91187600000E+02 0.  0.
<mgrwt>
<rscale>  0 0.99709925E+03</rscale>
<asrwt>0</asrwt>
<pdfrwt beam="1">  1        2 0.23957114E+00 0.99709925E+03</pdfrwt>
<pdfrwt beam="2">  1       -2 0.24555883E-01 0.99709925E+03</pdfrwt>
<totfact> 0.17431296E+02</totfact>
</mgrwt>
</event>
<event>
12    1  0.1417731E-014  0.9072206E+03  0.7818608E-02  0.9416600E-01
          2   -1    0    0  501    0  0.00000000000E+00  0.00000000000E+00  0.27029126834E+03  0.27029126834E+03  0.00000000000E+00 0. -1.
         -2   -1    0    0    0  501 -0.00000000000E+00 -0.00000000000E+00 -0.76126138521E+03  0.76126138521E+03  0.00000000000E+00 0.  1.
    9900016    2    1    2    0    0  0.10530390863E+03  0.87754296179E+02 -0.38183380612E+03  0.77385264980E+03  0.65898493036E+03 0.  0.
         23    2    3    3    0    0  0.71652390903E+02  0.49038517935E+02 -0.62531361128E+02  0.13995486885E+03  0.90212819632E+02 0.  0.
         23    2    3    3    0    0  0.21430007121E+03  0.71107394121E+02 -0.36679472826E+03  0.44432290492E+03  0.10910402897E+03 0.  0.
        -15    1    4    4    0    0  0.71504481788E+02  0.69867168169E+02 -0.36071184097E+02  0.10628001894E+03  0.00000000000E+00 0.  1.
        -15    1    5    5    0    0  0.33091106071E+02  0.45431734027E+02 -0.15240292496E+03  0.16243680400E+03  0.00000000000E+00 0. -1.
         15    1    5    5    0    0  0.18120896514E+03  0.25675660094E+02 -0.21439180330E+03  0.28188610091E+03  0.00000000000E+00 0.  1.
         15    1    4    4    0    0  0.14790911517E+00 -0.20828650234E+02 -0.26460177032E+02  0.33674849907E+02  0.00000000000E+00 0. -1.
        -16    1    1    2    0    0 -0.11474587476E+03 -0.64745204909E+02 -0.94305688714E+02  0.16202506058E+03  0.00000000000E+00 0.  1.
         16    1    3    3    0    0 -0.18064855348E+03 -0.32391615877E+02  0.47492283267E+02  0.18957487604E+03  0.00000000000E+00 0. -1.
    9900018    1    1    2    0    0  0.94419661263E+01 -0.23009091270E+02 -0.14830622040E+02  0.95674943163E+02  0.91187600000E+02 0.  0.
<mgrwt>
<rscale>  0 0.90722060E+03</rscale>
<asrwt>0</asrwt>
<pdfrwt beam="1">  1        2 0.41583273E-01 0.90722060E+03</pdfrwt>
<pdfrwt beam="2">  1       -2 0.11711713E+00 0.90722060E+03</pdfrwt>
<totfact> 0.69728046E+01</totfact>
</mgrwt>
</event>
<event>
12    1  0.1417731E-014  0.1101332E+04  0.7818608E-02  0.9203895E-01
         -2   -1    0    0    0  501 -0.00000000000E+00  0.00000000000E+00  0.16282718241E+03  0.16282718241E+03  0.00000000000E+00 0.  1.
          2   -1    0    0  501    0  0.00000000000E+00 -0.00000000000E+00 -0.18622999162E+04  0.18622999162E+04  0.00000000000E+00 0. -1.
    9900016    2    1    2    0    0 -0.19621798094E+03  0.85281095642E+02 -0.16177992682E+04  0.17961185479E+04  0.75032859765E+03 0.  0.
         23    2    3    3    0    0 -0.47956577851E+02  0.24515502525E+02 -0.11030005541E+03  0.15862248190E+03  0.10046962884E+03 0.  0.
         23    2    3    3    0    0 -0.14634346407E+03 -0.46671653221E+02 -0.98895947614E+02  0.19881395229E+03  0.78434217537E+02 0.  0.
        -15    1    5    5    0    0 -0.85920039490E+02  0.94545771084E+00 -0.19199036628E+02  0.88044023554E+02  0.00000000000E+00 0. -1.
        -15    1    4    4    0    0 -0.38108675938E+02  0.48385947066E+02 -0.20082928963E+02  0.64782675855E+02  0.00000000000E+00 0.  1.
         15    1    4    4    0    0 -0.98479019127E+01 -0.23870444541E+02 -0.90217126448E+02  0.93839806049E+02  0.00000000000E+00 0. -1.
         15    1    5    5    0    0 -0.60423424579E+02 -0.47617110932E+02 -0.79696910986E+02  0.11076992874E+03  0.00000000000E+00 0.  1.
        -16    1    1    2    0    0  0.19621798094E+03 -0.85281095642E+02 -0.81673465523E+02  0.22900855069E+03  0.00000000000E+00 0.  1.
         16    1    3    3    0    0  0.15281624418E+02  0.97689860457E+02 -0.12554981206E+04  0.12593857104E+04  0.00000000000E+00 0. -1.
    9900018    1    3    3    0    0 -0.17199563439E+02  0.97473858816E+01 -0.15310514463E+03  0.17929640325E+03  0.91187600000E+02 0.  0.
<mgrwt>
<rscale>  0 0.11013320E+04</rscale>
<asrwt>0</asrwt>
<pdfrwt beam="1">  1        2 0.28650770E+00 0.11013320E+04</pdfrwt>
<pdfrwt beam="2">  1       -2 0.25050334E-01 0.11013320E+04</pdfrwt>
<totfact> 0.11318860E+02</totfact>
</mgrwt>
</event>
<event>
12    1  0.1417731E-014  0.1074036E+04  0.7818608E-02  0.9230874E-01
          2   -1    0    0  501    0  0.00000000000E+00  0.00000000000E+00  0.43182177654E+03  0.43182177654E+03  0.00000000000E+00 0. -1.
         -2   -1    0    0    0  501 -0.00000000000E+00 -0.00000000000E+00 -0.66784156835E+03  0.66784156835E+03  0.00000000000E+00 0.  1.
    9900016    2    1    2    0    0 -0.13653033890E+03  0.96351874003E+02 -0.38918819702E+03  0.87298123836E+03  0.76335088443E+03 0.  0.
         23    2    3    3    0    0 -0.73306106553E+02  0.19325437394E+03 -0.31264041746E+03  0.38486259622E+03  0.87487993661E+02 0.  0.
         23    2    3    3    0    0  0.11478395229E+03 -0.69889240664E+02 -0.52678253498E+02  0.17774829217E+03  0.10372846915E+03 0.  0.
        -15    1    5    5    0    0  0.25478252544E+02 -0.70933948653E+02 -0.45747373054E+02  0.88167956569E+02  0.00000000000E+00 0.  1.
        -15    1    4    4    0    0 -0.85389175550E+02  0.15005431262E+03 -0.28159965376E+03  0.33031193293E+03  0.00000000000E+00 0.  1.
         15    1    5    5    0    0  0.89305699746E+02  0.10447079892E+01 -0.69308804434E+01  0.89580335596E+02  0.00000000000E+00 0. -1.
         15    1    4    4    0    0  0.12083068997E+02  0.43200061319E+02 -0.31040763696E+02  0.54550663288E+02  0.00000000000E+00 0. -1.
        -16    1    3    3    0    0 -0.14680685102E+03 -0.89503988306E+01  0.80082667896E+02  0.16746819054E+03  0.00000000000E+00 0.  1.
         16    1    1    2    0    0  0.13653033890E+03 -0.96351874003E+02  0.15316840522E+03  0.22668210653E+03  0.00000000000E+00 0. -1.
    9900018    1    3    3    0    0 -0.31201333615E+02 -0.18062860445E+02 -0.10395219396E+03  0.14290215943E+03  0.91187600000E+02 0.  0.
<mgrwt>
<rscale>  0 0.10740364E+04</rscale>
<asrwt>0</asrwt>
<pdfrwt beam="1">  1        2 0.66434120E-01 0.10740364E+04</pdfrwt>
<pdfrwt beam="2">  1       -2 0.10274486E+00 0.10740364E+04</pdfrwt>
<totfact> 0.56144870E+01</totfact>
</mgrwt>
</event>
<event>
12    1  0.1417731E-014  0.1024092E+04  0.7818608E-02  0.9282509E-01
          2   -1    0    0  501    0  0.00000000000E+00  0.00000000000E+00  0.13741450506E+04  0.13741450506E+04  0.00000000000E+00 0.  1.
         -2   -1    0    0    0  501 -0.00000000000E+00 -0.00000000000E+00 -0.19080293897E+03  0.19080293897E+03  0.00000000000E+00 0. -1.
    9900016    2    1    2    0    0  0.18252603438E+03 -0.95341561632E+02  0.74264122093E+03  0.10219984236E+04  0.67123693893E+03 0.  0.
         23    2    3    3    0    0  0.13981645569E+03 -0.44962860519E+02  0.13290971151E+02  0.17127416672E+03  0.87108496506E+02 0.  0.
         23    2    3    3    0    0 -0.49792019629E+02  0.16825067886E+03  0.24033339210E+03  0.30713172695E+03  0.76040924413E+02 0.  0.
        -15    1    5    5    0    0 -0.46074899471E+02  0.14713480711E+03  0.24051499637E+03  0.28569041164E+03  0.00000000000E+00 0.  1.
        -15    1    4    4    0    0  0.11540709829E+03 -0.19381692918E+02 -0.24458015883E+02  0.11955184189E+03  0.00000000000E+00 0. -1.
         15    1    5    5    0    0 -0.37171201586E+01  0.21115871751E+02 -0.18160427106E+00  0.21441315309E+02  0.00000000000E+00 0. -1.
         15    1    4    4    0    0  0.24409357398E+02 -0.25581167601E+02  0.37748987034E+02  0.51722324837E+02  0.00000000000E+00 0.  1.
        -16    1    3    3    0    0  0.92501598314E+02 -0.21862937998E+03  0.48901685768E+03  0.54359252991E+03  0.00000000000E+00 0.  1.
         16    1    1    2    0    0 -0.20063853743E+03  0.98843959272E+02  0.29797738124E+03  0.37258082441E+03  0.00000000000E+00 0. -1.
    9900018    1    1    2    0    0  0.18112503049E+02 -0.35023976404E+01  0.14272350942E+03  0.17036874153E+03  0.91187600000E+02 0.  0.
<mgrwt>
<rscale>  0 0.10240916E+04</rscale>
<asrwt>0</asrwt>
<pdfrwt beam="1">  1        2 0.21140692E+00 0.10240916E+04</pdfrwt>
<pdfrwt beam="2">  1       -2 0.29354299E-01 0.10240916E+04</pdfrwt>
<totfact> 0.15925634E+02</totfact>
</mgrwt>
</event>
<event>
12    1  0.1417731E-014  0.1369375E+04  0.7818608E-02  0.8976289E-01
         -1   -1    0    0    0  501 -0.00000000000E+00  0.00000000000E+00  0.40736037712E+03  0.40736037712E+03  0.00000000000E+00 0.  1.
          1   -1    0    0  501    0  0.00000000000E+00 -0.00000000000E+00 -0.11508169809E+04  0.11508169809E+04  0.00000000000E+00 0. -1.
    9900016    2    1    2    0    0  0.14083156907E+03  0.47812751377E+02 -0.89252349490E+03  0.11217091102E+04  0.66295818035E+03 0.  0.
         23    2    3    3    0    0 -0.12718017991E+03  0.75632135351E+00 -0.28035692659E+02  0.15817840950E+03  0.89772150387E+02 0.  0.
         23    2    3    3    0    0  0.23518284645E+03 -0.73006854703E+02 -0.74223603000E+03  0.78906458651E+03  0.10520278205E+03 0.  0.
        -15    1    5    5    0    0  0.12458942312E+03  0.16244439155E+02 -0.34285306859E+03  0.36515015103E+03  0.00000000000E+00 0. -1.
        -15    1    4    4    0    0 -0.73645055097E+02 -0.43940061403E+02 -0.19197370577E+02  0.87879816644E+02  0.00000000000E+00 0.  1.
         15    1    4    4    0    0 -0.53535124817E+02  0.44696382757E+02 -0.88383220817E+01  0.70298592859E+02  0.00000000000E+00 0. -1.
         15    1    5    5    0    0  0.11059342333E+03 -0.89251293858E+02 -0.39938296141E+03  0.42391443548E+03  0.00000000000E+00 0.  1.
        -16    1    1    2    0    0 -0.14174075078E+03 -0.93609972851E+02  0.24385938236E+03  0.29718793013E+03  0.00000000000E+00 0.  1.
         16    1    3    3    0    0  0.32828902538E+02  0.12006328473E+03 -0.12225177224E+03  0.17446611418E+03  0.00000000000E+00 0. -1.
    9900018    1    1    2    0    0  0.90918170393E+00  0.45797221474E+02 -0.94792491230E+02  0.13928031768E+03  0.91187600000E+02 0.  0.
<mgrwt>
<rscale>  0 0.13693754E+04</rscale>
<asrwt>0</asrwt>
<pdfrwt beam="1">  1        1 0.17704877E+00 0.13693754E+04</pdfrwt>
<pdfrwt beam="2">  1       -1 0.62670827E-01 0.13693754E+04</pdfrwt>
<totfact> 0.29319155E+01</totfact>
</mgrwt>
</event>
<event>
12    1  0.1417731E-014  0.1741695E+04  0.7818608E-02  0.8737935E-01
          1   -1    0    0  501    0  0.00000000000E+00  0.00000000000E+00  0.13531742888E+04  0.13531742888E+04  0.00000000000E+00 0. -1.
         -1   -1    0    0    0  501 -0.00000000000E+00 -0.00000000000E+00 -0.56044190719E+03  0.56044190719E+03  0.00000000000E+00 0.  1.
    9900016    2    1    2    0    0 -0.41548932577E+03 -0.97612223159E+02  0.88218438783E+03  0.11826818691E+04  0.66206312639E+03 0.  0.
         23    2    3    3    0    0 -0.20509062414E+03 -0.25073122224E+03  0.48231048140E+03  0.58813295917E+03  0.91371041784E+02 0.  0.
         23    2    3    3    0    0 -0.63424448049E+02 -0.42199106733E+02  0.30205632624E+03  0.33126413503E+03  0.11266977285E+03 0.  0.
        -15    1    4    4    0    0 -0.11364325792E+03 -0.17095475911E+03  0.23084803874E+03  0.30891930454E+03  0.00000000000E+00 0. -1.
        -15    1    5    5    0    0 -0.59697318592E+02  0.24248023276E+02  0.19334909010E+03  0.20380286338E+03  0.00000000000E+00 0. -1.
         15    1    5    5    0    0 -0.37271294566E+01 -0.66447130009E+02  0.10870723614E+03  0.12746127164E+03  0.00000000000E+00 0.  1.
         15    1    4    4    0    0 -0.91447366225E+02 -0.79776463137E+02  0.25146244267E+03  0.27921365463E+03  0.00000000000E+00 0.  1.
        -16    1    1    2    0    0  0.44135198884E+03  0.88324565639E+02 -0.27138019127E+03  0.52558540235E+03  0.00000000000E+00 0.  1.
         16    1    3    3    0    0 -0.14697425357E+03  0.19531810582E+03  0.97817580184E+02  0.26328477485E+03  0.00000000000E+00 0. -1.
    9900018    1    1    2    0    0 -0.25862663072E+02  0.92876575194E+01  0.18192818510E+03  0.20534892464E+03  0.91187600000E+02 0.  0.
<mgrwt>
<rscale>  0 0.17416952E+04</rscale>
<asrwt>0</asrwt>
<pdfrwt beam="1">  1        1 0.20818066E+00 0.17416952E+04</pdfrwt>
<pdfrwt beam="2">  1       -1 0.86221832E-01 0.17416952E+04</pdfrwt>
<totfact> 0.10434291E+01</totfact>
</mgrwt>
</event>
<event>
12    1  0.1417731E-014  0.9621068E+03  0.7818608E-02  0.9351110E-01
         -1   -1    0    0    0  501 -0.00000000000E+00  0.00000000000E+00  0.18415805004E+03  0.18415805004E+03  0.00000000000E+00 0.  1.
          1   -1    0    0  501    0  0.00000000000E+00 -0.00000000000E+00 -0.12565966115E+04  0.12565966115E+04  0.00000000000E+00 0. -1.
    9900016    2    1    2    0    0 -0.40978653225E+02 -0.98682643717E+02 -0.64512132285E+03  0.93066117309E+03  0.66221687060E+03 0.  0.
         23    2    3    3    0    0 -0.10555282448E+03 -0.41027533820E+02 -0.11053365170E+03  0.18143223884E+03  0.88742953775E+02 0.  0.
         23    2    3    3    0    0 -0.96597449007E+02  0.47099237018E+02 -0.53586490945E+03  0.55700147597E+03  0.10747110204E+03 0.  0.
        -15    1    4    4    0    0 -0.65758735567E+02 -0.43314489955E+02 -0.11702197483E+03  0.14104786045E+03  0.00000000000E+00 0. -1.
        -15    1    5    5    0    0  0.13214499492E+02  0.32667019683E+02 -0.72865824524E+02  0.80939394336E+02  0.00000000000E+00 0. -1.
         15    1    4    4    0    0 -0.39794088917E+02  0.22869561353E+01  0.64883231320E+01  0.40384378393E+02  0.00000000000E+00 0.  1.
         15    1    5    5    0    0 -0.10981194850E+03  0.14432217335E+02 -0.46299908492E+03  0.47606208164E+03  0.00000000000E+00 0.  1.
        -16    1    3    3    0    0  0.16117162027E+03 -0.10475434692E+03  0.12772383009E+01  0.19222745827E+03  0.00000000000E+00 0.  1.
         16    1    1    2    0    0 -0.45174700155E+01  0.14359791184E+03 -0.33823117427E+03  0.36747938047E+03  0.00000000000E+00 0. -1.
    9900018    1    1    2    0    0  0.45496123241E+02 -0.44915268122E+02 -0.89086064304E+02  0.14261410795E+03  0.91187600000E+02 0.  0.
<mgrwt>
<rscale>  0 0.96210682E+03</rscale>
<asrwt>0</asrwt>
<pdfrwt beam="1">  1        1 0.19332256E+00 0.96210682E+03</pdfrwt>
<pdfrwt beam="2">  1       -1 0.28332007E-01 0.96210682E+03</pdfrwt>
<totfact> 0.11003328E+02</totfact>
</mgrwt>
</event>
<event>
12    1  0.1417731E-014  0.9505781E+03  0.7818608E-02  0.9364475E-01
          1   -1    0    0  501    0  0.00000000000E+00  0.00000000000E+00  0.79484679533E+03  0.79484679533E+03  0.00000000000E+00 0. -1.
         -1   -1    0    0    0  501 -0.00000000000E+00 -0.00000000000E+00 -0.28420528884E+03  0.28420528884E+03  0.00000000000E+00 0.  1.
    9900016    2    1    2    0    0  0.58680233608E+02  0.75095322902E+02  0.25317856921E+03  0.80451640087E+03  0.75767049172E+03 0.  0.
         23    2    3    3    0    0  0.13740181723E+03 -0.33943286394E+00  0.84196691315E+02  0.18548996978E+03  0.91858975972E+02 0.  0.
         23    2    3    3    0    0 -0.16929881030E+02 -0.90124407095E+02 -0.12890020804E+03  0.19327552862E+03  0.11104565145E+03 0.  0.
        -15    1    4    4    0    0  0.10421046790E+03 -0.32929168205E+02  0.85801330089E+02  0.13894610460E+03  0.00000000000E+00 0.  1.
        -15    1    5    5    0    0 -0.28081306201E+02 -0.53638524895E+02 -0.17985530569E+01  0.60571329059E+02  0.00000000000E+00 0. -1.
         15    1    4    4    0    0  0.33191349336E+02  0.32589735341E+02 -0.16046387747E+01  0.46543865180E+02  0.00000000000E+00 0. -1.
         15    1    5    5    0    0  0.11151425171E+02 -0.36485882199E+02 -0.12710165498E+03  0.13270419956E+03  0.00000000000E+00 0.  1.
        -16    1    1    2    0    0 -0.58680233608E+02 -0.75095322902E+02  0.25746293728E+03  0.27453568331E+03  0.00000000000E+00 0.  1.
         16    1    3    3    0    0 -0.90636483609E+02  0.10685645046E+03  0.27864917834E+03  0.31189523523E+03  0.00000000000E+00 0. -1.
    9900018    1    3    3    0    0  0.28844781015E+02  0.58702712405E+02  0.19232907591E+02  0.11385566724E+03  0.91187600000E+02 0.  0.
<mgrwt>
<rscale>  0 0.95057806E+03</rscale>
<asrwt>0</asrwt>
<pdfrwt beam="1">  1        1 0.12228412E+00 0.95057806E+03</pdfrwt>
<pdfrwt beam="2">  1       -1 0.43723891E-01 0.95057806E+03</pdfrwt>
<totfact> 0.11596912E+02</totfact>
</mgrwt>
</event>
<event>
12    1  0.1417731E-014  0.1047124E+04  0.7818608E-02  0.9258318E-01
          2   -1    0    0  501    0  0.00000000000E+00  0.00000000000E+00  0.18458304363E+04  0.18458304363E+04  0.00000000000E+00 0. -1.
         -2   -1    0    0    0  501 -0.00000000000E+00 -0.00000000000E+00 -0.14850618833E+03  0.14850618833E+03  0.00000000000E+00 0.  1.
    9900016    2    1    2    0    0 -0.10367760702E+03 -0.46670875585E+02  0.13576098527E+04  0.15116254751E+04  0.65496553181E+03 0.  0.
         23    2    3    3    0    0  0.88969698991E+02 -0.89862352717E+02  0.57032523982E+03  0.59131068663E+03  0.91578377186E+02 0.  0.
         23    2    3    3    0    0  0.71702106343E+02  0.41620103658E+02  0.89156560429E+02  0.17381237139E+03  0.12405008302E+03 0.  0.
        -15    1    4    4    0    0  0.78461595533E+01 -0.40181709508E+02  0.62931751245E+02  0.75076876024E+02  0.00000000000E+00 0.  1.
        -15    1    5    5    0    0  0.29132289662E+02  0.31190905698E+02  0.11518473359E+03  0.12283763980E+03  0.00000000000E+00 0.  1.
         15    1    5    5    0    0  0.42569816682E+02  0.10429197960E+02 -0.26028173160E+02  0.50974731588E+02  0.00000000000E+00 0. -1.
         15    1    4    4    0    0  0.81123539438E+02 -0.49680643208E+02  0.50739348857E+03  0.51623381060E+03  0.00000000000E+00 0. -1.
        -16    1    3    3    0    0 -0.26434941236E+03  0.15713734728E+01  0.69812805248E+03  0.74650241707E+03  0.00000000000E+00 0.  1.
         16    1    1    2    0    0  0.19081695012E+03  0.65825877221E+02  0.13971783172E+03  0.24548976978E+03  0.00000000000E+00 0. -1.
    9900018    1    1    2    0    0 -0.87139343103E+02 -0.19155001635E+02  0.19999656351E+03  0.23722137976E+03  0.91187600000E+02 0.  0.
<mgrwt>
<rscale>  0 0.10471241E+04</rscale>
<asrwt>0</asrwt>
<pdfrwt beam="1">  1        2 0.28397390E+00 0.10471241E+04</pdfrwt>
<pdfrwt beam="2">  1       -2 0.22847107E-01 0.10471241E+04</pdfrwt>
<totfact> 0.13694481E+02</totfact>
</mgrwt>
</event>
<event>
12    1  0.1417731E-014  0.1116862E+04  0.7818608E-02  0.9188911E-01
          2   -1    0    0  501    0  0.00000000000E+00  0.00000000000E+00  0.17175624592E+04  0.17175624592E+04  0.00000000000E+00 0. -1.
         -2   -1    0    0    0  501 -0.00000000000E+00 -0.00000000000E+00 -0.18156263099E+03  0.18156263099E+03  0.00000000000E+00 0.  1.
    9900016    2    1    2    0    0 -0.12487465679E+03  0.75926692898E+02  0.63892905308E+03  0.99022767122E+03  0.74226812095E+03 0.  0.
         23    2    3    3    0    0 -0.18645467765E+03 -0.87769334954E+01  0.34558445679E+03  0.40232190692E+03  0.87131616704E+02 0.  0.
         23    2    3    3    0    0 -0.18286296691E+02 -0.11115129928E+03  0.19596837628E+03  0.24958861838E+03  0.10583890563E+03 0.  0.
        -15    1    4    4    0    0 -0.26996061463E+02  0.17794661917E+02  0.17963005189E+02  0.36987928878E+02  0.00000000000E+00 0. -1.
        -15    1    5    5    0    0 -0.59257457888E+02 -0.72424088323E+02  0.91494587208E+02  0.13087381088E+03  0.00000000000E+00 0.  1.
         15    1    5    5    0    0  0.40971161197E+02 -0.38727210958E+02  0.10447378907E+03  0.11871480750E+03  0.00000000000E+00 0.  1.
         15    1    4    4    0    0 -0.15945861619E+03 -0.26571595413E+02  0.32762145160E+03  0.36533397804E+03  0.00000000000E+00 0. -1.
        -16    1    3    3    0    0  0.86547274194E+02  0.19926757027E+03  0.19424574365E+02  0.21811765018E+03  0.00000000000E+00 0.  1.
         16    1    1    2    0    0  0.12487465679E+03 -0.75926692898E+02  0.89707077510E+03  0.90889741893E+03  0.00000000000E+00 0. -1.
    9900018    1    3    3    0    0 -0.66809566389E+01 -0.34126445965E+01  0.77951645642E+02  0.12019949574E+03  0.91187600000E+02 0.  0.
<mgrwt>
<rscale>  0 0.11168620E+04</rscale>
<asrwt>0</asrwt>
<pdfrwt beam="1">  1        2 0.26424037E+00 0.11168620E+04</pdfrwt>
<pdfrwt beam="2">  1       -2 0.27932714E-01 0.11168620E+04</pdfrwt>
<totfact> 0.11136340E+02</totfact>
</mgrwt>
</event>
<event>
12    1  0.1417731E-014  0.1042610E+04  0.7818608E-02  0.9263007E-01
          2   -1    0    0  501    0  0.00000000000E+00  0.00000000000E+00  0.15991876212E+04  0.15991876212E+04  0.00000000000E+00 0.  1.
         -2   -1    0    0    0  501 -0.00000000000E+00 -0.00000000000E+00 -0.16993562070E+03  0.16993562070E+03  0.00000000000E+00 0. -1.
    9900016    2    1    2    0    0 -0.12657372075E+03 -0.14557090788E+03  0.13486459753E+04  0.15600559625E+04  0.76007686691E+03 0.  0.
         23    2    3    3    0    0  0.24354650812E+02  0.35544634246E+02  0.14965247861E+03  0.18120661501E+03  0.92646656345E+02 0.  0.
         23    2    3    3    0    0  0.11735925851E+03 -0.22395063094E+03  0.29087577633E+03  0.38962857673E+03  0.57224381959E+02 0.  0.
        -15    1    4    4    0    0  0.42808775923E+02  0.10782144263E+01  0.13112986441E+03  0.13794489908E+03  0.00000000000E+00 0. -1.
        -15    1    5    5    0    0  0.55542636679E+02 -0.76327181560E+02  0.14535888278E+03  0.17332059294E+03  0.00000000000E+00 0.  1.
         15    1    4    4    0    0 -0.18454125110E+02  0.34466419820E+02  0.18522614197E+02  0.43261715933E+02  0.00000000000E+00 0.  1.
         15    1    5    5    0    0  0.61816621832E+02 -0.14762344938E+03  0.14551689355E+03  0.21630798379E+03  0.00000000000E+00 0. -1.
        -16    1    3    3    0    0 -0.27801071616E+03  0.29443918259E+02  0.79652812713E+03  0.84416465214E+03  0.00000000000E+00 0.  1.
         16    1    1    2    0    0  0.12657372075E+03  0.14557090788E+03  0.80606025237E+02  0.20906727939E+03  0.00000000000E+00 0. -1.
    9900018    1    3    3    0    0  0.97230860874E+01  0.13391170552E+02  0.11158959322E+03  0.14505611866E+03  0.91187600000E+02 0.  0.
<mgrwt>
<rscale>  0 0.10426101E+04</rscale>
<asrwt>0</asrwt>
<pdfrwt beam="1">  1        2 0.24602885E+00 0.10426101E+04</pdfrwt>
<pdfrwt beam="2">  1       -2 0.26143943E-01 0.10426101E+04</pdfrwt>
<totfact> 0.14698107E+02</totfact>
</mgrwt>
</event>
<event>
12    1  0.1417731E-014  0.9817549E+03  0.7818608E-02  0.9328785E-01
         -2   -1    0    0    0  501 -0.00000000000E+00  0.00000000000E+00  0.58523353402E+03  0.58523353402E+03  0.00000000000E+00 0.  1.
          2   -1    0    0  501    0  0.00000000000E+00 -0.00000000000E+00 -0.41173425764E+03  0.41173425764E+03  0.00000000000E+00 0. -1.
    9900016    2    1    2    0    0  0.13019565731E+03 -0.47925649274E+02  0.49319552773E+02  0.66901753344E+03  0.65261341139E+03 0.  0.
         23    2    3    3    0    0  0.75344011365E+02  0.92358276252E+00 -0.34100707922E+02  0.12138502171E+03  0.88847578255E+02 0.  0.
         23    2    3    3    0    0 -0.15131800243E+03 -0.71158823426E+02 -0.13444114597E+03  0.24685479597E+03  0.12207437304E+03 0.  0.
        -15    1    4    4    0    0 -0.54092184428E+01 -0.28250007984E+02  0.61797309392E+00  0.28769853771E+02  0.00000000000E+00 0. -1.
        -15    1    5    5    0    0 -0.44849102343E+02 -0.86037528357E+02 -0.82976354023E+02  0.12766743357E+03  0.00000000000E+00 0.  1.
         15    1    4    4    0    0  0.80753229808E+02  0.29173590746E+02 -0.34718681016E+02  0.92615167942E+02  0.00000000000E+00 0.  1.
         15    1    5    5    0    0 -0.10646890009E+03  0.14878704931E+02 -0.51464791947E+02  0.11918736241E+03  0.00000000000E+00 0. -1.
        -16    1    1    2    0    0 -0.11304640191E+03  0.43887382492E+02  0.18188871400E+03  0.21860717190E+03  0.00000000000E+00 0.  1.
         16    1    3    3    0    0  0.20616964838E+03  0.22309591389E+02  0.21786140666E+03  0.30077771576E+03  0.00000000000E+00 0. -1.
    9900018    1    1    2    0    0 -0.17149255402E+02  0.40382667817E+01 -0.57708990396E+02  0.10934308632E+03  0.91187600000E+02 0.  0.
<mgrwt>
<rscale>  0 0.98175495E+03</rscale>
<asrwt>0</asrwt>
<pdfrwt beam="1">  1        2 0.63343732E-01 0.98175495E+03</pdfrwt>
<pdfrwt beam="2">  1       -2 0.90035928E-01 0.98175495E+03</pdfrwt>
<totfact> 0.81245353E+01</totfact>
</mgrwt>
</event>
<event>
12    1  0.1417731E-014  0.1183523E+04  0.7818608E-02  0.9127402E-01
         -1   -1    0    0    0  501 -0.00000000000E+00  0.00000000000E+00  0.33961291212E+03  0.33961291212E+03  0.00000000000E+00 0.  1.
          1   -1    0    0  501    0  0.00000000000E+00 -0.00000000000E+00 -0.10311201272E+04  0.10311201272E+04  0.00000000000E+00 0. -1.
    9900016    2    1    2    0    0 -0.21859836686E+03 -0.16519509226E+03 -0.55458994569E+03  0.90716885703E+03  0.66355908765E+03 0.  0.
         23    2    3    3    0    0  0.12012855041E+02  0.16994715253E+02 -0.14025595085E+03  0.16838723781E+03  0.90826213587E+02 0.  0.
         23    2    3    3    0    0  0.11885965728E+03 -0.18200464988E+03 -0.25671820472E+03  0.35541147566E+03  0.11471603936E+03 0.  0.
        -15    1    4    4    0    0 -0.28409985226E+02 -0.13992704008E+02 -0.19155301252E+02  0.37011465684E+02  0.00000000000E+00 0. -1.
        -15    1    5    5    0    0  0.24342947418E+02 -0.13598796190E+03 -0.12028978239E+03  0.18318006611E+03  0.00000000000E+00 0.  1.
         15    1    5    5    0    0  0.94516709865E+02 -0.46016687976E+02 -0.13642842233E+03  0.17223140955E+03  0.00000000000E+00 0. -1.
         15    1    4    4    0    0  0.40422840268E+02  0.30987419261E+02 -0.12110064960E+03  0.13137577213E+03  0.00000000000E+00 0.  1.
        -16    1    1    2    0    0  0.26665564772E+03  0.17434358021E+03 -0.38771806671E+02  0.32094262948E+03  0.00000000000E+00 0.  1.
         16    1    3    3    0    0 -0.34947087918E+03 -0.18515763597E+00 -0.15761579011E+03  0.38337014356E+03  0.00000000000E+00 0. -1.
    9900018    1    1    2    0    0 -0.48057280865E+02 -0.91484879539E+01 -0.98145462698E+02  0.14262155278E+03  0.91187600000E+02 0.  0.
<mgrwt>
<rscale>  0 0.11835231E+04</rscale>
<asrwt>0</asrwt>
<pdfrwt beam="1">  1        1 0.15863386E+00 0.11835231E+04</pdfrwt>
<pdfrwt beam="2">  1       -1 0.52248142E-01 0.11835231E+04</pdfrwt>
<totfact> 0.52306943E+01</totfact>
</mgrwt>
</event>
<event>
12    1  0.1417731E-014  0.9475465E+03  0.7818608E-02  0.9368023E-01
         -2   -1    0    0    0  501 -0.00000000000E+00  0.00000000000E+00  0.18129441393E+03  0.18129441393E+03  0.00000000000E+00 0.  1.
          2   -1    0    0  501    0  0.00000000000E+00 -0.00000000000E+00 -0.12381025963E+04  0.12381025963E+04  0.00000000000E+00 0. -1.
    9900016    2    1    2    0    0  0.11094484110E+03  0.92201229647E+02 -0.74208630207E+03  0.10731894331E+04  0.76173069722E+03 0.  0.
         23    2    3    3    0    0  0.68181658094E+01 -0.44557060846E+02 -0.38827192779E+03  0.40289874666E+03  0.97675437524E+02 0.  0.
         23    2    3    3    0    0  0.14041829073E+03 -0.12072716986E+03 -0.36075911637E+02  0.20379241874E+03  0.77055386702E+02 0.  0.
        -15    1    4    4    0    0 -0.25775606531E+02 -0.64392025604E+02 -0.24394399962E+03  0.25361267674E+03  0.00000000000E+00 0.  1.
        -15    1    5    5    0    0  0.91494601652E+02 -0.79387012930E+02 -0.60300613414E+02  0.13531342850E+03  0.00000000000E+00 0.  1.
         15    1    4    4    0    0  0.32593772341E+02  0.19834964758E+02 -0.14432792817E+03  0.14928606992E+03  0.00000000000E+00 0. -1.
         15    1    5    5    0    0  0.48923689078E+02 -0.41340156932E+02  0.24224701777E+02  0.68478990240E+02  0.00000000000E+00 0. -1.
        -16    1    1    2    0    0 -0.11094484110E+03 -0.92201229647E+02 -0.31472188029E+03  0.34620757711E+03  0.00000000000E+00 0.  1.
         16    1    3    3    0    0 -0.60924802751E+02  0.21712655220E+03 -0.15354324661E+03  0.27282100330E+03  0.00000000000E+00 0. -1.
    9900018    1    3    3    0    0  0.24633187311E+02  0.40358908151E+02 -0.16419521604E+03  0.19367726441E+03  0.91187600000E+02 0.  0.
<mgrwt>
<rscale>  0 0.94754648E+03</rscale>
<asrwt>0</asrwt>
<pdfrwt beam="1">  1        2 0.19047732E+00 0.94754648E+03</pdfrwt>
<pdfrwt beam="2">  1       -2 0.27891448E-01 0.94754648E+03</pdfrwt>
<totfact> 0.21090927E+02</totfact>
</mgrwt>
</event>
<event>
12    1  0.1417731E-014  0.1459988E+04  0.7818608E-02  0.8911505E-01
          1   -1    0    0  501    0  0.00000000000E+00  0.00000000000E+00  0.16060827610E+04  0.16060827610E+04  0.00000000000E+00 0. -1.
         -1   -1    0    0    0  501 -0.00000000000E+00 -0.00000000000E+00 -0.33179567746E+03  0.33179567746E+03  0.00000000000E+00 0.  1.
    9900016    2    1    2    0    0  0.84801912077E+02 -0.62942283308E+02  0.11972255372E+04  0.13737248593E+04  0.66529535309E+03 0.  0.
         23    2    3    3    0    0  0.11002117395E+03  0.81960045245E+02  0.37942274601E+03  0.41364489036E+03  0.91205084285E+02 0.  0.
         23    2    3    3    0    0 -0.12175401112E+03 -0.18336596516E+03  0.82360350951E+03  0.85600279809E+03  0.77271812780E+02 0.  0.
        -15    1    4    4    0    0  0.37728740064E+02  0.53859364908E+02  0.76162515819E+02  0.10062314759E+03  0.00000000000E+00 0.  1.
        -15    1    5    5    0    0 -0.61687854910E+02 -0.11821415948E+03  0.35766170983E+03  0.38170915318E+03  0.00000000000E+00 0.  1.
         15    1    4    4    0    0  0.72292433888E+02  0.28100680337E+02  0.30326023019E+03  0.31302174277E+03  0.00000000000E+00 0. -1.
         15    1    5    5    0    0 -0.60066156214E+02 -0.65151805673E+02  0.46594179969E+03  0.47429364491E+03  0.00000000000E+00 0. -1.
        -16    1    1    2    0    0 -0.13449583726E+03  0.94519463860E+02 -0.20450827657E+03  0.26238653638E+03  0.00000000000E+00 0.  1.
         16    1    3    3    0    0  0.96534749249E+02  0.38463636605E+02 -0.58007183603E+01  0.10407717082E+03  0.00000000000E+00 0. -1.
    9900018    1    1    2    0    0  0.49693925188E+02 -0.31577180552E+02  0.28156982290E+03  0.30176704276E+03  0.91187600000E+02 0.  0.
<mgrwt>
<rscale>  0 0.14599881E+04</rscale>
<asrwt>0</asrwt>
<pdfrwt beam="1">  1        1 0.24708965E+00 0.14599881E+04</pdfrwt>
<pdfrwt beam="2">  1       -1 0.51045490E-01 0.14599881E+04</pdfrwt>
<totfact> 0.20693408E+01</totfact>
</mgrwt>
</event>
<event>
12    1  0.1417731E-014  0.1109945E+04  0.7818608E-02  0.9195553E-01
          1   -1    0    0  501    0  0.00000000000E+00  0.00000000000E+00  0.66649551193E+03  0.66649551193E+03  0.00000000000E+00 0. -1.
         -1   -1    0    0    0  501 -0.00000000000E+00 -0.00000000000E+00 -0.46210998723E+03  0.46210998723E+03  0.00000000000E+00 0.  1.
    9900016    2    1    2    0    0  0.25649276720E+03  0.36104884352E+02  0.22654535372E+03  0.74150311789E+03  0.65681959033E+03 0.  0.
         23    2    3    3    0    0  0.78850002520E+02  0.44598109240E+02  0.98558864971E+02  0.16428567310E+03  0.95234543511E+02 0.  0.
         23    2    3    3    0    0 -0.16493202391E+03 -0.51850539286E+02  0.14345121776E+03  0.23156371584E+03  0.56146697895E+02 0.  0.
        -15    1    5    5    0    0 -0.14229405088E+03 -0.23765058062E+02  0.12576767356E+03  0.19138934822E+03  0.00000000000E+00 0.  1.
        -15    1    4    4    0    0  0.10991926830E+02 -0.24387207292E+02  0.48380285925E+02  0.55283002823E+02  0.00000000000E+00 0.  1.
         15    1    5    5    0    0 -0.22637973032E+02 -0.28085481224E+02  0.17683544198E+02  0.40174367624E+02  0.00000000000E+00 0. -1.
         15    1    4    4    0    0  0.67858075690E+02  0.68985316533E+02  0.50178579046E+02  0.10900267028E+03  0.00000000000E+00 0. -1.
        -16    1    3    3    0    0  0.34257478858E+03  0.43357314398E+02 -0.15464729007E+02  0.34565372894E+03  0.00000000000E+00 0.  1.
         16    1    1    2    0    0 -0.27827609747E+03  0.14485346164E+02 -0.30105897787E+02  0.28027446683E+03  0.00000000000E+00 0. -1.
    9900018    1    1    2    0    0  0.21783330275E+02 -0.50590230516E+02  0.79460687579E+01  0.10682791444E+03  0.91187600000E+02 0.  0.
<mgrwt>
<rscale>  0 0.11099446E+04</rscale>
<asrwt>0</asrwt>
<pdfrwt beam="1">  1        1 0.10253777E+00 0.11099446E+04</pdfrwt>
<pdfrwt beam="2">  1       -1 0.71093844E-01 0.11099446E+04</pdfrwt>
<totfact> 0.58408749E+01</totfact>
</mgrwt>
</event>
<event>
12    1  0.1417731E-014  0.1046684E+04  0.7818608E-02  0.9258774E-01
         -2   -1    0    0    0  501 -0.00000000000E+00  0.00000000000E+00  0.20839692351E+03  0.20839692351E+03  0.00000000000E+00 0.  1.
          2   -1    0    0  501    0  0.00000000000E+00 -0.00000000000E+00 -0.13142562176E+04  0.13142562176E+04  0.00000000000E+00 0. -1.
    9900016    2    1    2    0    0  0.83756478478E+02 -0.90293408445E+02 -0.53530914360E+03  0.93896185154E+03  0.76152835280E+03 0.  0.
         23    2    3    3    0    0 -0.11840720919E+03  0.74415062156E+02 -0.18691082857E+03  0.25260670135E+03  0.96522634988E+02 0.  0.
         23    2    3    3    0    0  0.17723987672E+03 -0.10785723025E+03 -0.43091714897E+03  0.48197962242E+03  0.59729482963E+02 0.  0.
        -15    1    4    4    0    0 -0.58230988006E+02  0.78659774637E+01 -0.18185955365E+02  0.61509759698E+02  0.00000000000E+00 0.  1.
        -15    1    5    5    0    0  0.27575446446E+02 -0.10165217498E+02 -0.11813143932E+03  0.12173238620E+03  0.00000000000E+00 0.  1.
         15    1    4    4    0    0 -0.60176221184E+02  0.66549084692E+02 -0.16872487321E+03  0.19109694165E+03  0.00000000000E+00 0. -1.
         15    1    5    5    0    0  0.14966443028E+03 -0.97692012755E+02 -0.31278570965E+03  0.36024723622E+03  0.00000000000E+00 0. -1.
        -16    1    3    3    0    0  0.32587329770E+01 -0.24967989314E+02  0.10062966906E+03  0.10373210750E+03  0.00000000000E+00 0.  1.
         16    1    1    2    0    0 -0.83756478478E+02  0.90293408445E+02 -0.57055015053E+03  0.58369128961E+03  0.00000000000E+00 0. -1.
    9900018    1    3    3    0    0  0.21665077968E+02 -0.31883251035E+02 -0.18110835117E+02  0.10064342026E+03  0.91187600000E+02 0.  0.
<mgrwt>
<rscale>  0 0.10466842E+04</rscale>
<asrwt>0</asrwt>
<pdfrwt beam="1">  1        2 0.20219326E+00 0.10466842E+04</pdfrwt>
<pdfrwt beam="2">  1       -2 0.32061065E-01 0.10466842E+04</pdfrwt>
<totfact> 0.14601964E+02</totfact>
</mgrwt>
</event>
