<event>
11    1  0.2524517E-016  0.2906626E+04  0.7818608E-02  0.8486434E-01
          3   -1    0    0  501    0  0.00000000000E+00  0.00000000000E+00  0.16329820158E+04  0.16329820158E+04  0.00000000000E+00 0. -1.
         -3   -1    0    0    0  501 -0.00000000000E+00 -0.00000000000E+00 -0.24569860263E+04  0.24569860263E+04  0.00000000000E+00 0.  1.
    9900016    2    1    2    0    0  0.30844833949E+03  0.33643639394E+02 -0.16519512982E+03  0.20893398114E+04  0.20595579972E+04 0.  0.
         24    2    3    3    0    0  0.69027384088E+03  0.40637005083E+03  0.64526760790E+03  0.10306272343E+04  0.64866143920E+02 0.  0.
        -15    1    4    4    0    0  0.39318371864E+03  0.19896125026E+03  0.33349578066E+03  0.55262867409E+03  0.00000000000E+00 0.  1.
        -15    1    1    2    0    0  0.18543028822E+03 -0.72043696384E+03 -0.48824846138E+03  0.88983165301E+03  0.00000000000E+00 0.  1.
         15    1    1    2    0    0 -0.57137392408E+03  0.23188753154E+03 -0.20037503826E+03  0.64837500288E+03  0.00000000000E+00 0. -1.
         15    1    3    3    0    0 -0.41090658636E+03 -0.38051269701E+03 -0.77537788255E+03  0.95647529819E+03  0.00000000000E+00 0. -1.
        -16    1    1    2    0    0  0.77495296370E+02  0.45490579291E+03  0.29814618957E+02  0.46242157485E+03  0.00000000000E+00 0.  1.
         16    1    4    4    0    0  0.29709012224E+03  0.20740880057E+03  0.31177182724E+03  0.47799856020E+03  0.00000000000E+00 0. -1.
    9900018    1    3    3    0    0  0.29081084976E+02  0.77862855739E+01 -0.35084855171E+02  0.10223727893E+03  0.91187600000E+02 0.  0.
<mgrwt>
<rscale>  0 0.22785326E+04</rscale>
<asrwt>0</asrwt>
<pdfrwt beam="1">  1        3 0.25122800E+00 0.29066259E+04</pdfrwt>
<pdfrwt beam="2">  1       -3 0.37799785E+00 0.29066259E+04</pdfrwt>
<totfact> 0.21739020E-03</totfact>
</mgrwt>
</event>
<event>
11    1  0.2524517E-016  0.3840690E+04  0.7818608E-02  0.8263588E-01
          2   -1    0    0  501    0  0.00000000000E+00  0.00000000000E+00  0.26184722622E+04  0.26184722622E+04  0.00000000000E+00 0.  1.
         -2   -1    0    0    0  501 -0.00000000000E+00 -0.00000000000E+00 -0.25861756008E+04  0.25861756008E+04  0.00000000000E+00 0. -1.
    9900016    2    1    2    0    0  0.61121771532E+03 -0.24209302538E+02  0.25938516564E+03  0.21648936711E+04  0.20604151905E+04 0.  0.
        -24    2    3    3    0    0  0.63750096052E+03  0.62657348655E+03  0.76664608094E+03  0.11827172421E+04  0.10987289259E+03 0.  0.
        -15    1    3    3    0    0 -0.78421226264E+02 -0.66954428863E+03 -0.54718813935E+03  0.86824783501E+03  0.00000000000E+00 0.  1.
        -15    1    1    2    0    0  0.39071464594E+03 -0.31300160290E+02  0.56097857400E+03  0.68434976078E+03  0.00000000000E+00 0.  1.
         15    1    4    4    0    0  0.54382688273E+03  0.51415772548E+03  0.58780543669E+03  0.95164125408E+03  0.00000000000E+00 0. -1.
         15    1    1    2    0    0  0.53436254884E+03 -0.33950427119E+03 -0.20737732287E+03  0.66619204273E+03  0.00000000000E+00 0. -1.
        -16    1    4    4    0    0  0.93674077785E+02  0.11241576107E+03  0.17884064425E+03  0.23107598798E+03  0.00000000000E+00 0.  1.
         16    1    1    2    0    0 -0.15362949101E+04  0.39501373401E+03 -0.58068975545E+03  0.16892123883E+04  0.00000000000E+00 0. -1.
    9900018    1    3    3    0    0  0.52137981062E+02  0.18761499534E+02  0.39927224043E+02  0.11392859407E+03  0.91187600000E+02 0.  0.
<mgrwt>
<rscale>  0 0.29314252E+04</rscale>
<asrwt>0</asrwt>
<pdfrwt beam="1">  1        2 0.40284189E+00 0.38406896E+04</pdfrwt>
<pdfrwt beam="2">  1       -2 0.39787317E+00 0.38406896E+04</pdfrwt>
<totfact> 0.17380684E-02</totfact>
</mgrwt>
</event>
<event>
11    1  0.2524517E-016  0.3790711E+04  0.7818608E-02  0.8208643E-01
         -2   -1    0    0    0  501 -0.00000000000E+00  0.00000000000E+00  0.17944770668E+04  0.17944770668E+04  0.00000000000E+00 0. -1.
          2   -1    0    0  501    0  0.00000000000E+00 -0.00000000000E+00 -0.43121226875E+04  0.43121226875E+04  0.00000000000E+00 0.  1.
    9900016    2    1    2    0    0  0.39049459235E+03 -0.20267857226E+01  0.16907730085E+03  0.20253075270E+04  0.19800993184E+04 0.  0.
         24    2    3    3    0    0 -0.56406851275E+03 -0.64795810739E+03  0.93465741182E+02  0.87025986482E+03  0.10292420280E+03 0.  0.
        -15    1    4    4    0    0 -0.49394095474E+03 -0.52925883929E+03  0.10668162616E+03  0.73176058591E+03  0.00000000000E+00 0.  1.
        -15    1    1    2    0    0 -0.70979097232E+03 -0.38642302561E+02 -0.10886463322E+04  0.13001720227E+04  0.00000000000E+00 0.  1.
         15    1    3    3    0    0  0.95456310511E+03  0.64593132167E+03  0.75611559665E+02  0.11550476622E+04  0.00000000000E+00 0. -1.
         15    1    1    2    0    0  0.23808521808E+02 -0.10996869837E+03  0.52835103107E+03  0.54019882670E+03  0.00000000000E+00 0. -1.
        -16    1    1    2    0    0  0.25501650395E+03  0.16651149250E+03 -0.21177397682E+04  0.21395282705E+04  0.00000000000E+00 0.  1.
         16    1    4    4    0    0 -0.70127558018E+02 -0.11869926811E+03 -0.13215884982E+02  0.13849927891E+03  0.00000000000E+00 0. -1.
    9900018    1    1    2    0    0  0.40471354208E+02 -0.15873705847E+02 -0.86878522271E+01  0.10139310735E+03  0.91187600000E+02 0.  0.
<mgrwt>
<rscale>  0 0.31259816E+04</rscale>
<asrwt>0</asrwt>
<pdfrwt beam="1">  1        2 0.66340349E+00 0.37907109E+04</pdfrwt>
<pdfrwt beam="2">  1       -2 0.27607340E+00 0.37907109E+04</pdfrwt>
<totfact> 0.62377636E-03</totfact>
</mgrwt>
</event>
<event>
10    1  0.2524517E-016  0.4097700E+04  0.7818608E-02  0.8165636E-01
         -2   -1    0    0    0  501 -0.00000000000E+00  0.00000000000E+00  0.18809293324E+04  0.18809293324E+04  0.00000000000E+00 0.  1.
          2   -1    0    0  501    0  0.00000000000E+00 -0.00000000000E+00 -0.47177109409E+04  0.47177109409E+04  0.00000000000E+00 0. -1.
    9900016    2    1    2    0    0  0.81264176538E+03  0.45142806732E+03 -0.59163654308E+03  0.23312941308E+04  0.20544402125E+04 0.  0.
        -15    1    3    3    0    0  0.18534821482E+03  0.25257385842E+03 -0.12542326745E+04  0.12927672321E+04  0.00000000000E+00 0.  1.
        -15    1    1    2    0    0  0.34565121267E+02  0.44363349147E+03 -0.15601713673E+04  0.16223871664E+04  0.00000000000E+00 0.  1.
         15    1    1    2    0    0  0.66767837144E+03  0.14379848292E+03  0.43511591842E+01  0.68300171594E+03  0.00000000000E+00 0. -1.
         15    1    3    3    0    0  0.23378938950E+03  0.10113495587E+03  0.22706996729E+03  0.34124262334E+03  0.00000000000E+00 0. -1.
        -16    1    3    3    0    0  0.33679445430E+03  0.67454066749E+02  0.46852076456E+03  0.58094084242E+03  0.00000000000E+00 0.  1.
         16    1    1    2    0    0 -0.15148852581E+04 -0.10388600417E+04 -0.68932485732E+03  0.19619572601E+04  0.00000000000E+00 0. -1.
    9900018    1    3    3    0    0  0.56709706771E+02  0.30265186284E+02 -0.32994600474E+02  0.11634343298E+03  0.91187600000E+02 0.  0.
<mgrwt>
<rscale>  0 0.32892506E+04</rscale>
<asrwt>0</asrwt>
<pdfrwt beam="1">  1        2 0.72580167E+00 0.40977000E+04</pdfrwt>
<pdfrwt beam="2">  1       -2 0.28937375E+00 0.40977000E+04</pdfrwt>
<totfact> 0.19891124E-03</totfact>
</mgrwt>
</event>
<event>
10    1  0.2524517E-016  0.3843978E+04  0.7818608E-02  0.8204515E-01
         -2   -1    0    0    0  501 -0.00000000000E+00  0.00000000000E+00  0.23021753326E+04  0.23021753326E+04  0.00000000000E+00 0. -1.
          2   -1    0    0  501    0  0.00000000000E+00 -0.00000000000E+00 -0.38820985252E+04  0.38820985252E+04  0.00000000000E+00 0.  1.
    9900016    2    1    2    0    0  0.50022145353E+03  0.63239171719E+03 -0.12315821102E+04  0.25399129794E+04  0.20698363854E+04 0.  0.
        -15    1    1    2    0    0 -0.14969266771E+03  0.34884018866E+03 -0.15832897549E+04  0.16281596420E+04  0.00000000000E+00 0.  1.
        -15    1    3    3    0    0  0.46332278950E+03 -0.68890635458E+03 -0.51575847907E+03  0.97737750198E+03  0.00000000000E+00 0.  1.
         15    1    3    3    0    0  0.20150557932E+02  0.57672524439E+03 -0.22724912762E+03  0.62020981813E+03  0.00000000000E+00 0. -1.
         15    1    1    2    0    0  0.40540217086E+02 -0.38619400873E+03  0.12449325846E+04  0.13040883643E+04  0.00000000000E+00 0. -1.
        -16    1    3    3    0    0  0.39025529144E+01  0.69295602971E+03 -0.46390791538E+03  0.83391476961E+03  0.00000000000E+00 0.  1.
         16    1    1    2    0    0 -0.39106900290E+03 -0.59503789712E+03 -0.99839120941E+01  0.71211287205E+03  0.00000000000E+00 0. -1.
    9900018    1    3    3    0    0  0.12845553179E+02  0.51616797680E+02 -0.24666588168E+02  0.10841088970E+03  0.91187600000E+02 0.  0.
<mgrwt>
<rscale>  0 0.31412226E+04</rscale>
<asrwt>0</asrwt>
<pdfrwt beam="1">  1        2 0.59724592E+00 0.38439782E+04</pdfrwt>
<pdfrwt beam="2">  1       -2 0.35418082E+00 0.38439782E+04</pdfrwt>
<totfact> 0.46481376E-03</totfact>
</mgrwt>
</event>
<event>
11    1  0.2524517E-016  0.3168804E+04  0.7818608E-02  0.8477476E-01
          2   -1    0    0  501    0  0.00000000000E+00  0.00000000000E+00  0.26302419855E+04  0.26302419855E+04  0.00000000000E+00 0.  1.
         -2   -1    0    0    0  501 -0.00000000000E+00 -0.00000000000E+00 -0.15591012555E+04  0.15591012555E+04  0.00000000000E+00 0. -1.
    9900016    2    1    2    0    0 -0.57795373744E+03 -0.64862842680E+03  0.72001345210E+01  0.21647093512E+04  0.19827166653E+04 0.  0.
        -24    2    3    3    0    0 -0.72651788705E+03 -0.77612007522E+03 -0.80013411039E+03  0.13339783418E+04  0.95357278423E+02 0.  0.
        -15    1    3    3    0    0  0.14856414961E+03  0.12749164842E+03  0.80733424491E+03  0.83073100939E+03  0.00000000000E+00 0.  1.
        -15    1    1    2    0    0 -0.14014475300E+03  0.37171844259E+01  0.33810225061E+03  0.36601571158E+03  0.00000000000E+00 0.  1.
         15    1    4    4    0    0 -0.45590323535E+03 -0.54518513014E+03 -0.50674466042E+03  0.87284863349E+03  0.00000000000E+00 0. -1.
         15    1    1    2    0    0  0.10010975987E+03  0.53094197909E+03 -0.93910492292E+02  0.54839814893E+03  0.00000000000E+00 0. -1.
        -16    1    4    4    0    0 -0.27061465170E+03 -0.23093494508E+03 -0.29338944997E+03  0.46112970835E+03  0.00000000000E+00 0.  1.
         16    1    1    2    0    0  0.61079554185E+03  0.13922077273E+03  0.79497764842E+03  0.10121477555E+04  0.00000000000E+00 0. -1.
    9900018    1    1    2    0    0  0.71931887168E+01 -0.25251509455E+02  0.24771188801E+02  0.98072273768E+02  0.91187600000E+02 0.  0.
<mgrwt>
<rscale>  0 0.23011282E+04</rscale>
<asrwt>0</asrwt>
<pdfrwt beam="1">  1        2 0.40465262E+00 0.31688039E+04</pdfrwt>
<pdfrwt beam="2">  1       -2 0.23986173E+00 0.31688039E+04</pdfrwt>
<totfact> 0.17777197E-01</totfact>
</mgrwt>
</event>
<event>
11    1  0.2524517E-016  0.3585690E+04  0.7818608E-02  0.8157592E-01
          2   -1    0    0  501    0  0.00000000000E+00  0.00000000000E+00  0.24745382057E+04  0.24745382057E+04  0.00000000000E+00 0. -1.
         -2   -1    0    0    0  501 -0.00000000000E+00 -0.00000000000E+00 -0.39675711860E+04  0.39675711860E+04  0.00000000000E+00 0.  1.
    9900016    2    1    2    0    0 -0.60334436026E+03 -0.55255794123E+03 -0.15039363420E+03  0.21535710053E+04  0.19864302490E+04 0.  0.
         24    2    3    3    0    0 -0.22291217686E+03 -0.32811191337E+03 -0.10637377083E+04  0.11390257557E+04  0.92165578359E+02 0.  0.
        -15    1    4    4    0    0 -0.14546119385E+03 -0.13235650899E+03 -0.52279590495E+03  0.55856312322E+03  0.00000000000E+00 0.  1.
        -15    1    1    2    0    0  0.49753085530E+02  0.33731345009E+03 -0.83512967358E+03  0.90205171960E+03  0.00000000000E+00 0.  1.
         15    1    1    2    0    0  0.11825376073E+04  0.11551584905E+04  0.57203646218E+03  0.17492890113E+04  0.00000000000E+00 0. -1.
         15    1    3    3    0    0 -0.38043218340E+03 -0.22444602787E+03  0.91334407413E+03  0.10145452495E+04  0.00000000000E+00 0. -1.
        -16    1    1    2    0    0 -0.58906992587E+03 -0.88966432848E+03 -0.10898707050E+04  0.15252292118E+04  0.00000000000E+00 0.  1.
         16    1    4    4    0    0 -0.77450983018E+02 -0.19575540437E+03 -0.54094180338E+03  0.58046263252E+03  0.00000000000E+00 0. -1.
    9900018    1    1    2    0    0 -0.39876406727E+02 -0.50249670871E+02  0.10324570316E+02  0.11196844369E+03  0.91187600000E+02 0.  0.
<mgrwt>
<rscale>  0 0.33209228E+04</rscale>
<asrwt>0</asrwt>
<pdfrwt beam="1">  1        2 0.38069819E+00 0.35856903E+04</pdfrwt>
<pdfrwt beam="2">  1       -2 0.61039556E+00 0.35856903E+04</pdfrwt>
<totfact> 0.12588136E-03</totfact>
</mgrwt>
</event>
<event>
11    1  0.2524517E-016  0.3670006E+04  0.7818608E-02  0.8162744E-01
          2   -1    0    0  501    0  0.00000000000E+00  0.00000000000E+00  0.35403516631E+04  0.35403516631E+04  0.00000000000E+00 0. -1.
         -2   -1    0    0    0  501 -0.00000000000E+00 -0.00000000000E+00 -0.26709331602E+04  0.26709331602E+04  0.00000000000E+00 0.  1.
    9900016    2    1    2    0    0  0.17947258197E+03 -0.16948719586E+04  0.15332980993E+04  0.30957322642E+04  0.20803254136E+04 0.  0.
         24    2    3    3    0    0  0.28293164892E+03 -0.98828997298E+03 -0.31314119528E+03  0.10790310544E+04  0.97381822934E+02 0.  0.
        -15    1    4    4    0    0  0.17178725042E+03 -0.55415082959E+03 -0.22521131366E+03  0.62234567335E+03  0.00000000000E+00 0.  1.
        -15    1    1    2    0    0  0.71524296009E+02 -0.47489075904E+03 -0.52374676787E+03  0.71059667520E+03  0.00000000000E+00 0.  1.
         15    1    1    2    0    0 -0.46576216760E+03  0.49994111421E+03 -0.22463359262E+03  0.71926056849E+03  0.00000000000E+00 0. -1.
         15    1    3    3    0    0 -0.97770461241E+02 -0.54888471773E+03  0.16792379249E+04  0.17693709348E+04  0.00000000000E+00 0. -1.
        -16    1    1    2    0    0  0.21476528962E+03  0.16698216035E+04  0.84500764075E+02  0.16856953153E+04  0.00000000000E+00 0.  1.
         16    1    4    4    0    0  0.11114439850E+03 -0.43413914339E+03 -0.87929881612E+02  0.45668538101E+03  0.00000000000E+00 0. -1.
    9900018    1    3    3    0    0 -0.56886057064E+01 -0.15769726793E+03  0.16720136976E+03  0.24733027512E+03  0.91187600000E+02 0.  0.
<mgrwt>
<rscale>  0 0.33005951E+04</rscale>
<asrwt>0</asrwt>
<pdfrwt beam="1">  1        2 0.54466949E+00 0.36700063E+04</pdfrwt>
<pdfrwt beam="2">  1       -2 0.41091279E+00 0.36700063E+04</pdfrwt>
<totfact> 0.36128852E-03</totfact>
</mgrwt>
</event>
