<event>
11    1  0.8521809E-010  0.3223278E+04  0.7818608E-02  0.8182696E-01
         -1   -1    0    0    0  501 -0.00000000000E+00  0.00000000000E+00  0.15451013604E+04  0.15451013604E+04  0.00000000000E+00 0.  1.
          1   -1    0    0  501    0  0.00000000000E+00 -0.00000000000E+00 -0.16810418560E+04  0.16810418560E+04  0.00000000000E+00 0. -1.
    9900016    2    1    2    0    0 -0.33400905381E+02 -0.26083048229E+03  0.59177858669E+03  0.22901750843E+04  0.21967138776E+04 0.  0.
         24    2    3    3    0    0 -0.35269930843E+03 -0.13542809390E+03 -0.24534012046E+03  0.46002427941E+03  0.93236217005E+02 0.  0.
        -15    1    4    4    0    0 -0.12572171464E+03 -0.90532735545E+02 -0.12594212521E+03  0.19965857016E+03  0.00000000000E+00 0.  1.
        -15    1    3    3    0    0  0.48726518885E+02  0.31116194417E+02  0.30313032879E+03  0.30859437362E+03  0.00000000000E+00 0.  1.
         15    1    3    3    0    0  0.32491384698E+03  0.48674443487E+03  0.64013862891E+03  0.86733304852E+03  0.00000000000E+00 0. -1.
         15    1    3    3    0    0 -0.54341962816E+02 -0.64326301768E+03 -0.10615025055E+03  0.65422338274E+03  0.00000000000E+00 0. -1.
        -16    1    1    2    0    0  0.22700094060E+03  0.23889846165E+03 -0.25527842059E+03  0.41685605913E+03  0.00000000000E+00 0.  1.
         16    1    4    4    0    0 -0.22697759379E+03 -0.44895358350E+02 -0.11939799524E+03  0.26036570925E+03  0.00000000000E+00 0. -1.
    9900018    1    1    2    0    0 -0.19360003522E+03  0.21932020635E+02 -0.47244066163E+03  0.51911207299E+03  0.91187600000E+02 0.  0.
<mgrwt>
<rscale>  0 0.32232779E+04</rscale>
<asrwt>0</asrwt>
<pdfrwt beam="1">  1        1 0.25862183E+00 0.32232779E+04</pdfrwt>
<pdfrwt beam="2">  1       -1 0.23770790E+00 0.32232779E+04</pdfrwt>
<totfact> 0.34417086E-01</totfact>
</mgrwt>
</event>
<event>
11    1  0.8521809E-010  0.2723520E+04  0.7818608E-02  0.8327414E-01
         -2   -1    0    0    0  501 -0.00000000000E+00  0.00000000000E+00  0.44860620198E+03  0.44860620198E+03  0.00000000000E+00 0.  1.
          2   -1    0    0  501    0  0.00000000000E+00 -0.00000000000E+00 -0.41336703230E+04  0.41336703230E+04  0.00000000000E+00 0. -1.
    9900016    2    1    2    0    0 -0.10529259141E+03 -0.38548823808E+03 -0.28463014534E+04  0.36202797398E+04  0.22012055150E+04 0.  0.
        -24    2    3    3    0    0 -0.26143586255E+02 -0.29785319148E+01  0.15647592071E+03  0.18573693275E+03  0.96546028766E+02 0.  0.
        -15    1    3    3    0    0  0.69998161874E+03 -0.17575362039E+02 -0.13475697742E+04  0.15186268325E+04  0.00000000000E+00 0.  1.
        -15    1    3    3    0    0 -0.58564753621E+03 -0.15953836813E+03 -0.14346392665E+04  0.15577629321E+04  0.00000000000E+00 0.  1.
         15    1    3    3    0    0 -0.19348308769E+03 -0.20539597600E+03 -0.22056833346E+03  0.35815304257E+03  0.00000000000E+00 0. -1.
         15    1    4    4    0    0 -0.52326656890E+02 -0.22186411484E+02  0.13586821901E+03  0.14727691202E+03  0.00000000000E+00 0. -1.
        -16    1    4    4    0    0  0.26183070636E+02  0.19207879569E+02  0.20607701700E+02  0.38460020733E+02  0.00000000000E+00 0.  1.
         16    1    1    2    0    0  0.16204735184E+03  0.21634793194E+03 -0.50144391603E+03  0.56965934805E+03  0.00000000000E+00 0. -1.
    9900018    1    1    2    0    0 -0.56754760426E+02  0.16914030614E+03 -0.33731875158E+03  0.39233743710E+03  0.91187600000E+02 0.  0.
<mgrwt>
<rscale>  0 0.27235199E+04</rscale>
<asrwt>0</asrwt>
<pdfrwt beam="1">  1        2 0.63594928E+00 0.27235199E+04</pdfrwt>
<pdfrwt beam="2">  1       -2 0.69016339E-01 0.27235199E+04</pdfrwt>
<totfact> 0.44574957E-01</totfact>
</mgrwt>
</event>
<event>
11    1  0.8521809E-010  0.4875135E+04  0.7818608E-02  0.7848063E-01
         -2   -1    0    0    0  501 -0.00000000000E+00  0.00000000000E+00  0.17419040053E+04  0.17419040053E+04  0.00000000000E+00 0.  1.
          2   -1    0    0  501    0  0.00000000000E+00 -0.00000000000E+00 -0.34110574886E+04  0.34110574886E+04  0.00000000000E+00 0. -1.
    9900016    2    1    2    0    0 -0.75701993559E+03 -0.31933865496E+03 -0.52339843423E+03  0.24281031012E+04  0.22241138437E+04 0.  0.
         24    2    3    3    0    0  0.25606378462E+03 -0.93350751392E+03  0.19119800427E+03  0.99262089325E+03  0.10832645353E+03 0.  0.
        -15    1    4    4    0    0  0.15584701020E+03 -0.50442646405E+03  0.51900886763E+02  0.53049792673E+03  0.00000000000E+00 0.  1.
        -15    1    3    3    0    0  0.31308479439E+01  0.32568038377E+02 -0.60726968032E+02  0.68980025942E+02  0.00000000000E+00 0. -1.
         15    1    3    3    0    0 -0.98594254226E+03  0.48895582612E+03 -0.57861193982E+03  0.12433632910E+04  0.00000000000E+00 0. -1.
         15    1    3    3    0    0 -0.30272025886E+02  0.92644994466E+02 -0.75257530660E+02  0.12313889098E+03  0.00000000000E+00 0.  1.
        -16    1    1    2    0    0  0.15511710190E+04 -0.10938172573E+03 -0.60330151795E+03  0.16679534207E+04  0.00000000000E+00 0.  1.
         16    1    4    4    0    0  0.10021677442E+03 -0.42908104988E+03  0.13929711751E+03  0.46212296652E+03  0.00000000000E+00 0. -1.
    9900018    1    1    2    0    0 -0.79415108344E+03  0.42872038069E+03 -0.54245353112E+03  0.10569049721E+04  0.91187600000E+02 0.  0.
<mgrwt>
<rscale>  0 0.48751347E+04</rscale>
<asrwt>0</asrwt>
<pdfrwt beam="1">  1        2 0.52477808E+00 0.48751347E+04</pdfrwt>
<pdfrwt beam="2">  1       -2 0.26798523E+00 0.48751347E+04</pdfrwt>
<totfact> 0.34292659E-02</totfact>
</mgrwt>
</event>
<event>
10    1  0.8521809E-010  0.3841086E+04  0.7818608E-02  0.8037395E-01
         -2   -1    0    0    0  501 -0.00000000000E+00  0.00000000000E+00  0.12163120928E+04  0.12163120928E+04  0.00000000000E+00 0.  1.
          2   -1    0    0  501    0  0.00000000000E+00 -0.00000000000E+00 -0.30325148536E+04  0.30325148536E+04  0.00000000000E+00 0. -1.
    9900016    2    1    2    0    0 -0.10191833242E+04  0.42113977060E+03 -0.12297796974E+04  0.27513563073E+04  0.22003431712E+04 0.  0.
        -15    1    3    3    0    0  0.51138697001E+02  0.17371724300E+01  0.16066653725E+03  0.16861767491E+03  0.00000000000E+00 0.  1.
        -15    1    3    3    0    0 -0.13145326931E+04  0.90299723920E+03 -0.11272911158E+04  0.19529939772E+04  0.00000000000E+00 0.  1.
         15    1    3    3    0    0  0.74939708276E+02 -0.96310957329E+02 -0.36005046186E+02  0.12723255766E+03  0.00000000000E+00 0. -1.
         15    1    3    3    0    0  0.59351710746E+02 -0.22307730594E+03 -0.19527982496E+03  0.30235793363E+03  0.00000000000E+00 0. -1.
        -16    1    3    3    0    0  0.10991925284E+03 -0.16420637776E+03 -0.31870247702E+02  0.20015416391E+03  0.00000000000E+00 0.  1.
         16    1    1    2    0    0  0.10036004842E+04 -0.60146323694E+03 -0.45214558902E+03  0.12543554484E+04  0.00000000000E+00 0. -1.
    9900018    1    1    2    0    0  0.15582840003E+02  0.18032346634E+03 -0.13427747442E+03  0.24311519069E+03  0.91187600000E+02 0.  0.
<mgrwt>
<rscale>  0 0.38410855E+04</rscale>
<asrwt>0</asrwt>
<pdfrwt beam="1">  1        2 0.46654074E+00 0.38410855E+04</pdfrwt>
<pdfrwt beam="2">  1       -2 0.18712494E+00 0.38410855E+04</pdfrwt>
<totfact> 0.21498390E-01</totfact>
</mgrwt>
</event>
<event>
11    1  0.8521809E-010  0.3410509E+04  0.7818608E-02  0.8135332E-01
          1   -1    0    0  501    0  0.00000000000E+00  0.00000000000E+00  0.17233644391E+04  0.17233644391E+04  0.00000000000E+00 0. -1.
         -1   -1    0    0    0  501 -0.00000000000E+00 -0.00000000000E+00 -0.16873351195E+04  0.16873351195E+04  0.00000000000E+00 0.  1.
    9900016    2    1    2    0    0 -0.49274342110E+03 -0.67024083928E+03 -0.25543512721E+03  0.24056831479E+04  0.22427762800E+04 0.  0.
         24    2    3    3    0    0  0.15741231027E+03 -0.16785265102E+03  0.27998454912E+03  0.37839683842E+03  0.10881025549E+03 0.  0.
        -15    1    4    4    0    0  0.71291015741E+02 -0.13173796306E+03  0.22414386552E+03  0.26958815309E+03  0.00000000000E+00 0.  1.
        -15    1    3    3    0    0 -0.35563629552E+03 -0.71422913771E+03  0.35550062981E+03  0.87348791270E+03  0.00000000000E+00 0.  1.
         15    1    3    3    0    0  0.17711742200E+03  0.17989138117E+03 -0.39406432140E+03  0.46799378158E+03  0.00000000000E+00 0. -1.
         15    1    3    3    0    0 -0.47163685785E+03  0.31949568274E+02 -0.49685598474E+03  0.68580461516E+03  0.00000000000E+00 0. -1.
        -16    1    1    2    0    0  0.48871202343E+03  0.47191747532E+03  0.52588880882E+02  0.68140379786E+03  0.00000000000E+00 0.  1.
         16    1    4    4    0    0  0.86121294528E+02 -0.36114687965E+02  0.55840683596E+02  0.10880868533E+03  0.00000000000E+00 0. -1.
    9900018    1    1    2    0    0  0.40313976728E+01  0.19832336396E+03  0.23887556586E+03  0.32361261288E+03  0.91187600000E+02 0.  0.
<mgrwt>
<rscale>  0 0.34105093E+04</rscale>
<asrwt>0</asrwt>
<pdfrwt beam="1">  1        1 0.26513299E+00 0.34105093E+04</pdfrwt>
<pdfrwt beam="2">  1       -1 0.25959002E+00 0.34105093E+04</pdfrwt>
<totfact> 0.22798328E-01</totfact>
</mgrwt>
</event>
<event>
11    1  0.8521809E-010  0.2760815E+04  0.7818608E-02  0.8315538E-01
          2   -1    0    0  501    0  0.00000000000E+00  0.00000000000E+00  0.16040951381E+04  0.16040951381E+04  0.00000000000E+00 0. -1.
         -2   -1    0    0    0  501 -0.00000000000E+00 -0.00000000000E+00 -0.11879127394E+04  0.11879127394E+04  0.00000000000E+00 0.  1.
    9900016    2    1    2    0    0 -0.13084354641E+03 -0.18303956402E+03  0.71261466911E+03  0.23276910285E+04  0.22044732572E+04 0.  0.
         24    2    3    3    0    0 -0.71163991327E+03 -0.13134202106E+02  0.48593704432E+03  0.86426809580E+03  0.64966583368E+02 0.  0.
        -15    1    3    3    0    0  0.25565235236E+03 -0.65402662244E+03  0.25169467116E+03  0.74596189958E+03  0.00000000000E+00 0.  1.
        -15    1    4    4    0    0 -0.57410921047E+03  0.31894532293E+01  0.36434269017E+03  0.67996849489E+03  0.00000000000E+00 0.  1.
         15    1    3    3    0    0  0.48491060474E+02  0.42226103332E+03  0.39052392238E+02  0.42682648997E+03  0.00000000000E+00 0. -1.
         15    1    3    3    0    0  0.27665295403E+03  0.61860227212E+02 -0.64069438607E+02  0.29063454311E+03  0.00000000000E+00 0. -1.
        -16    1    1    2    0    0  0.10906431270E+03  0.65262210610E+02 -0.28653165700E+03  0.31345585160E+03  0.00000000000E+00 0.  1.
         16    1    4    4    0    0 -0.13753070280E+03 -0.16323655335E+02  0.12159435415E+03  0.18429960091E+03  0.00000000000E+00 0. -1.
    9900018    1    1    2    0    0  0.21779233711E+02  0.11777735341E+03 -0.99006134224E+01  0.15086099740E+03  0.91187600000E+02 0.  0.
<mgrwt>
<rscale>  0 0.27608151E+04</rscale>
<asrwt>0</asrwt>
<pdfrwt beam="1">  1        2 0.24678387E+00 0.27608151E+04</pdfrwt>
<pdfrwt beam="2">  1       -2 0.18275581E+00 0.27608151E+04</pdfrwt>
<totfact> 0.16811093E+00</totfact>
</mgrwt>
</event>
<event>
11    1  0.8521809E-010  0.4260755E+04  0.7818608E-02  0.7953915E-01
         -1   -1    0    0    0  501 -0.00000000000E+00  0.00000000000E+00  0.20310066193E+04  0.20310066193E+04  0.00000000000E+00 0.  1.
          1   -1    0    0  501    0  0.00000000000E+00 -0.00000000000E+00 -0.22346104743E+04  0.22346104743E+04  0.00000000000E+00 0. -1.
    9900016    2    1    2    0    0  0.73259207685E+03  0.87237940784E+02 -0.62411079126E+03  0.24079447121E+04  0.22055343678E+04 0.  0.
         24    2    3    3    0    0 -0.10050962328E+03 -0.28970933818E+03 -0.61122204795E+03  0.69008172191E+03  0.92664480906E+02 0.  0.
        -15    1    3    3    0    0  0.28855828277E+03 -0.29681243956E+03  0.33770450090E+03  0.53423575017E+03  0.00000000000E+00 0.  1.
        -15    1    4    4    0    0 -0.70366849948E+02 -0.27702403082E+03 -0.56822501583E+03  0.63606090576E+03  0.00000000000E+00 0.  1.
         15    1    3    3    0    0  0.14247358901E+03  0.49853519149E+03  0.12841149069E+03  0.53415875136E+03  0.00000000000E+00 0. -1.
         15    1    3    3    0    0  0.40206982835E+03  0.17522452704E+03 -0.47900473490E+03  0.64946848869E+03  0.00000000000E+00 0. -1.
        -16    1    1    2    0    0 -0.11497744723E+04  0.68282196732E+02  0.67678928336E+03  0.13359219774E+04  0.00000000000E+00 0.  1.
         16    1    4    4    0    0 -0.30142773329E+02 -0.12685307358E+02 -0.42997032122E+02  0.54020816155E+02  0.00000000000E+00 0. -1.
    9900018    1    1    2    0    0  0.41718239549E+03 -0.15552013752E+03 -0.25628234714E+03  0.52175040405E+03  0.91187600000E+02 0.  0.
<mgrwt>
<rscale>  0 0.42607552E+04</rscale>
<asrwt>0</asrwt>
<pdfrwt beam="1">  1        1 0.34378623E+00 0.42607552E+04</pdfrwt>
<pdfrwt beam="2">  1       -1 0.31246256E+00 0.42607552E+04</pdfrwt>
<totfact> 0.43323351E-02</totfact>
</mgrwt>
</event>
<event>
11    1  0.8521809E-010  0.2827319E+04  0.7818608E-02  0.8294837E-01
         -2   -1    0    0    0  501 -0.00000000000E+00  0.00000000000E+00  0.13317397207E+04  0.13317397207E+04  0.00000000000E+00 0. -1.
          2   -1    0    0  501    0  0.00000000000E+00 -0.00000000000E+00 -0.15006180411E+04  0.15006180411E+04  0.00000000000E+00 0.  1.
    9900016    2    1    2    0    0 -0.25968885239E+03 -0.52019221917E+02  0.21045778036E+03  0.22250881167E+04  0.21992226696E+04 0.  0.
         24    2    3    3    0    0 -0.44815905439E+03 -0.39021717994E+03 -0.61138633314E+03  0.85754602528E+03  0.92064931289E+02 0.  0.
        -15    1    4    4    0    0 -0.17390187886E+02 -0.18805400190E+01 -0.38738797689E+02  0.42504699880E+02  0.00000000000E+00 0.  1.
        -15    1    3    3    0    0 -0.10974520210E+03 -0.18974706437E+03  0.52425729620E+02  0.22538060020E+03  0.00000000000E+00 0.  1.
         15    1    3    3    0    0  0.38350736245E+03  0.57083321339E+03  0.48331006324E+03  0.84054569881E+03  0.00000000000E+00 0. -1.
         15    1    3    3    0    0 -0.85291958347E+02 -0.42888191000E+02  0.28610832065E+03  0.30161579241E+03  0.00000000000E+00 0. -1.
        -16    1    1    2    0    0  0.16401215805E+03 -0.13313607463E+03 -0.29882501656E+03  0.36595299272E+03  0.00000000000E+00 0.  1.
         16    1    4    4    0    0 -0.43076886651E+03 -0.38833663992E+03 -0.57264753545E+03  0.81504132540E+03  0.00000000000E+00 0. -1.
    9900018    1    1    2    0    0  0.95676694337E+02  0.18515529655E+03 -0.80511084192E+02  0.24131665245E+03  0.91187600000E+02 0.  0.
<mgrwt>
<rscale>  0 0.28273186E+04</rscale>
<asrwt>0</asrwt>
<pdfrwt beam="1">  1        2 0.23086431E+00 0.28273186E+04</pdfrwt>
<pdfrwt beam="2">  1       -2 0.20488303E+00 0.28273186E+04</pdfrwt>
<totfact> 0.13609624E+00</totfact>
</mgrwt>
</event>
<event>
11    1  0.8521809E-010  0.4034000E+04  0.7818608E-02  0.7997723E-01
          3   -1    0    0  501    0  0.00000000000E+00  0.00000000000E+00  0.16371491785E+04  0.16371491785E+04  0.00000000000E+00 0. -1.
         -3   -1    0    0    0  501 -0.00000000000E+00 -0.00000000000E+00 -0.24849837682E+04  0.24849837682E+04  0.00000000000E+00 0.  1.
    9900016    2    1    2    0    0  0.11398500165E+04  0.32679876133E+03 -0.66729329241E+03  0.25858812639E+04  0.21989647751E+04 0.  0.
         24    2    3    3    0    0  0.26640258193E+03 -0.14364809294E+03 -0.87030621554E+03  0.92373045136E+03  0.65114727128E+02 0.  0.
        -15    1    3    3    0    0  0.98046671249E+03  0.27560025953E+03 -0.92523782697E+02  0.10226588521E+04  0.00000000000E+00 0.  1.
        -15    1    4    4    0    0  0.25377929070E+02 -0.25343425610E+02 -0.16947422267E+03  0.17322771330E+03  0.00000000000E+00 0.  1.
         15    1    3    3    0    0  0.13469931171E+03  0.19281340255E+03 -0.26647082649E+02  0.23670863903E+03  0.00000000000E+00 0. -1.
         15    1    3    3    0    0 -0.24171858966E+03  0.20331921949E+01  0.32218378848E+03  0.40278332142E+03  0.00000000000E+00 0. -1.
        -16    1    1    2    0    0 -0.11825811206E+04 -0.36046580778E+03 -0.39423260819E+03  0.12976336366E+04  0.00000000000E+00 0.  1.
         16    1    4    4    0    0  0.24102465286E+03 -0.11830466733E+03 -0.70083199287E+03  0.75050273806E+03  0.00000000000E+00 0. -1.
    9900018    1    1    2    0    0  0.42731104135E+02  0.33667046448E+02  0.21369131084E+03  0.23861804626E+03  0.91187600000E+02 0.  0.
<mgrwt>
<rscale>  0 0.40340001E+04</rscale>
<asrwt>0</asrwt>
<pdfrwt beam="1">  1        3 0.25186911E+00 0.40340001E+04</pdfrwt>
<pdfrwt beam="2">  1       -3 0.38230519E+00 0.40340001E+04</pdfrwt>
<totfact> 0.19327508E-03</totfact>
</mgrwt>
</event>
<event>
11    1  0.8521809E-010  0.2893326E+04  0.7818608E-02  0.8274866E-01
         -2   -1    0    0    0  501 -0.00000000000E+00  0.00000000000E+00  0.96325789619E+03  0.96325789619E+03  0.00000000000E+00 0.  1.
          2   -1    0    0  501    0  0.00000000000E+00 -0.00000000000E+00 -0.21726614198E+04  0.21726614198E+04  0.00000000000E+00 0. -1.
    9900016    2    1    2    0    0 -0.18585436150E+02  0.43325554965E+03 -0.70482450433E+03  0.23570798653E+04  0.22070324238E+04 0.  0.
        -24    2    3    3    0    0  0.63026633617E+03  0.65985861378E+02 -0.97257573097E+02  0.64441361944E+03  0.64962211988E+02 0.  0.
        -15    1    3    3    0    0 -0.13967941613E+03 -0.11441254639E+03 -0.12167577096E+03  0.21772818674E+03  0.00000000000E+00 0.  1.
        -15    1    3    3    0    0 -0.69438885709E+03  0.11486262199E+03 -0.73238157207E+03  0.10157519746E+04  0.00000000000E+00 0.  1.
         15    1    3    3    0    0  0.18521650089E+03  0.36681961267E+03  0.24649041180E+03  0.47918608447E+03  0.00000000000E+00 0. -1.
         15    1    4    4    0    0  0.45718117872E+03  0.74748248047E+02 -0.81808772807E+02  0.47041960638E+03  0.00000000000E+00 0. -1.
        -16    1    4    4    0    0  0.17308515746E+03 -0.87623866689E+01 -0.15448800289E+02  0.17399401306E+03  0.00000000000E+00 0.  1.
         16    1    1    2    0    0  0.80475174638E+02 -0.37022096189E+03 -0.52787178174E+03  0.64976028835E+03  0.00000000000E+00 0. -1.
    9900018    1    1    2    0    0 -0.61889738488E+02 -0.63034587752E+02  0.23292762464E+02  0.12907916238E+03  0.91187600000E+02 0.  0.
<mgrwt>
<rscale>  0 0.28933256E+04</rscale>
<asrwt>0</asrwt>
<pdfrwt beam="1">  1        2 0.33425560E+00 0.28933256E+04</pdfrwt>
<pdfrwt beam="2">  1       -2 0.14819352E+00 0.28933256E+04</pdfrwt>
<totfact> 0.14293107E+00</totfact>
</mgrwt>
</event>
<event>
10    1  0.8521809E-010  0.3502554E+04  0.7818608E-02  0.8113185E-01
         -1   -1    0    0    0  501 -0.00000000000E+00  0.00000000000E+00  0.13486514649E+04  0.13486514649E+04  0.00000000000E+00 0.  1.
          1   -1    0    0  501    0  0.00000000000E+00 -0.00000000000E+00 -0.22741019552E+04  0.22741019552E+04  0.00000000000E+00 0. -1.
    9900016    2    1    2    0    0  0.78454842327E+02  0.13805452357E+03 -0.13575890811E+04  0.25830974619E+04  0.21918326056E+04 0.  0.
        -15    1    3    3    0    0 -0.20461586744E+03 -0.72751167196E+02 -0.83757951189E+03  0.86527442137E+03  0.00000000000E+00 0.  1.
        -15    1    3    3    0    0  0.10777203582E+03  0.12430396931E+03  0.35578597285E+02  0.16832149321E+03  0.00000000000E+00 0. -1.
         15    1    3    3    0    0  0.51100574447E+03 -0.27914396311E+03  0.15212502166E+03  0.60182243663E+03  0.00000000000E+00 0. -1.
         15    1    3    3    0    0  0.78306650884E+02  0.54978202187E+02 -0.42200650023E+02  0.10457260230E+03  0.00000000000E+00 0.  1.
        -16    1    1    2    0    0  0.48523476099E+02 -0.38122632769E+03  0.59464911399E+03  0.70802232269E+03  0.00000000000E+00 0.  1.
         16    1    3    3    0    0 -0.41401372140E+03  0.31066748237E+03 -0.66551253812E+03  0.84310650840E+03  0.00000000000E+00 0. -1.
    9900018    1    1    2    0    0 -0.12697831843E+03  0.24317180413E+03 -0.16251052317E+03  0.33163363552E+03  0.91187600000E+02 0.  0.
<mgrwt>
<rscale>  0 0.35025539E+04</rscale>
<asrwt>0</asrwt>
<pdfrwt beam="1">  1        1 0.34986184E+00 0.35025539E+04</pdfrwt>
<pdfrwt beam="2">  1       -1 0.20748484E+00 0.35025539E+04</pdfrwt>
<totfact> 0.21147076E-01</totfact>
</mgrwt>
</event>
<event>
10    1  0.8521809E-010  0.2885402E+04  0.7818608E-02  0.8277234E-01
          2   -1    0    0  501    0  0.00000000000E+00  0.00000000000E+00  0.58916646245E+03  0.58916646245E+03  0.00000000000E+00 0.  1.
         -2   -1    0    0    0  501 -0.00000000000E+00 -0.00000000000E+00 -0.35327647934E+04  0.35327647934E+04  0.00000000000E+00 0. -1.
    9900016    2    1    2    0    0 -0.97878305483E+02 -0.34110229277E+03 -0.17376324581E+04  0.27973303822E+04  0.21632752416E+04 0.  0.
        -15    1    3    3    0    0  0.53037849237E+02  0.47997715888E+03 -0.50363387194E+03  0.69773789023E+03  0.00000000000E+00 0.  1.
        -15    1    3    3    0    0  0.80578221682E+02 -0.56335844031E+03 -0.74125631040E+03  0.93451939508E+03  0.00000000000E+00 0.  1.
         15    1    3    3    0    0 -0.47724750778E+03  0.43114700917E+02 -0.49204285430E+03  0.68682620188E+03  0.00000000000E+00 0. -1.
         15    1    3    3    0    0  0.20438050872E+03 -0.34176133707E+03  0.49649970550E+02  0.40129455944E+03  0.00000000000E+00 0. -1.
        -16    1    1    2    0    0  0.36015631725E+02 -0.89190041090E+02 -0.30994772156E+03  0.32452978178E+03  0.00000000000E+00 0.  1.
         16    1    3    3    0    0  0.41372622664E+02  0.40925624821E+02 -0.50349392015E+02  0.76952335568E+02  0.00000000000E+00 0. -1.
    9900018    1    1    2    0    0  0.61862673758E+02  0.43029233386E+03 -0.89601815133E+03  0.10000710919E+04  0.91187600000E+02 0.  0.
<mgrwt>
<rscale>  0 0.28854022E+04</rscale>
<asrwt>0</asrwt>
<pdfrwt beam="1">  1        2 0.90640995E-01 0.28854022E+04</pdfrwt>
<pdfrwt beam="2">  1       -2 0.54350227E+00 0.28854022E+04</pdfrwt>
<totfact> 0.40134019E-02</totfact>
</mgrwt>
</event>
<event>
11    1  0.8521810E-010  0.3547686E+04  0.7818608E-02  0.8102581E-01
         -2   -1    0    0    0  501 -0.00000000000E+00  0.00000000000E+00  0.27919320086E+04  0.27919320086E+04  0.00000000000E+00 0.  1.
          2   -1    0    0  501    0  0.00000000000E+00 -0.00000000000E+00 -0.11270040629E+04  0.11270040629E+04  0.00000000000E+00 0. -1.
    9900016    2    1    2    0    0  0.69492386376E+03 -0.63179276273E+03  0.15000949592E+04  0.28223169597E+04  0.21984328197E+04 0.  0.
         24    2    3    3    0    0 -0.34853691161E+02 -0.56343200882E+03  0.34134704746E+02  0.56875262296E+03  0.60365219390E+02 0.  0.
        -15    1    3    3    0    0 -0.18567462068E+03  0.43558583679E+03  0.60701046797E+03  0.76985180016E+03  0.00000000000E+00 0.  1.
        -15    1    4    4    0    0 -0.10388818709E+01 -0.40008355499E+03  0.10049752735E+02  0.40021110402E+03  0.00000000000E+00 0.  1.
         15    1    3    3    0    0  0.71916538077E+03 -0.17415280366E+03  0.28430022778E+03  0.79268825110E+03  0.00000000000E+00 0. -1.
         15    1    3    3    0    0  0.19628679483E+03 -0.32979378704E+03  0.57464955872E+03  0.69102428549E+03  0.00000000000E+00 0. -1.
        -16    1    1    2    0    0 -0.69439173346E+03  0.62945874739E+03  0.25192859926E+03  0.97049792029E+03  0.00000000000E+00 0.  1.
         16    1    4    4    0    0 -0.33814809290E+02 -0.16334845383E+03  0.24084952011E+02  0.16854151895E+03  0.00000000000E+00 0. -1.
    9900018    1    1    2    0    0 -0.53213029401E+00  0.23340153439E+01 -0.87095612784E+02  0.12612119152E+03  0.91187600000E+02 0.  0.
<mgrwt>
<rscale>  0 0.35476858E+04</rscale>
<asrwt>0</asrwt>
<pdfrwt beam="1">  1        2 0.17338524E+00 0.35476858E+04</pdfrwt>
<pdfrwt beam="2">  1       -2 0.42952800E+00 0.35476858E+04</pdfrwt>
<totfact> 0.81317064E-02</totfact>
</mgrwt>
</event>
