<event>
12    1  0.8483853E-013  0.1584815E+04  0.7818608E-02  0.8829932E-01
         -2   -1    0    0    0  501 -0.00000000000E+00  0.00000000000E+00  0.37118601080E+03  0.37118601080E+03  0.00000000000E+00 0.  1.
          2   -1    0    0  501    0  0.00000000000E+00 -0.00000000000E+00 -0.16916303240E+04  0.16916303240E+04  0.00000000000E+00 0. -1.
         23    2    1    2    0    0  0.18456469750E+03  0.99135353854E+02  0.63852279256E+02  0.23060112172E+03  0.72165212015E+02 0.  0.
    9900016    2    1    2    0    0 -0.12668673086E+03  0.19798489108E+03 -0.79867428175E+03  0.10948605710E+04  0.71104958809E+03 0.  0.
         23    2    4    4    0    0 -0.22154784048E+03  0.12103503456E+03  0.48327105168E+01  0.28212236151E+03  0.12584413600E+03 0.  0.
        -15    1    5    5    0    0 -0.11134380182E+03  0.12768878926E+03  0.20343864990E+02  0.17063335533E+03  0.00000000000E+00 0. -1.
        -15    1    3    3    0    0  0.23661570565E+02  0.39345021709E+02 -0.38639597941E+01  0.46074188438E+02  0.00000000000E+00 0.  1.
         15    1    3    3    0    0  0.16090312693E+03  0.59790332145E+02  0.67716239050E+02  0.18452693328E+03  0.00000000000E+00 0. -1.
         15    1    5    5    0    0 -0.11020403866E+03 -0.66537547057E+01 -0.15511154473E+02  0.11148900619E+03  0.00000000000E+00 0.  1.
        -16    1    1    2    0    0  0.32299331217E+02  0.54556573330E+02 -0.15088796540E+03  0.16366687079E+03  0.00000000000E+00 0.  1.
         16    1    4    4    0    0  0.94861109621E+02  0.76949856525E+02 -0.80350699227E+03  0.81273820949E+03  0.00000000000E+00 0. -1.
    9900018    1    1    2    0    0 -0.90177297859E+02 -0.35167681826E+03 -0.43473434529E+03  0.57368777128E+03  0.91187600000E+02 0.  0.
<mgrwt>
<rscale>  0 0.15848148E+04</rscale>
<asrwt>0</asrwt>
<pdfrwt beam="1">  1        2 0.26025081E+00 0.15848148E+04</pdfrwt>
<pdfrwt beam="2">  1       -2 0.57105542E-01 0.15848148E+04</pdfrwt>
<totfact> 0.27349947E+01</totfact>
</mgrwt>
</event>
<event>
11    1  0.8483853E-013  0.1969637E+04  0.7818608E-02  0.8620949E-01
          2   -1    0    0  501    0  0.00000000000E+00  0.00000000000E+00  0.15536490074E+04  0.15536490074E+04  0.00000000000E+00 0. -1.
         -2   -1    0    0    0  501 -0.00000000000E+00 -0.00000000000E+00 -0.62425159208E+03  0.62425159208E+03  0.00000000000E+00 0.  1.
    9900016    2    1    2    0    0 -0.17829615629E+03  0.42765311907E+03  0.89722067011E+02  0.84509705635E+03  0.70104370459E+03 0.  0.
         23    2    3    3    0    0  0.63734365406E+02  0.24068582117E+03  0.34944041890E+03  0.44386250372E+03  0.11363794262E+03 0.  0.
        -15    1    4    4    0    0  0.32556983017E+02  0.10880374169E+02  0.16429571178E+02  0.38056149231E+02  0.00000000000E+00 0. -1.
        -15    1    1    2    0    0  0.18986912146E+03  0.11717376145E+03  0.26046309725E+03  0.34295917933E+03  0.00000000000E+00 0. -1.
         15    1    4    4    0    0  0.31177382389E+02  0.22980544700E+03  0.33301084773E+03  0.40580635449E+03  0.00000000000E+00 0.  1.
         15    1    1    2    0    0  0.10748333446E+02 -0.30329037548E+01 -0.20926998165E+02  0.23720548671E+02  0.00000000000E+00 0.  1.
        -16    1    1    2    0    0  0.25827319611E+02 -0.60555067279E+03  0.58770882375E+03  0.84425134247E+03  0.00000000000E+00 0.  1.
         16    1    3    3    0    0 -0.24203052169E+03  0.18696729790E+03 -0.25971835189E+03  0.40123455263E+03  0.00000000000E+00 0. -1.
    9900018    1    1    2    0    0 -0.48148618229E+02  0.63756696027E+02  0.12430425497E+02  0.12187247268E+03  0.91187600000E+02 0.  0.
<mgrwt>
<rscale>  0 0.19696374E+04</rscale>
<asrwt>0</asrwt>
<pdfrwt beam="1">  1        2 0.23902292E+00 0.19696374E+04</pdfrwt>
<pdfrwt beam="2">  1       -2 0.96038707E-01 0.19696374E+04</pdfrwt>
<totfact> 0.10019609E+01</totfact>
</mgrwt>
</event>
<event>
12    1  0.8483854E-013  0.1792708E+04  0.7818608E-02  0.9372995E-01
          2   -1    0    0  501    0  0.00000000000E+00  0.00000000000E+00  0.14078063064E+04  0.14078063064E+04  0.00000000000E+00 0. -1.
         -2   -1    0    0    0  501 -0.00000000000E+00 -0.00000000000E+00 -0.68525839566E+03  0.68525839566E+03  0.00000000000E+00 0.  1.
         23    2    1    2    0    0 -0.13762584641E+02 -0.83292222885E+02  0.16693084841E+03  0.21622869213E+03  0.10845245972E+03 0.  0.
    9900016    2    1    2    0    0  0.18405940425E+02  0.12368160286E+03  0.54014422179E+03  0.89734218007E+03  0.70557160534E+03 0.  0.
         23    2    4    4    0    0  0.26097886590E+03 -0.76697723332E+02  0.23728060313E+02  0.29262807375E+03  0.10524095917E+03 0.  0.
        -15    1    3    3    0    0 -0.33419700103E+02 -0.51234859980E+02  0.19690090538E+02  0.64261861922E+02  0.00000000000E+00 0.  1.
        -15    1    5    5    0    0  0.97627515862E+02 -0.12706765734E+01  0.51801081541E+02  0.11052646073E+03  0.00000000000E+00 0.  1.
         15    1    3    3    0    0  0.19657115462E+02 -0.32057362905E+02  0.14724075787E+03  0.15196683021E+03  0.00000000000E+00 0. -1.
         15    1    5    5    0    0  0.16335135004E+03 -0.75427046758E+02 -0.28073021228E+02  0.18210161302E+03  0.00000000000E+00 0. -1.
        -16    1    4    4    0    0 -0.24257292548E+03  0.20037932619E+03  0.51641616148E+03  0.60471410632E+03  0.00000000000E+00 0.  1.
         16    1    1    2    0    0  0.27832475822E+03  0.14856294440E+03  0.36554527703E+03  0.48286537363E+03  0.00000000000E+00 0. -1.
    9900018    1    1    2    0    0 -0.28296811401E+03 -0.18895232437E+03 -0.35007243645E+03  0.49662845628E+03  0.91187600000E+02 0.  0.
<mgrwt>
<rscale>  0 0.94331810E+03</rscale>
<asrwt>0</asrwt>
<pdfrwt beam="1">  1        2 0.21658558E+00 0.17927083E+04</pdfrwt>
<pdfrwt beam="2">  1       -2 0.10542437E+00 0.17927083E+04</pdfrwt>
<totfact> 0.98011710E+00</totfact>
</mgrwt>
</event>
<event>
12    1  0.8483853E-013  0.1509717E+04  0.7818608E-02  0.9540756E-01
         -2   -1    0    0    0  501 -0.00000000000E+00  0.00000000000E+00  0.22654597280E+04  0.22654597280E+04  0.00000000000E+00 0.  1.
          2   -1    0    0  501    0  0.00000000000E+00 -0.00000000000E+00 -0.29570527459E+03  0.29570527459E+03  0.00000000000E+00 0. -1.
         23    2    1    2    0    0  0.69851072278E+02 -0.34976694400E+01  0.15362919467E+03  0.19947998781E+03  0.10629642558E+03 0.  0.
    9900016    2    1    2    0    0  0.32679795445E+03 -0.96090752650E+02  0.13318680605E+04  0.15406595323E+04  0.69550623866E+03 0.  0.
         23    2    4    4    0    0  0.48956456488E+03  0.47080523353E+02  0.11590988594E+04  0.12634589179E+04  0.10453818722E+03 0.  0.
        -15    1    3    3    0    0 -0.21096910280E+02  0.78390550962E+01  0.76343943186E+02  0.79592261366E+02  0.00000000000E+00 0.  1.
        -15    1    5    5    0    0  0.10618427470E+02  0.19693099554E+02  0.67063710132E+02  0.70697315286E+02  0.00000000000E+00 0. -1.
         15    1    5    5    0    0  0.47894613741E+03  0.27387423799E+02  0.10920351493E+04  0.11927616026E+04  0.00000000000E+00 0.  1.
         15    1    3    3    0    0  0.90947982558E+02 -0.11336724536E+02  0.77285251487E+02  0.11988772644E+03  0.00000000000E+00 0. -1.
        -16    1    4    4    0    0 -0.16276661043E+03 -0.14317127600E+03  0.17276920114E+03  0.27720061437E+03  0.00000000000E+00 0.  1.
         16    1    1    2    0    0 -0.30887290137E+03 -0.91600223870E+02  0.44694090786E+02  0.32525471859E+03  0.00000000000E+00 0. -1.
    9900018    1    1    2    0    0 -0.87776125359E+02  0.19118864596E+03  0.43956310741E+03  0.49577076388E+03  0.91187600000E+02 0.  0.
<mgrwt>
<rscale>  0 0.81344580E+03</rscale>
<asrwt>0</asrwt>
<pdfrwt beam="1">  1        2 0.45493121E-01 0.15097169E+04</pdfrwt>
<pdfrwt beam="2">  1       -2 0.34853225E+00 0.15097169E+04</pdfrwt>
<totfact> 0.17201106E+00</totfact>
</mgrwt>
</event>
<event>
12    1  0.8483853E-013  0.2121395E+04  0.7818608E-02  0.9028227E-01
         -1   -1    0    0    0  501 -0.00000000000E+00  0.00000000000E+00  0.36466364297E+03  0.36466364297E+03  0.00000000000E+00 0.  1.
          1   -1    0    0  501    0  0.00000000000E+00 -0.00000000000E+00 -0.41008262078E+04  0.41008262078E+04  0.00000000000E+00 0. -1.
         23    2    1    2    0    0  0.28653721509E+03  0.68471838246E+02 -0.28412476167E+03  0.41371473805E+03  0.60340997867E+02 0.  0.
    9900016    2    1    2    0    0 -0.21126571847E+03 -0.55042600273E+03 -0.14446324953E+04  0.17127743045E+04  0.70642110906E+03 0.  0.
         23    2    4    4    0    0 -0.15565902047E+03  0.13105017462E+03 -0.36767046773E+03  0.43709836836E+03  0.12028936720E+03 0.  0.
        -15    1    5    5    0    0 -0.10235142773E+03  0.12944794596E+03 -0.33784227325E+03  0.37599200399E+03  0.00000000000E+00 0.  1.
        -15    1    3    3    0    0  0.79714529351E+02  0.23991581262E+02 -0.11959055703E+03  0.14571171364E+03  0.00000000000E+00 0. -1.
         15    1    5    5    0    0 -0.53307592739E+02  0.16022286643E+01 -0.29828194478E+02  0.61106364367E+02  0.00000000000E+00 0. -1.
         15    1    3    3    0    0  0.20682268574E+03  0.44480256984E+02 -0.16453420463E+03  0.26800302441E+03  0.00000000000E+00 0.  1.
        -16    1    1    2    0    0 -0.14188038707E+03  0.81702988019E+03 -0.12119773423E+04  0.14685220283E+04  0.00000000000E+00 0.  1.
         16    1    4    4    0    0 -0.55606698001E+02 -0.68147617735E+03 -0.10769620276E+04  0.12756759361E+04  0.00000000000E+00 0. -1.
    9900018    1    1    2    0    0  0.66608890460E+02 -0.33507571571E+03 -0.79542796557E+03  0.87047877996E+03  0.91187600000E+02 0.  0.
<mgrwt>
<rscale>  0 0.13016884E+04</rscale>
<asrwt>0</asrwt>
<pdfrwt beam="1">  1        1 0.63089633E+00 0.21213950E+04</pdfrwt>
<pdfrwt beam="2">  1       -1 0.56102100E-01 0.21213950E+04</pdfrwt>
<totfact> 0.23041421E-01</totfact>
</mgrwt>
</event>
