<event>
11    1  0.6540460E-010  0.2790973E+04  0.7818608E-02  0.8306077E-01
         -2   -1    0    0    0  501 -0.00000000000E+00  0.00000000000E+00  0.18176929428E+04  0.18176929428E+04  0.00000000000E+00 0.  1.
          2   -1    0    0  501    0  0.00000000000E+00 -0.00000000000E+00 -0.10713481142E+04  0.10713481142E+04  0.00000000000E+00 0. -1.
    9900016    2    1    2    0    0  0.20115406555E+03  0.32733294176E+03  0.23005420689E+03  0.22454838964E+04  0.22003779626E+04 0.  0.
         24    2    3    3    0    0 -0.14220730111E+03 -0.28132066390E+02 -0.53376988511E+03  0.55703909889E+03  0.66090375959E+02 0.  0.
        -15    1    3    3    0    0 -0.38579335005E+02  0.11210819667E+03 -0.12072180359E+01  0.11856673322E+03  0.00000000000E+00 0.  1.
        -15    1    4    4    0    0 -0.10356613713E+03  0.53254248817E+01 -0.29043346755E+03  0.30839245124E+03  0.00000000000E+00 0.  1.
         15    1    3    3    0    0  0.13103232033E+03  0.16571030509E+03  0.12845978341E+03  0.24724742696E+03  0.00000000000E+00 0. -1.
         15    1    3    3    0    0 -0.42137962385E+03  0.10052829164E+03  0.43638835344E+03  0.61489960142E+03  0.00000000000E+00 0. -1.
        -16    1    1    2    0    0 -0.20115406555E+03 -0.32733294176E+03  0.51629062175E+03  0.64355716060E+03  0.00000000000E+00 0.  1.
         16    1    4    4    0    0 -0.38641163981E+02 -0.33457491272E+02 -0.24333641756E+03  0.24864664765E+03  0.00000000000E+00 0. -1.
    9900018    1    3    3    0    0  0.67228800519E+03 -0.22881785249E+02  0.20018317318E+03  0.70773103594E+03  0.91187600000E+02 0.  0.
<mgrwt>
<rscale>  0 0.27909725E+04</rscale>
<asrwt>0</asrwt>
<pdfrwt beam="1">  1        2 0.16482279E+00 0.27909725E+04</pdfrwt>
<pdfrwt beam="2">  1       -2 0.27964507E+00 0.27909725E+04</pdfrwt>
<totfact> 0.83649389E-01</totfact>
</mgrwt>
</event>
<event>
11    1  0.5948068E-010  0.2516119E+04  0.7818608E-02  0.8397266E-01
          2   -1    0    0  501    0  0.00000000000E+00  0.00000000000E+00  0.16452776369E+04  0.16452776369E+04  0.00000000000E+00 0. -1.
         -2   -1    0    0    0  501 -0.00000000000E+00 -0.00000000000E+00 -0.96197329232E+03  0.96197329232E+03  0.00000000000E+00 0.  1.
    9900016    2    1    2    0    0 -0.95774065050E+02 -0.27075986875E+03  0.58597870798E+03  0.23040086868E+04  0.22096609252E+04 0.  0.
        -24    2    3    3    0    0 -0.26662985437E+02 -0.45153503670E+03  0.14442679270E+03  0.48584174371E+03  0.10289945253E+03 0.  0.
        -15    1    3    3    0    0 -0.28355954831E+02 -0.28771925443E+03 -0.88736623364E+02  0.30242456558E+03  0.00000000000E+00 0.  1.
        -15    1    3    3    0    0 -0.29068555966E+03  0.52307764930E+03  0.82211732186E+03  0.10168506344E+04  0.00000000000E+00 0.  1.
         15    1    3    3    0    0  0.26852123201E+03  0.16023595437E+02 -0.12857285150E+03  0.29814658441E+03  0.00000000000E+00 0. -1.
         15    1    4    4    0    0 -0.40570936741E+02 -0.29019095061E+03  0.13770906242E+03  0.32376005714E+03  0.00000000000E+00 0. -1.
        -16    1    4    4    0    0  0.13907951304E+02 -0.16134408608E+03  0.67177302804E+01  0.16208168658E+03  0.00000000000E+00 0.  1.
         16    1    1    2    0    0  0.95774065050E+02  0.27075986875E+03  0.97325636640E+02  0.30324224246E+03  0.00000000000E+00 0. -1.
    9900018    1    3    3    0    0 -0.18590797136E+02 -0.70606822367E+02 -0.16325593171E+03  0.20074515868E+03  0.91187600000E+02 0.  0.
<mgrwt>
<rscale>  0 0.25161186E+04</rscale>
<asrwt>0</asrwt>
<pdfrwt beam="1">  1        2 0.25311964E+00 0.25161186E+04</pdfrwt>
<pdfrwt beam="2">  1       -2 0.14799589E+00 0.25161186E+04</pdfrwt>
<totfact> 0.29098956E+00</totfact>
</mgrwt>
</event>
<event>
11    1  0.5948068E-010  0.2667902E+04  0.7818608E-02  0.8345495E-01
         -2   -1    0    0    0  501 -0.00000000000E+00  0.00000000000E+00  0.58034217926E+03  0.58034217926E+03  0.00000000000E+00 0.  1.
          2   -1    0    0  501    0  0.00000000000E+00 -0.00000000000E+00 -0.30661660214E+04  0.30661660214E+04  0.00000000000E+00 0. -1.
    9900016    2    1    2    0    0  0.37052983602E+03  0.15829575143E+03 -0.19159896255E+04  0.29486106876E+04  0.22047536909E+04 0.  0.
         24    2    3    3    0    0 -0.28879368147E+03  0.21616489615E+03  0.10432018233E+03  0.38029467806E+03  0.60102320565E+02 0.  0.
        -15    1    4    4    0    0 -0.22614888427E+03  0.15634304091E+03  0.54206861747E+02  0.28022285446E+03  0.00000000000E+00 0.  1.
        -15    1    3    3    0    0  0.77830975131E+02  0.79885061807E+02 -0.52111841467E+01  0.11165321415E+03  0.00000000000E+00 0.  1.
         15    1    3    3    0    0  0.60158345944E+02 -0.16079051903E+03 -0.97338154503E+02  0.19735078900E+03  0.00000000000E+00 0. -1.
         15    1    3    3    0    0 -0.12084527859E+03  0.32436184620E+03 -0.20275231144E+03  0.40115170250E+03  0.00000000000E+00 0. -1.
        -16    1    1    2    0    0 -0.37052983602E+03 -0.15829575143E+03 -0.56983421669E+03  0.69789751312E+03  0.00000000000E+00 0.  1.
         16    1    4    4    0    0 -0.62644797198E+02  0.59821855235E+02  0.50113320586E+02  0.10007182361E+03  0.00000000000E+00 0. -1.
    9900018    1    3    3    0    0  0.64217947500E+03 -0.30132553369E+03 -0.17150081577E+04  0.18581603039E+04  0.91187600000E+02 0.  0.
<mgrwt>
<rscale>  0 0.26679022E+04</rscale>
<asrwt>0</asrwt>
<pdfrwt beam="1">  1        2 0.47171785E+00 0.26679022E+04</pdfrwt>
<pdfrwt beam="2">  1       -2 0.89283412E-01 0.26679022E+04</pdfrwt>
<totfact> 0.14972006E+00</totfact>
</mgrwt>
</event>
<event>
12    1  0.5948068E-010  0.3658613E+04  0.7818608E-02  0.8077196E-01
         -1   -1    0    0    0  501 -0.00000000000E+00  0.00000000000E+00  0.12446433652E+04  0.12446433652E+04  0.00000000000E+00 0. -1.
          1   -1    0    0  501    0  0.00000000000E+00 -0.00000000000E+00 -0.26886119293E+04  0.26886119293E+04  0.00000000000E+00 0.  1.
    9900016    2    1    2    0    0 -0.10110261145E+03  0.10743363140E+04 -0.50921694378E+03  0.25056065824E+04  0.22032571789E+04 0.  0.
        -24    2    3    3    0    0  0.26284045145E+03  0.28343135315E+03  0.52746487113E+03  0.65753666015E+03  0.68679212958E+02 0.  0.
         23    2    3    3    0    0 -0.17978540275E+03 -0.18252765282E+02 -0.67535430452E+03  0.70341841913E+03  0.77705091524E+02 0.  0.
        -15    1    3    3    0    0  0.11916477220E+03  0.75548812348E+03 -0.25944425482E+03  0.80763473738E+03  0.00000000000E+00 0.  1.
        -15    1    5    5    0    0 -0.14400525938E+03  0.16207117900E+02 -0.45437378014E+03  0.47692317775E+03  0.00000000000E+00 0. -1.
         15    1    4    4    0    0  0.74070295718E+02  0.45550862001E+02  0.91479451237E+02  0.12621323122E+03  0.00000000000E+00 0. -1.
         15    1    5    5    0    0 -0.35780143366E+02 -0.34459883183E+02 -0.22098052439E+03  0.22649524138E+03  0.00000000000E+00 0.  1.
        -16    1    4    4    0    0  0.18877015573E+03  0.23788049114E+03  0.43598541990E+03  0.53132342893E+03  0.00000000000E+00 0.  1.
         16    1    1    2    0    0  0.10110261145E+03 -0.10743363140E+04 -0.93475162030E+03  0.14276487121E+04  0.00000000000E+00 0. -1.
    9900018    1    3    3    0    0 -0.30332243235E+03  0.53669602627E+02 -0.10188325558E+03  0.33701676572E+03  0.91187600000E+02 0.  0.
<mgrwt>
<rscale>  0 0.36586134E+04</rscale>
<asrwt>0</asrwt>
<pdfrwt beam="1">  1        1 0.41363260E+00 0.36586134E+04</pdfrwt>
<pdfrwt beam="2">  1       -1 0.19148360E+00 0.36586134E+04</pdfrwt>
<totfact> 0.13881584E-01</totfact>
</mgrwt>
</event>
<event>
11    1  0.5948068E-010  0.2862410E+04  0.7818608E-02  0.8284150E-01
         -2   -1    0    0    0  501 -0.00000000000E+00  0.00000000000E+00  0.66354508353E+03  0.66354508353E+03  0.00000000000E+00 0.  1.
          2   -1    0    0  501    0  0.00000000000E+00 -0.00000000000E+00 -0.30869760380E+04  0.30869760380E+04  0.00000000000E+00 0. -1.
    9900016    2    1    2    0    0  0.54057288057E+03 -0.34130808407E+02 -0.22110017151E+04  0.31687048850E+04  0.22042636215E+04 0.  0.
         24    2    3    3    0    0  0.72111272052E+03 -0.18423354564E+03 -0.52853216755E+03  0.91530851842E+03  0.67066211534E+02 0.  0.
        -15    1    4    4    0    0  0.25841691028E+03 -0.98264466448E+02 -0.18522873134E+03  0.33278354496E+03  0.00000000000E+00 0.  1.
        -15    1    3    3    0    0 -0.68609251280E+02 -0.18750793640E+03 -0.77964539988E+03  0.80480643954E+03  0.00000000000E+00 0.  1.
         15    1    3    3    0    0 -0.43184344672E+03 -0.53135434666E+02 -0.43904553874E+03  0.61812063708E+03  0.00000000000E+00 0. -1.
         15    1    3    3    0    0  0.25754534868E+03  0.38792414661E+01 -0.68671311215E+02  0.26657157411E+03  0.00000000000E+00 0. -1.
        -16    1    1    2    0    0 -0.54057288057E+03  0.34130808407E+02 -0.21242923940E+03  0.58181623649E+03  0.00000000000E+00 0.  1.
         16    1    4    4    0    0  0.46269581024E+03 -0.85969079193E+02 -0.34330343622E+03  0.58252497346E+03  0.00000000000E+00 0. -1.
    9900018    1    3    3    0    0  0.62367509380E+02  0.38686686684E+03 -0.39510729767E+03  0.56389771585E+03  0.91187600000E+02 0.  0.
<mgrwt>
<rscale>  0 0.28624100E+04</rscale>
<asrwt>0</asrwt>
<pdfrwt beam="1">  1        2 0.47491939E+00 0.28624100E+04</pdfrwt>
<pdfrwt beam="2">  1       -2 0.10208386E+00 0.28624100E+04</pdfrwt>
<totfact> 0.10438087E+00</totfact>
</mgrwt>
</event>
<event>
12    1  0.5948068E-010  0.2576944E+04  0.7818608E-02  0.8376075E-01
         -2   -1    0    0    0  501 -0.00000000000E+00  0.00000000000E+00  0.48335520623E+03  0.48335520623E+03  0.00000000000E+00 0.  1.
          2   -1    0    0  501    0  0.00000000000E+00 -0.00000000000E+00 -0.34346597906E+04  0.34346597906E+04  0.00000000000E+00 0. -1.
    9900016    2    1    2    0    0  0.11084383449E+03 -0.17778195870E+03 -0.29751130182E+04  0.37071604925E+04  0.22017830650E+04 0.  0.
         24    2    3    3    0    0  0.58496001598E+03 -0.13340403615E+03 -0.67528710047E+03  0.90585883963E+03  0.67769551652E+02 0.  0.
         23    2    3    3    0    0  0.34140226687E+03 -0.25075228584E+03 -0.86837136895E+03  0.97199932195E+03  0.10621502146E+03 0.  0.
        -15    1    4    4    0    0  0.64329856162E+02 -0.18279369857E+02 -0.46623475059E+02  0.81524316512E+02  0.00000000000E+00 0.  1.
        -15    1    5    5    0    0  0.14287686444E+03 -0.10888612312E+03 -0.25540776488E+03  0.31225488397E+03  0.00000000000E+00 0.  1.
         15    1    5    5    0    0  0.19852540243E+03 -0.14186616271E+03 -0.61296360408E+03  0.65974443799E+03  0.00000000000E+00 0. -1.
         15    1    3    3    0    0 -0.61750442628E+03  0.47288666741E+03 -0.83893128778E+03  0.11440014083E+04  0.00000000000E+00 0. -1.
        -16    1    1    2    0    0 -0.11084383449E+03  0.17778195870E+03  0.23808433851E+02  0.21085450436E+03  0.00000000000E+00 0.  1.
         16    1    4    4    0    0  0.52063015982E+03 -0.11512466630E+03 -0.62866362541E+03  0.82433452312E+03  0.00000000000E+00 0. -1.
    9900018    1    3    3    0    0 -0.19801402207E+03 -0.26651230412E+03 -0.59252326104E+03  0.68530092255E+03  0.91187600000E+02 0.  0.
<mgrwt>
<rscale>  0 0.25769445E+04</rscale>
<asrwt>0</asrwt>
<pdfrwt beam="1">  1        2 0.52840920E+00 0.25769445E+04</pdfrwt>
<pdfrwt beam="2">  1       -2 0.74362339E-01 0.25769445E+04</pdfrwt>
<totfact> 0.13026016E+00</totfact>
</mgrwt>
</event>
<event>
11    1  0.5948068E-010  0.2951158E+04  0.7818608E-02  0.8257817E-01
         -2   -1    0    0    0  501 -0.00000000000E+00  0.00000000000E+00  0.59038414356E+03  0.59038414356E+03  0.00000000000E+00 0.  1.
          2   -1    0    0  501    0  0.00000000000E+00 -0.00000000000E+00 -0.36879947382E+04  0.36879947382E+04  0.00000000000E+00 0. -1.
    9900016    2    1    2    0    0 -0.60277132173E+03  0.28804691612E+03 -0.24448004876E+04  0.33443203568E+04  0.21820002137E+04 0.  0.
         24    2    3    3    0    0 -0.81007311138E+03 -0.12519804838E+03 -0.17083601302E+04  0.18971783740E+04  0.94331601374E+02 0.  0.
        -15    1    3    3    0    0 -0.44304339380E+02  0.13398600930E+03  0.11537624072E+03  0.18228220456E+03  0.00000000000E+00 0.  1.
        -15    1    4    4    0    0 -0.56693486711E+03 -0.84838248778E+02 -0.10908897824E+04  0.12323364757E+04  0.00000000000E+00 0.  1.
         15    1    3    3    0    0  0.64513763021E+02 -0.98989422153E+02 -0.27794238534E+03  0.30201473621E+03  0.00000000000E+00 0. -1.
         15    1    3    3    0    0  0.91940301704E+02 -0.15675728992E+03 -0.22104743603E+02  0.18306962258E+03  0.00000000000E+00 0. -1.
        -16    1    1    2    0    0  0.60277132173E+03 -0.28804691612E+03 -0.65281010706E+03  0.93405852497E+03  0.00000000000E+00 0.  1.
         16    1    4    4    0    0 -0.24313824427E+03 -0.40359799599E+02 -0.61747034782E+03  0.66484189826E+03  0.00000000000E+00 0. -1.
    9900018    1    3    3    0    0  0.95152064299E+02  0.53500566726E+03 -0.55176946912E+03  0.77977541946E+03  0.91187600000E+02 0.  0.
<mgrwt>
<rscale>  0 0.29511582E+04</rscale>
<asrwt>0</asrwt>
<pdfrwt beam="1">  1        2 0.56738382E+00 0.29511582E+04</pdfrwt>
<pdfrwt beam="2">  1       -2 0.90828328E-01 0.29511582E+04</pdfrwt>
<totfact> 0.52944253E-01</totfact>
</mgrwt>
</event>
<event>
10    1  0.5948068E-010  0.2636212E+04  0.7818608E-02  0.8356004E-01
          1   -1    0    0  501    0  0.00000000000E+00  0.00000000000E+00  0.13819724705E+04  0.13819724705E+04  0.00000000000E+00 0. -1.
         -1   -1    0    0    0  501 -0.00000000000E+00 -0.00000000000E+00 -0.12571906658E+04  0.12571906658E+04  0.00000000000E+00 0.  1.
    9900016    2    1    2    0    0  0.39099814825E+03  0.71763767278E+02  0.92319926802E+02  0.22403105774E+04  0.22028252141E+04 0.  0.
        -15    1    3    3    0    0  0.75447135659E+02 -0.47665704524E+02 -0.26226571128E+02  0.93016787195E+02  0.00000000000E+00 0.  1.
        -15    1    3    3    0    0 -0.13567750978E+03 -0.12736130368E+03 -0.55340359294E+02  0.19414387372E+03  0.00000000000E+00 0.  1.
         15    1    3    3    0    0  0.78442038359E+03  0.17055653705E+03 -0.56659931112E+01  0.80276831901E+03  0.00000000000E+00 0. -1.
         15    1    3    3    0    0  0.74148815018E+02  0.11372725948E+03 -0.43210149792E+02  0.14247474640E+03  0.00000000000E+00 0. -1.
        -16    1    1    2    0    0 -0.39099814825E+03 -0.71763767278E+02  0.32461877944E+02  0.39885255891E+03  0.00000000000E+00 0.  1.
         16    1    3    3    0    0 -0.65183561139E+03 -0.14014461794E+03  0.29568982077E+02  0.66738632209E+03  0.00000000000E+00 0. -1.
    9900018    1    3    3    0    0  0.24449493515E+03  0.10265159690E+03  0.19319401805E+03  0.34052052899E+03  0.91187600000E+02 0.  0.
<mgrwt>
<rscale>  0 0.26362116E+04</rscale>
<asrwt>0</asrwt>
<pdfrwt beam="1">  1        1 0.21261115E+00 0.26362116E+04</pdfrwt>
<pdfrwt beam="2">  1       -1 0.19341395E+00 0.26362116E+04</pdfrwt>
<totfact> 0.11615364E+00</totfact>
</mgrwt>
</event>
<event>
11    1  0.5948068E-010  0.3119269E+04  0.7818608E-02  0.8210470E-01
          1   -1    0    0  501    0  0.00000000000E+00  0.00000000000E+00  0.22345361639E+04  0.22345361639E+04  0.00000000000E+00 0. -1.
         -1   -1    0    0    0  501 -0.00000000000E+00 -0.00000000000E+00 -0.10885748570E+04  0.10885748570E+04  0.00000000000E+00 0.  1.
    9900016    2    1    2    0    0 -0.37553043016E+03 -0.60641940166E+03  0.12164511927E+04  0.26063569356E+04  0.21919341634E+04 0.  0.
         24    2    3    3    0    0  0.62366310218E+03 -0.56084010231E+03  0.72188609790E+03  0.11083882114E+04  0.62510826454E+02 0.  0.
        -15    1    4    4    0    0  0.46724777530E+03 -0.38403554320E+03  0.52984753733E+03  0.80407847551E+03  0.00000000000E+00 0.  1.
        -15    1    3    3    0    0 -0.15641958652E+03 -0.54982631618E+02  0.17388169480E+03  0.24026031843E+03  0.00000000000E+00 0.  1.
         15    1    3    3    0    0 -0.90872266806E+02 -0.19516680460E+03  0.25844393023E+03  0.33636455753E+03  0.00000000000E+00 0. -1.
         15    1    3    3    0    0 -0.27470476227E+03  0.29166235739E+03 -0.78103749094E+02  0.40820317583E+03  0.00000000000E+00 0. -1.
        -16    1    1    2    0    0  0.37553043016E+03  0.60641940166E+03 -0.70489885871E+02  0.71675408523E+03  0.00000000000E+00 0.  1.
         16    1    4    4    0    0  0.15641532688E+03 -0.17680455910E+03  0.19203856057E+03  0.30430973588E+03  0.00000000000E+00 0. -1.
    9900018    1    3    3    0    0 -0.47719691674E+03 -0.87092220520E+02  0.14034321889E+03  0.51314067243E+03  0.91187600000E+02 0.  0.
<mgrwt>
<rscale>  0 0.31192691E+04</rscale>
<asrwt>0</asrwt>
<pdfrwt beam="1">  1        1 0.34377479E+00 0.31192691E+04</pdfrwt>
<pdfrwt beam="2">  1       -1 0.16747305E+00 0.31192691E+04</pdfrwt>
<totfact> 0.44645457E-01</totfact>
</mgrwt>
</event>
<event>
11    1  0.5948068E-010  0.3605585E+04  0.7818608E-02  0.8089214E-01
         -2   -1    0    0    0  501 -0.00000000000E+00  0.00000000000E+00  0.13202569711E+04  0.13202569711E+04  0.00000000000E+00 0.  1.
          2   -1    0    0  501    0  0.00000000000E+00 -0.00000000000E+00 -0.24616880795E+04  0.24616880795E+04  0.00000000000E+00 0. -1.
    9900016    2    1    2    0    0 -0.66521237690E+03 -0.87171724488E+03 -0.48859802429E+03  0.25057830322E+04  0.21995049702E+04 0.  0.
         23    2    3    3    0    0 -0.89995172154E+02 -0.21497999553E+03 -0.15866131378E+03  0.30072385562E+03  0.10462263311E+03 0.  0.
        -15    1    3    3    0    0  0.39444513299E+03  0.65600082123E+02 -0.90849470036E+02  0.41005360615E+03  0.00000000000E+00 0. -1.
        -15    1    4    4    0    0 -0.40002607572E+02 -0.81862727972E+01 -0.39807107099E+02  0.57024814339E+02  0.00000000000E+00 0.  1.
         15    1    4    4    0    0 -0.49992564582E+02 -0.20679372273E+03 -0.11885420668E+03  0.24369904128E+03  0.00000000000E+00 0. -1.
         15    1    3    3    0    0  0.10655643923E+03 -0.15323023711E+03  0.18993195314E+03  0.26628542418E+03  0.00000000000E+00 0.  1.
        -16    1    1    2    0    0  0.66521237690E+03  0.87171724488E+03 -0.65283308407E+03  0.12761620183E+04  0.00000000000E+00 0.  1.
         16    1    3    3    0    0 -0.67961026466E+03 -0.83505946733E+02  0.11416271201E+03  0.69417323471E+03  0.00000000000E+00 0. -1.
    9900018    1    3    3    0    0 -0.39660851230E+03 -0.48560114762E+03 -0.54318190563E+03  0.83454691157E+03  0.91187600000E+02 0.  0.
<mgrwt>
<rscale>  0 0.36055850E+04</rscale>
<asrwt>0</asrwt>
<pdfrwt beam="1">  1        2 0.37872124E+00 0.36055850E+04</pdfrwt>
<pdfrwt beam="2">  1       -2 0.20311646E+00 0.36055850E+04</pdfrwt>
<totfact> 0.37869028E-01</totfact>
</mgrwt>
</event>
<event>
10    1  0.5948068E-010  0.2679471E+04  0.7818608E-02  0.8341697E-01
         -1   -1    0    0    0  501 -0.00000000000E+00  0.00000000000E+00  0.10276937755E+04  0.10276937755E+04  0.00000000000E+00 0.  1.
          1   -1    0    0  501    0  0.00000000000E+00 -0.00000000000E+00 -0.17465234625E+04  0.17465234625E+04  0.00000000000E+00 0. -1.
    9900016    2    1    2    0    0  0.30949996481E+03 -0.18853890574E+03 -0.86934096687E+03  0.23818006322E+04  0.21876661965E+04 0.  0.
        -15    1    3    3    0    0  0.14982383892E+03 -0.39156676629E+02  0.11055362966E+03  0.19026963253E+03  0.00000000000E+00 0.  1.
        -15    1    3    3    0    0 -0.11138503124E+03 -0.22592104869E+03 -0.50903688778E+03  0.56794849991E+03  0.00000000000E+00 0.  1.
         15    1    3    3    0    0  0.21684003845E+03  0.58538733473E+03 -0.60315055042E+03  0.86803716534E+03  0.00000000000E+00 0. -1.
         15    1    3    3    0    0 -0.36822196478E+02 -0.18097903931E+03 -0.16730498938E+03  0.24919921006E+03  0.00000000000E+00 0. -1.
        -16    1    1    2    0    0 -0.30949996481E+03  0.18853890574E+03  0.15051127991E+03  0.39241660589E+03  0.00000000000E+00 0.  1.
         16    1    3    3    0    0  0.65801965586E+01  0.10354856533E+02  0.87216116001E+02  0.88074814396E+02  0.00000000000E+00 0. -1.
    9900018    1    3    3    0    0  0.84463118591E+02 -0.33822433238E+03  0.21238171506E+03  0.41827130992E+03  0.91187600000E+02 0.  0.
<mgrwt>
<rscale>  0 0.26794711E+04</rscale>
<asrwt>0</asrwt>
<pdfrwt beam="1">  1        1 0.26869592E+00 0.26794711E+04</pdfrwt>
<pdfrwt beam="2">  1       -1 0.15810674E+00 0.26794711E+04</pdfrwt>
<totfact> 0.11706275E+00</totfact>
</mgrwt>
</event>
<event>
11    1  0.5948068E-010  0.2772749E+04  0.7818608E-02  0.8311779E-01
          2   -1    0    0  501    0  0.00000000000E+00  0.00000000000E+00  0.17782971731E+04  0.17782971731E+04  0.00000000000E+00 0. -1.
         -2   -1    0    0    0  501 -0.00000000000E+00 -0.00000000000E+00 -0.10808283187E+04  0.10808283187E+04  0.00000000000E+00 0.  1.
    9900016    2    1    2    0    0  0.44150588879E+02 -0.36527765528E+03  0.18979634548E+03  0.22321419065E+04  0.21934123639E+04 0.  0.
         23    2    3    3    0    0  0.19999463170E+03 -0.17407340390E+02  0.26495905192E+03  0.34847939566E+03  0.10456443849E+03 0.  0.
        -15    1    3    3    0    0 -0.21978944164E+03 -0.13800196626E+03 -0.85363216901E+02  0.27320106176E+03  0.00000000000E+00 0.  1.
        -15    1    4    4    0    0  0.66422732688E+02  0.15627481241E+02  0.16456490866E+03  0.17815107844E+03  0.00000000000E+00 0.  1.
         15    1    4    4    0    0  0.13357189901E+03 -0.33034821631E+02  0.10039414326E+03  0.17032831722E+03  0.00000000000E+00 0. -1.
         15    1    3    3    0    0 -0.39077638360E+02 -0.76456431185E+03  0.14525446642E+03  0.77922044942E+03  0.00000000000E+00 0. -1.
        -16    1    3    3    0    0 -0.16884633687E+03  0.27093217450E+03  0.13411365863E+03  0.34626550808E+03  0.00000000000E+00 0.  1.
         16    1    1    2    0    0 -0.44150588879E+02  0.36527765528E+03  0.50767250884E+03  0.62698358525E+03  0.00000000000E+00 0. -1.
    9900018    1    3    3    0    0  0.27186937405E+03  0.28376378872E+03 -0.26916761459E+03  0.48497549163E+03  0.91187600000E+02 0.  0.
<mgrwt>
<rscale>  0 0.27727488E+04</rscale>
<asrwt>0</asrwt>
<pdfrwt beam="1">  1        2 0.27358418E+00 0.27727488E+04</pdfrwt>
<pdfrwt beam="2">  1       -2 0.16628128E+00 0.27727488E+04</pdfrwt>
<totfact> 0.17536525E+00</totfact>
</mgrwt>
</event>
<event>
11    1  0.5948068E-010  0.3401600E+04  0.7818608E-02  0.8137514E-01
          2   -1    0    0  501    0  0.00000000000E+00  0.00000000000E+00  0.19334905098E+04  0.19334905098E+04  0.00000000000E+00 0. -1.
         -2   -1    0    0    0  501 -0.00000000000E+00 -0.00000000000E+00 -0.14961135726E+04  0.14961135726E+04  0.00000000000E+00 0.  1.
    9900016    2    1    2    0    0  0.31311672308E+03  0.22710121352E+03  0.12271759787E+04  0.25501726925E+04  0.22017726575E+04 0.  0.
         24    2    3    3    0    0 -0.90900426345E+02  0.20479152328E+03 -0.52286133915E+02  0.23688722206E+03  0.56384932901E+02 0.  0.
        -15    1    4    4    0    0 -0.91350124302E+02  0.14917155057E+03 -0.32922456274E+02  0.17799124933E+03  0.00000000000E+00 0.  1.
        -15    1    3    3    0    0  0.21027199692E+03 -0.18986809530E+03  0.68497715956E+02  0.29147237158E+03  0.00000000000E+00 0.  1.
         15    1    3    3    0    0  0.35121795481E+03  0.13089921895E+02  0.33592825425E+03  0.48618225990E+03  0.00000000000E+00 0. -1.
         15    1    3    3    0    0 -0.34954697670E+03 -0.33621772911E+03 -0.36196821455E+01  0.48501397134E+03  0.00000000000E+00 0. -1.
        -16    1    1    2    0    0 -0.31311672308E+03 -0.22710121352E+03 -0.78979904156E+03  0.87943138988E+03  0.00000000000E+00 0.  1.
         16    1    4    4    0    0  0.44969795685E+00  0.55619972707E+02 -0.19363677641E+02  0.58895972731E+02  0.00000000000E+00 0. -1.
    9900018    1    3    3    0    0  0.19207417439E+03  0.53530559276E+03  0.87865582456E+03  0.10506168676E+04  0.91187600000E+02 0.  0.
<mgrwt>
<rscale>  0 0.34016004E+04</rscale>
<asrwt>0</asrwt>
<pdfrwt beam="1">  1        2 0.29746008E+00 0.34016004E+04</pdfrwt>
<pdfrwt beam="2">  1       -2 0.23017132E+00 0.34016004E+04</pdfrwt>
<totfact> 0.51399548E-01</totfact>
</mgrwt>
</event>
<event>
12    1  0.5948068E-010  0.3179718E+04  0.7818608E-02  0.8194194E-01
         -2   -1    0    0    0  501 -0.00000000000E+00  0.00000000000E+00  0.10168488871E+04  0.10168488871E+04  0.00000000000E+00 0.  1.
          2   -1    0    0  501    0  0.00000000000E+00 -0.00000000000E+00 -0.24857692553E+04  0.24857692553E+04  0.00000000000E+00 0. -1.
    9900016    2    1    2    0    0  0.68471792611E+03  0.10471206599E+03 -0.67733567612E+03  0.24507580853E+04  0.22511393381E+04 0.  0.
        -24    2    3    3    0    0  0.15473321010E+03  0.27895766157E+03 -0.14642381569E+03  0.36362174972E+03  0.94979470467E+02 0.  0.
         23    2    3    3    0    0  0.16850636276E+03 -0.34473956181E+03 -0.12000978368E+04  0.12643460568E+04  0.10533932557E+03 0.  0.
        -15    1    3    3    0    0  0.30297070307E+03  0.16615518692E+03  0.60517453460E+03  0.69687517562E+03  0.00000000000E+00 0.  1.
        -15    1    5    5    0    0  0.10814883223E+03 -0.28749277685E+03 -0.10327813540E+04  0.10774904138E+04  0.00000000000E+00 0. -1.
         15    1    4    4    0    0  0.11508835980E+03  0.23970729128E+03 -0.15406561492E+03  0.30731275559E+03  0.00000000000E+00 0. -1.
         15    1    5    5    0    0  0.60357530535E+02 -0.57246784962E+02 -0.16731648283E+03  0.18685564296E+03  0.00000000000E+00 0.  1.
        -16    1    4    4    0    0  0.39644850303E+02  0.39250370290E+02  0.76417992254E+01  0.56308994121E+02  0.00000000000E+00 0.  1.
         16    1    1    2    0    0 -0.68471792611E+03 -0.10471206599E+03 -0.79158469209E+03  0.10518600572E+04  0.00000000000E+00 0. -1.
    9900018    1    3    3    0    0  0.58507650179E+02  0.43387793106E+01  0.64011441808E+02  0.12591510319E+03  0.91187600000E+02 0.  0.
<mgrwt>
<rscale>  0 0.31797180E+04</rscale>
<asrwt>0</asrwt>
<pdfrwt beam="1">  1        2 0.38242604E+00 0.31797180E+04</pdfrwt>
<pdfrwt beam="2">  1       -2 0.15643829E+00 0.31797180E+04</pdfrwt>
<totfact> 0.80115000E-01</totfact>
</mgrwt>
</event>
<event>
10    1  0.5948068E-010  0.3009933E+04  0.7818608E-02  0.8240900E-01
          2   -1    0    0  501    0  0.00000000000E+00  0.00000000000E+00  0.23245004853E+04  0.23245004853E+04  0.00000000000E+00 0. -1.
         -2   -1    0    0    0  501 -0.00000000000E+00 -0.00000000000E+00 -0.97437018953E+03  0.97437018953E+03  0.00000000000E+00 0.  1.
    9900016    2    1    2    0    0  0.52218612646E+03 -0.18356254657E+03  0.58158403692E+03  0.23517503492E+04  0.22104560964E+04 0.  0.
        -15    1    3    3    0    0  0.17639554982E+03 -0.34247795810E+03 -0.23946755185E+02  0.38597925963E+03  0.00000000000E+00 0.  1.
        -15    1    3    3    0    0  0.62784231093E+03 -0.27809215738E+03  0.23433711015E+03  0.72555847220E+03  0.00000000000E+00 0.  1.
         15    1    3    3    0    0  0.12037843059E+03 -0.75944617350E+02 -0.90651470117E+02  0.16874904590E+03  0.00000000000E+00 0. -1.
         15    1    3    3    0    0 -0.37877623856E+03  0.48200633741E+03  0.30342257310E+03  0.68400789913E+03  0.00000000000E+00 0. -1.
        -16    1    1    2    0    0 -0.52218612646E+03  0.18356254657E+03  0.76854625883E+03  0.94712032558E+03  0.00000000000E+00 0.  1.
         16    1    3    3    0    0  0.14094400879E+03 -0.47160954133E+02  0.50981746253E+02  0.15712577019E+03  0.00000000000E+00 0. -1.
    9900018    1    3    3    0    0 -0.16459793511E+03  0.78106802980E+02  0.10744083273E+03  0.23032990220E+03  0.91187600000E+02 0.  0.
<mgrwt>
<rscale>  0 0.30099329E+04</rscale>
<asrwt>0</asrwt>
<pdfrwt beam="1">  1        2 0.35761546E+00 0.30099329E+04</pdfrwt>
<pdfrwt beam="2">  1       -2 0.14990311E+00 0.30099329E+04</pdfrwt>
<totfact> 0.11269847E+00</totfact>
</mgrwt>
</event>
<event>
10    1  0.5948068E-010  0.2772345E+04  0.7818608E-02  0.8311906E-01
          2   -1    0    0  501    0  0.00000000000E+00  0.00000000000E+00  0.13233561149E+04  0.13233561149E+04  0.00000000000E+00 0. -1.
         -2   -1    0    0    0  501 -0.00000000000E+00 -0.00000000000E+00 -0.14519710187E+04  0.14519710187E+04  0.00000000000E+00 0.  1.
    9900016    2    1    2    0    0  0.16599615963E+03  0.36445146869E+03 -0.43077148438E+03  0.22736517434E+04  0.21962578583E+04 0.  0.
        -15    1    3    3    0    0 -0.17207563490E+02  0.61327299705E+02 -0.69119069843E+02  0.93992466433E+02  0.00000000000E+00 0.  1.
        -15    1    3    3    0    0 -0.16387224075E+03  0.13356359262E+03  0.39619747754E+03  0.44907213871E+03  0.00000000000E+00 0.  1.
         15    1    3    3    0    0 -0.27448137994E+03  0.39236174432E+03  0.86515293440E+02  0.48659291234E+03  0.00000000000E+00 0. -1.
         15    1    3    3    0    0  0.11929928956E+02 -0.78592693258E+02 -0.20442380459E+03  0.21933587605E+03  0.00000000000E+00 0. -1.
        -16    1    3    3    0    0  0.83344956028E+02 -0.13560468152E+03 -0.41602405199E+03  0.44543352273E+03  0.00000000000E+00 0.  1.
         16    1    1    2    0    0 -0.16599615963E+03 -0.36445146869E+03  0.30215658059E+03  0.50167539030E+03  0.00000000000E+00 0. -1.
    9900018    1    3    3    0    0  0.52628245882E+03 -0.86037931839E+01 -0.22391732894E+03  0.57922482709E+03  0.91187600000E+02 0.  0.
<mgrwt>
<rscale>  0 0.27723454E+04</rscale>
<asrwt>0</asrwt>
<pdfrwt beam="1">  1        2 0.20359325E+00 0.27723454E+04</pdfrwt>
<pdfrwt beam="2">  1       -2 0.22338016E+00 0.27723454E+04</pdfrwt>
<totfact> 0.13147265E+00</totfact>
</mgrwt>
</event>
<event>
11    1  0.5948068E-010  0.3389736E+04  0.7818608E-02  0.8140430E-01
          2   -1    0    0  501    0  0.00000000000E+00  0.00000000000E+00  0.19936726996E+04  0.19936726996E+04  0.00000000000E+00 0. -1.
         -2   -1    0    0    0  501 -0.00000000000E+00 -0.00000000000E+00 -0.14408468028E+04  0.14408468028E+04  0.00000000000E+00 0.  1.
    9900016    2    1    2    0    0  0.89632049239E+03  0.34393228129E+03  0.17535113265E+03  0.24029347814E+04  0.21958296165E+04 0.  0.
         23    2    3    3    0    0  0.39729715419E+03  0.24315782193E+03  0.11688724323E+03  0.49141392635E+03  0.10418380054E+03 0.  0.
        -15    1    4    4    0    0  0.18502845606E+03  0.71171758843E+02  0.87309915940E+02  0.21661941332E+03  0.00000000000E+00 0.  1.
        -15    1    3    3    0    0 -0.28156938428E+03 -0.40658069585E+03  0.28963646706E+03  0.57313040702E+03  0.00000000000E+00 0.  1.
         15    1    3    3    0    0  0.13411388892E+03 -0.17228096663E+03 -0.68830379808E+02  0.22892113893E+03  0.00000000000E+00 0. -1.
         15    1    4    4    0    0  0.21226869813E+03  0.17198606308E+03  0.29577327292E+02  0.27479451303E+03  0.00000000000E+00 0. -1.
        -16    1    3    3    0    0  0.11975964248E+03  0.21219988235E+03 -0.29964987788E+03  0.38621394504E+03  0.00000000000E+00 0.  1.
         16    1    1    2    0    0 -0.89632049239E+03 -0.34393228129E+03  0.37747476412E+03  0.10315847211E+04  0.00000000000E+00 0. -1.
    9900018    1    3    3    0    0  0.52671919108E+03  0.46743623949E+03  0.13730768004E+03  0.72325536406E+03  0.91187600000E+02 0.  0.
<mgrwt>
<rscale>  0 0.33897356E+04</rscale>
<asrwt>0</asrwt>
<pdfrwt beam="1">  1        2 0.30671888E+00 0.33897356E+04</pdfrwt>
<pdfrwt beam="2">  1       -2 0.22166874E+00 0.33897356E+04</pdfrwt>
<totfact> 0.53873591E-01</totfact>
</mgrwt>
</event>
<event>
11    1  0.5948068E-010  0.3197381E+04  0.7818608E-02  0.8189509E-01
         -2   -1    0    0    0  501 -0.00000000000E+00  0.00000000000E+00  0.68975771867E+03  0.68975771867E+03  0.00000000000E+00 0.  1.
          2   -1    0    0  501    0  0.00000000000E+00 -0.00000000000E+00 -0.37053756217E+04  0.37053756217E+04  0.00000000000E+00 0. -1.
    9900016    2    1    2    0    0  0.28186939807E+03  0.19544206284E+03 -0.32770841020E+04  0.39638416400E+04  0.22034319545E+04 0.  0.
         23    2    3    3    0    0  0.24405910395E+03  0.21183813859E+03 -0.91313344776E+02  0.34449758444E+03  0.76812860714E+02 0.  0.
        -15    1    4    4    0    0  0.11200731945E+03  0.97625080821E+02 -0.81886007114E+02  0.16965144909E+03  0.00000000000E+00 0.  1.
        -15    1    3    3    0    0 -0.38328411817E+02 -0.68999192369E+03 -0.13016985840E+04  0.14737629136E+04  0.00000000000E+00 0.  1.
         15    1    4    4    0    0  0.13205178449E+03  0.11421305777E+03 -0.94273376628E+01  0.17484613535E+03  0.00000000000E+00 0. -1.
         15    1    3    3    0    0  0.96851951663E+02  0.32019268529E+02 -0.10217869445E+03  0.14438150746E+03  0.00000000000E+00 0. -1.
        -16    1    1    2    0    0 -0.28186939807E+03 -0.19544206284E+03  0.26146619904E+03  0.43129170029E+03  0.00000000000E+00 0.  1.
         16    1    3    3    0    0  0.29853797437E+03  0.26323144151E+03 -0.64602455537E+03  0.75879077490E+03  0.00000000000E+00 0. -1.
    9900018    1    3    3    0    0 -0.31925122009E+03  0.37834513790E+03 -0.11358689234E+04  0.12424088596E+04  0.91187600000E+02 0.  0.
<mgrwt>
<rscale>  0 0.31973811E+04</rscale>
<asrwt>0</asrwt>
<pdfrwt beam="1">  1        2 0.57005777E+00 0.31973811E+04</pdfrwt>
<pdfrwt beam="2">  1       -2 0.10611657E+00 0.31973811E+04</pdfrwt>
<totfact> 0.34858157E-01</totfact>
</mgrwt>
</event>
<event>
10    1  0.5948068E-010  0.2470258E+04  0.7818608E-02  0.8413658E-01
          2   -1    0    0  501    0  0.00000000000E+00  0.00000000000E+00  0.10134135571E+04  0.10134135571E+04  0.00000000000E+00 0.  1.
         -2   -1    0    0    0  501 -0.00000000000E+00 -0.00000000000E+00 -0.15053520635E+04  0.15053520635E+04  0.00000000000E+00 0. -1.
    9900016    2    1    2    0    0  0.31490991838E+02 -0.22944020745E+03 -0.30972955409E+03  0.22240885199E+04  0.21902061219E+04 0.  0.
        -15    1    3    3    0    0  0.13359163289E+03 -0.66852829224E+02 -0.16052111004E+03  0.21927848030E+03  0.00000000000E+00 0.  1.
        -15    1    3    3    0    0  0.23622905373E+03  0.12981529253E+03  0.99619881184E+02  0.28736787699E+03  0.00000000000E+00 0.  1.
         15    1    3    3    0    0 -0.18995010849E+03  0.86556011074E+01 -0.13813129016E+03  0.23502386361E+03  0.00000000000E+00 0. -1.
         15    1    3    3    0    0  0.44093744753E+03 -0.42460969408E+02  0.17866927737E+03  0.47765204619E+03  0.00000000000E+00 0. -1.
        -16    1    3    3    0    0 -0.38908080594E+03 -0.33263356555E+03 -0.48200282714E+03  0.70310432217E+03  0.00000000000E+00 0.  1.
         16    1    1    2    0    0 -0.31490991838E+02  0.22944020745E+03 -0.18220895232E+03  0.29467710069E+03  0.00000000000E+00 0. -1.
    9900018    1    3    3    0    0 -0.20023622788E+03  0.74036263099E+02  0.19263651470E+03  0.30166193064E+03  0.91187600000E+02 0.  0.
<mgrwt>
<rscale>  0 0.24702584E+04</rscale>
<asrwt>0</asrwt>
<pdfrwt beam="1">  1        2 0.15590978E+00 0.24702584E+04</pdfrwt>
<pdfrwt beam="2">  1       -2 0.23159262E+00 0.24702584E+04</pdfrwt>
<totfact> 0.18445374E+00</totfact>
</mgrwt>
</event>
<event>
10    1  0.5948068E-010  0.2709381E+04  0.7818608E-02  0.8331968E-01
         -1   -1    0    0    0  501 -0.00000000000E+00  0.00000000000E+00  0.83936029981E+03  0.83936029981E+03  0.00000000000E+00 0.  1.
          1   -1    0    0  501    0  0.00000000000E+00 -0.00000000000E+00 -0.21864104135E+04  0.21864104135E+04  0.00000000000E+00 0. -1.
    9900016    2    1    2    0    0  0.23373388925E+03  0.11801308749E+03 -0.68383873685E+03  0.23127433995E+04  0.21937611525E+04 0.  0.
        -15    1    3    3    0    0 -0.37580595296E+03  0.30949391686E+03 -0.82877921180E+02  0.49384749536E+03  0.00000000000E+00 0.  1.
        -15    1    3    3    0    0  0.51429133911E+03 -0.28876977428E+02 -0.80897772608E+03  0.95904870710E+03  0.00000000000E+00 0.  1.
         15    1    3    3    0    0 -0.50004464417E+02 -0.65054196333E+02  0.11432464139E+03  0.14072177710E+03  0.00000000000E+00 0. -1.
         15    1    3    3    0    0  0.17990584493E+03  0.22596959901E+03  0.13661332725E+03  0.31951772079E+03  0.00000000000E+00 0. -1.
        -16    1    3    3    0    0 -0.10161377837E+03 -0.12218192845E+03  0.20196952296E+02  0.16019269796E+03  0.00000000000E+00 0.  1.
         16    1    1    2    0    0 -0.23373388925E+03 -0.11801308749E+03 -0.66321137685E+03  0.71302731377E+03  0.00000000000E+00 0. -1.
    9900018    1    3    3    0    0  0.66960900961E+02 -0.20133732617E+03 -0.63118010523E+02  0.23941500123E+03  0.91187600000E+02 0.  0.
<mgrwt>
<rscale>  0 0.27093808E+04</rscale>
<asrwt>0</asrwt>
<pdfrwt beam="1">  1        1 0.33637084E+00 0.27093808E+04</pdfrwt>
<pdfrwt beam="2">  1       -1 0.12913235E+00 0.27093808E+04</pdfrwt>
<totfact> 0.10012606E+00</totfact>
</mgrwt>
</event>
<event>
10    1  0.5948068E-010  0.3071284E+04  0.7818608E-02  0.8223663E-01
         -2   -1    0    0    0  501 -0.00000000000E+00  0.00000000000E+00  0.10856821822E+04  0.10856821822E+04  0.00000000000E+00 0.  1.
          2   -1    0    0  501    0  0.00000000000E+00 -0.00000000000E+00 -0.21720871224E+04  0.21720871224E+04  0.00000000000E+00 0. -1.
    9900016    2    1    2    0    0  0.31317494028E+03 -0.67980798525E+03 -0.78481465645E+03  0.24508156880E+04  0.21978048256E+04 0.  0.
        -15    1    3    3    0    0 -0.15145456034E+03 -0.16629133638E+03 -0.46712853271E+03  0.51845960159E+03  0.00000000000E+00 0.  1.
        -15    1    3    3    0    0 -0.20987817873E+03 -0.12831668426E+03  0.15993082894E+03  0.29341419770E+03  0.00000000000E+00 0.  1.
         15    1    3    3    0    0 -0.69299392175E+02 -0.17962664101E+03  0.21370079515E+02  0.19371323191E+03  0.00000000000E+00 0. -1.
         15    1    3    3    0    0 -0.17228917559E+03  0.32295709268E+02 -0.11486269633E+03  0.20957101868E+03  0.00000000000E+00 0. -1.
        -16    1    3    3    0    0  0.72663815677E+02 -0.26511308693E+03  0.54494588694E+02  0.28024032395E+03  0.00000000000E+00 0.  1.
         16    1    1    2    0    0 -0.31317494028E+03  0.67980798525E+03 -0.30159028380E+03  0.80695361658E+03  0.00000000000E+00 0. -1.
    9900018    1    3    3    0    0  0.84343243144E+03  0.27244054070E+02 -0.43861892456E+03  0.95541731419E+03  0.91187600000E+02 0.  0.
<mgrwt>
<rscale>  0 0.30712840E+04</rscale>
<asrwt>0</asrwt>
<pdfrwt beam="1">  1        2 0.33416725E+00 0.30712840E+04</pdfrwt>
<pdfrwt beam="2">  1       -2 0.16702803E+00 0.30712840E+04</pdfrwt>
<totfact> 0.10198615E+00</totfact>
</mgrwt>
</event>
