<event>
12    1  0.7931856E-013  0.2323174E+04  0.7818608E-02  0.8468839E-01
         -2   -1    0    0    0  501 -0.00000000000E+00  0.00000000000E+00  0.18281730939E+04  0.18281730939E+04  0.00000000000E+00 0.  1.
          2   -1    0    0  501    0  0.00000000000E+00 -0.00000000000E+00 -0.73805085885E+03  0.73805085885E+03  0.00000000000E+00 0. -1.
    9900016    2    1    2    0    0 -0.38555992342E+03 -0.56254568796E+02  0.68648858312E+03  0.20052059887E+04  0.18433023222E+04 0.  0.
    9900016    2    3    3    0    0 -0.39037427287E+03 -0.52269487976E+02  0.66673727952E+03  0.19668865771E+04  0.18080320890E+04 0.  0.
         24    2    4    4    0    0 -0.70928036370E+03 -0.45637150298E+02  0.10296978788E+04  0.12527293531E+04  0.62383705685E+02 0.  0.
        -15    1    3    3    0    0  0.15586598988E+02  0.72641882511E+01  0.11569976727E+02  0.20726187793E+02  0.00000000000E+00 0.  1.
        -15    1    5    5    0    0 -0.69477881865E+03 -0.46160040715E+02  0.98908717016E+03  0.12096039792E+04  0.00000000000E+00 0.  1.
         15    1    4    4    0    0  0.27617972062E+03  0.10468409574E+02 -0.48303582327E+03  0.55651453911E+03  0.00000000000E+00 0. -1.
         15    1    3    3    0    0 -0.10772249536E+02 -0.11249269071E+02  0.81813268741E+01  0.17593223813E+02  0.00000000000E+00 0. -1.
        -16    1    1    2    0    0  0.38555992342E+03  0.56254568796E+02  0.40363365188E+03  0.56101796405E+03  0.00000000000E+00 0.  1.
         16    1    5    5    0    0 -0.14501545050E+02  0.52289041691E+00  0.40610708652E+02  0.43125373974E+02  0.00000000000E+00 0. -1.
    9900018    1    4    4    0    0  0.42726370204E+02 -0.17100747252E+02  0.12007522398E+03  0.15764268481E+03  0.91187600000E+02 0.  0.
<mgrwt>
<rscale>  0 0.23231743E+04</rscale>
<asrwt>0</asrwt>
<pdfrwt beam="1">  1        2 0.11354629E+00 0.23231743E+04</pdfrwt>
<pdfrwt beam="2">  1       -2 0.28125740E+00 0.23231743E+04</pdfrwt>
<totfact> 0.14337208E+00</totfact>
</mgrwt>
</event>
<event>
12    1  0.7931856E-013  0.3135969E+04  0.7818608E-02  0.8205935E-01
          2   -1    0    0  501    0  0.00000000000E+00  0.00000000000E+00  0.53081925314E+04  0.53081925314E+04  0.00000000000E+00 0. -1.
         -2   -1    0    0    0  501 -0.00000000000E+00 -0.00000000000E+00 -0.46316614256E+03  0.46316614256E+03  0.00000000000E+00 0.  1.
    9900016    2    1    2    0    0  0.88783417594E+03 -0.47394749050E+03  0.36417834309E+04  0.42027065890E+04  0.18404565651E+04 0.  0.
    9900016    2    3    3    0    0  0.87384783470E+03 -0.48624833549E+03  0.35388289314E+04  0.40919347205E+04  0.17945952383E+04 0.  0.
         24    2    4    4    0    0  0.81777027007E+02  0.35407791237E+03  0.15282610368E+04  0.15717994638E+04  0.53973210852E+02 0.  0.
        -15    1    5    5    0    0  0.37082890225E+02  0.26623782393E+03  0.11109083431E+04  0.11429676576E+04  0.00000000000E+00 0.  1.
        -15    1    3    3    0    0 -0.10685719127E+02  0.11144883567E+02  0.50217871248E+02  0.52537868396E+02  0.00000000000E+00 0.  1.
         15    1    3    3    0    0  0.24672060370E+02  0.11559614275E+01  0.52736628233E+02  0.58234000096E+02  0.00000000000E+00 0. -1.
         15    1    4    4    0    0  0.25709816783E+03 -0.79531713448E+03  0.66353741175E+03  0.10671975961E+04  0.00000000000E+00 0. -1.
        -16    1    1    2    0    0 -0.88783417594E+03  0.47394749050E+03  0.12032429579E+04  0.15686520849E+04  0.00000000000E+00 0.  1.
         16    1    5    5    0    0  0.44694136781E+02  0.87840088444E+02  0.41735269374E+03  0.42883180615E+03  0.00000000000E+00 0. -1.
    9900018    1    4    4    0    0  0.53497263986E+03 -0.45009113376E+02  0.13470304829E+04  0.14529376607E+04  0.91187600000E+02 0.  0.
<mgrwt>
<rscale>  0 0.31359688E+04</rscale>
<asrwt>0</asrwt>
<pdfrwt beam="1">  1        2 0.81664497E+00 0.31359688E+04</pdfrwt>
<pdfrwt beam="2">  1       -2 0.71256333E-01 0.31359688E+04</pdfrwt>
<totfact> 0.19111268E-02</totfact>
</mgrwt>
</event>
<event>
12    1  0.7931856E-013  0.2379650E+04  0.7818608E-02  0.8447162E-01
         -2   -1    0    0    0  501 -0.00000000000E+00  0.00000000000E+00  0.35430692816E+03  0.35430692816E+03  0.00000000000E+00 0.  1.
          2   -1    0    0  501    0  0.00000000000E+00 -0.00000000000E+00 -0.39956417246E+04  0.39956417246E+04  0.00000000000E+00 0. -1.
    9900016    2    1    2    0    0  0.30560702406E+02 -0.23077999297E+01 -0.37795225292E+04  0.42084031409E+04  0.18506558742E+04 0.  0.
    9900016    2    3    3    0    0  0.34579506628E+02  0.68639233729E+00 -0.37217654832E+04  0.41341481952E+04  0.17995684967E+04 0.  0.
         24    2    4    4    0    0 -0.40095853142E+03 -0.18336763174E+03 -0.54811486911E+03  0.70559875346E+03  0.55211039347E+02 0.  0.
        -15    1    3    3    0    0  0.16189597344E+01 -0.12745637471E+02  0.23847068121E+01  0.13067483757E+02  0.00000000000E+00 0. -1.
        -15    1    5    5    0    0 -0.26141145836E+03 -0.96011512118E+02 -0.31881023159E+03  0.42331327027E+03  0.00000000000E+00 0.  1.
         15    1    3    3    0    0 -0.56377639560E+01  0.97514452035E+01 -0.60141752813E+02  0.61187461930E+02  0.00000000000E+00 0.  1.
         15    1    4    4    0    0  0.60522734204E+03  0.49719068732E+03 -0.12885465634E+04  0.15079293621E+04  0.00000000000E+00 0. -1.
        -16    1    1    2    0    0 -0.30560702406E+02  0.23077999297E+01  0.13818773273E+03  0.14154551194E+03  0.00000000000E+00 0.  1.
         16    1    5    5    0    0 -0.13954707306E+03 -0.87356119619E+02 -0.22930463751E+03  0.28228548319E+03  0.00000000000E+00 0. -1.
    9900018    1    4    4    0    0 -0.16968930400E+03 -0.31313666325E+03 -0.18851040507E+04  0.19206200796E+04  0.91187600000E+02 0.  0.
<mgrwt>
<rscale>  0 0.23796500E+04</rscale>
<asrwt>0</asrwt>
<pdfrwt beam="1">  1        2 0.61471409E+00 0.23796500E+04</pdfrwt>
<pdfrwt beam="2">  1       -2 0.54508760E-01 0.23796500E+04</pdfrwt>
<totfact> 0.98880887E-01</totfact>
</mgrwt>
</event>
