<event>
11    1  0.7438033E-011  0.3695440E+04  0.7818608E-02  0.8212671E-01
         -2   -1    0    0    0  501 -0.00000000000E+00  0.00000000000E+00  0.35797648559E+04  0.35797648559E+04  0.00000000000E+00 0.  1.
          2   -1    0    0  501    0  0.00000000000E+00 -0.00000000000E+00 -0.22338471156E+04  0.22338471156E+04  0.00000000000E+00 0. -1.
    9900016    2    1    2    0    0 -0.78077387649E+03  0.55922738320E+03  0.17073662342E+03  0.24176475251E+04  0.22121314266E+04 0.  0.
        -24    2    3    3    0    0 -0.10238000218E+04  0.43786179520E+03  0.53602961231E+02  0.11176200972E+04  0.79447894718E+02 0.  0.
        -15    1    1    2    0    0  0.37657468103E+03  0.88428516175E+03  0.92821147761E+02  0.96560059194E+03  0.00000000000E+00 0.  1.
        -15    1    3    3    0    0 -0.10513418821E+03  0.15734293178E+03 -0.52774131922E+03  0.56064328742E+03  0.00000000000E+00 0.  1.
         15    1    4    4    0    0 -0.96762414023E+03  0.41862597454E+03  0.33152469587E+02  0.10548190696E+04  0.00000000000E+00 0. -1.
         15    1    1    2    0    0  0.66535492546E+03 -0.57278923882E+03 -0.15851636768E+03  0.89213907423E+03  0.00000000000E+00 0. -1.
        -16    1    4    4    0    0 -0.56175881535E+02  0.19235820661E+02  0.20450491644E+02  0.62801027629E+02  0.00000000000E+00 0.  1.
         16    1    1    2    0    0 -0.26115573000E+03 -0.87072330613E+03  0.12408763368E+04  0.15382247802E+04  0.00000000000E+00 0. -1.
    9900018    1    3    3    0    0  0.34816033349E+03 -0.35977343781E+02  0.64487498141E+03  0.73938414043E+03  0.91187600000E+02 0.  0.
<mgrwt>
<rscale>  0 0.31111996E+04</rscale>
<asrwt>0</asrwt>
<pdfrwt beam="1">  1        2 0.34366879E+00 0.36954397E+04</pdfrwt>
<pdfrwt beam="2">  1       -2 0.55073306E+00 0.36954397E+04</pdfrwt>
<totfact> 0.31898098E-03</totfact>
</mgrwt>
</event>
<event>
11    1  0.7438033E-011  0.5097459E+04  0.7818608E-02  0.7813647E-01
          2   -1    0    0  501    0  0.00000000000E+00  0.00000000000E+00  0.32156726916E+04  0.32156726916E+04  0.00000000000E+00 0. -1.
         -2   -1    0    0    0  501 -0.00000000000E+00 -0.00000000000E+00 -0.20201129076E+04  0.20201129076E+04  0.00000000000E+00 0.  1.
    9900016    2    1    2    0    0  0.15895981891E+03  0.48253584746E+02  0.11921161911E+04  0.25151034073E+04  0.22083947799E+04 0.  0.
         24    2    3    3    0    0  0.29745391953E+03  0.67837662688E+03  0.66614508642E+03  0.99943727664E+03  0.80323792398E+02 0.  0.
        -15    1    1    2    0    0  0.18493189774E+03  0.69136357081E+03  0.14570642180E+03  0.73035180235E+03  0.00000000000E+00 0.  1.
        -15    1    4    4    0    0  0.20799692719E+03  0.53068357302E+03  0.54405801714E+03  0.78796376973E+03  0.00000000000E+00 0.  1.
         15    1    1    2    0    0  0.35584469266E+03 -0.89020872375E+03  0.45211709762E+03  0.10599560779E+04  0.00000000000E+00 0. -1.
         15    1    3    3    0    0  0.27810260719E+03 -0.77915438146E+03  0.66104733071E+01  0.82732479030E+03  0.00000000000E+00 0. -1.
        -16    1    1    2    0    0 -0.69973640931E+03  0.15059156820E+03 -0.59437992644E+03  0.93037431171E+03  0.00000000000E+00 0.  1.
         16    1    4    4    0    0  0.89456992343E+02  0.14769305386E+03  0.12208706928E+03  0.21147350690E+03  0.00000000000E+00 0. -1.
    9900018    1    3    3    0    0 -0.41659670781E+03  0.14903133933E+03  0.51936063134E+03  0.68834134035E+03  0.91187600000E+02 0.  0.
<mgrwt>
<rscale>  0 0.50974589E+04</rscale>
<asrwt>0</asrwt>
<pdfrwt beam="1">  1        2 0.49471887E+00 0.50974589E+04</pdfrwt>
<pdfrwt beam="2">  1       -2 0.31078660E+00 0.50974589E+04</pdfrwt>
<totfact> 0.24943718E-02</totfact>
</mgrwt>
</event>
<event>
11    1  0.7438033E-011  0.6234223E+04  0.7818608E-02  0.7662021E-01
          2   -1    0    0  501    0  0.00000000000E+00  0.00000000000E+00  0.33974408747E+04  0.33974408747E+04  0.00000000000E+00 0.  1.
         -2   -1    0    0    0  501 -0.00000000000E+00 -0.00000000000E+00 -0.28599122140E+04  0.28599122140E+04  0.00000000000E+00 0. -1.
    9900016    2    1    2    0    0 -0.86575242005E+03  0.34579402067E+03  0.29445269391E+03  0.23973067540E+04  0.21888984733E+04 0.  0.
        -24    2    3    3    0    0 -0.45668653939E+03  0.19148579437E+03 -0.68778544401E+03  0.85122582305E+03  0.79417757032E+02 0.  0.
        -15    1    3    3    0    0 -0.76306213044E+03  0.27159866176E+03  0.65657508230E+03  0.10426507021E+04  0.00000000000E+00 0.  1.
        -15    1    1    2    0    0 -0.14533490664E+04 -0.16630647567E+03 -0.80776927022E+02  0.14650618637E+04  0.00000000000E+00 0.  1.
         15    1    1    2    0    0  0.11745490051E+04 -0.58584390873E+01  0.38409564037E+03  0.12357706695E+04  0.00000000000E+00 0. -1.
         15    1    4    4    0    0 -0.34124356718E+03  0.17896777996E+03 -0.52172827060E+03  0.64859619699E+03  0.00000000000E+00 0. -1.
        -16    1    4    4    0    0 -0.11544297221E+03  0.12518014412E+02 -0.16605717341E+03  0.20262962606E+03  0.00000000000E+00 0.  1.
         16    1    1    2    0    0  0.11445524814E+04 -0.17362910591E+03 -0.60242746540E+02  0.11592138015E+04  0.00000000000E+00 0. -1.
    9900018    1    3    3    0    0  0.35399624978E+03 -0.11729043546E+03  0.32566305562E+03  0.50343022883E+03  0.91187600000E+02 0.  0.
<mgrwt>
<rscale>  0 0.62342225E+04</rscale>
<asrwt>0</asrwt>
<pdfrwt beam="1">  1        2 0.52268322E+00 0.62342225E+04</pdfrwt>
<pdfrwt beam="2">  1       -2 0.43998649E+00 0.62342225E+04</pdfrwt>
<totfact> 0.25648794E-03</totfact>
</mgrwt>
</event>
<event>
11    1  0.7438033E-011  0.4377073E+04  0.7818608E-02  0.8131712E-01
         -2   -1    0    0    0  501 -0.00000000000E+00  0.00000000000E+00  0.24043522919E+04  0.24043522919E+04  0.00000000000E+00 0.  1.
          2   -1    0    0  501    0  0.00000000000E+00 -0.00000000000E+00 -0.46622478508E+04  0.46622478508E+04  0.00000000000E+00 0. -1.
    9900016    2    1    2    0    0 -0.58213391152E+03  0.97785274754E+03 -0.18445846989E+04  0.30892596289E+04  0.22013533239E+04 0.  0.
        -24    2    3    3    0    0  0.20119025783E+03  0.22977498901E+03  0.41429037156E+03  0.52108965356E+03  0.81387036177E+02 0.  0.
        -15    1    3    3    0    0 -0.81758216501E+03  0.75311412159E+03 -0.21602082027E+04  0.24294281129E+04  0.00000000000E+00 0.  1.
        -15    1    1    2    0    0  0.17004780516E+03  0.11777074490E+04  0.38202732335E+03  0.12497423603E+04  0.00000000000E+00 0.  1.
         15    1    1    2    0    0  0.33741050911E+03 -0.26707948691E+03  0.31711306158E+03  0.53454466400E+03  0.00000000000E+00 0. -1.
         15    1    4    4    0    0  0.12322493890E+03  0.84161088813E+02  0.17002703987E+03  0.22622260878E+03  0.00000000000E+00 0. -1.
        -16    1    4    4    0    0  0.77965318931E+02  0.14561390020E+03  0.24426333170E+03  0.29486704478E+03  0.00000000000E+00 0.  1.
         16    1    1    2    0    0  0.74675597248E+02 -0.18884807096E+04 -0.11124512449E+04  0.21930534895E+04  0.00000000000E+00 0. -1.
    9900018    1    3    3    0    0  0.34257995659E+02 -0.50363630674E+01 -0.98666867751E+02  0.13874186248E+03  0.91187600000E+02 0.  0.
<mgrwt>
<rscale>  0 0.34253531E+04</rscale>
<asrwt>0</asrwt>
<pdfrwt beam="1">  1        2 0.71726890E+00 0.43770733E+04</pdfrwt>
<pdfrwt beam="2">  1       -2 0.36990035E+00 0.43770733E+04</pdfrwt>
<totfact> 0.69232799E-04</totfact>
</mgrwt>
</event>
<event>
11    1  0.7438033E-011  0.4270806E+04  0.7818608E-02  0.8236498E-01
          1   -1    0    0  501    0  0.00000000000E+00  0.00000000000E+00  0.22194945241E+04  0.22194945241E+04  0.00000000000E+00 0. -1.
         -1   -1    0    0    0  501 -0.00000000000E+00 -0.00000000000E+00 -0.32531255641E+04  0.32531255641E+04  0.00000000000E+00 0.  1.
    9900016    2    1    2    0    0 -0.11436724620E+03 -0.11216315001E+04  0.55852426904E+03  0.25387661885E+04  0.22050504102E+04 0.  0.
        -24    2    3    3    0    0 -0.68295234978E+03 -0.57123340959E+03  0.71330273898E+03  0.11437481134E+04  0.81409023268E+02 0.  0.
        -15    1    3    3    0    0  0.76733483843E+03 -0.73872158547E+03 -0.24443994959E+03  0.10928235100E+04  0.00000000000E+00 0.  1.
        -15    1    1    2    0    0  0.82473767212E+03 -0.18756116610E+03 -0.17824914232E+03  0.86437502022E+03  0.00000000000E+00 0. -1.
         15    1    4    4    0    0 -0.34741723778E+03 -0.30954219183E+03  0.32388700276E+03  0.56693729476E+03  0.00000000000E+00 0. -1.
         15    1    1    2    0    0 -0.49351761457E+02  0.13901067341E+03 -0.25617268512E+03  0.29560786235E+03  0.00000000000E+00 0.  1.
        -16    1    4    4    0    0 -0.33553511200E+03 -0.26169121775E+03  0.38941573622E+03  0.57681081860E+03  0.00000000000E+00 0.  1.
         16    1    1    2    0    0 -0.66101866446E+03  0.11701819928E+04 -0.11577334816E+04  0.17738710171E+04  0.00000000000E+00 0. -1.
    9900018    1    3    3    0    0 -0.19874973485E+03  0.18832349492E+03  0.89661479648E+02  0.30219456509E+03  0.91187600000E+02 0.  0.
<mgrwt>
<rscale>  0 0.30254605E+04</rscale>
<asrwt>0</asrwt>
<pdfrwt beam="1">  1        1 0.34146070E+00 0.42708065E+04</pdfrwt>
<pdfrwt beam="2">  1       -1 0.50048086E+00 0.42708065E+04</pdfrwt>
<totfact> 0.23177194E-03</totfact>
</mgrwt>
</event>
<event>
11    1  0.7438033E-011  0.6075094E+04  0.7818608E-02  0.7681160E-01
          2   -1    0    0  501    0  0.00000000000E+00  0.00000000000E+00  0.26203041638E+04  0.26203041638E+04  0.00000000000E+00 0. -1.
         -2   -1    0    0    0  501 -0.00000000000E+00 -0.00000000000E+00 -0.35212287391E+04  0.35212287391E+04  0.00000000000E+00 0.  1.
    9900016    2    1    2    0    0  0.12753136994E+04 -0.14295783992E+03 -0.32658444771E+03  0.25657231727E+04  0.21975932339E+04 0.  0.
         24    2    3    3    0    0  0.18569628683E+04  0.21043472254E+02 -0.30873772071E+03  0.18842695365E+04  0.79992400391E+02 0.  0.
        -15    1    1    2    0    0 -0.39247254751E+03 -0.42417888791E+03 -0.29054193043E+03  0.64682071924E+03  0.00000000000E+00 0.  1.
        -15    1    4    4    0    0  0.69497847792E+03  0.46198150630E+02 -0.11007805950E+03  0.70515709815E+03  0.00000000000E+00 0.  1.
         15    1    3    3    0    0 -0.28451980770E+03 -0.74974550688E+02  0.13513411600E+03  0.32378068740E+03  0.00000000000E+00 0. -1.
         15    1    1    2    0    0  0.84285461026E+03 -0.15304247119E+03  0.39015779483E+03  0.94130175656E+03  0.00000000000E+00 0. -1.
        -16    1    1    2    0    0 -0.17256957621E+04  0.72017919902E+03 -0.67395599199E+03  0.19876872544E+04  0.00000000000E+00 0.  1.
         16    1    4    4    0    0  0.11619843904E+04 -0.25154678376E+02 -0.19865966122E+03  0.11791124384E+04  0.00000000000E+00 0. -1.
    9900018    1    3    3    0    0 -0.29712936124E+03 -0.89026761485E+02 -0.15298084300E+03  0.35767294878E+03  0.91187600000E+02 0.  0.
<mgrwt>
<rscale>  0 0.60750935E+04</rscale>
<asrwt>0</asrwt>
<pdfrwt beam="1">  1        2 0.40312372E+00 0.60750935E+04</pdfrwt>
<pdfrwt beam="2">  1       -2 0.54172750E+00 0.60750935E+04</pdfrwt>
<totfact> 0.19029576E-03</totfact>
</mgrwt>
</event>
<event>
11    1  0.7438033E-011  0.4221717E+04  0.7818608E-02  0.7961254E-01
          2   -1    0    0  501    0  0.00000000000E+00  0.00000000000E+00  0.24762271512E+04  0.24762271512E+04  0.00000000000E+00 0.  1.
         -2   -1    0    0    0  501 -0.00000000000E+00 -0.00000000000E+00 -0.17994003145E+04  0.17994003145E+04  0.00000000000E+00 0. -1.
    9900016    2    1    2    0    0  0.30389687113E+03  0.20610059604E+03  0.60725135379E+03  0.22947759395E+04  0.21822950401E+04 0.  0.
        -24    2    3    3    0    0  0.74546062344E+03  0.94727126508E+03  0.27845530770E+03  0.12396841538E+04  0.79025641259E+02 0.  0.
        -15    1    3    3    0    0 -0.53873258802E+03 -0.56032249364E+03  0.23956940932E+03  0.81338035393E+03  0.00000000000E+00 0.  1.
        -15    1    1    2    0    0 -0.58141316471E+03  0.60778630000E+03  0.62987779541E+02  0.84345297138E+03  0.00000000000E+00 0.  1.
         15    1    1    2    0    0 -0.82639504160E+02 -0.73479115848E+03  0.12541947703E+03  0.74998491948E+03  0.00000000000E+00 0. -1.
         15    1    4    4    0    0  0.41996807437E+03  0.47135954014E+03  0.15433679099E+03  0.64990218081E+03  0.00000000000E+00 0. -1.
        -16    1    4    4    0    0  0.32549254906E+03  0.47591172494E+03  0.12411851671E+03  0.58978197296E+03  0.00000000000E+00 0.  1.
         16    1    1    2    0    0  0.36015579774E+03 -0.79095737554E+02 -0.11883177363E+03  0.38741363524E+03  0.00000000000E+00 0. -1.
    9900018    1    3    3    0    0  0.97168835714E+02 -0.18084817541E+03  0.89226636768E+02  0.24171143184E+03  0.91187600000E+02 0.  0.
<mgrwt>
<rscale>  0 0.42217171E+04</rscale>
<asrwt>0</asrwt>
<pdfrwt beam="1">  1        2 0.38095803E+00 0.42217171E+04</pdfrwt>
<pdfrwt beam="2">  1       -2 0.27683082E+00 0.42217171E+04</pdfrwt>
<totfact> 0.12260107E-01</totfact>
</mgrwt>
</event>
<event>
11    1  0.7438033E-011  0.5138215E+04  0.7818608E-02  0.7807533E-01
         -1   -1    0    0    0  501 -0.00000000000E+00  0.00000000000E+00  0.15428280372E+04  0.15428280372E+04  0.00000000000E+00 0.  1.
          1   -1    0    0  501    0  0.00000000000E+00 -0.00000000000E+00 -0.42780617223E+04  0.42780617223E+04  0.00000000000E+00 0. -1.
    9900016    2    1    2    0    0  0.24578445736E+03 -0.12638152178E+03 -0.11325175987E+04  0.24979542767E+04  0.22092526266E+04 0.  0.
        -24    2    3    3    0    0  0.28043137409E+03 -0.35798232216E+03 -0.16816745252E+04  0.17443386530E+04  0.88853976957E+02 0.  0.
        -15    1    1    2    0    0 -0.84764700587E+03  0.62011392760E+03 -0.23501929108E+03  0.10762345455E+04  0.00000000000E+00 0.  1.
        -15    1    3    3    0    0  0.17863942180E+03  0.15759670530E+03  0.40723020219E+03  0.47178936202E+03  0.00000000000E+00 0.  1.
         15    1    1    2    0    0  0.21567457484E+03 -0.50682091185E+03  0.23444407001E+03  0.59862089914E+03  0.00000000000E+00 0. -1.
         15    1    4    4    0    0  0.24833383270E+02 -0.77677238544E+02 -0.37192361229E+03  0.38075927263E+03  0.00000000000E+00 0. -1.
        -16    1    4    4    0    0  0.25559799082E+03 -0.28030508362E+03 -0.13097509129E+04  0.13635793804E+04  0.00000000000E+00 0.  1.
         16    1    1    2    0    0  0.38618797368E+03  0.13088506035E+02 -0.16021408653E+04  0.16480800382E+04  0.00000000000E+00 0. -1.
    9900018    1    3    3    0    0 -0.21328633853E+03  0.74004095082E+02  0.14192672426E+03  0.28182626163E+03  0.91187600000E+02 0.  0.
<mgrwt>
<rscale>  0 0.51382151E+04</rscale>
<asrwt>0</asrwt>
<pdfrwt beam="1">  1        1 0.65816334E+00 0.51382151E+04</pdfrwt>
<pdfrwt beam="2">  1       -1 0.23735816E+00 0.51382151E+04</pdfrwt>
<totfact> 0.31999996E-03</totfact>
</mgrwt>
</event>
<event>
11    1  0.7438033E-011  0.3091931E+04  0.7818608E-02  0.8406217E-01
         -2   -1    0    0    0  501 -0.00000000000E+00  0.00000000000E+00  0.19500328882E+04  0.19500328882E+04  0.00000000000E+00 0.  1.
          2   -1    0    0  501    0  0.00000000000E+00 -0.00000000000E+00 -0.26982602869E+04  0.26982602869E+04  0.00000000000E+00 0. -1.
    9900016    2    1    2    0    0  0.21112426835E+03 -0.16320277052E+03 -0.38264623193E+03  0.22434862346E+04  0.21944483920E+04 0.  0.
         24    2    3    3    0    0  0.44341890489E+03 -0.24211497677E+03 -0.39642124185E+03  0.64700632255E+03  0.78913834282E+02 0.  0.
        -15    1    1    2    0    0  0.34037312007E+02  0.16865155567E+03  0.15385662592E+03  0.23081106381E+03  0.00000000000E+00 0.  1.
        -15    1    4    4    0    0  0.24249330970E+03 -0.12533866238E+03 -0.26290011762E+03  0.37898450810E+03  0.00000000000E+00 0.  1.
         15    1    1    2    0    0 -0.63606163663E+03 -0.58527227111E+03 -0.10028072872E+04  0.13239110590E+04  0.00000000000E+00 0. -1.
         15    1    3    3    0    0 -0.82069005034E+03  0.83823114501E+02 -0.35281646572E+03  0.89723906053E+03  0.00000000000E+00 0. -1.
        -16    1    1    2    0    0  0.39090005628E+03  0.57982348596E+03  0.48336949456E+03  0.85008481761E+03  0.00000000000E+00 0.  1.
         16    1    4    4    0    0  0.20092559519E+03 -0.11677631439E+03 -0.13352112423E+03  0.26802181445E+03  0.00000000000E+00 0. -1.
    9900018    1    3    3    0    0  0.58839541380E+03 -0.49109082480E+01  0.36659147565E+03  0.69924085150E+03  0.91187600000E+02 0.  0.
<mgrwt>
<rscale>  0 0.24909486E+04</rscale>
<asrwt>0</asrwt>
<pdfrwt beam="1">  1        2 0.41511697E+00 0.30919309E+04</pdfrwt>
<pdfrwt beam="2">  1       -2 0.30000506E+00 0.30919309E+04</pdfrwt>
<totfact> 0.68686969E-02</totfact>
</mgrwt>
</event>
<event>
11    1  0.7438033E-011  0.3403414E+04  0.7818608E-02  0.8327614E-01
         -2   -1    0    0    0  501 -0.00000000000E+00  0.00000000000E+00  0.23967033722E+04  0.23967033722E+04  0.00000000000E+00 0.  1.
          2   -1    0    0  501    0  0.00000000000E+00 -0.00000000000E+00 -0.30152268310E+04  0.30152268310E+04  0.00000000000E+00 0. -1.
    9900016    2    1    2    0    0  0.38601154771E+02 -0.46174357448E+02 -0.12014393520E+04  0.25109044229E+04  0.22039878367E+04 0.  0.
         24    2    3    3    0    0 -0.50601441657E+03 -0.44808440099E+03 -0.96701129097E+03  0.11824641339E+04  0.79248791737E+02 0.  0.
        -15    1    4    4    0    0 -0.15904108249E+03 -0.18972595823E+03 -0.37056090957E+03  0.44565164966E+03  0.00000000000E+00 0.  1.
        -15    1    1    2    0    0 -0.29696557033E+02 -0.33916808966E+03 -0.62729546905E+02  0.34619629489E+03  0.00000000000E+00 0.  1.
         15    1    1    2    0    0 -0.64834424130E+03 -0.60365141704E+03  0.98935365876E+03  0.13279932043E+04  0.00000000000E+00 0. -1.
         15    1    3    3    0    0  0.63070998374E+03  0.36289374737E+03 -0.59801140038E+03  0.94186229909E+03  0.00000000000E+00 0. -1.
        -16    1    1    2    0    0  0.63943964356E+03  0.98899386414E+03 -0.34370821870E+03  0.12268362811E+04  0.00000000000E+00 0.  1.
         16    1    4    4    0    0 -0.34697333407E+03 -0.25835844276E+03 -0.59645038141E+03  0.73681248428E+03  0.00000000000E+00 0. -1.
    9900018    1    3    3    0    0 -0.86094412404E+02  0.39016296177E+02  0.36358333939E+03  0.38657798992E+03  0.91187600000E+02 0.  0.
<mgrwt>
<rscale>  0 0.27228948E+04</rscale>
<asrwt>0</asrwt>
<pdfrwt beam="1">  1        2 0.46388105E+00 0.34034137E+04</pdfrwt>
<pdfrwt beam="2">  1       -2 0.36872360E+00 0.34034137E+04</pdfrwt>
<totfact> 0.15735220E-02</totfact>
</mgrwt>
</event>
<event>
11    1  0.7438033E-011  0.3621790E+04  0.7818608E-02  0.8264913E-01
          1   -1    0    0  501    0  0.00000000000E+00  0.00000000000E+00  0.17155355177E+04  0.17155355177E+04  0.00000000000E+00 0. -1.
         -1   -1    0    0    0  501 -0.00000000000E+00 -0.00000000000E+00 -0.45867294446E+04  0.45867294446E+04  0.00000000000E+00 0.  1.
    9900016    2    1    2    0    0 -0.23580609969E+03  0.11301540731E+03 -0.15116633054E+04  0.26827259058E+04  0.22007987954E+04 0.  0.
        -24    2    3    3    0    0  0.15651700913E+03 -0.78999488485E+03 -0.67397200022E+03  0.10531238250E+04  0.79006591420E+02 0.  0.
        -15    1    1    2    0    0 -0.46855220700E+03  0.47220122363E+03 -0.19711735986E+04  0.20803943189E+04  0.00000000000E+00 0.  1.
        -15    1    3    3    0    0 -0.35595595828E+03  0.59820494572E+02  0.90141195712E+02  0.37203302404E+03  0.00000000000E+00 0.  1.
         15    1    1    2    0    0  0.49252445797E+03  0.10207749430E+03 -0.11585234303E+03  0.51616075202E+03  0.00000000000E+00 0. -1.
         15    1    4    4    0    0  0.17081326776E+02 -0.27710288723E+03 -0.22424268868E+03  0.35687892242E+03  0.00000000000E+00 0. -1.
        -16    1    4    4    0    0  0.13943568235E+03 -0.51289199762E+03 -0.44972931153E+03  0.69624490259E+03  0.00000000000E+00 0.  1.
         16    1    1    2    0    0  0.21183384872E+03 -0.68729412525E+03  0.72749532014E+03  0.10229839856E+04  0.00000000000E+00 0. -1.
    9900018    1    3    3    0    0 -0.36367150531E+02  0.84318979759E+03 -0.92783250090E+03  0.12575690568E+04  0.91187600000E+02 0.  0.
<mgrwt>
<rscale>  0 0.29269202E+04</rscale>
<asrwt>0</asrwt>
<pdfrwt beam="1">  1        1 0.26392854E+00 0.36217905E+04</pdfrwt>
<pdfrwt beam="2">  1       -1 0.70565068E+00 0.36217905E+04</pdfrwt>
<totfact> 0.68049128E-04</totfact>
</mgrwt>
</event>
<event>
11    1  0.7438033E-011  0.5751695E+04  0.7818608E-02  0.7721975E-01
         -2   -1    0    0    0  501 -0.00000000000E+00  0.00000000000E+00  0.42913692723E+04  0.42913692723E+04  0.00000000000E+00 0.  1.
          2   -1    0    0  501    0  0.00000000000E+00 -0.00000000000E+00 -0.19272398229E+04  0.19272398229E+04  0.00000000000E+00 0. -1.
    9900016    2    1    2    0    0  0.69497758778E+03  0.15492692442E+03  0.10848991387E+03  0.23221686393E+04  0.22076460152E+04 0.  0.
        -24    2    3    3    0    0 -0.43260427357E+02  0.87919198165E+03  0.90807199246E+02  0.88859473704E+03  0.80651435748E+02 0.  0.
        -15    1    1    2    0    0 -0.11274983655E+04 -0.34026024627E+03  0.25465039624E+04  0.28056571476E+04  0.00000000000E+00 0.  1.
        -15    1    3    3    0    0  0.97806080875E+03 -0.60904833675E+03  0.11343469028E+02  0.11522462829E+04  0.00000000000E+00 0.  1.
         15    1    1    2    0    0 -0.15711082655E+02 -0.23197008109E+03 -0.40578901984E+03  0.46767690264E+03  0.00000000000E+00 0. -1.
         15    1    4    4    0    0 -0.56037492708E+02  0.43653413269E+03  0.24302583385E+02  0.44078664357E+03  0.00000000000E+00 0. -1.
        -16    1    4    4    0    0  0.12777065351E+02  0.44265784896E+03  0.66504615861E+02  0.44780809346E+03  0.00000000000E+00 0.  1.
         16    1    1    2    0    0  0.44823186034E+03  0.41730340294E+03  0.11492459295E+03  0.62310640567E+03  0.00000000000E+00 0. -1.
    9900018    1    3    3    0    0 -0.23982279361E+03 -0.11521672048E+03  0.63392455945E+01  0.28132761941E+03  0.91187600000E+02 0.  0.
<mgrwt>
<rscale>  0 0.57516946E+04</rscale>
<asrwt>0</asrwt>
<pdfrwt beam="1">  1        2 0.29649843E+00 0.57516946E+04</pdfrwt>
<pdfrwt beam="2">  1       -2 0.66021066E+00 0.57516946E+04</pdfrwt>
<totfact> 0.15917147E-03</totfact>
</mgrwt>
</event>
<event>
11    1  0.7438033E-011  0.4309424E+04  0.7818608E-02  0.8213148E-01
          2   -1    0    0  501    0  0.00000000000E+00  0.00000000000E+00  0.32162857094E+04  0.32162857094E+04  0.00000000000E+00 0. -1.
         -2   -1    0    0    0  501 -0.00000000000E+00 -0.00000000000E+00 -0.24017887126E+04  0.24017887126E+04  0.00000000000E+00 0.  1.
    9900016    2    1    2    0    0 -0.50196776198E+03 -0.44016795399E+03  0.11656925837E+04  0.25725918866E+04  0.21940078290E+04 0.  0.
        -24    2    3    3    0    0 -0.34213578254E+03 -0.12445924031E+04  0.25751263797E+03  0.13186722429E+04  0.80725348580E+02 0.  0.
        -15    1    3    3    0    0 -0.67430584568E+02  0.66957114815E+03  0.65535045311E+03  0.93933839619E+03  0.00000000000E+00 0.  1.
        -15    1    1    2    0    0  0.15204237312E+03 -0.81810536916E+03  0.28930985236E+03  0.88097302395E+03  0.00000000000E+00 0.  1.
         15    1    4    4    0    0 -0.12440796054E+03 -0.37726189988E+03  0.11142598530E+03  0.41257681945E+03  0.00000000000E+00 0. -1.
         15    1    1    2    0    0 -0.30176230557E+03 -0.67223249037E+02  0.28581479277E+03  0.42103390605E+03  0.00000000000E+00 0. -1.
        -16    1    4    4    0    0 -0.21772782200E+03 -0.86733050324E+03  0.14608665266E+03  0.90609542345E+03  0.00000000000E+00 0.  1.
         16    1    1    2    0    0  0.65168769444E+03  0.13254965722E+04 -0.92632023202E+03  0.17434756053E+04  0.00000000000E+00 0. -1.
    9900018    1    3    3    0    0 -0.92401394876E+02  0.13485330098E+03  0.25282949264E+03  0.31458124754E+03  0.91187600000E+02 0.  0.
<mgrwt>
<rscale>  0 0.31094552E+04</rscale>
<asrwt>0</asrwt>
<pdfrwt beam="1">  1        2 0.49481318E+00 0.43094245E+04</pdfrwt>
<pdfrwt beam="2">  1       -2 0.36950596E+00 0.43094245E+04</pdfrwt>
<totfact> 0.10905731E-02</totfact>
</mgrwt>
</event>
<event>
11    1  0.7438033E-011  0.3299569E+04  0.7818608E-02  0.8239113E-01
          2   -1    0    0  501    0  0.00000000000E+00  0.00000000000E+00  0.28771708101E+04  0.28771708101E+04  0.00000000000E+00 0. -1.
         -2   -1    0    0    0  501 -0.00000000000E+00 -0.00000000000E+00 -0.30783140372E+04  0.30783140372E+04  0.00000000000E+00 0.  1.
    9900016    2    1    2    0    0 -0.42400152950E+03 -0.23828324799E+03  0.21005867128E+03  0.22566300913E+04  0.21935584150E+04 0.  0.
        -24    2    3    3    0    0 -0.29665708158E+02  0.92941952576E+03  0.26301109862E+03  0.96939385358E+03  0.76478077013E+02 0.  0.
        -15    1    3    3    0    0 -0.13212035764E+03 -0.83933981768E+03  0.25915235565E+02  0.85006983118E+03  0.00000000000E+00 0.  1.
        -15    1    1    2    0    0  0.34913394608E+03  0.16060816622E+04 -0.83021844614E+03  0.18413732610E+04  0.00000000000E+00 0.  1.
         15    1    4    4    0    0 -0.16204665361E+02  0.42899535621E+03  0.81962243661E+02  0.43705539262E+03  0.00000000000E+00 0. -1.
         15    1    1    2    0    0  0.43559559848E+03 -0.49172885625E+03 -0.24436153859E+03  0.70089468184E+03  0.00000000000E+00 0. -1.
        -16    1    4    4    0    0 -0.13461042797E+02  0.50042416955E+03  0.18104885495E+03  0.53233846096E+03  0.00000000000E+00 0.  1.
         16    1    1    2    0    0 -0.36072801506E+03 -0.87606955796E+03  0.66337808635E+03  0.11565868133E+04  0.00000000000E+00 0. -1.
    9900018    1    3    3    0    0 -0.26221546371E+03 -0.32836295606E+03 -0.78867662900E+02  0.43716640649E+03  0.91187600000E+02 0.  0.
<mgrwt>
<rscale>  0 0.30162230E+04</rscale>
<asrwt>0</asrwt>
<pdfrwt beam="1">  1        2 0.44264166E+00 0.32995693E+04</pdfrwt>
<pdfrwt beam="2">  1       -2 0.47358678E+00 0.32995693E+04</pdfrwt>
<totfact> 0.39166461E-03</totfact>
</mgrwt>
</event>
<event>
11    1  0.7438033E-011  0.4967686E+04  0.7818608E-02  0.7833511E-01
          1   -1    0    0  501    0  0.00000000000E+00  0.00000000000E+00  0.23165583628E+04  0.23165583628E+04  0.00000000000E+00 0. -1.
         -1   -1    0    0    0  501 -0.00000000000E+00 -0.00000000000E+00 -0.26632077692E+04  0.26632077692E+04  0.00000000000E+00 0.  1.
    9900016    2    1    2    0    0 -0.40678089305E+03  0.87599075480E+03 -0.62939721679E+03  0.24856273630E+04  0.22021289776E+04 0.  0.
         24    2    3    3    0    0  0.66889007074E+03  0.68912862250E+03 -0.82112723352E+03  0.12660849255E+04  0.80055729950E+02 0.  0.
        -15    1    4    4    0    0  0.15587320671E+03  0.18473808712E+03 -0.16761970961E+03  0.29414449588E+03  0.00000000000E+00 0.  1.
        -15    1    1    2    0    0 -0.29883722086E+03 -0.15821126657E+03 -0.49232161290E+02  0.34169912957E+03  0.00000000000E+00 0.  1.
         15    1    3    3    0    0 -0.54963482556E+03  0.32139389640E+03  0.20475532065E+03  0.66881777745E+03  0.00000000000E+00 0. -1.
         15    1    1    2    0    0  0.11335869612E+04 -0.66737013672E+03  0.78121647548E+03  0.15299351227E+04  0.00000000000E+00 0. -1.
        -16    1    1    2    0    0 -0.42796884732E+03 -0.50409351499E+02 -0.44923650379E+03  0.62250451672E+03  0.00000000000E+00 0.  1.
         16    1    4    4    0    0  0.51301686403E+03  0.50439053538E+03 -0.65350752391E+03  0.97194042964E+03  0.00000000000E+00 0. -1.
    9900018    1    3    3    0    0 -0.52603613823E+03 -0.13453176410E+03 -0.13025303920E+02  0.55072466008E+03  0.91187600000E+02 0.  0.
<mgrwt>
<rscale>  0 0.49676861E+04</rscale>
<asrwt>0</asrwt>
<pdfrwt beam="1">  1        1 0.35639359E+00 0.49676861E+04</pdfrwt>
<pdfrwt beam="2">  1       -1 0.40972427E+00 0.49676861E+04</pdfrwt>
<totfact> 0.80574781E-03</totfact>
</mgrwt>
</event>
<event>
11    1  0.8570519E-011  0.5114408E+04  0.7818608E-02  0.7811097E-01
          2   -1    0    0  501    0  0.00000000000E+00  0.00000000000E+00  0.25771703886E+04  0.25771703886E+04  0.00000000000E+00 0. -1.
         -2   -1    0    0    0  501 -0.00000000000E+00 -0.00000000000E+00 -0.25373926933E+04  0.25373926933E+04  0.00000000000E+00 0.  1.
    9900016    2    1    2    0    0 -0.57991982253E+03  0.16287733372E+03 -0.34606607075E+03  0.23103568340E+04  0.22034407069E+04 0.  0.
        -24    2    3    3    0    0 -0.14257561839E+03  0.10889181504E+04  0.19120270019E+03  0.11176184951E+04  0.80262586639E+02 0.  0.
        -15    1    1    2    0    0  0.82123869798E+03  0.15422995730E+03 -0.81984682120E+03  0.11706274766E+04  0.00000000000E+00 0.  1.
        -15    1    3    3    0    0 -0.18261940031E+03 -0.36341906546E+03 -0.36154220629E+03  0.54418381954E+03  0.00000000000E+00 0.  1.
         15    1    4    4    0    0 -0.11348818897E+03  0.87332005873E+03  0.18552622681E+03  0.89999304156E+03  0.00000000000E+00 0. -1.
         15    1    1    2    0    0 -0.16130237627E+03 -0.61463191561E+03  0.35294985926E+03  0.72688682161E+03  0.00000000000E+00 0. -1.
        -16    1    4    4    0    0 -0.29087429421E+02  0.21559809170E+03  0.56764733724E+01  0.21762545357E+03  0.00000000000E+00 0.  1.
         16    1    1    2    0    0 -0.80016499178E+02  0.29752462458E+03  0.85274072796E+03  0.90669194961E+03  0.00000000000E+00 0. -1.
    9900018    1    3    3    0    0 -0.25472480383E+03 -0.56262175124E+03 -0.17572656464E+03  0.64855451935E+03  0.91187600000E+02 0.  0.
<mgrwt>
<rscale>  0 0.51144084E+04</rscale>
<asrwt>0</asrwt>
<pdfrwt beam="1">  1        2 0.39648775E+00 0.51144084E+04</pdfrwt>
<pdfrwt beam="2">  1       -2 0.39036811E+00 0.51144084E+04</pdfrwt>
<totfact> 0.19433548E-02</totfact>
</mgrwt>
</event>
<event>
11    1  0.7438033E-011  0.2985081E+04  0.7818608E-02  0.8372779E-01
          2   -1    0    0  501    0  0.00000000000E+00  0.00000000000E+00  0.27581841740E+04  0.27581841740E+04  0.00000000000E+00 0. -1.
         -2   -1    0    0    0  501 -0.00000000000E+00 -0.00000000000E+00 -0.23787595526E+04  0.23787595526E+04  0.00000000000E+00 0.  1.
    9900016    2    1    2    0    0  0.35573910941E+02 -0.52474379377E+03 -0.54309913989E+03  0.23320196954E+04  0.22060683651E+04 0.  0.
         24    2    3    3    0    0 -0.93017871869E+02 -0.42752031580E+03 -0.56534266516E+03  0.71907937786E+03  0.77697346814E+02 0.  0.
        -15    1    1    2    0    0 -0.42781871642E+03  0.31765577707E+03  0.49251741083E+03  0.72560832878E+03  0.00000000000E+00 0.  1.
        -15    1    4    4    0    0  0.68015658488E+00 -0.14482604510E+03 -0.15603513097E+03  0.21288966167E+03  0.00000000000E+00 0.  1.
         15    1    1    2    0    0  0.11032065992E+04  0.27683782055E+03  0.67676507299E+03  0.13235236845E+04  0.00000000000E+00 0. -1.
         15    1    3    3    0    0  0.14913127371E+03  0.69486410756E+03 -0.27462081551E+03  0.76190081840E+03  0.00000000000E+00 0. -1.
        -16    1    1    2    0    0 -0.71096179367E+03 -0.69749803846E+02 -0.24675872258E+03  0.75579201793E+03  0.00000000000E+00 0.  1.
         16    1    4    4    0    0 -0.93698028454E+02 -0.28269427070E+03 -0.40930753420E+03  0.50618971619E+03  0.00000000000E+00 0. -1.
    9900018    1    3    3    0    0 -0.20539490895E+02 -0.79208758553E+03  0.29686434079E+03  0.85103949912E+03  0.91187600000E+02 0.  0.
<mgrwt>
<rscale>  0 0.25865646E+04</rscale>
<asrwt>0</asrwt>
<pdfrwt beam="1">  1        2 0.42433603E+00 0.29850805E+04</pdfrwt>
<pdfrwt beam="2">  1       -2 0.36596301E+00 0.29850805E+04</pdfrwt>
<totfact> 0.24402426E-02</totfact>
</mgrwt>
</event>
<event>
11    1  0.7438033E-011  0.4441923E+04  0.7818608E-02  0.8202075E-01
         -2   -1    0    0    0  501 -0.00000000000E+00  0.00000000000E+00  0.21464709000E+04  0.21464709000E+04  0.00000000000E+00 0.  1.
          2   -1    0    0  501    0  0.00000000000E+00 -0.00000000000E+00 -0.38289713504E+04  0.38289713504E+04  0.00000000000E+00 0. -1.
    9900016    2    1    2    0    0 -0.97822321300E+03 -0.34686149291E+03 -0.14921055600E+04  0.28588743263E+04  0.22067056582E+04 0.  0.
         24    2    3    3    0    0 -0.82343996425E+03 -0.44295820529E+03 -0.10294441984E+04  0.13930412994E+04  0.80891024831E+02 0.  0.
        -15    1    4    4    0    0 -0.33402200419E+03 -0.22499357493E+03 -0.44655586157E+03  0.60133596728E+03  0.00000000000E+00 0.  1.
        -15    1    1    2    0    0  0.81517121519E+00 -0.15979313889E+03 -0.71638396413E+03  0.73398943849E+03  0.00000000000E+00 0.  1.
         15    1    1    2    0    0  0.14539286351E+03 -0.68574157862E+03 -0.23776176858E+03  0.74021027824E+03  0.00000000000E+00 0. -1.
         15    1    3    3    0    0 -0.20194435556E+03  0.38694381251E+03  0.37358508312E+03  0.57451966990E+03  0.00000000000E+00 0. -1.
        -16    1    1    2    0    0  0.83201517827E+03  0.11923962104E+04  0.76375084233E+03  0.16423682074E+04  0.00000000000E+00 0.  1.
         16    1    4    4    0    0 -0.48941796006E+03 -0.21796463036E+03 -0.58288833687E+03  0.79170533216E+03  0.00000000000E+00 0. -1.
    9900018    1    3    3    0    0  0.47161106816E+02 -0.29084710013E+03 -0.83624644472E+03  0.89131335699E+03  0.91187600000E+02 0.  0.
<mgrwt>
<rscale>  0 0.31502728E+04</rscale>
<asrwt>0</asrwt>
<pdfrwt beam="1">  1        2 0.58907251E+00 0.44419234E+04</pdfrwt>
<pdfrwt beam="2">  1       -2 0.33022629E+00 0.44419234E+04</pdfrwt>
<totfact> 0.70202978E-03</totfact>
</mgrwt>
</event>
<event>
11    1  0.7438033E-011  0.4957383E+04  0.7818608E-02  0.8084419E-01
         -2   -1    0    0    0  501 -0.00000000000E+00  0.00000000000E+00  0.47108178374E+04  0.47108178374E+04  0.00000000000E+00 0.  1.
          2   -1    0    0  501    0  0.00000000000E+00 -0.00000000000E+00 -0.25879326911E+04  0.25879326911E+04  0.00000000000E+00 0. -1.
    9900016    2    1    2    0    0 -0.27175749913E+03 -0.10252173292E+04  0.13997722476E+04  0.28206026751E+04  0.22071507414E+04 0.  0.
        -24    2    3    3    0    0 -0.93765981007E+03 -0.88668820743E+03  0.66859925363E+03  0.14556413621E+04  0.80280237375E+02 0.  0.
        -15    1    3    3    0    0  0.76811836721E+03 -0.34337362609E+03  0.35043735331E+03  0.91143711343E+03  0.00000000000E+00 0.  1.
        -15    1    1    2    0    0 -0.12553308051E+03 -0.10567078526E+04  0.12941162163E+04  0.16754482449E+04  0.00000000000E+00 0.  1.
         15    1    1    2    0    0 -0.11033567884E+03  0.33138382973E+03  0.55829527363E+03  0.65854598715E+03  0.00000000000E+00 0. -1.
         15    1    4    4    0    0 -0.63445800281E+03 -0.60840304715E+03  0.49649958790E+03  0.10095558756E+04  0.00000000000E+00 0. -1.
        -16    1    4    4    0    0 -0.30320180726E+03 -0.27828516028E+03  0.17209966573E+03  0.44608548654E+03  0.00000000000E+00 0.  1.
         16    1    1    2    0    0  0.50762625848E+03  0.17505413520E+04 -0.11292985912E+04  0.21441536213E+04  0.00000000000E+00 0. -1.
    9900018    1    3    3    0    0 -0.10221605627E+03  0.20484450435E+03  0.38073564066E+03  0.45352419955E+03  0.91187600000E+02 0.  0.
<mgrwt>
<rscale>  0 0.36266313E+04</rscale>
<asrwt>0</asrwt>
<pdfrwt beam="1">  1        2 0.39814349E+00 0.49573833E+04</pdfrwt>
<pdfrwt beam="2">  1       -2 0.72474121E+00 0.49573833E+04</pdfrwt>
<totfact> 0.39314095E-04</totfact>
</mgrwt>
</event>
<event>
11    1  0.7438033E-011  0.3287918E+04  0.7818608E-02  0.8473367E-01
          1   -1    0    0  501    0  0.00000000000E+00  0.00000000000E+00  0.21927117323E+04  0.21927117323E+04  0.00000000000E+00 0. -1.
         -1   -1    0    0    0  501 -0.00000000000E+00 -0.00000000000E+00 -0.21536373172E+04  0.21536373172E+04  0.00000000000E+00 0.  1.
    9900016    2    1    2    0    0  0.94347631406E+02  0.41568509060E+03 -0.21250939304E+02  0.22380821252E+04  0.21970126142E+04 0.  0.
        -24    2    3    3    0    0  0.70530913382E+03  0.93267426052E+03  0.20593471966E+03  0.11900410267E+04  0.80288765796E+02 0.  0.
        -15    1    1    2    0    0  0.31826703675E+00  0.58488915239E+03 -0.29797057713E+03  0.65641594033E+03  0.00000000000E+00 0.  1.
        -15    1    3    3    0    0 -0.58007180102E+03 -0.60892369812E+03 -0.72728053807E+02  0.84413312593E+03  0.00000000000E+00 0.  1.
         15    1    4    4    0    0  0.27083107460E+03  0.33356184862E+03  0.11206027069E+03  0.44403882948E+03  0.00000000000E+00 0. -1.
         15    1    1    2    0    0 -0.13849854252E+03 -0.10407750534E+03 -0.29472134141E+03  0.34186933539E+03  0.00000000000E+00 0. -1.
        -16    1    4    4    0    0  0.43447805922E+03  0.59911241190E+03  0.93874448969E+02  0.74600219719E+03  0.00000000000E+00 0.  1.
         16    1    1    2    0    0  0.43832644078E+02 -0.89649673765E+03  0.65301727299E+03  0.11099816486E+04  0.00000000000E+00 0. -1.
    9900018    1    3    3    0    0 -0.30889701392E+02  0.91934528208E+02 -0.15445760516E+03  0.20390797266E+03  0.91187600000E+02 0.  0.
<mgrwt>
<rscale>  0 0.23115859E+04</rscale>
<asrwt>0</asrwt>
<pdfrwt beam="1">  1        1 0.33734026E+00 0.32879176E+04</pdfrwt>
<pdfrwt beam="2">  1       -1 0.33132882E+00 0.32879176E+04</pdfrwt>
<totfact> 0.36536831E-02</totfact>
</mgrwt>
</event>
<event>
11    1  0.7438033E-011  0.3916425E+04  0.7818608E-02  0.8110840E-01
         -2   -1    0    0    0  501 -0.00000000000E+00  0.00000000000E+00  0.21924082682E+04  0.21924082682E+04  0.00000000000E+00 0. -1.
          2   -1    0    0  501    0  0.00000000000E+00 -0.00000000000E+00 -0.49534458499E+04  0.49534458499E+04  0.00000000000E+00 0.  1.
    9900016    2    1    2    0    0 -0.67913322781E+03 -0.43291059612E+02 -0.37279438680E+03  0.23113203526E+04  0.21771839749E+04 0.  0.
        -24    2    3    3    0    0  0.37123514479E+03  0.15309731925E+03  0.63452245123E+02  0.41421252679E+03  0.79319027006E+02 0.  0.
        -15    1    3    3    0    0 -0.35721089488E+03  0.56554532219E+03 -0.53746365087E+03  0.85808409313E+03  0.00000000000E+00 0.  1.
        -15    1    1    2    0    0  0.42068615095E+03 -0.11043115045E+04 -0.22191032151E+04  0.25141399754E+04  0.00000000000E+00 0.  1.
         15    1    1    2    0    0 -0.16524579254E+03 -0.41523984047E+03  0.40424589607E+03  0.60261516871E+03  0.00000000000E+00 0. -1.
         15    1    4    4    0    0  0.10709166574E+03  0.60237977816E+02 -0.14108098486E+02  0.12367811967E+03  0.00000000000E+00 0. -1.
        -16    1    4    4    0    0  0.26414347905E+03  0.92859341437E+02  0.77560343609E+02  0.29053440712E+03  0.00000000000E+00 0.  1.
         16    1    1    2    0    0  0.42369286941E+03  0.15628424046E+04 -0.57338587590E+03  0.17177786214E+04  0.00000000000E+00 0. -1.
    9900018    1    3    3    0    0 -0.69315747773E+03 -0.76193370106E+03  0.10121701895E+03  0.10390237327E+04  0.91187600000E+02 0.  0.
<mgrwt>
<rscale>  0 0.35124735E+04</rscale>
<asrwt>0</asrwt>
<pdfrwt beam="1">  1        2 0.76206859E+00 0.39164246E+04</pdfrwt>
<pdfrwt beam="2">  1       -2 0.33729358E+00 0.39164246E+04</pdfrwt>
<totfact> 0.53585947E-04</totfact>
</mgrwt>
</event>
<event>
11    1  0.7438033E-011  0.4746613E+04  0.7818608E-02  0.8183146E-01
         -2   -1    0    0    0  501 -0.00000000000E+00  0.00000000000E+00  0.19829330868E+04  0.19829330868E+04  0.00000000000E+00 0. -1.
          2   -1    0    0  501    0  0.00000000000E+00 -0.00000000000E+00 -0.43526978276E+04  0.43526978276E+04  0.00000000000E+00 0.  1.
    9900016    2    1    2    0    0  0.84440396257E+03  0.14875605924E+03  0.38071681903E+03  0.24031712466E+04  0.22124964016E+04 0.  0.
         24    2    3    3    0    0  0.57036242634E+03  0.11837010868E+03  0.45802722260E+03  0.74549676320E+03  0.81557999551E+02 0.  0.
        -15    1    4    4    0    0  0.20327791704E+03  0.11357104584E+02  0.19062294415E+03  0.27890500572E+03  0.00000000000E+00 0.  1.
        -15    1    1    2    0    0 -0.38352416772E+03 -0.37316002578E+03 -0.16394127809E+03  0.55965697953E+03  0.00000000000E+00 0.  1.
         15    1    3    3    0    0 -0.32834104795E+03 -0.59243986193E+03  0.25702589976E+03  0.72446887229E+03  0.00000000000E+00 0. -1.
         15    1    1    2    0    0  0.14094955026E+03 -0.36909737418E+03  0.21271525696E+03  0.44871753686E+03  0.00000000000E+00 0. -1.
        -16    1    1    2    0    0 -0.60182934511E+03  0.59350134073E+03 -0.27992555387E+04  0.29240851514E+04  0.00000000000E+00 0.  1.
         16    1    4    4    0    0  0.36708450929E+03  0.10701300409E+03  0.26740427845E+03  0.46659175747E+03  0.00000000000E+00 0. -1.
    9900018    1    3    3    0    0  0.60238258419E+03  0.62282581249E+03 -0.33433630333E+03  0.93320561108E+03  0.91187600000E+02 0.  0.
<mgrwt>
<rscale>  0 0.32215595E+04</rscale>
<asrwt>0</asrwt>
<pdfrwt beam="1">  1        2 0.66964582E+00 0.47466126E+04</pdfrwt>
<pdfrwt beam="2">  1       -2 0.30506663E+00 0.47466126E+04</pdfrwt>
<totfact> 0.35678597E-03</totfact>
</mgrwt>
</event>
<event>
11    1  0.7438033E-011  0.3477463E+04  0.7818608E-02  0.8391351E-01
          2   -1    0    0  501    0  0.00000000000E+00  0.00000000000E+00  0.30807664948E+04  0.30807664948E+04  0.00000000000E+00 0. -1.
         -2   -1    0    0    0  501 -0.00000000000E+00 -0.00000000000E+00 -0.19058646188E+04  0.19058646188E+04  0.00000000000E+00 0.  1.
    9900016    2    1    2    0    0 -0.55090615366E+02 -0.70677433380E+03  0.24309936703E+03  0.23139227811E+04  0.21891953772E+04 0.  0.
         24    2    3    3    0    0 -0.49729216167E+03  0.59925040559E+03 -0.14748458867E+03  0.79690203510E+03  0.83069892225E+02 0.  0.
        -15    1    1    2    0    0  0.94866566592E+02 -0.38259538922E+03  0.62106550287E+03  0.73559585111E+03  0.00000000000E+00 0.  1.
        -15    1    4    4    0    0 -0.72429071961E+02  0.10774544437E+03 -0.53666119050E+02  0.14048168415E+03  0.00000000000E+00 0.  1.
         15    1    3    3    0    0  0.13774350372E+03 -0.10441737427E+04  0.25731537581E+03  0.10841970672E+04  0.00000000000E+00 0. -1.
         15    1    1    2    0    0 -0.56109548711E+03  0.71876361210E+02  0.52750925571E+03  0.77347292894E+03  0.00000000000E+00 0. -1.
        -16    1    1    2    0    0  0.52131953588E+03  0.10174933618E+04 -0.21677224961E+03  0.11636395524E+04  0.00000000000E+00 0.  1.
         16    1    4    4    0    0 -0.42486308971E+03  0.49150496122E+03 -0.93818469620E+02  0.65642035095E+03  0.00000000000E+00 0. -1.
    9900018    1    3    3    0    0  0.30445804258E+03 -0.26185099665E+03  0.13326857990E+03  0.43282367878E+03  0.91187600000E+02 0.  0.
<mgrwt>
<rscale>  0 0.25329185E+04</rscale>
<asrwt>0</asrwt>
<pdfrwt beam="1">  1        2 0.47396408E+00 0.34774627E+04</pdfrwt>
<pdfrwt beam="2">  1       -2 0.29320994E+00 0.34774627E+04</pdfrwt>
<totfact> 0.42656698E-02</totfact>
</mgrwt>
</event>
<event>
11    1  0.7438033E-011  0.3873396E+04  0.7818608E-02  0.8203133E-01
          2   -1    0    0  501    0  0.00000000000E+00  0.00000000000E+00  0.30932533331E+04  0.30932533331E+04  0.00000000000E+00 0. -1.
         -2   -1    0    0    0  501 -0.00000000000E+00 -0.00000000000E+00 -0.25542305739E+04  0.25542305739E+04  0.00000000000E+00 0.  1.
    9900016    2    1    2    0    0 -0.21966974415E+03 -0.52893427344E+03 -0.57864226508E+03  0.23613654546E+04  0.22165725067E+04 0.  0.
        -24    2    3    3    0    0  0.34087670617E+03 -0.70430610687E+03  0.23782940093E+03  0.82156891493E+03  0.78540671310E+02 0.  0.
        -15    1    3    3    0    0 -0.44521900321E+03  0.66139074889E+03 -0.47890542768E+03  0.93005811227E+03  0.00000000000E+00 0.  1.
        -15    1    1    2    0    0 -0.36118731136E+03  0.13164360889E+04 -0.98456141519E+02  0.13686321134E+04  0.00000000000E+00 0.  1.
         15    1    1    2    0    0 -0.11037228212E+03 -0.28876818618E+03 -0.12084515019E+03  0.33192266619E+03  0.00000000000E+00 0. -1.
         15    1    4    4    0    0  0.16793878090E+03 -0.26081004499E+03  0.10216561706E+03  0.32659321336E+03  0.00000000000E+00 0. -1.
        -16    1    4    4    0    0  0.17293792527E+03 -0.44349606188E+03  0.13566378387E+03  0.49497570158E+03  0.00000000000E+00 0.  1.
         16    1    1    2    0    0  0.69122933763E+03 -0.49873362925E+03  0.13369663160E+04  0.15855636727E+04  0.00000000000E+00 0. -1.
    9900018    1    3    3    0    0 -0.11532744711E+03 -0.48601891546E+03 -0.33756623833E+03  0.60973842744E+03  0.91187600000E+02 0.  0.
<mgrwt>
<rscale>  0 0.31463437E+04</rscale>
<asrwt>0</asrwt>
<pdfrwt beam="1">  1        2 0.47588513E+00 0.38733957E+04</pdfrwt>
<pdfrwt beam="2">  1       -2 0.39295855E+00 0.38733957E+04</pdfrwt>
<totfact> 0.94529136E-03</totfact>
</mgrwt>
</event>
<event>
11    1  0.7438033E-011  0.5392112E+04  0.7818608E-02  0.7770711E-01
         -2   -1    0    0    0  501 -0.00000000000E+00  0.00000000000E+00  0.23981012400E+04  0.23981012400E+04  0.00000000000E+00 0.  1.
          2   -1    0    0  501    0  0.00000000000E+00 -0.00000000000E+00 -0.30310309014E+04  0.30310309014E+04  0.00000000000E+00 0. -1.
    9900016    2    1    2    0    0 -0.28913530299E+03  0.39645246697E+03 -0.22387202712E+03  0.22588764146E+04  0.21935428398E+04 0.  0.
         24    2    3    3    0    0  0.12151470327E+03 -0.45846138539E+03 -0.34131000573E+03  0.58962997876E+03  0.78856368390E+02 0.  0.
        -15    1    1    2    0    0  0.73277683489E+02 -0.18749381090E+03  0.48182397361E+03  0.52218568495E+03  0.00000000000E+00 0.  1.
        -15    1    4    4    0    0  0.69571728166E+02 -0.36888964605E+03 -0.24536452490E+03  0.44846799931E+03  0.00000000000E+00 0.  1.
         15    1    1    2    0    0  0.89238625302E+03 -0.10464858306E+03 -0.14889752806E+04  0.17390663980E+04  0.00000000000E+00 0. -1.
         15    1    3    3    0    0 -0.51777246229E+03  0.35172668898E+03 -0.54194617434E+03  0.82795268121E+03  0.00000000000E+00 0. -1.
        -16    1    1    2    0    0 -0.67652863351E+03 -0.10431007301E+03  0.59809367272E+03  0.90900364391E+03  0.00000000000E+00 0.  1.
         16    1    4    4    0    0  0.51942975106E+02 -0.89571739342E+02 -0.95945480834E+02  0.14116197946E+03  0.00000000000E+00 0. -1.
    9900018    1    3    3    0    0  0.10712245602E+03  0.50318716338E+03  0.65938415296E+03  0.84129375461E+03  0.91187600000E+02 0.  0.
<mgrwt>
<rscale>  0 0.53921124E+04</rscale>
<asrwt>0</asrwt>
<pdfrwt beam="1">  1        2 0.46631244E+00 0.53921124E+04</pdfrwt>
<pdfrwt beam="2">  1       -2 0.36893865E+00 0.53921124E+04</pdfrwt>
<totfact> 0.13852101E-02</totfact>
</mgrwt>
</event>
<event>
11    1  0.7438033E-011  0.4334490E+04  0.7818608E-02  0.7940271E-01
          2   -1    0    0  501    0  0.00000000000E+00  0.00000000000E+00  0.31590374622E+04  0.31590374622E+04  0.00000000000E+00 0. -1.
         -2   -1    0    0    0  501 -0.00000000000E+00 -0.00000000000E+00 -0.14868296821E+04  0.14868296821E+04  0.00000000000E+00 0.  1.
    9900016    2    1    2    0    0 -0.22947041516E+03  0.62758550849E+03  0.13639276462E+04  0.26700529026E+04  0.21959880775E+04 0.  0.
         24    2    3    3    0    0 -0.43579341359E+03  0.91480411656E+03  0.10915620349E+04  0.14913492980E+04  0.76371340252E+02 0.  0.
        -15    1    4    4    0    0 -0.16494559246E+03  0.31002424067E+03  0.33067758508E+03  0.48235852180E+03  0.00000000000E+00 0.  1.
        -15    1    1    2    0    0 -0.87963657686E+02 -0.58994817075E+03  0.33572771323E+03  0.68446296224E+03  0.00000000000E+00 0.  1.
         15    1    3    3    0    0 -0.38198805000E+03 -0.79127814870E+02  0.37340294233E+03  0.54000540625E+03  0.00000000000E+00 0. -1.
         15    1    1    2    0    0 -0.69649733469E+02  0.52549571455E+03  0.20676387004E+03  0.56898868999E+03  0.00000000000E+00 0. -1.
        -16    1    1    2    0    0  0.38708380631E+03 -0.56313305229E+03 -0.23421144942E+03  0.72236258951E+03  0.00000000000E+00 0.  1.
         16    1    4    4    0    0 -0.27084782113E+03  0.60477987589E+03  0.76088444979E+03  0.10089907762E+04  0.00000000000E+00 0. -1.
    9900018    1    3    3    0    0  0.58831104844E+03 -0.20809079320E+03 -0.10103733098E+03  0.63869819835E+03  0.91187600000E+02 0.  0.
<mgrwt>
<rscale>  0 0.43344899E+04</rscale>
<asrwt>0</asrwt>
<pdfrwt beam="1">  1        2 0.48600576E+00 0.43344899E+04</pdfrwt>
<pdfrwt beam="2">  1       -2 0.22874303E+00 0.43344899E+04</pdfrwt>
<totfact> 0.92098721E-02</totfact>
</mgrwt>
</event>
<event>
11    1  0.7438033E-011  0.4332130E+04  0.7818608E-02  0.8105274E-01
         -2   -1    0    0    0  501 -0.00000000000E+00  0.00000000000E+00  0.35495290106E+04  0.35495290106E+04  0.00000000000E+00 0.  1.
          2   -1    0    0  501    0  0.00000000000E+00 -0.00000000000E+00 -0.27573662023E+04  0.27573662023E+04  0.00000000000E+00 0. -1.
    9900016    2    1    2    0    0 -0.13534063801E+04 -0.12338179025E+04  0.44124746054E+03  0.28985954353E+04  0.22029845051E+04 0.  0.
         24    2    3    3    0    0 -0.72053877392E+03 -0.37851358892E+03  0.33124557377E+03  0.88232725262E+03  0.79555570891E+02 0.  0.
        -15    1    1    2    0    0  0.13986810499E+03  0.13490586629E+03 -0.46778169124E+02  0.19987715392E+03  0.00000000000E+00 0.  1.
        -15    1    4    4    0    0 -0.28621991818E+03 -0.14153858432E+03  0.89187513924E+02  0.33152590405E+03  0.00000000000E+00 0.  1.
         15    1    1    2    0    0  0.16926969122E+04 -0.28732615808E+03  0.22395983643E+03  0.17314552163E+04  0.00000000000E+00 0. -1.
         15    1    3    3    0    0 -0.25494549617E+03 -0.38124846095E+03 -0.79815392070E+03  0.92054183834E+03  0.00000000000E+00 0. -1.
        -16    1    1    2    0    0 -0.47915863713E+03  0.13862381943E+04  0.17373368047E+03  0.14769674074E+04  0.00000000000E+00 0.  1.
         16    1    4    4    0    0 -0.43431885574E+03 -0.23697500461E+03  0.24205805985E+03  0.55080134858E+03  0.00000000000E+00 0. -1.
    9900018    1    3    3    0    0 -0.37792210999E+03 -0.47405585262E+03  0.90815580747E+03  0.10957263443E+04  0.91187600000E+02 0.  0.
<mgrwt>
<rscale>  0 0.35361568E+04</rscale>
<asrwt>0</asrwt>
<pdfrwt beam="1">  1        2 0.42421018E+00 0.43321298E+04</pdfrwt>
<pdfrwt beam="2">  1       -2 0.54608139E+00 0.43321298E+04</pdfrwt>
<totfact> 0.15952901E-03</totfact>
</mgrwt>
</event>
<event>
11    1  0.7438033E-011  0.3221017E+04  0.7818608E-02  0.8609513E-01
         -1   -1    0    0    0  501 -0.00000000000E+00  0.00000000000E+00  0.13153625974E+04  0.13153625974E+04  0.00000000000E+00 0.  1.
          1   -1    0    0  501    0  0.00000000000E+00 -0.00000000000E+00 -0.28103896796E+04  0.28103896796E+04  0.00000000000E+00 0. -1.
    9900016    2    1    2    0    0 -0.33683637747E+03 -0.68207001979E+03 -0.12417283118E+04  0.26397001652E+04  0.22016924183E+04 0.  0.
        -24    2    3    3    0    0  0.12073776489E+03 -0.75937563976E+03  0.11775323906E+03  0.78213782744E+03  0.81515554804E+02 0.  0.
        -15    1    1    2    0    0  0.59205631442E+02 -0.22762659390E+03  0.27744528207E+03  0.36372387547E+03  0.00000000000E+00 0.  1.
        -15    1    3    3    0    0 -0.79851508505E+03  0.29019358525E+03 -0.98369384971E+03  0.12998046961E+04  0.00000000000E+00 0.  1.
         15    1    1    2    0    0  0.68871512392E+02  0.43872314023E+02 -0.11083519650E+03  0.13766810066E+03  0.00000000000E+00 0. -1.
         15    1    4    4    0    0  0.41594459400E+02 -0.27942260432E+03  0.37673060170E+01  0.28252660663E+03  0.00000000000E+00 0. -1.
        -16    1    4    4    0    0  0.79143305494E+02 -0.47995303543E+03  0.11398593304E+03  0.49961122081E+03  0.00000000000E+00 0.  1.
         16    1    1    2    0    0  0.20875923364E+03  0.86582429967E+03 -0.41990885604E+03  0.98466013573E+03  0.00000000000E+00 0. -1.
    9900018    1    3    3    0    0  0.34094094269E+03 -0.21288796529E+03 -0.37578770111E+03  0.55775764169E+03  0.91187600000E+02 0.  0.
<mgrwt>
<rscale>  0 0.19938258E+04</rscale>
<asrwt>0</asrwt>
<pdfrwt beam="1">  1        1 0.43236764E+00 0.32210168E+04</pdfrwt>
<pdfrwt beam="2">  1       -1 0.20236348E+00 0.32210168E+04</pdfrwt>
<totfact> 0.97215589E-02</totfact>
</mgrwt>
</event>
<event>
11    1  0.7438033E-011  0.9272820E+04  0.7818608E-02  0.7379822E-01
          2   -1    0    0  501    0  0.00000000000E+00  0.00000000000E+00  0.43916697291E+04  0.43916697291E+04  0.00000000000E+00 0.  1.
         -2   -1    0    0    0  501 -0.00000000000E+00 -0.00000000000E+00 -0.48947891974E+04  0.48947891974E+04  0.00000000000E+00 0. -1.
    9900016    2    1    2    0    0 -0.17543188249E+04  0.16817283811E+04  0.22440016068E+04  0.39804558043E+04  0.22141906673E+04 0.  0.
         24    2    3    3    0    0 -0.12958086391E+04  0.19627437975E+04  0.16614891822E+04  0.28806855129E+04  0.79495143570E+02 0.  0.
        -15    1    4    4    0    0 -0.45767717013E+02  0.77381941578E+02  0.46407062076E+02  0.10117442470E+03  0.00000000000E+00 0.  1.
        -15    1    1    2    0    0  0.58277793910E+03  0.71763903166E+03 -0.42586692472E+03  0.10178401366E+04  0.00000000000E+00 0.  1.
         15    1    1    2    0    0 -0.55420200944E+03  0.24271503195E+02 -0.74152618701E+02  0.55966738693E+03  0.00000000000E+00 0. -1.
         15    1    3    3    0    0 -0.55334249837E+03 -0.18560279342E+03  0.10195843926E+03  0.59247940113E+03  0.00000000000E+00 0. -1.
        -16    1    1    2    0    0  0.17257428953E+04 -0.24236389159E+04 -0.22471015317E+04  0.37284955987E+04  0.00000000000E+00 0.  1.
         16    1    4    4    0    0 -0.12500409221E+04  0.18853618559E+04  0.16150821201E+04  0.27795110882E+04  0.00000000000E+00 0. -1.
    9900018    1    3    3    0    0  0.94832312526E+02 -0.95412623015E+02  0.48055398533E+03  0.50729089026E+03  0.91187600000E+02 0.  0.
<mgrwt>
<rscale>  0 0.92728200E+04</rscale>
<asrwt>0</asrwt>
<pdfrwt beam="1">  1        2 0.67564150E+00 0.92728200E+04</pdfrwt>
<pdfrwt beam="2">  1       -2 0.75304449E+00 0.92728200E+04</pdfrwt>
<totfact> 0.11625940E-05</totfact>
</mgrwt>
</event>
<event>
11    1  0.7438033E-011  0.3950852E+04  0.7818608E-02  0.8014535E-01
         -2   -1    0    0    0  501 -0.00000000000E+00  0.00000000000E+00  0.23499975925E+04  0.23499975925E+04  0.00000000000E+00 0.  1.
          2   -1    0    0  501    0  0.00000000000E+00 -0.00000000000E+00 -0.16605581352E+04  0.16605581352E+04  0.00000000000E+00 0. -1.
    9900016    2    1    2    0    0  0.11850623049E+03 -0.40280010456E+03  0.18252140273E+03  0.22466159567E+04  0.21994721056E+04 0.  0.
        -24    2    3    3    0    0 -0.25045899712E+02 -0.11331706999E+04  0.52295003324E+03  0.12506559063E+04  0.77203150284E+02 0.  0.
        -15    1    1    2    0    0  0.26464183357E+03  0.10848341588E+02  0.97975609414E+03  0.10149261011E+04  0.00000000000E+00 0.  1.
        -15    1    3    3    0    0  0.14090957009E+03  0.26173078361E+03 -0.41733026505E+03  0.51237004222E+03  0.00000000000E+00 0.  1.
         15    1    1    2    0    0 -0.26771998083E+03  0.18301757128E+03 -0.36143759811E+03  0.48559917304E+03  0.00000000000E+00 0. -1.
         15    1    4    4    0    0  0.20434248974E+02 -0.68783095047E+03  0.30316262172E+03  0.75195515170E+03  0.00000000000E+00 0. -1.
        -16    1    4    4    0    0 -0.45480148686E+02 -0.44533974941E+03  0.21978741152E+03  0.49870075456E+03  0.00000000000E+00 0.  1.
         16    1    1    2    0    0 -0.11542808322E+03  0.20893419170E+03 -0.11140044141E+03  0.26341449695E+03  0.00000000000E+00 0. -1.
    9900018    1    3    3    0    0  0.26425601155E+01  0.46863981171E+03  0.76901634536E+02  0.48359000820E+03  0.91187600000E+02 0.  0.
<mgrwt>
<rscale>  0 0.39508519E+04</rscale>
<asrwt>0</asrwt>
<pdfrwt beam="1">  1        2 0.25547048E+00 0.39508519E+04</pdfrwt>
<pdfrwt beam="2">  1       -2 0.36153809E+00 0.39508519E+04</pdfrwt>
<totfact> 0.10738566E-01</totfact>
</mgrwt>
</event>
<event>
11    1  0.7438033E-011  0.5255861E+04  0.7818608E-02  0.7790206E-01
         -2   -1    0    0    0  501 -0.00000000000E+00  0.00000000000E+00  0.15401710995E+04  0.15401710995E+04  0.00000000000E+00 0.  1.
          2   -1    0    0  501    0  0.00000000000E+00 -0.00000000000E+00 -0.44839288976E+04  0.44839288976E+04  0.00000000000E+00 0. -1.
    9900016    2    1    2    0    0  0.92881423892E+03  0.71035001857E+03 -0.58447374884E+03  0.25584704334E+04  0.21992881477E+04 0.  0.
        -24    2    3    3    0    0  0.91993110915E+03  0.66790753241E+03 -0.50004204054E+03  0.12444399271E+04  0.78835096907E+02 0.  0.
        -15    1    3    3    0    0 -0.63835203476E+03  0.11425586531E+03 -0.10070270036E+03  0.65626881451E+03  0.00000000000E+00 0.  1.
        -15    1    1    2    0    0  0.94281454014E+02  0.26845686689E+03  0.17926451902E+03  0.33629429036E+03  0.00000000000E+00 0.  1.
         15    1    1    2    0    0  0.24949412976E+03 -0.28405672414E+03 -0.46821040390E+03  0.60179442140E+03  0.00000000000E+00 0. -1.
         15    1    4    4    0    0  0.49683449952E+03  0.38802560015E+03 -0.31233058925E+03  0.70353307191E+03  0.00000000000E+00 0. -1.
        -16    1    4    4    0    0  0.42309660963E+03  0.27988193227E+03 -0.18771145129E+03  0.54090685523E+03  0.00000000000E+00 0.  1.
         16    1    1    2    0    0 -0.12725898227E+04 -0.69475016131E+03 -0.20703381644E+04  0.25275408520E+04  0.00000000000E+00 0. -1.
    9900018    1    3    3    0    0  0.64723516453E+03 -0.71813379153E+02  0.16270992067E+02  0.65776169180E+03  0.91187600000E+02 0.  0.
<mgrwt>
<rscale>  0 0.52558606E+04</rscale>
<asrwt>0</asrwt>
<pdfrwt beam="1">  1        2 0.68983522E+00 0.52558606E+04</pdfrwt>
<pdfrwt beam="2">  1       -2 0.23694940E+00 0.52558606E+04</pdfrwt>
<totfact> 0.69732652E-03</totfact>
</mgrwt>
</event>
<event>
11    1  0.7438033E-011  0.6315469E+04  0.7818608E-02  0.7652472E-01
         -2   -1    0    0    0  501 -0.00000000000E+00  0.00000000000E+00  0.27645489646E+04  0.27645489646E+04  0.00000000000E+00 0.  1.
          2   -1    0    0  501    0  0.00000000000E+00 -0.00000000000E+00 -0.36068402803E+04  0.36068402803E+04  0.00000000000E+00 0. -1.
    9900016    2    1    2    0    0  0.11877677051E+04 -0.89808295248E+03 -0.11509773659E+04  0.28877850654E+04  0.21902530850E+04 0.  0.
         24    2    3    3    0    0  0.48010901069E+03 -0.11368983242E+04 -0.82369215229E+03  0.14858584118E+04  0.79145413241E+02 0.  0.
        -15    1    1    2    0    0  0.17492252282E+03  0.50204877345E+03  0.19016494780E+02  0.53198917939E+03  0.00000000000E+00 0.  1.
        -15    1    4    4    0    0  0.19576577592E+03 -0.39176225611E+03 -0.32290061506E+03  0.54412012602E+03  0.00000000000E+00 0.  1.
         15    1    3    3    0    0  0.97549325342E+03  0.20590089380E+03 -0.44743162387E+03  0.10927842072E+04  0.00000000000E+00 0. -1.
         15    1    1    2    0    0  0.11174832579E+03 -0.89704489855E+03 -0.20954128912E+03  0.92794654489E+03  0.00000000000E+00 0. -1.
        -16    1    1    2    0    0 -0.14744385537E+04  0.12930790776E+04  0.49921084453E+03  0.20236684552E+04  0.00000000000E+00 0.  1.
         16    1    4    4    0    0  0.28434323476E+03 -0.74513606810E+03 -0.50079153722E+03  0.94173828577E+03  0.00000000000E+00 0. -1.
    9900018    1    3    3    0    0 -0.26783455904E+03  0.32914477925E+02  0.12014641026E+03  0.30914244639E+03  0.91187600000E+02 0.  0.
<mgrwt>
<rscale>  0 0.63154688E+04</rscale>
<asrwt>0</asrwt>
<pdfrwt beam="1">  1        2 0.55489850E+00 0.63154688E+04</pdfrwt>
<pdfrwt beam="2">  1       -2 0.42531523E+00 0.63154688E+04</pdfrwt>
<totfact> 0.22683231E-03</totfact>
</mgrwt>
</event>
<event>
11    1  0.7806081E-011  0.3956046E+04  0.7818608E-02  0.8247976E-01
          2   -1    0    0  501    0  0.00000000000E+00  0.00000000000E+00  0.29655311491E+04  0.29655311491E+04  0.00000000000E+00 0.  1.
         -2   -1    0    0    0  501 -0.00000000000E+00 -0.00000000000E+00 -0.26712877393E+04  0.26712877393E+04  0.00000000000E+00 0. -1.
    9900016    2    1    2    0    0 -0.17823920807E+03  0.45462441163E+03  0.47671977493E+03  0.23028497453E+04  0.21994096105E+04 0.  0.
        -24    2    3    3    0    0 -0.84123380174E+03 -0.35989318393E+03  0.74502409260E+03  0.11826679835E+04  0.80282298872E+02 0.  0.
        -15    1    1    2    0    0 -0.27493906396E+03  0.84050503479E+03  0.82685859764E+03  0.12106755729E+04  0.00000000000E+00 0.  1.
        -15    1    3    3    0    0  0.39846504657E+03  0.62328654647E+03 -0.11674306736E+03  0.74892553443E+03  0.00000000000E+00 0.  1.
         15    1    4    4    0    0 -0.56588221334E+03 -0.27321969753E+03  0.47930717333E+03  0.79032085187E+03  0.00000000000E+00 0. -1.
         15    1    1    2    0    0  0.37261378101E+03 -0.47440519408E+02  0.16289883240E+03  0.40942357318E+03  0.00000000000E+00 0. -1.
        -16    1    4    4    0    0 -0.27535158840E+03 -0.86673486391E+02  0.26571691927E+03  0.39234713159E+03  0.00000000000E+00 0.  1.
         16    1    1    2    0    0  0.80564491024E+02 -0.12476889270E+04 -0.11722337952E+04  0.17138699970E+04  0.00000000000E+00 0. -1.
    9900018    1    3    3    0    0  0.26452954710E+03  0.19123104908E+03 -0.15156125031E+03  0.37125622744E+03  0.91187600000E+02 0.  0.
<mgrwt>
<rscale>  0 0.29851768E+04</rscale>
<asrwt>0</asrwt>
<pdfrwt beam="1">  1        2 0.45623556E+00 0.39560457E+04</pdfrwt>
<pdfrwt beam="2">  1       -2 0.41096735E+00 0.39560457E+04</pdfrwt>
<totfact> 0.86333220E-03</totfact>
</mgrwt>
</event>
<event>
11    1  0.7438033E-011  0.3567494E+04  0.7818608E-02  0.8290878E-01
         -2   -1    0    0    0  501 -0.00000000000E+00  0.00000000000E+00  0.27958315298E+04  0.27958315298E+04  0.00000000000E+00 0.  1.
          2   -1    0    0  501    0  0.00000000000E+00 -0.00000000000E+00 -0.22876028807E+04  0.22876028807E+04  0.00000000000E+00 0. -1.
    9900016    2    1    2    0    0 -0.54442302521E+03 -0.28251929337E+03  0.43224383084E+03  0.23262650258E+04  0.22019220376E+04 0.  0.
        -24    2    3    3    0    0 -0.85302632944E+03 -0.70534730385E+03  0.24343048479E+03  0.11364372841E+04  0.84039050447E+02 0.  0.
        -15    1    1    2    0    0 -0.63137084720E+03  0.74843497600E+03  0.14195756349E+03  0.98941195153E+03  0.00000000000E+00 0.  1.
        -15    1    3    3    0    0  0.20143727499E+03  0.45634431737E+03 -0.36457142521E+03  0.61785065819E+03  0.00000000000E+00 0.  1.
         15    1    1    2    0    0  0.27508286233E+03  0.27911920562E+03  0.35159977108E+03  0.52649834863E+03  0.00000000000E+00 0. -1.
         15    1    4    4    0    0 -0.13896172735E+03 -0.15546591491E+03  0.35681358938E+02  0.21154945460E+03  0.00000000000E+00 0. -1.
        -16    1    4    4    0    0 -0.71406460209E+03 -0.54988138894E+03  0.20774912586E+03  0.92488782950E+03  0.00000000000E+00 0.  1.
         16    1    1    2    0    0  0.90071101007E+03 -0.74503488825E+03 -0.41757251626E+03  0.12412590844E+04  0.00000000000E+00 0. -1.
    9900018    1    3    3    0    0  0.10716602924E+03 -0.33516306884E+02  0.55338477125E+03  0.57197708354E+03  0.91187600000E+02 0.  0.
<mgrwt>
<rscale>  0 0.28402572E+04</rscale>
<asrwt>0</asrwt>
<pdfrwt beam="1">  1        2 0.35193891E+00 0.35674939E+04</pdfrwt>
<pdfrwt beam="2">  1       -2 0.43012792E+00 0.35674939E+04</pdfrwt>
<totfact> 0.16881353E-02</totfact>
</mgrwt>
</event>
<event>
11    1  0.7438033E-011  0.5462653E+04  0.7818608E-02  0.7760849E-01
         -1   -1    0    0    0  501 -0.00000000000E+00  0.00000000000E+00  0.21109357538E+04  0.21109357538E+04  0.00000000000E+00 0.  1.
          1   -1    0    0  501    0  0.00000000000E+00 -0.00000000000E+00 -0.35340461661E+04  0.35340461661E+04  0.00000000000E+00 0. -1.
    9900016    2    1    2    0    0 -0.33305647172E+01 -0.81461372785E+03 -0.23065453914E+04  0.32905227131E+04  0.22008592559E+04 0.  0.
         24    2    3    3    0    0 -0.50201996209E+03 -0.10939838314E+04 -0.87907990273E+03  0.14926193043E+04  0.79411878160E+02 0.  0.
        -15    1    4    4    0    0 -0.24417726636E+03 -0.48178272198E+03 -0.35297199043E+03  0.64523356596E+03  0.00000000000E+00 0.  1.
        -15    1    1    2    0    0  0.31436606020E+03  0.65602877760E+02  0.53308685469E+02  0.32553275308E+03  0.00000000000E+00 0.  1.
         15    1    1    2    0    0 -0.61960811916E+03 -0.13843237614E+03 -0.16943533330E+03  0.65710431155E+03  0.00000000000E+00 0. -1.
         15    1    3    3    0    0  0.44660774403E+03 -0.25472617973E+03 -0.91896319349E+03  0.10530134162E+04  0.00000000000E+00 0. -1.
        -16    1    1    2    0    0  0.30857262367E+03  0.88744322624E+03  0.99956162691E+03  0.13718221422E+04  0.00000000000E+00 0.  1.
         16    1    4    4    0    0 -0.25784269573E+03 -0.61220110943E+03 -0.52610791230E+03  0.84738573832E+03  0.00000000000E+00 0. -1.
    9900018    1    3    3    0    0  0.52081653349E+02  0.53409628329E+03 -0.50850229522E+03  0.74488999260E+03  0.91187600000E+02 0.  0.
<mgrwt>
<rscale>  0 0.54626530E+04</rscale>
<asrwt>0</asrwt>
<pdfrwt beam="1">  1        1 0.54369940E+00 0.54626530E+04</pdfrwt>
<pdfrwt beam="2">  1       -1 0.32475935E+00 0.54626530E+04</pdfrwt>
<totfact> 0.37207671E-03</totfact>
</mgrwt>
</event>
<event>
11    1  0.7438033E-011  0.4752312E+04  0.7818608E-02  0.7867894E-01
         -2   -1    0    0    0  501 -0.00000000000E+00  0.00000000000E+00  0.18139393150E+04  0.18139393150E+04  0.00000000000E+00 0. -1.
          2   -1    0    0  501    0  0.00000000000E+00 -0.00000000000E+00 -0.31126268856E+04  0.31126268856E+04  0.00000000000E+00 0.  1.
    9900016    2    1    2    0    0 -0.30730630866E+03  0.44877839268E+03 -0.86785718144E+03  0.24226536824E+04  0.21955034877E+04 0.  0.
         24    2    3    3    0    0  0.36913579254E+03 -0.20359751549E+03  0.45677427634E+03  0.62690645867E+03  0.81583005263E+02 0.  0.
        -15    1    1    2    0    0  0.23092013830E+03 -0.54695415243E+03 -0.53893169803E+02  0.59614379883E+03  0.00000000000E+00 0.  1.
        -15    1    4    4    0    0  0.84212368560E+01 -0.98609020949E+01  0.42506317804E+02  0.44440315858E+02  0.00000000000E+00 0.  1.
         15    1    1    2    0    0 -0.39386729526E+03  0.86136043256E+03 -0.35372649013E+03  0.10110369285E+04  0.00000000000E+00 0. -1.
         15    1    3    3    0    0 -0.65158773318E+03  0.12245027369E+03 -0.60881275163E+03  0.90011866445E+03  0.00000000000E+00 0. -1.
        -16    1    1    2    0    0  0.47025346562E+03 -0.76318467281E+03 -0.23210729189E+02  0.89673179083E+03  0.00000000000E+00 0.  1.
         16    1    4    4    0    0  0.36071455569E+03 -0.19373661340E+03  0.41426795854E+03  0.58246614282E+03  0.00000000000E+00 0. -1.
    9900018    1    3    3    0    0 -0.24854368031E+02  0.52992563449E+03 -0.71581870616E+03  0.89562855927E+03  0.91187600000E+02 0.  0.
<mgrwt>
<rscale>  0 0.47523116E+04</rscale>
<asrwt>0</asrwt>
<pdfrwt beam="1">  1        2 0.47886568E+00 0.47523116E+04</pdfrwt>
<pdfrwt beam="2">  1       -2 0.27906759E+00 0.47523116E+04</pdfrwt>
<totfact> 0.46758073E-02</totfact>
</mgrwt>
</event>
<event>
11    1  0.7438033E-011  0.6145143E+04  0.7818608E-02  0.7672662E-01
          1   -1    0    0  501    0  0.00000000000E+00  0.00000000000E+00  0.34828891002E+04  0.34828891002E+04  0.00000000000E+00 0. -1.
         -1   -1    0    0    0  501 -0.00000000000E+00 -0.00000000000E+00 -0.27105929831E+04  0.27105929831E+04  0.00000000000E+00 0.  1.
    9900016    2    1    2    0    0 -0.93223115039E+03 -0.14343307657E+03  0.12263951160E+04  0.26873828410E+04  0.21973514940E+04 0.  0.
        -24    2    3    3    0    0 -0.10278076777E+04  0.74874787587E+03  0.50858220270E+03  0.13719705839E+04  0.81458101099E+02 0.  0.
        -15    1    3    3    0    0 -0.15613058624E+03 -0.57658905680E+03  0.15556657229E+03  0.61727842891E+03  0.00000000000E+00 0.  1.
        -15    1    1    2    0    0  0.48580318096E+03 -0.30896198069E+03 -0.12107145487E+04  0.13406311777E+04  0.00000000000E+00 0.  1.
         15    1    1    2    0    0  0.52159530066E+03  0.78601866123E+03 -0.35079731777E+03  0.10064520613E+04  0.00000000000E+00 0. -1.
         15    1    4    4    0    0 -0.77181876237E+03  0.59686357452E+03  0.36781830825E+03  0.10427083180E+04  0.00000000000E+00 0. -1.
        -16    1    4    4    0    0 -0.25598891537E+03  0.15188430134E+03  0.14076389445E+03  0.32926226593E+03  0.00000000000E+00 0.  1.
         16    1    1    2    0    0 -0.75167331232E+02 -0.33362360396E+03  0.11074128676E+04  0.11590160034E+04  0.00000000000E+00 0. -1.
    9900018    1    3    3    0    0  0.25170711358E+03 -0.31559189564E+03  0.56224634101E+03  0.69813382814E+03  0.91187600000E+02 0.  0.
<mgrwt>
<rscale>  0 0.61451427E+04</rscale>
<asrwt>0</asrwt>
<pdfrwt beam="1">  1        1 0.53582910E+00 0.61451427E+04</pdfrwt>
<pdfrwt beam="2">  1       -1 0.41701430E+00 0.61451427E+04</pdfrwt>
<totfact> 0.93170874E-04</totfact>
</mgrwt>
</event>
<event>
11    1  0.7438033E-011  0.3241219E+04  0.7818608E-02  0.8494299E-01
         -1   -1    0    0    0  501 -0.00000000000E+00  0.00000000000E+00  0.26861470551E+04  0.26861470551E+04  0.00000000000E+00 0.  1.
          1   -1    0    0  501    0  0.00000000000E+00 -0.00000000000E+00 -0.15361182284E+04  0.15361182284E+04  0.00000000000E+00 0. -1.
    9900016    2    1    2    0    0 -0.62691233984E+03 -0.10071924677E+03  0.59315728359E+03  0.23663578149E+04  0.22010566318E+04 0.  0.
         24    2    3    3    0    0 -0.94903141448E+02 -0.22868404879E+03  0.41929069539E+03  0.49295705413E+03  0.76804749514E+02 0.  0.
        -15    1    1    2    0    0 -0.44666746766E+02  0.58085435234E+03  0.33973619908E+03  0.67439423327E+03  0.00000000000E+00 0.  1.
        -15    1    4    4    0    0 -0.65734972899E+02 -0.13013023853E+03  0.31199297432E+03  0.34437564035E+03  0.00000000000E+00 0.  1.
         15    1    3    3    0    0 -0.85688741769E+03 -0.29252136842E+03 -0.48090496138E+03  0.10252289400E+04  0.00000000000E+00 0. -1.
         15    1    1    2    0    0 -0.16556427461E+03 -0.60239730072E+02  0.16836820961E+03  0.24369695959E+03  0.00000000000E+00 0. -1.
        -16    1    1    2    0    0  0.83714336121E+03 -0.41989537550E+03  0.48767134403E+02  0.93781627571E+03  0.00000000000E+00 0.  1.
         16    1    4    4    0    0 -0.29168168549E+02 -0.98553810262E+02  0.10729772106E+03  0.14858141377E+03  0.00000000000E+00 0. -1.
    9900018    1    3    3    0    0  0.32487821930E+03  0.42048617044E+03  0.65477154958E+03  0.84817182071E+03  0.91187600000E+02 0.  0.
<mgrwt>
<rscale>  0 0.22589150E+04</rscale>
<asrwt>0</asrwt>
<pdfrwt beam="1">  1        1 0.23632588E+00 0.32412188E+04</pdfrwt>
<pdfrwt beam="2">  1       -1 0.41325339E+00 0.32412188E+04</pdfrwt>
<totfact> 0.29108984E-02</totfact>
</mgrwt>
</event>
<event>
11    1  0.7438033E-011  0.3864283E+04  0.7818608E-02  0.8238306E-01
         -2   -1    0    0    0  501 -0.00000000000E+00  0.00000000000E+00  0.20656188852E+04  0.20656188852E+04  0.00000000000E+00 0. -1.
          2   -1    0    0  501    0  0.00000000000E+00 -0.00000000000E+00 -0.36154871169E+04  0.36154871169E+04  0.00000000000E+00 0.  1.
    9900016    2    1    2    0    0 -0.21327893271E+03 -0.38719462537E+03 -0.14486136557E+04  0.26715584135E+04  0.22007578813E+04 0.  0.
        -24    2    3    3    0    0 -0.66182756618E+03 -0.89853972748E+03 -0.11849855016E+04  0.16294835736E+04  0.75078016627E+02 0.  0.
        -15    1    3    3    0    0  0.63742841416E+03  0.35736689429E+03 -0.10750257480E+03  0.73863582630E+03  0.00000000000E+00 0.  1.
        -15    1    1    2    0    0  0.10254552657E+04 -0.15668368015E+01 -0.94614461984E+03  0.13952600469E+04  0.00000000000E+00 0.  1.
         15    1    1    2    0    0 -0.31816211980E+03 -0.19732105553E+03 -0.10961960499E+03  0.39010151401E+03  0.00000000000E+00 0. -1.
         15    1    4    4    0    0 -0.20131994753E+03 -0.28536409195E+03 -0.32209497113E+03  0.47508689382E+03  0.00000000000E+00 0. -1.
        -16    1    4    4    0    0 -0.46050761865E+03 -0.61317563553E+03 -0.86289053045E+03  0.11543966798E+04  0.00000000000E+00 0.  1.
         16    1    1    2    0    0 -0.49401421319E+03  0.58608251771E+03  0.95450964890E+03  0.12241860276E+04  0.00000000000E+00 0. -1.
    9900018    1    3    3    0    0 -0.18887978069E+03  0.15397820782E+03 -0.15612557934E+03  0.30343901357E+03  0.91187600000E+02 0.  0.
<mgrwt>
<rscale>  0 0.30190718E+04</rscale>
<asrwt>0</asrwt>
<pdfrwt beam="1">  1        2 0.55622878E+00 0.38642834E+04</pdfrwt>
<pdfrwt beam="2">  1       -2 0.31778752E+00 0.38642834E+04</pdfrwt>
<totfact> 0.12586847E-02</totfact>
</mgrwt>
</event>
<event>
11    1  0.7438033E-011  0.3471319E+04  0.7818608E-02  0.8272198E-01
         -1   -1    0    0    0  501 -0.00000000000E+00  0.00000000000E+00  0.22115649787E+04  0.22115649787E+04  0.00000000000E+00 0.  1.
          1   -1    0    0  501    0  0.00000000000E+00 -0.00000000000E+00 -0.30447889785E+04  0.30447889785E+04  0.00000000000E+00 0. -1.
    9900016    2    1    2    0    0 -0.11640547385E+03  0.13556402475E+03 -0.31958949418E+03  0.22308729718E+04  0.22006201245E+04 0.  0.
         24    2    3    3    0    0  0.55755143096E+03  0.35997833499E+03  0.25245823735E+03  0.71453785277E+03  0.79882298450E+02 0.  0.
        -15    1    1    2    0    0 -0.10869442161E+03 -0.20628733645E+03  0.28940548782E+03  0.37165101755E+03  0.00000000000E+00 0.  1.
        -15    1    4    4    0    0  0.16105601821E+03  0.11248121024E+03  0.37140503973E+02  0.19992618811E+03  0.00000000000E+00 0.  1.
         15    1    1    2    0    0 -0.72018235205E+03  0.89775835850E+03 -0.79320726419E+03  0.13977877001E+04  0.00000000000E+00 0. -1.
         15    1    3    3    0    0 -0.35050369390E+03 -0.10016274895E+03 -0.93668855143E+03  0.10051223100E+04  0.00000000000E+00 0. -1.
        -16    1    1    2    0    0  0.94528224750E+03 -0.82703504681E+03 -0.98327291924E+01  0.12560422679E+04  0.00000000000E+00 0.  1.
         16    1    4    4    0    0  0.39649541275E+03  0.24749712475E+03  0.21531773338E+03  0.51461166466E+03  0.00000000000E+00 0. -1.
    9900018    1    3    3    0    0 -0.32345321091E+03 -0.12425156128E+03  0.36464081990E+03  0.51121280897E+03  0.91187600000E+02 0.  0.
<mgrwt>
<rscale>  0 0.29022863E+04</rscale>
<asrwt>0</asrwt>
<pdfrwt beam="1">  1        1 0.46842907E+00 0.34713195E+04</pdfrwt>
<pdfrwt beam="2">  1       -1 0.34024077E+00 0.34713195E+04</pdfrwt>
<totfact> 0.77711858E-03</totfact>
</mgrwt>
</event>
