<event>
12    1  0.4031469E-011  0.4876154E+04  0.7818608E-02  0.7847901E-01
         -2   -1    0    0    0  501 -0.00000000000E+00  0.00000000000E+00  0.13753987351E+04  0.13753987351E+04  0.00000000000E+00 0.  1.
          2   -1    0    0  501    0  0.00000000000E+00 -0.00000000000E+00 -0.43218156415E+04  0.43218156415E+04  0.00000000000E+00 0. -1.
    9900016    2    1    2    0    0  0.72489696450E+03 -0.17438571085E+02  0.30445990717E+03  0.23664517358E+04  0.22319539130E+04 0.  0.
         23    2    3    3    0    0  0.33269203552E+02  0.13211170624E+02  0.11043748065E+02  0.99527561460E+02  0.92208438793E+02 0.  0.
        -24    2    3    3    0    0 -0.12242153128E+03  0.84648435845E+03  0.96538495140E+02  0.86430750329E+03  0.78644636116E+02 0.  0.
        -15    1    4    4    0    0 -0.25576087306E+02  0.28205594883E+02  0.65686089832E+01  0.38637267613E+02  0.00000000000E+00 0.  1.
        -15    1    3    3    0    0  0.50927688965E+02 -0.27411593600E+03 -0.20524496299E+03  0.34620611015E+03  0.00000000000E+00 0.  1.
         15    1    4    4    0    0  0.58845290858E+02 -0.14994424259E+02  0.44751390822E+01  0.60890293848E+02  0.00000000000E+00 0. -1.
         15    1    5    5    0    0 -0.63377364517E+02  0.45443179611E+03  0.91155320656E+02  0.46779722117E+03  0.00000000000E+00 0. -1.
        -16    1    5    5    0    0 -0.59044166764E+02  0.39205256234E+03  0.53831744838E+01  0.39651028213E+03  0.00000000000E+00 0.  1.
         16    1    1    2    0    0 -0.72489696450E+03  0.17438571085E+02 -0.32508768135E+04  0.33307626408E+04  0.00000000000E+00 0. -1.
    9900018    1    3    3    0    0  0.76312160326E+03 -0.60301816415E+03  0.40212262695E+03  0.10564105609E+04  0.91187600000E+02 0.  0.
<mgrwt>
<rscale>  0 0.48761541E+04</rscale>
<asrwt>0</asrwt>
<pdfrwt beam="1">  1        2 0.66489472E+00 0.48761541E+04</pdfrwt>
<pdfrwt beam="2">  1       -2 0.21159980E+00 0.48761541E+04</pdfrwt>
<totfact> 0.14790904E-02</totfact>
</mgrwt>
</event>
<event>
12    1  0.4214994E-011  0.3658645E+04  0.7818608E-02  0.8890985E-01
          1   -1    0    0  501    0  0.00000000000E+00  0.00000000000E+00  0.16036253087E+04  0.16036253087E+04  0.00000000000E+00 0. -1.
         -1   -1    0    0    0  501 -0.00000000000E+00 -0.00000000000E+00 -0.22666677854E+04  0.22666677854E+04  0.00000000000E+00 0.  1.
         23    2    1    2    0    0 -0.43134425457E+02 -0.61932603444E+01  0.89879738551E+02  0.13497850901E+03  0.90784885075E+02 0.  0.
    9900016    2    1    2    0    0 -0.21823149665E+03 -0.52866405852E+03  0.56176208207E+03  0.22921308482E+04  0.21473650169E+04 0.  0.
         24    2    4    4    0    0 -0.87843507854E+03 -0.86954185164E+03 -0.15591653248E+02  0.12389097720E+04  0.83084923556E+02 0.  0.
        -15    1    5    5    0    0 -0.15706349872E+03 -0.13308371534E+03  0.23964289657E+02  0.20725468655E+03  0.00000000000E+00 0.  1.
        -15    1    3    3    0    0  0.13976272258E+02  0.24223935721E+02  0.54439384713E+02  0.61202792878E+02  0.00000000000E+00 0.  1.
         15    1    4    4    0    0  0.29679923854E+03  0.39828774731E+03  0.27084001904E+03  0.56575368631E+03  0.00000000000E+00 0. -1.
         15    1    3    3    0    0 -0.57110697715E+02 -0.30417196066E+02  0.35440353838E+02  0.73775716128E+02  0.00000000000E+00 0. -1.
        -16    1    1    2    0    0  0.26136592211E+03  0.53485731887E+03 -0.13146842973E+04  0.14431837369E+04  0.00000000000E+00 0.  1.
         16    1    5    5    0    0 -0.72137157982E+03 -0.73645813630E+03 -0.39555942905E+02  0.10316550854E+04  0.00000000000E+00 0. -1.
    9900018    1    4    4    0    0  0.36340434334E+03 -0.57409954194E+02  0.30651371628E+03  0.48746738995E+03  0.91187600000E+02 0.  0.
<mgrwt>
<rscale>  0 0.14902166E+04</rscale>
<asrwt>0</asrwt>
<pdfrwt beam="1">  1        1 0.24671158E+00 0.36586450E+04</pdfrwt>
<pdfrwt beam="2">  1       -1 0.34871812E+00 0.36586450E+04</pdfrwt>
<totfact> 0.70369739E-02</totfact>
</mgrwt>
</event>
<event>
12    1  0.4031469E-011  0.2572687E+04  0.7818608E-02  0.9162162E-01
          2   -1    0    0  501    0  0.00000000000E+00  0.00000000000E+00  0.17952009849E+04  0.17952009849E+04  0.00000000000E+00 0. -1.
         -2   -1    0    0    0  501 -0.00000000000E+00 -0.00000000000E+00 -0.99561237882E+03  0.99561237882E+03  0.00000000000E+00 0.  1.
         23    2    1    2    0    0  0.34118466625E+02 -0.10507202783E+02  0.34779783358E+02  0.10685200434E+03  0.94515852781E+02 0.  0.
    9900016    2    1    2    0    0  0.11969312948E+03  0.29912729250E+03  0.44749310329E+03  0.22282763486E+04  0.21589724004E+04 0.  0.
        -24    2    4    4    0    0  0.17073661972E+03 -0.47581228796E+03  0.23968458550E+03  0.56525961581E+03  0.80755223076E+02 0.  0.
        -15    1    4    4    0    0 -0.50665364673E+03 -0.32740410787E+02  0.47333243030E+03  0.69412782815E+03  0.00000000000E+00 0.  1.
        -15    1    3    3    0    0  0.35405426013E+02  0.36473645660E+02  0.31364921702E+02  0.59729635293E+02  0.00000000000E+00 0. -1.
         15    1    3    3    0    0 -0.12869593876E+01 -0.46980848443E+02  0.34148616558E+01  0.47122369051E+02  0.00000000000E+00 0.  1.
         15    1    5    5    0    0  0.11742727360E+03 -0.37942797843E+03  0.21773417843E+03  0.45294914489E+03  0.00000000000E+00 0. -1.
        -16    1    5    5    0    0  0.53309346128E+02 -0.96384309527E+02  0.21950407065E+02  0.11231047092E+03  0.00000000000E+00 0.  1.
         16    1    1    2    0    0 -0.15381159610E+03 -0.28862008972E+03  0.31731571946E+03  0.45568501083E+03  0.00000000000E+00 0. -1.
    9900018    1    4    4    0    0  0.45561015648E+03  0.80767999124E+03 -0.26552391251E+03  0.96888890460E+03  0.91187600000E+02 0.  0.
<mgrwt>
<rscale>  0 0.11452657E+04</rscale>
<asrwt>0</asrwt>
<pdfrwt beam="1">  1        2 0.27618477E+00 0.25726865E+04</pdfrwt>
<pdfrwt beam="2">  1       -2 0.15317114E+00 0.25726865E+04</pdfrwt>
<totfact> 0.21737359E+00</totfact>
</mgrwt>
</event>
<event>
12    1  0.4031469E-011  0.2543696E+04  0.7818608E-02  0.8387582E-01
         -1   -1    0    0    0  501 -0.00000000000E+00  0.00000000000E+00  0.10491222359E+04  0.10491222359E+04  0.00000000000E+00 0.  1.
          1   -1    0    0  501    0  0.00000000000E+00 -0.00000000000E+00 -0.15418580674E+04  0.15418580674E+04  0.00000000000E+00 0. -1.
    9900016    2    1    2    0    0 -0.20419793927E+03  0.87122785393E+02 -0.29019259848E+03  0.22904625179E+04  0.22611323764E+04 0.  0.
         23    2    3    3    0    0 -0.76068049321E+02 -0.43539147344E+01 -0.62024753821E+02  0.13395043149E+03  0.91051322387E+02 0.  0.
        -24    2    3    3    0    0 -0.62472285845E+03 -0.27406176922E+02  0.67266195865E+03  0.92186489460E+03  0.79567737648E+02 0.  0.
        -15    1    4    4    0    0 -0.26738724285E+02 -0.12687957336E+02  0.21505395878E+02  0.36584500675E+02  0.00000000000E+00 0.  1.
        -15    1    3    3    0    0 -0.14727072852E+03  0.12375142832E+03 -0.17426951071E+03  0.25956299015E+03  0.00000000000E+00 0.  1.
         15    1    4    4    0    0 -0.49329325035E+02  0.83340426016E+01 -0.83530149699E+02  0.97365930814E+02  0.00000000000E+00 0. -1.
         15    1    5    5    0    0 -0.45739801468E+03  0.15309958783E+02  0.49165574318E+03  0.67169390980E+03  0.00000000000E+00 0. -1.
        -16    1    5    5    0    0 -0.16732484377E+03 -0.42716135705E+02  0.18100621547E+03  0.25017098479E+03  0.00000000000E+00 0.  1.
         16    1    1    2    0    0  0.20419793927E+03 -0.87122785393E+02 -0.20254323302E+03  0.30051778546E+03  0.00000000000E+00 0. -1.
    9900018    1    3    3    0    0  0.64386369703E+03 -0.48685512738E+01 -0.72656029260E+03  0.97508420166E+03  0.91187600000E+02 0.  0.
<mgrwt>
<rscale>  0 0.25436962E+04</rscale>
<asrwt>0</asrwt>
<pdfrwt beam="1">  1        1 0.23720893E+00 0.25436962E+04</pdfrwt>
<pdfrwt beam="2">  1       -1 0.16140342E+00 0.25436962E+04</pdfrwt>
<totfact> 0.15445835E+00</totfact>
</mgrwt>
</event>
<event>
12    1  0.4031469E-011  0.3626799E+04  0.7818608E-02  0.8913674E-01
          2   -1    0    0  501    0  0.00000000000E+00  0.00000000000E+00  0.11518975446E+04  0.11518975446E+04  0.00000000000E+00 0. -1.
         -2   -1    0    0    0  501 -0.00000000000E+00 -0.00000000000E+00 -0.30054435911E+04  0.30054435911E+04  0.00000000000E+00 0.  1.
         23    2    1    2    0    0 -0.38043693018E+02  0.19666810697E+01 -0.50427532237E+02  0.10704428369E+03  0.86396482858E+02 0.  0.
    9900016    2    1    2    0    0 -0.10210908828E+04 -0.35895337129E+03 -0.16394272405E+04  0.29206949842E+04  0.21613105747E+04 0.  0.
        -24    2    4    4    0    0  0.21101596306E+03  0.13460521778E+01  0.24200509052E+03  0.33094666033E+03  0.80185283078E+02 0.  0.
        -15    1    3    3    0    0 -0.42959837926E+02 -0.24391443710E+02  0.59577766694E+00  0.49404910201E+02  0.00000000000E+00 0. -1.
        -15    1    4    4    0    0 -0.29200837540E+03  0.36005820317E+03 -0.10261621776E+04  0.11260193673E+04  0.00000000000E+00 0.  1.
         15    1    5    5    0    0  0.13315863445E+02  0.21042982028E+02  0.43323088568E+02  0.49970084200E+02  0.00000000000E+00 0. -1.
         15    1    3    3    0    0  0.49161449085E+01  0.26358124780E+02 -0.51023309904E+02  0.57639373489E+02  0.00000000000E+00 0.  1.
        -16    1    5    5    0    0  0.19770009961E+03 -0.19696929850E+02  0.19868200195E+03  0.28097657613E+03  0.00000000000E+00 0.  1.
         16    1    1    2    0    0  0.10591345758E+04  0.35698669022E+03 -0.16369127376E+03  0.11296018678E+04  0.00000000000E+00 0. -1.
    9900018    1    4    4    0    0 -0.94009847043E+03 -0.72035762664E+03 -0.85527015349E+03  0.14637289565E+04  0.91187600000E+02 0.  0.
<mgrwt>
<rscale>  0 0.14568373E+04</rscale>
<asrwt>0</asrwt>
<pdfrwt beam="1">  1        2 0.17721500E+00 0.36267986E+04</pdfrwt>
<pdfrwt beam="2">  1       -2 0.46237594E+00 0.36267986E+04</pdfrwt>
<totfact> 0.47177398E-02</totfact>
</mgrwt>
</event>
<event>
12    1  0.4031469E-011  0.2603689E+04  0.7818608E-02  0.8366949E-01
         -2   -1    0    0    0  501 -0.00000000000E+00  0.00000000000E+00  0.60219759187E+03  0.60219759187E+03  0.00000000000E+00 0.  1.
          2   -1    0    0  501    0  0.00000000000E+00 -0.00000000000E+00 -0.28143582286E+04  0.28143582286E+04  0.00000000000E+00 0. -1.
    9900016    2    1    2    0    0  0.31233814849E+03  0.39791449216E+02 -0.18303016835E+04  0.29216267967E+04  0.22553847583E+04 0.  0.
         23    2    3    3    0    0  0.35781256562E+02 -0.49736067254E+02 -0.47401050090E+02  0.11931123408E+03  0.90743243937E+02 0.  0.
        -24    2    3    3    0    0 -0.68682274066E+03  0.54174608443E+02 -0.16401166681E+04  0.17807279351E+04  0.79680164230E+02 0.  0.
        -15    1    3    3    0    0  0.67967621971E+03  0.10027645303E+03 -0.53258552979E+01  0.68705421577E+03  0.00000000000E+00 0.  1.
        -15    1    4    4    0    0  0.48196561209E+02 -0.63783667617E+02 -0.57061890854E+02  0.98220792884E+02  0.00000000000E+00 0. -1.
         15    1    4    4    0    0 -0.12415304647E+02  0.14047600363E+02  0.96608407637E+01  0.21090441193E+02  0.00000000000E+00 0.  1.
         15    1    5    5    0    0 -0.31195580536E+03  0.19998355525E+02 -0.64391091319E+03  0.71577763505E+03  0.00000000000E+00 0. -1.
        -16    1    5    5    0    0 -0.37486693530E+03  0.34176252918E+02 -0.99620575487E+03  0.10649503000E+04  0.00000000000E+00 0.  1.
         16    1    1    2    0    0 -0.31233814849E+03 -0.39791449216E+02 -0.38185895324E+03  0.49492902380E+03  0.00000000000E+00 0. -1.
    9900018    1    3    3    0    0  0.28370341287E+03 -0.64923544999E+02 -0.13745811003E+03  0.33453341175E+03  0.91187600000E+02 0.  0.
<mgrwt>
<rscale>  0 0.26036895E+04</rscale>
<asrwt>0</asrwt>
<pdfrwt beam="1">  1        2 0.43297818E+00 0.26036895E+04</pdfrwt>
<pdfrwt beam="2">  1       -2 0.92645785E-01 0.26036895E+04</pdfrwt>
<totfact> 0.19801786E+00</totfact>
</mgrwt>
</event>
<event>
12    1  0.4031469E-011  0.2661978E+04  0.7818608E-02  0.8347448E-01
         -1   -1    0    0    0  501 -0.00000000000E+00  0.00000000000E+00  0.12794256040E+04  0.12794256040E+04  0.00000000000E+00 0.  1.
          1   -1    0    0  501    0  0.00000000000E+00 -0.00000000000E+00 -0.13846305609E+04  0.13846305609E+04  0.00000000000E+00 0. -1.
    9900016    2    1    2    0    0 -0.12821338128E+03  0.18054508363E+03 -0.40301822040E+03  0.22929390160E+04  0.22463549245E+04 0.  0.
         23    2    3    3    0    0 -0.33046388747E+02 -0.30146650462E+01  0.48305076174E+01  0.10528591474E+03  0.99802996068E+02 0.  0.
         24    2    3    3    0    0 -0.74811797642E+02  0.10732055487E+04  0.76252473509E+02  0.10814473692E+04  0.79668172720E+02 0.  0.
        -15    1    5    5    0    0 -0.55480030210E+02  0.43116471986E+03  0.60616475972E+02  0.43892528586E+03  0.00000000000E+00 0.  1.
        -15    1    4    4    0    0  0.11341827290E+02 -0.43078043961E+02 -0.44801446581E+01  0.44770823244E+02  0.00000000000E+00 0.  1.
         15    1    3    3    0    0 -0.16800965117E+03 -0.68538452874E+03 -0.24490935110E+03  0.74696705776E+03  0.00000000000E+00 0. -1.
         15    1    4    4    0    0 -0.44388216036E+02  0.40063378915E+02  0.93106522754E+01  0.60515091496E+02  0.00000000000E+00 0. -1.
        -16    1    1    2    0    0  0.12821338128E+03 -0.18054508363E+03  0.29781326346E+03  0.37111714897E+03  0.00000000000E+00 0.  1.
         16    1    5    5    0    0 -0.19331767432E+02  0.64204082884E+03  0.15635997537E+02  0.64252208331E+03  0.00000000000E+00 0. -1.
    9900018    1    3    3    0    0  0.14765445628E+03 -0.20426127128E+03 -0.23919185043E+03  0.35923867430E+03  0.91187600000E+02 0.  0.
<mgrwt>
<rscale>  0 0.26619781E+04</rscale>
<asrwt>0</asrwt>
<pdfrwt beam="1">  1        1 0.21302009E+00 0.26619781E+04</pdfrwt>
<pdfrwt beam="2">  1       -1 0.19683471E+00 0.26619781E+04</pdfrwt>
<totfact> 0.10923135E+00</totfact>
</mgrwt>
</event>
<event>
12    1  0.4031469E-011  0.3297133E+04  0.7818608E-02  0.8163625E-01
          1   -1    0    0  501    0  0.00000000000E+00  0.00000000000E+00  0.18999404958E+04  0.18999404958E+04  0.00000000000E+00 0. -1.
         -1   -1    0    0    0  501 -0.00000000000E+00 -0.00000000000E+00 -0.14304504945E+04  0.14304504945E+04  0.00000000000E+00 0.  1.
    9900016    2    1    2    0    0  0.47918591921E+03  0.45518385945E+03 -0.24629814877E+03  0.23561404235E+04  0.22480932868E+04 0.  0.
         23    2    3    3    0    0 -0.11117332843E+02 -0.41298931535E+00 -0.49669190336E+02  0.10544598005E+03  0.92347499104E+02 0.  0.
        -24    2    3    3    0    0  0.12641764153E+03 -0.52834331392E+02 -0.40368345593E+03  0.43367289115E+03  0.79617568822E+02 0.  0.
        -15    1    3    3    0    0  0.33841531391E+03  0.93385777090E+02  0.92108384092E+03  0.98571865664E+03  0.00000000000E+00 0.  1.
        -15    1    4    4    0    0  0.34067107982E+02 -0.22212461327E+01 -0.49614408507E+02  0.60225337792E+02  0.00000000000E+00 0.  1.
         15    1    5    5    0    0  0.10572179794E+03 -0.86383989584E+01 -0.31593688014E+03  0.33326840944E+03  0.00000000000E+00 0. -1.
         15    1    4    4    0    0 -0.45184440825E+02  0.18082568174E+01 -0.54781829226E-01  0.45220642260E+02  0.00000000000E+00 0. -1.
        -16    1    5    5    0    0  0.20695843591E+02 -0.44195932433E+02 -0.87746575786E+02  0.10040448171E+03  0.00000000000E+00 0.  1.
         16    1    1    2    0    0 -0.47918591921E+03 -0.45518385945E+03  0.71578815008E+03  0.97425056678E+03  0.00000000000E+00 0. -1.
    9900018    1    3    3    0    0  0.25470296618E+02  0.41504540307E+03 -0.71402934343E+03  0.83130289564E+03  0.91187600000E+02 0.  0.
<mgrwt>
<rscale>  0 0.32971326E+04</rscale>
<asrwt>0</asrwt>
<pdfrwt beam="1">  1        1 0.29229853E+00 0.32971326E+04</pdfrwt>
<pdfrwt beam="2">  1       -1 0.22006931E+00 0.32971326E+04</pdfrwt>
<totfact> 0.31788691E-01</totfact>
</mgrwt>
</event>
<event>
12    1  0.4031469E-011  0.2672130E+04  0.7818608E-02  0.8344105E-01
         -1   -1    0    0    0  501 -0.00000000000E+00  0.00000000000E+00  0.11330224175E+04  0.11330224175E+04  0.00000000000E+00 0.  1.
          1   -1    0    0  501    0  0.00000000000E+00 -0.00000000000E+00 -0.15754941014E+04  0.15754941014E+04  0.00000000000E+00 0. -1.
    9900016    2    1    2    0    0 -0.31827122904E+03 -0.77578966226E+02 -0.17706794211E+03  0.22869074377E+04  0.22563859380E+04 0.  0.
         23    2    3    3    0    0 -0.71303167583E+02 -0.41245260784E+02  0.84537017258E+00  0.12302069357E+03  0.91367735828E+02 0.  0.
        -24    2    3    3    0    0  0.21794835394E+03 -0.34480072198E+03 -0.18780973991E+03  0.45594666897E+03  0.78904015566E+02 0.  0.
        -15    1    3    3    0    0 -0.98031672580E+03 -0.17328756765E+03 -0.23494192583E+02  0.99579186634E+03  0.00000000000E+00 0.  1.
        -15    1    4    4    0    0 -0.58792742247E+02  0.73754592018E+01 -0.27547040920E+02  0.65343885734E+02  0.00000000000E+00 0.  1.
         15    1    5    5    0    0  0.25237901039E+02 -0.99236382500E+02 -0.59700573758E+02  0.11852835006E+03  0.00000000000E+00 0. -1.
         15    1    4    4    0    0 -0.12510425336E+02 -0.48620719986E+02  0.28392411093E+02  0.57676807832E+02  0.00000000000E+00 0. -1.
        -16    1    5    5    0    0  0.19271045290E+03 -0.24556433948E+03 -0.12810916615E+03  0.33741831891E+03  0.00000000000E+00 0.  1.
         16    1    1    2    0    0  0.31827122904E+03  0.77578966226E+02 -0.26540374184E+03  0.42160908128E+03  0.00000000000E+00 0. -1.
    9900018    1    3    3    0    0  0.51540031040E+03  0.48175458419E+03  0.33390620211E+02  0.71214820878E+03  0.91187600000E+02 0.  0.
<mgrwt>
<rscale>  0 0.26721303E+04</rscale>
<asrwt>0</asrwt>
<pdfrwt beam="1">  1        1 0.24238371E+00 0.26721303E+04</pdfrwt>
<pdfrwt beam="2">  1       -1 0.17431114E+00 0.26721303E+04</pdfrwt>
<totfact> 0.11618407E+00</totfact>
</mgrwt>
</event>
<event>
12    1  0.4031469E-011  0.3172063E+04  0.7818608E-02  0.8196235E-01
          2   -1    0    0  501    0  0.00000000000E+00  0.00000000000E+00  0.20540387952E+04  0.20540387952E+04  0.00000000000E+00 0. -1.
         -2   -1    0    0    0  501 -0.00000000000E+00 -0.00000000000E+00 -0.12246580933E+04  0.12246580933E+04  0.00000000000E+00 0.  1.
    9900016    2    1    2    0    0  0.36381403636E+03 -0.47794294762E+03  0.11670022575E+04  0.25896552141E+04  0.22324044760E+04 0.  0.
         23    2    3    3    0    0  0.16483412023E+02 -0.77768289331E+01  0.59063183420E+02  0.10936747306E+03  0.90225287962E+02 0.  0.
         24    2    3    3    0    0 -0.26271358364E+03  0.54130016041E+03 -0.20649591771E+03  0.64103276562E+03  0.79108481752E+02 0.  0.
        -15    1    5    5    0    0 -0.57756966789E+02  0.11724933125E+03 -0.80433870596E+02  0.15346947719E+03  0.00000000000E+00 0.  1.
        -15    1    4    4    0    0  0.24354356562E+02 -0.40410705563E+02  0.74047410203E+01  0.47759711025E+02  0.00000000000E+00 0.  1.
         15    1    4    4    0    0 -0.78709445396E+01  0.32633876630E+02  0.51658442400E+02  0.61607762035E+02  0.00000000000E+00 0. -1.
         15    1    3    3    0    0  0.23350283314E+03 -0.41587096739E+03  0.89506895358E+03  0.10142093799E+04  0.00000000000E+00 0. -1.
        -16    1    1    2    0    0 -0.36381403636E+03  0.47794294762E+03 -0.33762155555E+03  0.68904167436E+03  0.00000000000E+00 0.  1.
         16    1    5    5    0    0 -0.20495661685E+03  0.42405082916E+03 -0.12606204711E+03  0.48756328843E+03  0.00000000000E+00 0. -1.
    9900018    1    3    3    0    0  0.37654137483E+03 -0.59559531170E+03  0.41936603816E+03  0.82504559549E+03  0.91187600000E+02 0.  0.
<mgrwt>
<rscale>  0 0.31720626E+04</rscale>
<asrwt>0</asrwt>
<pdfrwt beam="1">  1        2 0.31600597E+00 0.31720626E+04</pdfrwt>
<pdfrwt beam="2">  1       -2 0.18840894E+00 0.31720626E+04</pdfrwt>
<totfact> 0.83590418E-01</totfact>
</mgrwt>
</event>
<event>
12    1  0.4031469E-011  0.3375420E+04  0.7818608E-02  0.8143966E-01
         -1   -1    0    0    0  501 -0.00000000000E+00  0.00000000000E+00  0.25428198980E+04  0.25428198980E+04  0.00000000000E+00 0.  1.
          1   -1    0    0  501    0  0.00000000000E+00 -0.00000000000E+00 -0.11201597076E+04  0.11201597076E+04  0.00000000000E+00 0. -1.
    9900016    2    1    2    0    0  0.50545370449E+03 -0.36028963262E+03  0.26130728870E+03  0.23461528785E+04  0.22474117921E+04 0.  0.
         23    2    3    3    0    0  0.34451275588E+02  0.75446792684E+00  0.59871652358E+02  0.11421001915E+03  0.90949733957E+02 0.  0.
         24    2    3    3    0    0  0.32581045358E+03 -0.10980307397E+04  0.29594202219E+03  0.11852820549E+04  0.74080444221E+02 0.  0.
        -15    1    4    4    0    0  0.44428156145E+02 -0.21100529636E+02  0.72079772182E+02  0.87261600760E+02  0.00000000000E+00 0.  1.
        -15    1    5    5    0    0  0.25222003955E+03 -0.84331105580E+03  0.19487031473E+03  0.90153365147E+03  0.00000000000E+00 0.  1.
         15    1    3    3    0    0  0.18545277005E+03  0.51818039859E+03 -0.38344038285E+03  0.67076835241E+03  0.00000000000E+00 0. -1.
         15    1    4    4    0    0 -0.99768805571E+01  0.21854997563E+02 -0.12208119824E+02  0.26948418391E+02  0.00000000000E+00 0. -1.
        -16    1    1    2    0    0 -0.50545370449E+03  0.36028963262E+03  0.11613529017E+04  0.13168267271E+04  0.00000000000E+00 0.  1.
         16    1    5    5    0    0  0.73590414030E+02 -0.25471968388E+03  0.10107170746E+03  0.28374840342E+03  0.00000000000E+00 0. -1.
    9900018    1    3    3    0    0 -0.40260794724E+02  0.21880624054E+03  0.28893399700E+03  0.37589245205E+03  0.91187600000E+02 0.  0.
<mgrwt>
<rscale>  0 0.33754196E+04</rscale>
<asrwt>0</asrwt>
<pdfrwt beam="1">  1        1 0.17233226E+00 0.33754196E+04</pdfrwt>
<pdfrwt beam="2">  1       -1 0.39120306E+00 0.33754196E+04</pdfrwt>
<totfact> 0.82842282E-02</totfact>
</mgrwt>
</event>
<event>
12    1  0.4031469E-011  0.3467500E+04  0.7818608E-02  0.8121536E-01
          1   -1    0    0  501    0  0.00000000000E+00  0.00000000000E+00  0.10055134057E+04  0.10055134057E+04  0.00000000000E+00 0. -1.
         -1   -1    0    0    0  501 -0.00000000000E+00 -0.00000000000E+00 -0.29894070143E+04  0.29894070143E+04  0.00000000000E+00 0.  1.
    9900016    2    1    2    0    0  0.20995256995E+03 -0.65066276627E+03 -0.55296398239E+03  0.24090447275E+04  0.22428297341E+04 0.  0.
         23    2    3    3    0    0  0.14370467961E+02 -0.34754311845E+01  0.12639526236E+02  0.86229532256E+02  0.84007057074E+02 0.  0.
         24    2    3    3    0    0 -0.45180178317E+03  0.54699933515E+03 -0.14667271215E+03  0.72894436719E+03  0.80708624320E+02 0.  0.
        -15    1    5    5    0    0 -0.74453332332E+02  0.13055207236E+03 -0.52093244816E+02  0.15906240426E+03  0.00000000000E+00 0.  1.
        -15    1    4    4    0    0  0.39606437648E+02  0.19662856673E+02 -0.98022279904E+01  0.45292179339E+02  0.00000000000E+00 0. -1.
         15    1    3    3    0    0  0.72520694163E+03 -0.10922448479E+04 -0.51601309378E+03  0.14089689241E+04  0.00000000000E+00 0. -1.
         15    1    4    4    0    0 -0.25235969687E+02 -0.23138287857E+02  0.22441754226E+02  0.40937352916E+02  0.00000000000E+00 0.  1.
        -16    1    1    2    0    0 -0.20995256995E+03  0.65066276627E+03 -0.14309296262E+04  0.15858756925E+04  0.00000000000E+00 0.  1.
         16    1    5    5    0    0 -0.37734845084E+03  0.41644726279E+03 -0.94579467334E+02  0.56988196293E+03  0.00000000000E+00 0. -1.
    9900018    1    3    3    0    0 -0.77823056477E+02 -0.10194182232E+03  0.97082297306E+02  0.18490190399E+03  0.91187600000E+02 0.  0.
<mgrwt>
<rscale>  0 0.34674999E+04</rscale>
<asrwt>0</asrwt>
<pdfrwt beam="1">  1        1 0.15469437E+00 0.34674999E+04</pdfrwt>
<pdfrwt beam="2">  1       -1 0.45990877E+00 0.34674999E+04</pdfrwt>
<totfact> 0.33867520E-02</totfact>
</mgrwt>
</event>
<event>
12    1  0.4031469E-011  0.3070632E+04  0.7818608E-02  0.8223844E-01
          1   -1    0    0  501    0  0.00000000000E+00  0.00000000000E+00  0.10361230506E+04  0.10361230506E+04  0.00000000000E+00 0. -1.
         -1   -1    0    0    0  501 -0.00000000000E+00 -0.00000000000E+00 -0.22750143912E+04  0.22750143912E+04  0.00000000000E+00 0.  1.
    9900016    2    1    2    0    0  0.28766738454E+02  0.62119678079E+03 -0.57474159938E+03  0.24012979809E+04  0.22470405251E+04 0.  0.
         23    2    3    3    0    0  0.32545909864E+02  0.40403766604E+02 -0.31612101855E+02  0.11116948269E+03  0.93100098241E+02 0.  0.
         24    2    3    3    0    0 -0.54210047604E+03 -0.45473274925E+03  0.24959386014E+03  0.75455435439E+03  0.80002370917E+02 0.  0.
        -15    1    5    5    0    0 -0.44535646724E+03 -0.35046426256E+03  0.22721036721E+03  0.61056705874E+03  0.00000000000E+00 0.  1.
        -15    1    4    4    0    0  0.59602925321E+02  0.30874964929E+02 -0.43640159542E+02  0.80063947511E+02  0.00000000000E+00 0.  1.
         15    1    4    4    0    0 -0.27057015457E+02  0.95288016748E+01  0.12028057687E+02  0.31105535175E+02  0.00000000000E+00 0. -1.
         15    1    3    3    0    0  0.20846754358E+03  0.68858052522E+03 -0.76095194181E+03  0.10472104441E+04  0.00000000000E+00 0. -1.
        -16    1    1    2    0    0 -0.28766738454E+02 -0.62119678079E+03 -0.66414974122E+03  0.90983946083E+03  0.00000000000E+00 0.  1.
         16    1    5    5    0    0 -0.96744008799E+02 -0.10426848669E+03  0.22383492926E+02  0.14398729566E+03  0.00000000000E+00 0. -1.
    9900018    1    3    3    0    0  0.32985376105E+03  0.34694523823E+03 -0.31771415853E+02  0.48836369978E+03  0.91187600000E+02 0.  0.
<mgrwt>
<rscale>  0 0.30706318E+04</rscale>
<asrwt>0</asrwt>
<pdfrwt beam="1">  1        1 0.15940355E+00 0.30706318E+04</pdfrwt>
<pdfrwt beam="2">  1       -1 0.35000221E+00 0.30706318E+04</pdfrwt>
<totfact> 0.18636264E-01</totfact>
</mgrwt>
</event>
<event>
12    1  0.4031469E-011  0.2563856E+04  0.7818608E-02  0.8380583E-01
          4   -1    0    0  501    0  0.00000000000E+00  0.00000000000E+00  0.17747129515E+04  0.17747129515E+04  0.00000000000E+00 0.  1.
         -4   -1    0    0    0  501 -0.00000000000E+00 -0.00000000000E+00 -0.92597481617E+03  0.92597481617E+03  0.00000000000E+00 0. -1.
    9900016    2    1    2    0    0  0.51658604697E+02 -0.46643002704E+02  0.45324301139E+03  0.22991151414E+04  0.22529218861E+04 0.  0.
         23    2    3    3    0    0  0.26871547470E+02 -0.19139198536E+02 -0.28418619423E+02  0.10128196449E+03  0.91444132766E+02 0.  0.
         24    2    3    3    0    0  0.62556945768E+03  0.38957777063E+03 -0.30757433690E+03  0.80359359258E+03  0.89736857326E+02 0.  0.
        -15    1    4    4    0    0 -0.12810896727E+02 -0.38791144712E+02 -0.38203346766E+02  0.55931812837E+02  0.00000000000E+00 0.  1.
        -15    1    5    5    0    0  0.18394440073E+03  0.14999095194E+03 -0.13062089209E+03  0.27091446192E+03  0.00000000000E+00 0.  1.
         15    1    3    3    0    0 -0.27205894086E+02 -0.17583510232E+03  0.74260286490E+03  0.76362108329E+03  0.00000000000E+00 0. -1.
         15    1    4    4    0    0  0.39682444197E+02  0.19651946177E+02  0.97847273435E+01  0.45350151655E+02  0.00000000000E+00 0. -1.
        -16    1    1    2    0    0 -0.51658604697E+02  0.46643002704E+02  0.39549512397E+03  0.40157262634E+03  0.00000000000E+00 0.  1.
         16    1    5    5    0    0  0.44162505695E+03  0.23958681869E+03 -0.17695344481E+03  0.53267913066E+03  0.00000000000E+00 0. -1.
    9900018    1    3    3    0    0 -0.57357650637E+03 -0.24124647249E+03  0.46633102818E+02  0.63061850101E+03  0.91187600000E+02 0.  0.
<mgrwt>
<rscale>  0 0.25638561E+04</rscale>
<asrwt>0</asrwt>
<pdfrwt beam="1">  1        4 0.27303276E+00 0.25638561E+04</pdfrwt>
<pdfrwt beam="2">  1       -4 0.14245766E+00 0.25638561E+04</pdfrwt>
<totfact> 0.27446772E-02</totfact>
</mgrwt>
</event>
<event>
12    1  0.4031469E-011  0.3042303E+04  0.7818608E-02  0.9042382E-01
          2   -1    0    0  501    0  0.00000000000E+00  0.00000000000E+00  0.20469850058E+04  0.20469850058E+04  0.00000000000E+00 0. -1.
         -2   -1    0    0    0  501 -0.00000000000E+00 -0.00000000000E+00 -0.12044637589E+04  0.12044637589E+04  0.00000000000E+00 0.  1.
         23    2    1    2    0    0  0.13148101125E+02 -0.24836049915E+02  0.84618331441E+01  0.96886325527E+02  0.92334476310E+02 0.  0.
    9900016    2    1    2    0    0  0.67092812314E+03  0.81533399811E+01  0.97028704723E+03  0.24568543616E+04  0.21551021731E+04 0.  0.
         24    2    4    4    0    0  0.10069491090E+04 -0.76180242667E+03  0.47773924268E+03  0.13523522651E+04  0.79576500735E+02 0.  0.
        -15    1    5    5    0    0  0.57446527469E+03 -0.47689590075E+03  0.26081644912E+03  0.79086362421E+03  0.00000000000E+00 0.  1.
        -15    1    3    3    0    0 -0.29105387087E+02 -0.15528620913E+02 -0.25652152510E+02  0.41788689299E+02  0.00000000000E+00 0.  1.
         15    1    4    4    0    0 -0.99701807061E+02  0.71569369112E+03  0.30323819233E+03  0.78365254490E+03  0.00000000000E+00 0. -1.
         15    1    3    3    0    0  0.42253488211E+02 -0.93074290018E+01  0.34113985655E+02  0.55097636228E+02  0.00000000000E+00 0. -1.
        -16    1    1    2    0    0 -0.68407622426E+03  0.16682709934E+02 -0.13622763348E+03  0.69770807759E+03  0.00000000000E+00 0.  1.
         16    1    5    5    0    0  0.43248383431E+03 -0.28490652592E+03  0.21692279356E+03  0.56148864086E+03  0.00000000000E+00 0. -1.
    9900018    1    4    4    0    0 -0.23631917880E+03  0.54262075529E+02  0.18930961221E+03  0.32084955163E+03  0.91187600000E+02 0.  0.
<mgrwt>
<rscale>  0 0.12839610E+04</rscale>
<asrwt>0</asrwt>
<pdfrwt beam="1">  1        2 0.31492077E+00 0.30423033E+04</pdfrwt>
<pdfrwt beam="2">  1       -2 0.18530212E+00 0.30423033E+04</pdfrwt>
<totfact> 0.89168877E-01</totfact>
</mgrwt>
</event>
<event>
12    1  0.4031469E-011  0.3737298E+04  0.7818608E-02  0.8059746E-01
          2   -1    0    0  501    0  0.00000000000E+00  0.00000000000E+00  0.21399135462E+04  0.21399135462E+04  0.00000000000E+00 0. -1.
         -2   -1    0    0    0  501 -0.00000000000E+00 -0.00000000000E+00 -0.16317714796E+04  0.16317714796E+04  0.00000000000E+00 0.  1.
    9900016    2    1    2    0    0  0.50403901029E+03 -0.47279960399E+03  0.13275634796E+04  0.26997492808E+04  0.22469149065E+04 0.  0.
         23    2    3    3    0    0  0.47250888281E+02 -0.53510805216E+02  0.11431922859E+03  0.16164745584E+03  0.89246631500E+02 0.  0.
         24    2    3    3    0    0 -0.51405710399E+02  0.50750386115E+03  0.29326450500E+03  0.59333755188E+03  0.76437323549E+02 0.  0.
        -15    1    4    4    0    0 -0.13627578754E+02 -0.15629781249E+02 -0.59969832901E+01  0.21586217204E+02  0.00000000000E+00 0.  1.
        -15    1    5    5    0    0  0.83744285782E-01  0.12739310237E+03  0.39362083586E+02  0.13333560353E+03  0.00000000000E+00 0.  1.
         15    1    3    3    0    0  0.28063603628E+03  0.13132672726E+03 -0.21242576928E+03  0.37567007015E+03  0.00000000000E+00 0. -1.
         15    1    4    4    0    0  0.60878467035E+02 -0.37881023967E+02  0.12031621188E+03  0.14006123863E+03  0.00000000000E+00 0. -1.
        -16    1    1    2    0    0 -0.50403901029E+03  0.47279960399E+03 -0.81942141305E+03  0.10719357451E+04  0.00000000000E+00 0.  1.
         16    1    5    5    0    0 -0.51489454685E+02  0.38011075879E+03  0.25390242141E+03  0.46000194835E+03  0.00000000000E+00 0. -1.
    9900018    1    3    3    0    0  0.22755779613E+03 -0.10581193872E+04  0.11324055153E+04  0.15690942029E+04  0.91187600000E+02 0.  0.
<mgrwt>
<rscale>  0 0.37372984E+04</rscale>
<asrwt>0</asrwt>
<pdfrwt beam="1">  1        2 0.32921747E+00 0.37372984E+04</pdfrwt>
<pdfrwt beam="2">  1       -2 0.25104176E+00 0.37372984E+04</pdfrwt>
<totfact> 0.28483781E-01</totfact>
</mgrwt>
</event>
<event>
12    1  0.4031469E-011  0.3722897E+04  0.7818608E-02  0.8062906E-01
          1   -1    0    0  501    0  0.00000000000E+00  0.00000000000E+00  0.18079677766E+04  0.18079677766E+04  0.00000000000E+00 0. -1.
         -1   -1    0    0    0  501 -0.00000000000E+00 -0.00000000000E+00 -0.19165111936E+04  0.19165111936E+04  0.00000000000E+00 0.  1.
    9900016    2    1    2    0    0 -0.75701307261E+03 -0.91127950888E+03 -0.67844025860E+02  0.25390863871E+04  0.22447400148E+04 0.  0.
         23    2    3    3    0    0 -0.43918335014E+02 -0.34827312395E+01 -0.37198802725E+02  0.10738811352E+03  0.90595289243E+02 0.  0.
        -24    2    3    3    0    0 -0.91188938476E+03  0.38044528220E+02 -0.69714119725E+02  0.91887382322E+03  0.80494772133E+02 0.  0.
        -15    1    3    3    0    0  0.61557129500E+03 -0.47570896225E+03 -0.24736415674E+03  0.81634310313E+03  0.00000000000E+00 0.  1.
        -15    1    4    4    0    0 -0.41409252485E+02 -0.31917401715E+02 -0.53261445008E+02  0.74633961759E+02  0.00000000000E+00 0.  1.
         15    1    4    4    0    0 -0.25090825295E+01  0.28434670475E+02  0.16062642283E+02  0.32754151756E+02  0.00000000000E+00 0. -1.
         15    1    5    5    0    0 -0.39968747805E+03  0.35374167848E+02  0.47666420161E+01  0.40127812392E+03  0.00000000000E+00 0. -1.
        -16    1    5    5    0    0 -0.51220190672E+03  0.26703603715E+01 -0.74480761741E+02  0.51759569930E+03  0.00000000000E+00 0.  1.
         16    1    1    2    0    0  0.75701307261E+03  0.91127950888E+03 -0.40699391098E+02  0.11853925830E+04  0.00000000000E+00 0. -1.
    9900018    1    3    3    0    0 -0.41677664782E+03 -0.47013234361E+03  0.28643305333E+03  0.69648134728E+03  0.91187600000E+02 0.  0.
<mgrwt>
<rscale>  0 0.37228970E+04</rscale>
<asrwt>0</asrwt>
<pdfrwt beam="1">  1        1 0.27814889E+00 0.37228970E+04</pdfrwt>
<pdfrwt beam="2">  1       -1 0.29484788E+00 0.37228970E+04</pdfrwt>
<totfact> 0.11490715E-01</totfact>
</mgrwt>
</event>
<event>
12    1  0.4031469E-011  0.2894442E+04  0.7818608E-02  0.8274533E-01
          1   -1    0    0  501    0  0.00000000000E+00  0.00000000000E+00  0.10558609392E+04  0.10558609392E+04  0.00000000000E+00 0. -1.
         -1   -1    0    0    0  501 -0.00000000000E+00 -0.00000000000E+00 -0.19836406082E+04  0.19836406082E+04  0.00000000000E+00 0.  1.
    9900016    2    1    2    0    0 -0.17629054683E+03  0.48268055694E+03 -0.10269563282E+04  0.25161518682E+04  0.22388215755E+04 0.  0.
         23    2    3    3    0    0 -0.13101913586E+02  0.28564271115E+02 -0.13795837303E+02  0.97939084371E+02  0.91728738117E+02 0.  0.
        -24    2    3    3    0    0  0.32784561022E+03  0.62138486326E+03  0.44401849070E+01  0.70667423871E+03  0.75939923506E+02 0.  0.
        -15    1    3    3    0    0  0.20570184959E+02 -0.64609258581E+03 -0.64297906695E+03  0.91174604057E+03  0.00000000000E+00 0.  1.
        -15    1    4    4    0    0 -0.19416208131E+02 -0.12319786559E+01 -0.48206865372E+02  0.51984697542E+02  0.00000000000E+00 0.  1.
         15    1    5    5    0    0  0.55291190926E+02  0.59872275772E+02  0.12540068456E+02  0.82456403736E+02  0.00000000000E+00 0. -1.
         15    1    4    4    0    0  0.63142945446E+01  0.29796249771E+02  0.34411028069E+02  0.45954386829E+02  0.00000000000E+00 0. -1.
        -16    1    5    5    0    0  0.27255441930E+03  0.56151258749E+03 -0.80998835494E+01  0.62421783497E+03  0.00000000000E+00 0.  1.
         16    1    1    2    0    0  0.17629054683E+03 -0.48268055694E+03  0.99176659168E+02  0.52334967915E+03  0.00000000000E+00 0. -1.
    9900018    1    3    3    0    0 -0.51160442843E+03  0.47882400837E+03 -0.37462160884E+03  0.79979250458E+03  0.91187600000E+02 0.  0.
<mgrwt>
<rscale>  0 0.28944420E+04</rscale>
<asrwt>0</asrwt>
<pdfrwt beam="1">  1        1 0.16244015E+00 0.28944420E+04</pdfrwt>
<pdfrwt beam="2">  1       -1 0.30517548E+00 0.28944420E+04</pdfrwt>
<totfact> 0.35949619E-01</totfact>
</mgrwt>
</event>
<event>
12    1  0.4031469E-011  0.2828978E+04  0.7818608E-02  0.8294328E-01
          1   -1    0    0  501    0  0.00000000000E+00  0.00000000000E+00  0.13363165983E+04  0.13363165983E+04  0.00000000000E+00 0. -1.
         -1   -1    0    0    0  501 -0.00000000000E+00 -0.00000000000E+00 -0.14972347089E+04  0.14972347089E+04  0.00000000000E+00 0.  1.
    9900016    2    1    2    0    0 -0.44193945703E+03  0.17836261332E+03 -0.33276282094E+03  0.23269406974E+04  0.22531751394E+04 0.  0.
         23    2    3    3    0    0 -0.49166209348E+02 -0.12485066356E+02 -0.75476952312E+02  0.12833255505E+03  0.90549883119E+02 0.  0.
        -24    2    3    3    0    0  0.69792604331E+03  0.36727347910E+03 -0.18604008858E+03  0.81388011441E+03  0.76153500873E+02 0.  0.
        -15    1    4    4    0    0 -0.69330948548E+02  0.11717596027E+02 -0.40030236795E+02  0.80910458786E+02  0.00000000000E+00 0.  1.
        -15    1    3    3    0    0 -0.83751841073E+03 -0.36020173302E+03  0.23075098842E+03  0.94044053265E+03  0.00000000000E+00 0.  1.
         15    1    5    5    0    0  0.62590192536E+03  0.30164676731E+03 -0.15899651809E+03  0.71275794289E+03  0.00000000000E+00 0. -1.
         15    1    4    4    0    0  0.20164739200E+02 -0.24202662384E+02 -0.35446715517E+02  0.47422096267E+02  0.00000000000E+00 0. -1.
        -16    1    5    5    0    0  0.72024117950E+02  0.65626711794E+02 -0.27043570491E+02  0.10112217152E+03  0.00000000000E+00 0.  1.
         16    1    1    2    0    0  0.44193945703E+03 -0.17836261332E+03  0.17184471039E+03  0.50661060984E+03  0.00000000000E+00 0. -1.
    9900018    1    3    3    0    0 -0.25318088026E+03  0.18377593360E+03 -0.30199676847E+03  0.44428749528E+03  0.91187600000E+02 0.  0.
<mgrwt>
<rscale>  0 0.28289783E+04</rscale>
<asrwt>0</asrwt>
<pdfrwt beam="1">  1        1 0.20558717E+00 0.28289783E+04</pdfrwt>
<pdfrwt beam="2">  1       -1 0.23034380E+00 0.28289783E+04</pdfrwt>
<totfact> 0.69103624E-01</totfact>
</mgrwt>
</event>
<event>
12    1  0.4031469E-011  0.3034466E+04  0.7818608E-02  0.9025159E-01
          3   -1    0    0  501    0  0.00000000000E+00  0.00000000000E+00  0.74833144573E+03  0.74833144573E+03  0.00000000000E+00 0. -1.
         -3   -1    0    0    0  501 -0.00000000000E+00 -0.00000000000E+00 -0.32906072163E+04  0.32906072163E+04  0.00000000000E+00 0.  1.
         23    2    1    2    0    0 -0.36864516882E+02 -0.23028943479E+02 -0.84797346811E+02  0.13417405428E+03  0.94460372503E+02 0.  0.
    9900016    2    1    2    0    0  0.93804630581E+02 -0.59121258203E+03 -0.24101481617E+04  0.32860764941E+04  0.21520113703E+04 0.  0.
        -24    2    4    4    0    0  0.85207647615E+03 -0.94736580142E+01 -0.26242518454E+03  0.89522044409E+03  0.80178517254E+02 0.  0.
        -15    1    3    3    0    0  0.97287621628E+01 -0.26793104928E+02 -0.82596962740E+02  0.87377214071E+02  0.00000000000E+00 0.  1.
        -15    1    4    4    0    0 -0.43608855243E+03 -0.13550830325E+03 -0.12824108443E+04  0.13612910414E+04  0.00000000000E+00 0.  1.
         15    1    5    5    0    0  0.39211631903E+03  0.33778811421E+02 -0.10824463803E+03  0.40818270102E+03  0.00000000000E+00 0. -1.
         15    1    3    3    0    0 -0.46593279045E+02  0.37641614495E+01 -0.22003840704E+01  0.46796840210E+02  0.00000000000E+00 0. -1.
        -16    1    5    5    0    0  0.45996015712E+03 -0.43252469435E+02 -0.15418054651E+03  0.48703774307E+03  0.00000000000E+00 0.  1.
         16    1    1    2    0    0 -0.56940113699E+02  0.61424152551E+03 -0.47330262003E+02  0.61868811360E+03  0.00000000000E+00 0. -1.
    9900018    1    4    4    0    0 -0.32218329314E+03 -0.44623062076E+03 -0.86531213285E+03  0.10295650086E+04  0.91187600000E+02 0.  0.
<mgrwt>
<rscale>  0 0.13055708E+04</rscale>
<asrwt>0</asrwt>
<pdfrwt beam="1">  1        3 0.11512791E+00 0.30344664E+04</pdfrwt>
<pdfrwt beam="2">  1       -3 0.50624726E+00 0.30344664E+04</pdfrwt>
<totfact> 0.38845146E-03</totfact>
</mgrwt>
</event>
<event>
12    1  0.4031469E-011  0.3029934E+04  0.7818608E-02  0.8235234E-01
         -2   -1    0    0    0  501 -0.00000000000E+00  0.00000000000E+00  0.94274487133E+03  0.94274487133E+03  0.00000000000E+00 0.  1.
          2   -1    0    0  501    0  0.00000000000E+00 -0.00000000000E+00 -0.24345141211E+04  0.24345141211E+04  0.00000000000E+00 0. -1.
    9900016    2    1    2    0    0 -0.66591933634E+03 -0.13990304621E+03 -0.11009092166E+04  0.25925342060E+04  0.22463773239E+04 0.  0.
         23    2    3    3    0    0 -0.97651783358E+01 -0.29185892606E+02 -0.17180025514E+01  0.95756875100E+02  0.90660093542E+02 0.  0.
         24    2    3    3    0    0  0.40598337553E+03 -0.49362402693E+03  0.15738732502E+03  0.66252843280E+03  0.75405391223E+02 0.  0.
        -15    1    4    4    0    0  0.20952726541E+02  0.24268147702E+02 -0.99215590145E+01  0.33561839575E+02  0.00000000000E+00 0. -1.
        -15    1    5    5    0    0  0.30276273871E+03 -0.39695959995E+03  0.96117893305E+02  0.50841011925E+03  0.00000000000E+00 0.  1.
         15    1    4    4    0    0 -0.30717904877E+02 -0.53454040308E+02  0.82035564631E+01  0.62195035525E+02  0.00000000000E+00 0.  1.
         15    1    3    3    0    0 -0.29692092845E+03 -0.20157729825E+03 -0.24407210439E+03  0.43401225451E+03  0.00000000000E+00 0. -1.
        -16    1    1    2    0    0  0.66591933634E+03  0.13990304621E+03 -0.39086003320E+03  0.78472478641E+03  0.00000000000E+00 0.  1.
         16    1    5    5    0    0  0.10322063682E+03 -0.96664426977E+02  0.61269431718E+02  0.15411831355E+03  0.00000000000E+00 0. -1.
    9900018    1    3    3    0    0 -0.76521660509E+03  0.58448417157E+03 -0.10125064347E+04  0.14002366436E+04  0.91187600000E+02 0.  0.
<mgrwt>
<rscale>  0 0.30299345E+04</rscale>
<asrwt>0</asrwt>
<pdfrwt beam="1">  1        2 0.37454063E+00 0.30299345E+04</pdfrwt>
<pdfrwt beam="2">  1       -2 0.14503767E+00 0.30299345E+04</pdfrwt>
<totfact> 0.10618281E+00</totfact>
</mgrwt>
</event>
<event>
12    1  0.4031469E-011  0.2902765E+04  0.7818608E-02  0.9083863E-01
         -1   -1    0    0    0  501 -0.00000000000E+00  0.00000000000E+00  0.10550696998E+04  0.10550696998E+04  0.00000000000E+00 0.  1.
          1   -1    0    0  501    0  0.00000000000E+00 -0.00000000000E+00 -0.21390524487E+04  0.21390524487E+04  0.00000000000E+00 0. -1.
         23    2    1    2    0    0  0.74246751335E+01 -0.27117731602E+02  0.23545456521E+01  0.94739732390E+02  0.90441007513E+02 0.  0.
    9900016    2    1    2    0    0 -0.60673372783E+01  0.23037611827E+03 -0.19265296284E+03  0.21828740971E+04  0.21621087372E+04 0.  0.
        -24    2    4    4    0    0  0.33670266505E+03  0.55457212286E+03  0.64693127777E+03  0.91937574820E+03  0.76241485467E+02 0.  0.
        -15    1    4    4    0    0 -0.11895686004E+03 -0.34486930984E+03 -0.93438184956E+03  0.10030727871E+04  0.00000000000E+00 0.  1.
        -15    1    3    3    0    0  0.27977742090E+02 -0.53941378138E+02 -0.10644487170E+01  0.60774660665E+02  0.00000000000E+00 0. -1.
         15    1    5    5    0    0  0.15881833323E+03  0.20826131557E+03  0.22519583060E+03  0.34541163943E+03  0.00000000000E+00 0. -1.
         15    1    3    3    0    0 -0.20553066956E+02  0.26823646536E+02  0.34189943691E+01  0.33965071725E+02  0.00000000000E+00 0.  1.
        -16    1    5    5    0    0  0.17788433182E+03  0.34631080730E+03  0.42173544717E+03  0.57396410877E+03  0.00000000000E+00 0.  1.
         16    1    1    2    0    0 -0.13573378552E+01 -0.20325838667E+03 -0.89368433173E+03  0.91650831905E+03  0.00000000000E+00 0. -1.
    9900018    1    4    4    0    0 -0.22381314229E+03  0.20673305248E+02  0.94797608960E+02  0.26042556186E+03  0.91187600000E+02 0.  0.
<mgrwt>
<rscale>  0 0.12336966E+04</rscale>
<asrwt>0</asrwt>
<pdfrwt beam="1">  1        1 0.32908499E+00 0.29027647E+04</pdfrwt>
<pdfrwt beam="2">  1       -1 0.16231842E+00 0.29027647E+04</pdfrwt>
<totfact> 0.57538555E-01</totfact>
</mgrwt>
</event>
<event>
12    1  0.4031469E-011  0.3099581E+04  0.7818608E-02  0.8215853E-01
         -2   -1    0    0    0  501 -0.00000000000E+00  0.00000000000E+00  0.15350890008E+04  0.15350890008E+04  0.00000000000E+00 0.  1.
          2   -1    0    0  501    0  0.00000000000E+00 -0.00000000000E+00 -0.15646323075E+04  0.15646323075E+04  0.00000000000E+00 0. -1.
    9900016    2    1    2    0    0 -0.16362685464E+03  0.57831771945E+03  0.41292448397E+03  0.23533950539E+04  0.22375738017E+04 0.  0.
         23    2    3    3    0    0 -0.25369295012E+02  0.61058670216E+02  0.19633583278E+02  0.11308008172E+03  0.89609513729E+02 0.  0.
        -24    2    3    3    0    0 -0.56329516033E+03 -0.30539505107E+03  0.39496195651E+03  0.75692757046E+03  0.79855024688E+02 0.  0.
        -15    1    3    3    0    0 -0.10271979270E+03  0.70715744520E+03 -0.38787497466E+03  0.81306211576E+03  0.00000000000E+00 0.  1.
        -15    1    4    4    0    0 -0.35863221521E+02  0.80707592803E+02  0.10253845880E+02  0.88910221849E+02  0.00000000000E+00 0. -1.
         15    1    4    4    0    0  0.10493926509E+02 -0.19648922586E+02  0.93797373973E+01  0.24169859868E+02  0.00000000000E+00 0.  1.
         15    1    5    5    0    0 -0.18070428772E+03 -0.56798143720E+02  0.11912255733E+03  0.22376383174E+03  0.00000000000E+00 0. -1.
        -16    1    5    5    0    0 -0.38259087261E+03 -0.24859690735E+03  0.27583939917E+03  0.53316373872E+03  0.00000000000E+00 0.  1.
         16    1    1    2    0    0  0.16362685464E+03 -0.57831771945E+03 -0.44246779065E+03  0.74632625436E+03  0.00000000000E+00 0. -1.
    9900018    1    3    3    0    0  0.52775739341E+03  0.11549665511E+03  0.38620391884E+03  0.67032528593E+03  0.91187600000E+02 0.  0.
<mgrwt>
<rscale>  0 0.30995805E+04</rscale>
<asrwt>0</asrwt>
<pdfrwt beam="1">  1        2 0.24071266E+00 0.30995805E+04</pdfrwt>
<pdfrwt beam="2">  1       -2 0.23616754E+00 0.30995805E+04</pdfrwt>
<totfact> 0.77553594E-01</totfact>
</mgrwt>
</event>
<event>
12    1  0.4031469E-011  0.2733756E+04  0.7818608E-02  0.9105753E-01
          1   -1    0    0  501    0  0.00000000000E+00  0.00000000000E+00  0.13695941535E+04  0.13695941535E+04  0.00000000000E+00 0. -1.
         -1   -1    0    0    0  501 -0.00000000000E+00 -0.00000000000E+00 -0.14703857483E+04  0.14703857483E+04  0.00000000000E+00 0.  1.
         23    2    1    2    0    0 -0.39588439572E+02  0.31244873815E+02  0.18615571519E+01  0.10429739855E+03  0.91274285874E+02 0.  0.
    9900016    2    1    2    0    0 -0.30149537021E+02  0.33354194461E+03  0.28036760572E+03  0.22021680151E+04  0.21584204292E+04 0.  0.
         24    2    4    4    0    0  0.39039661911E+03 -0.11582436316E+03 -0.55620279205E+03  0.69425646308E+03  0.82496589818E+02 0.  0.
        -15    1    3    3    0    0 -0.63233547030E+02  0.39657764977E+02 -0.12042917603E+02  0.75605896975E+02  0.00000000000E+00 0.  1.
        -15    1    5    5    0    0  0.16362712328E+03 -0.16609253841E+02 -0.17894462641E+03  0.24304502074E+03  0.00000000000E+00 0.  1.
         15    1    4    4    0    0 -0.25199222968E+03  0.76541980756E+03  0.30747989511E+03  0.86250301537E+03  0.00000000000E+00 0. -1.
         15    1    3    3    0    0  0.23645107458E+02 -0.84128911619E+01  0.13904474755E+02  0.28691501575E+02  0.00000000000E+00 0. -1.
        -16    1    1    2    0    0  0.69737976593E+02 -0.36478681842E+03 -0.38302075760E+03  0.53351448812E+03  0.00000000000E+00 0.  1.
         16    1    5    5    0    0  0.22676949583E+03 -0.99215109320E+02 -0.37725816564E+03  0.45121144234E+03  0.00000000000E+00 0. -1.
    9900018    1    4    4    0    0 -0.16855392645E+03 -0.31605349979E+03  0.52909050265E+03  0.64540853670E+03  0.91187600000E+02 0.  0.
<mgrwt>
<rscale>  0 0.12081500E+04</rscale>
<asrwt>0</asrwt>
<pdfrwt beam="1">  1        1 0.21070679E+00 0.27337559E+04</pdfrwt>
<pdfrwt beam="2">  1       -1 0.22621319E+00 0.27337559E+04</pdfrwt>
<totfact> 0.70039952E-01</totfact>
</mgrwt>
</event>
<event>
12    1  0.4031469E-011  0.2536246E+04  0.7818608E-02  0.8390185E-01
         -2   -1    0    0    0  501 -0.00000000000E+00  0.00000000000E+00  0.48043839594E+03  0.48043839594E+03  0.00000000000E+00 0.  1.
          2   -1    0    0  501    0  0.00000000000E+00 -0.00000000000E+00 -0.33472266962E+04  0.33472266962E+04  0.00000000000E+00 0. -1.
    9900016    2    1    2    0    0  0.20197906582E+03 -0.14893651937E+03 -0.24257487091E+04  0.33202268685E+04  0.22531471388E+04 0.  0.
         23    2    3    3    0    0 -0.10304946172E+02 -0.49385147516E+02 -0.56191660881E+02  0.11662876720E+03  0.88880154559E+02 0.  0.
        -24    2    3    3    0    0 -0.25977418088E+03  0.80226245146E+03 -0.37963137651E+03  0.92805319532E+03  0.77814428120E+02 0.  0.
        -15    1    3    3    0    0  0.27249280775E+03 -0.40169244342E+03 -0.13480222419E+04  0.14327501924E+04  0.00000000000E+00 0.  1.
        -15    1    4    4    0    0 -0.18528127136E+02  0.13221688784E+02  0.10253959841E+02  0.24964940254E+02  0.00000000000E+00 0.  1.
         15    1    5    5    0    0 -0.14855591859E+03  0.57371265910E+03 -0.27012890770E+03  0.65129463604E+03  0.00000000000E+00 0. -1.
         15    1    4    4    0    0  0.82231809647E+01 -0.62606836300E+02 -0.66445620722E+02  0.91663826943E+02  0.00000000000E+00 0. -1.
        -16    1    5    5    0    0 -0.11121826229E+03  0.22854979236E+03 -0.10950246881E+03  0.27675855927E+03  0.00000000000E+00 0.  1.
         16    1    1    2    0    0 -0.20197906582E+03  0.14893651937E+03 -0.44103959115E+03  0.50743822362E+03  0.00000000000E+00 0. -1.
    9900018    1    3    3    0    0  0.19956538512E+03 -0.50012137990E+03 -0.64190342987E+03  0.84279471358E+03  0.91187600000E+02 0.  0.
<mgrwt>
<rscale>  0 0.25362462E+04</rscale>
<asrwt>0</asrwt>
<pdfrwt beam="1">  1        2 0.51495794E+00 0.25362462E+04</pdfrwt>
<pdfrwt beam="2">  1       -2 0.73913601E-01 0.25362462E+04</pdfrwt>
<totfact> 0.15195802E+00</totfact>
</mgrwt>
</event>
<event>
12    1  0.4031469E-011  0.2941054E+04  0.7818608E-02  0.9047460E-01
          1   -1    0    0  501    0  0.00000000000E+00  0.00000000000E+00  0.17603165009E+04  0.17603165009E+04  0.00000000000E+00 0. -1.
         -1   -1    0    0    0  501 -0.00000000000E+00 -0.00000000000E+00 -0.13366145386E+04  0.13366145386E+04  0.00000000000E+00 0.  1.
         23    2    1    2    0    0 -0.25750098620E+02 -0.47832105223E+02  0.87940853752E+02  0.13677341529E+03  0.89567826263E+02 0.  0.
    9900016    2    1    2    0    0 -0.17387094263E+03 -0.27460934715E+03  0.83681946791E+03  0.23317656050E+04  0.21520275594E+04 0.  0.
         24    2    4    4    0    0  0.69672832093E+03 -0.15947113576E+02 -0.31670139200E+03  0.77000223522E+03  0.83180568196E+02 0.  0.
        -15    1    5    5    0    0  0.54770941971E+03  0.21426835408E+02 -0.24210971860E+03  0.59921768462E+03  0.00000000000E+00 0.  1.
        -15    1    3    3    0    0 -0.31329713409E+02  0.19258393925E+02  0.23918046065E+02  0.43869233027E+02  0.00000000000E+00 0.  1.
         15    1    3    3    0    0  0.55796147885E+01 -0.67090499148E+02  0.64022807687E+02  0.92904182260E+02  0.00000000000E+00 0. -1.
         15    1    4    4    0    0 -0.23645732256E+03 -0.30840437898E+03  0.59334118909E+03  0.70928068706E+03  0.00000000000E+00 0. -1.
        -16    1    1    2    0    0  0.19962104125E+03  0.32244145237E+03 -0.50105835930E+03  0.62839201916E+03  0.00000000000E+00 0.  1.
         16    1    5    5    0    0  0.14901890122E+03 -0.37373948983E+02 -0.74591673398E+02  0.17078455060E+03  0.00000000000E+00 0. -1.
    9900018    1    4    4    0    0 -0.63414194100E+03  0.49742145405E+02  0.56017967082E+03  0.85248268274E+03  0.91187600000E+02 0.  0.
<mgrwt>
<rscale>  0 0.12776731E+04</rscale>
<asrwt>0</asrwt>
<pdfrwt beam="1">  1        1 0.27081792E+00 0.29410538E+04</pdfrwt>
<pdfrwt beam="2">  1       -1 0.20563301E+00 0.29410538E+04</pdfrwt>
<totfact> 0.50832784E-01</totfact>
</mgrwt>
</event>
<event>
12    1  0.4031469E-011  0.3213371E+04  0.7818608E-02  0.8185295E-01
          2   -1    0    0  501    0  0.00000000000E+00  0.00000000000E+00  0.13039031868E+04  0.13039031868E+04  0.00000000000E+00 0. -1.
         -2   -1    0    0    0  501 -0.00000000000E+00 -0.00000000000E+00 -0.19797774768E+04  0.19797774768E+04  0.00000000000E+00 0.  1.
    9900016    2    1    2    0    0 -0.26425162068E+02 -0.73432329620E+03 -0.11393266383E+03  0.23586361329E+04  0.22383598377E+04 0.  0.
         23    2    3    3    0    0 -0.24278801238E+02 -0.36084009889E+02  0.11978519270E+01  0.98593712985E+02  0.88474682434E+02 0.  0.
         24    2    3    3    0    0 -0.17123771353E+03  0.20047062202E+03  0.78561952349E+03  0.83242455917E+03  0.78878299870E+02 0.  0.
        -15    1    5    5    0    0 -0.11592582220E+03  0.17440480337E+03  0.66494852419E+03  0.69714587535E+03  0.00000000000E+00 0.  1.
        -15    1    4    4    0    0  0.22503154125E+02 -0.17609802222E+02  0.29342620934E+02  0.40957129820E+02  0.00000000000E+00 0. -1.
         15    1    4    4    0    0 -0.46781955363E+02 -0.18474207668E+02 -0.28144769007E+02  0.57636583165E+02  0.00000000000E+00 0.  1.
         15    1    3    3    0    0  0.21635473362E+03 -0.10751725505E+03 -0.45130013463E+03  0.51189954328E+03  0.00000000000E+00 0. -1.
        -16    1    1    2    0    0  0.26425162068E+02  0.73432329620E+03 -0.56194162617E+03  0.92504453068E+03  0.00000000000E+00 0.  1.
         16    1    5    5    0    0 -0.55311891330E+02  0.26065818651E+02  0.12067099930E+03  0.13527868382E+03  0.00000000000E+00 0. -1.
    9900018    1    3    3    0    0 -0.47263380915E+02 -0.79119265329E+03 -0.44944990462E+03  0.91571831747E+03  0.91187600000E+02 0.  0.
<mgrwt>
<rscale>  0 0.32133709E+04</rscale>
<asrwt>0</asrwt>
<pdfrwt beam="1">  1        2 0.20060049E+00 0.32133709E+04</pdfrwt>
<pdfrwt beam="2">  1       -2 0.30458115E+00 0.32133709E+04</pdfrwt>
<totfact> 0.41206260E-01</totfact>
</mgrwt>
</event>
<event>
12    1  0.4031469E-011  0.2958283E+04  0.7818608E-02  0.9077207E-01
          2   -1    0    0  501    0  0.00000000000E+00  0.00000000000E+00  0.49730310261E+04  0.49730310261E+04  0.00000000000E+00 0.  1.
         -2   -1    0    0    0  501 -0.00000000000E+00 -0.00000000000E+00 -0.46833326156E+03  0.46833326156E+03  0.00000000000E+00 0. -1.
         23    2    1    2    0    0 -0.42749372052E+01  0.99067056722E+01  0.10339713667E+03  0.13826292736E+03  0.91155094794E+02 0.  0.
    9900016    2    1    2    0    0 -0.37480993557E+03  0.26341391930E+03  0.24555427875E+04  0.33020058908E+04  0.21595562370E+04 0.  0.
         24    2    4    4    0    0  0.55289645202E+03  0.65287914394E+03  0.15368161896E+04  0.17606549359E+04  0.78461068263E+02 0.  0.
        -15    1    5    5    0    0  0.24852623032E+03  0.33991578461E+03  0.70283939114E+03  0.81932364638E+03  0.00000000000E+00 0.  1.
        -15    1    3    3    0    0 -0.16596696387E+02 -0.37800138801E+02  0.58522596505E+02  0.71618399354E+02  0.00000000000E+00 0.  1.
         15    1    4    4    0    0 -0.44790415806E+03  0.17263212328E+03  0.25348468283E+03  0.54283926647E+03  0.00000000000E+00 0. -1.
         15    1    3    3    0    0  0.12321759181E+02  0.47706844473E+02  0.44874540160E+02  0.66644528009E+02  0.00000000000E+00 0. -1.
        -16    1    1    2    0    0  0.37908487277E+03 -0.27332062497E+03  0.19457578403E+04  0.20010954695E+04  0.00000000000E+00 0.  1.
         16    1    5    5    0    0  0.30437022171E+03  0.31296335934E+03  0.83397679851E+03  0.94133128950E+03  0.00000000000E+00 0. -1.
    9900018    1    4    4    0    0 -0.47980222954E+03 -0.56209734792E+03  0.66524191506E+03  0.99851168844E+03  0.91187600000E+02 0.  0.
<mgrwt>
<rscale>  0 0.12415960E+04</rscale>
<asrwt>0</asrwt>
<pdfrwt beam="1">  1        2 0.76508166E+00 0.29582827E+04</pdfrwt>
<pdfrwt beam="2">  1       -2 0.72051274E-01 0.29582827E+04</pdfrwt>
<totfact> 0.55501888E-02</totfact>
</mgrwt>
</event>
<event>
12    1  0.4031469E-011  0.3533385E+04  0.7818608E-02  0.8105924E-01
         -1   -1    0    0    0  501 -0.00000000000E+00  0.00000000000E+00  0.16843292702E+04  0.16843292702E+04  0.00000000000E+00 0.  1.
          1   -1    0    0  501    0  0.00000000000E+00 -0.00000000000E+00 -0.18530827553E+04  0.18530827553E+04  0.00000000000E+00 0. -1.
    9900016    2    1    2    0    0  0.67005108497E+03  0.72286294463E+03  0.23951814642E+03  0.24705544820E+04  0.22527252857E+04 0.  0.
         23    2    3    3    0    0  0.57366094542E+01 -0.16758869198E+02 -0.20498747410E+02  0.96152405079E+02  0.92256804476E+02 0.  0.
        -24    2    3    3    0    0 -0.44221240492E+03 -0.19539555519E+03 -0.41794902181E+03  0.64437833217E+03  0.82527668593E+02 0.  0.
        -15    1    3    3    0    0  0.44688911704E+03  0.39208777186E+03  0.63484161923E+03  0.86975087541E+03  0.00000000000E+00 0.  1.
        -15    1    4    4    0    0  0.27771007451E+02  0.15394773835E+02 -0.41200950706E+02  0.52016788207E+02  0.00000000000E+00 0. -1.
         15    1    4    4    0    0 -0.22034397997E+02 -0.32153643033E+02  0.20702203296E+02  0.44135616872E+02  0.00000000000E+00 0.  1.
         15    1    5    5    0    0 -0.73531723104E+02 -0.56915348495E+02 -0.11266268297E+03  0.14607926387E+03  0.00000000000E+00 0. -1.
        -16    1    5    5    0    0 -0.36868068182E+03 -0.13848020669E+03 -0.30528633884E+03  0.49829906830E+03  0.00000000000E+00 0.  1.
         16    1    1    2    0    0 -0.67005108497E+03 -0.72286294463E+03 -0.40827163152E+03  0.10668575436E+04  0.00000000000E+00 0. -1.
    9900018    1    3    3    0    0  0.65963776339E+03  0.54292959715E+03  0.43124296412E+02  0.86027286932E+03  0.91187600000E+02 0.  0.
<mgrwt>
<rscale>  0 0.35333845E+04</rscale>
<asrwt>0</asrwt>
<pdfrwt beam="1">  1        1 0.28508966E+00 0.35333845E+04</pdfrwt>
<pdfrwt beam="2">  1       -1 0.25912758E+00 0.35333845E+04</pdfrwt>
<totfact> 0.18543680E-01</totfact>
</mgrwt>
</event>
<event>
12    1  0.4031469E-011  0.2628485E+04  0.7818608E-02  0.9128215E-01
          2   -1    0    0  501    0  0.00000000000E+00  0.00000000000E+00  0.46386121020E+04  0.46386121020E+04  0.00000000000E+00 0. -1.
         -2   -1    0    0    0  501 -0.00000000000E+00 -0.00000000000E+00 -0.40359112962E+03  0.40359112962E+03  0.00000000000E+00 0.  1.
         23    2    1    2    0    0  0.75655457503E+01 -0.52312712939E+02  0.18171127598E+03  0.21123487539E+03  0.93847361950E+02 0.  0.
    9900016    2    1    2    0    0 -0.11395859652E+03  0.22188001187E+03  0.40927620595E+04  0.46269364003E+04  0.21437401603E+04 0.  0.
         24    2    4    4    0    0 -0.43092120862E+03  0.12420068473E+03  0.28139318749E+04  0.28504823634E+04  0.76929897671E+02 0.  0.
        -15    1    5    5    0    0 -0.27189585648E+03  0.81980477478E+02  0.15395632026E+04  0.15655360137E+04  0.00000000000E+00 0.  1.
        -15    1    3    3    0    0 -0.41344357051E+02 -0.18173954764E+02  0.54843365278E+02  0.71045360206E+02  0.00000000000E+00 0. -1.
         15    1    3    3    0    0  0.48909902801E+02 -0.34138758175E+02  0.12686791070E+03  0.14018951518E+03  0.00000000000E+00 0.  1.
         15    1    4    4    0    0  0.23163930263E+03  0.38325548244E+03  0.13783435438E+04  0.14492661785E+04  0.00000000000E+00 0. -1.
        -16    1    1    2    0    0  0.10639305077E+03 -0.16956729893E+03 -0.39452363058E+02  0.20403195600E+03  0.00000000000E+00 0.  1.
         16    1    5    5    0    0 -0.15902535214E+03  0.42220207249E+02  0.12743686724E+04  0.12849463497E+04  0.00000000000E+00 0. -1.
    9900018    1    4    4    0    0  0.85323309460E+02 -0.28557615530E+03 -0.99513359245E+02  0.32718785838E+03  0.91187600000E+02 0.  0.
<mgrwt>
<rscale>  0 0.11826112E+04</rscale>
<asrwt>0</asrwt>
<pdfrwt beam="1">  1        2 0.71363259E+00 0.26284855E+04</pdfrwt>
<pdfrwt beam="2">  1       -2 0.62090946E-01 0.26284855E+04</pdfrwt>
<totfact> 0.18980506E-01</totfact>
</mgrwt>
</event>
<event>
12    1  0.4031469E-011  0.2869408E+04  0.7818608E-02  0.8282038E-01
         -2   -1    0    0    0  501 -0.00000000000E+00  0.00000000000E+00  0.13217480292E+04  0.13217480292E+04  0.00000000000E+00 0.  1.
          2   -1    0    0  501    0  0.00000000000E+00 -0.00000000000E+00 -0.15573133341E+04  0.15573133341E+04  0.00000000000E+00 0. -1.
    9900016    2    1    2    0    0  0.98480449772E+02  0.93800074861E+01  0.34794738720E+03  0.22872223266E+04  0.22584357868E+04 0.  0.
         23    2    3    3    0    0  0.72877213834E+02  0.29355068853E+02 -0.26455020464E+00  0.11854524299E+03  0.88769906415E+02 0.  0.
        -24    2    3    3    0    0 -0.71325820206E+03  0.21615850260E+03  0.56691989240E+03  0.93975892871E+03  0.79290091697E+02 0.  0.
        -15    1    4    4    0    0 -0.16347918028E+00  0.38705678275E+02  0.17985514734E+02  0.42680616167E+02  0.00000000000E+00 0. -1.
        -15    1    3    3    0    0  0.54168693969E+03 -0.51590912206E+03  0.97140997533E+02  0.75433635486E+03  0.00000000000E+00 0.  1.
         15    1    5    5    0    0 -0.56840300460E+03  0.17929295857E+03  0.41241964068E+03  0.72478817640E+03  0.00000000000E+00 0. -1.
         15    1    4    4    0    0  0.73040693014E+02 -0.93506094222E+01 -0.18250064938E+02  0.75864626822E+02  0.00000000000E+00 0.  1.
        -16    1    5    5    0    0 -0.14485519746E+03  0.36865544028E+02  0.15450025171E+03  0.21497075231E+03  0.00000000000E+00 0.  1.
         16    1    1    2    0    0 -0.98480449772E+02 -0.93800074861E+01 -0.58351269212E+03  0.59183903672E+03  0.00000000000E+00 0. -1.
    9900018    1    3    3    0    0  0.19717449830E+03  0.27977555809E+03 -0.31584895252E+03  0.47458180000E+03  0.91187600000E+02 0.  0.
<mgrwt>
<rscale>  0 0.28694082E+04</rscale>
<asrwt>0</asrwt>
<pdfrwt beam="1">  1        2 0.23958667E+00 0.28694082E+04</pdfrwt>
<pdfrwt beam="2">  1       -2 0.20334585E+00 0.28694082E+04</pdfrwt>
<totfact> 0.12894816E+00</totfact>
</mgrwt>
</event>
<event>
12    1  0.4031469E-011  0.2909707E+04  0.7818608E-02  0.8269995E-01
         -1   -1    0    0    0  501 -0.00000000000E+00  0.00000000000E+00  0.60101842586E+03  0.60101842586E+03  0.00000000000E+00 0.  1.
          1   -1    0    0  501    0  0.00000000000E+00 -0.00000000000E+00 -0.35216878252E+04  0.35216878252E+04  0.00000000000E+00 0. -1.
    9900016    2    1    2    0    0  0.37449440651E+03 -0.65792574466E+01 -0.29682657755E+04  0.37451420020E+04  0.22528199115E+04 0.  0.
         23    2    3    3    0    0 -0.42368576619E+02  0.48856415705E+01 -0.11599019791E+03  0.15357257464E+03  0.91169314434E+02 0.  0.
         24    2    3    3    0    0  0.35806413433E+03 -0.72388683597E+03 -0.25295099891E+04  0.26565126714E+04  0.80104388502E+02 0.  0.
        -15    1    5    5    0    0  0.81174109137E+02 -0.23991463388E+03 -0.73947440802E+03  0.78164612688E+03  0.00000000000E+00 0.  1.
        -15    1    4    4    0    0  0.97303739486E+01  0.20629469483E+02  0.27295628515E+01  0.22971845849E+02  0.00000000000E+00 0.  1.
         15    1    3    3    0    0 -0.21902694708E+03  0.29028679243E+03 -0.14807038251E+03  0.39263731812E+03  0.00000000000E+00 0. -1.
         15    1    4    4    0    0 -0.52098950568E+02 -0.15743827913E+02 -0.11871976076E+03  0.13060072879E+03  0.00000000000E+00 0. -1.
        -16    1    1    2    0    0 -0.37449440651E+03  0.65792574466E+01  0.47596376198E+02  0.37756424905E+03  0.00000000000E+00 0.  1.
         16    1    5    5    0    0  0.27689002519E+03 -0.48397220209E+03 -0.17900355811E+04  0.18748665446E+04  0.00000000000E+00 0. -1.
    9900018    1    3    3    0    0  0.27782579588E+03  0.42213514452E+03 -0.17469520605E+03  0.54241943781E+03  0.91187600000E+02 0.  0.
<mgrwt>
<rscale>  0 0.29097074E+04</rscale>
<asrwt>0</asrwt>
<pdfrwt beam="1">  1        1 0.54179813E+00 0.29097074E+04</pdfrwt>
<pdfrwt beam="2">  1       -1 0.92464373E-01 0.29097074E+04</pdfrwt>
<totfact> 0.23423448E-01</totfact>
</mgrwt>
</event>
<event>
12    1  0.4031469E-011  0.2784463E+04  0.7818608E-02  0.9130871E-01
          2   -1    0    0  501    0  0.00000000000E+00  0.00000000000E+00  0.14883951119E+04  0.14883951119E+04  0.00000000000E+00 0. -1.
         -2   -1    0    0    0  501 -0.00000000000E+00 -0.00000000000E+00 -0.13879340418E+04  0.13879340418E+04  0.00000000000E+00 0.  1.
         23    2    1    2    0    0 -0.15737873230E+02  0.19762743162E+02  0.11669767666E+02  0.90450582999E+02  0.86063219882E+02 0.  0.
    9900016    2    1    2    0    0 -0.43421884420E+03  0.31631030809E+03  0.75344600265E+02  0.22241073031E+04  0.21569372432E+04 0.  0.
        -24    2    4    4    0    0 -0.73212355829E+02 -0.68366284153E+03 -0.52268330951E+03  0.86738944014E+03  0.80072897286E+02 0.  0.
        -15    1    4    4    0    0 -0.29350482726E+03  0.18127511907E+03  0.15083174364E+02  0.34530168631E+03  0.00000000000E+00 0.  1.
        -15    1    3    3    0    0  0.16354269056E+02  0.35476891027E+02  0.30957794407E+02  0.49844327138E+02  0.00000000000E+00 0. -1.
         15    1    5    5    0    0  0.31871713485E+01 -0.23395973798E+03 -0.20961671330E+03  0.31414404905E+03  0.00000000000E+00 0. -1.
         15    1    3    3    0    0 -0.32092142285E+02 -0.15714147864E+02 -0.19288026740E+02  0.40606255862E+02  0.00000000000E+00 0.  1.
        -16    1    5    5    0    0 -0.76399527177E+02 -0.44970310356E+03 -0.31306659621E+03  0.55324539109E+03  0.00000000000E+00 0.  1.
         16    1    1    2    0    0  0.44995671743E+03 -0.33607305126E+03  0.13446702131E+02  0.56177126763E+03  0.00000000000E+00 0. -1.
    9900018    1    4    4    0    0 -0.67501661108E+02  0.81869803056E+03  0.58294473541E+03  0.10114161767E+04  0.91187600000E+02 0.  0.
<mgrwt>
<rscale>  0 0.11796352E+04</rscale>
<asrwt>0</asrwt>
<pdfrwt beam="1">  1        2 0.22898386E+00 0.27844632E+04</pdfrwt>
<pdfrwt beam="2">  1       -2 0.21352831E+00 0.27844632E+04</pdfrwt>
<totfact> 0.12163732E+00</totfact>
</mgrwt>
</event>
<event>
12    1  0.4031469E-011  0.2921957E+04  0.7818608E-02  0.9077542E-01
          1   -1    0    0  501    0  0.00000000000E+00  0.00000000000E+00  0.17901435549E+04  0.17901435549E+04  0.00000000000E+00 0. -1.
         -1   -1    0    0    0  501 -0.00000000000E+00 -0.00000000000E+00 -0.12720715732E+04  0.12720715732E+04  0.00000000000E+00 0.  1.
         23    2    1    2    0    0  0.15053627571E+02  0.17473817626E+02  0.28257364978E+01  0.95177255078E+02  0.92297232309E+02 0.  0.
    9900016    2    1    2    0    0 -0.13580723044E+03  0.16352407546E+03 -0.23443451594E+03  0.21864208649E+04  0.21633984674E+04 0.  0.
        -24    2    4    4    0    0  0.24909012167E+03  0.67763804835E+03  0.42732505184E+03  0.84270550249E+03  0.79414423853E+02 0.  0.
        -15    1    4    4    0    0 -0.35235532773E+03  0.81381365510E+02 -0.64583634900E+03  0.74019037641E+03  0.00000000000E+00 0.  1.
        -15    1    3    3    0    0  0.72457778014E+01  0.55661375397E+02  0.55849181105E+00  0.56133785906E+02  0.00000000000E+00 0.  1.
         15    1    5    5    0    0  0.20243672179E+03  0.61832048535E+03  0.37615869060E+03  0.75152924723E+03  0.00000000000E+00 0. -1.
         15    1    3    3    0    0  0.78078497692E+01 -0.38187557771E+02  0.22672446867E+01  0.39043469172E+02  0.00000000000E+00 0. -1.
        -16    1    5    5    0    0  0.46653399879E+02  0.59317562998E+02  0.51166361242E+02  0.91176255259E+02  0.00000000000E+00 0.  1.
         16    1    1    2    0    0  0.12075360286E+03 -0.18099789309E+03  0.74968076106E+03  0.78061700815E+03  0.00000000000E+00 0. -1.
    9900018    1    4    4    0    0 -0.32542024378E+02 -0.59549533839E+03 -0.15923218772E+02  0.60352498597E+03  0.91187600000E+02 0.  0.
<mgrwt>
<rscale>  0 0.12411973E+04</rscale>
<asrwt>0</asrwt>
<pdfrwt beam="1">  1        1 0.27540670E+00 0.29219574E+04</pdfrwt>
<pdfrwt beam="2">  1       -1 0.19570332E+00 0.29219574E+04</pdfrwt>
<totfact> 0.56949919E-01</totfact>
</mgrwt>
</event>
<event>
12    1  0.4031469E-011  0.4503709E+04  0.7818608E-02  0.8721635E-01
         -1   -1    0    0    0  501 -0.00000000000E+00  0.00000000000E+00  0.38309669329E+04  0.38309669329E+04  0.00000000000E+00 0.  1.
          1   -1    0    0  501    0  0.00000000000E+00 -0.00000000000E+00 -0.13944441893E+04  0.13944441893E+04  0.00000000000E+00 0. -1.
         23    2    1    2    0    0 -0.61924819582E+02  0.19770225221E+01  0.65964370734E+01  0.10799646232E+03  0.88210719264E+02 0.  0.
    9900016    2    1    2    0    0 -0.67378236867E+03  0.10533068053E+04  0.13877619979E+03  0.24898192124E+04  0.21486048893E+04 0.  0.
         24    2    4    4    0    0 -0.60475988550E+03  0.12228636651E+04  0.15636765726E+03  0.13753146370E+04  0.76872908381E+02 0.  0.
        -15    1    5    5    0    0 -0.19995861355E+03  0.48629464054E+03  0.69100283421E+02  0.53032138720E+03  0.00000000000E+00 0.  1.
        -15    1    3    3    0    0 -0.66164445090E+02  0.33794761680E+02  0.12555868541E+02  0.75348985035E+02  0.00000000000E+00 0.  1.
         15    1    4    4    0    0  0.34102730813E+03 -0.10052099772E+03  0.38818284738E+03  0.52639340694E+03  0.00000000000E+00 0. -1.
         15    1    3    3    0    0  0.42396255076E+01 -0.31817739158E+02 -0.59594314671E+01  0.32647477284E+02  0.00000000000E+00 0. -1.
        -16    1    1    2    0    0  0.73570718825E+03 -0.10552838278E+04  0.22911501068E+04  0.26275954475E+04  0.00000000000E+00 0.  1.
         16    1    5    5    0    0 -0.40480127194E+03  0.73656902452E+03  0.87267373836E+02  0.84499324979E+03  0.00000000000E+00 0. -1.
    9900018    1    4    4    0    0 -0.41004979131E+03 -0.69035862086E+02 -0.40577430485E+03  0.58811116846E+03  0.91187600000E+02 0.  0.
<mgrwt>
<rscale>  0 0.17714430E+04</rscale>
<asrwt>0</asrwt>
<pdfrwt beam="1">  1        1 0.21452988E+00 0.45037086E+04</pdfrwt>
<pdfrwt beam="2">  1       -1 0.58937953E+00 0.45037086E+04</pdfrwt>
<totfact> 0.28430591E-03</totfact>
</mgrwt>
</event>
<event>
12    1  0.4031469E-011  0.4555527E+04  0.7818608E-02  0.7900987E-01
         -1   -1    0    0    0  501 -0.00000000000E+00  0.00000000000E+00  0.17387361332E+04  0.17387361332E+04  0.00000000000E+00 0.  1.
          1   -1    0    0  501    0  0.00000000000E+00 -0.00000000000E+00 -0.29838956583E+04  0.29838956583E+04  0.00000000000E+00 0. -1.
    9900016    2    1    2    0    0  0.14001931061E+04  0.67713309573E+03 -0.42726181057E+00  0.27305453549E+04  0.22442878133E+04 0.  0.
         23    2    3    3    0    0  0.66773626279E+02  0.21327683617E+02  0.16765118515E+01  0.11348578711E+03  0.89233547104E+02 0.  0.
        -24    2    3    3    0    0  0.10044282191E+04  0.80024080184E+03 -0.65104176144E+03  0.14420284089E+04  0.79556073474E+02 0.  0.
        -15    1    3    3    0    0  0.47916145063E+03 -0.43007929608E+03  0.41139340123E+03  0.76407357451E+03  0.00000000000E+00 0.  1.
        -15    1    4    4    0    0  0.69547497321E+02  0.49153364586E+02  0.50824823672E+01  0.85315527665E+02  0.00000000000E+00 0.  1.
         15    1    5    5    0    0  0.80190028889E+03  0.64599281923E+03 -0.48623205515E+03  0.11387591524E+04  0.00000000000E+00 0. -1.
         15    1    4    4    0    0 -0.27738710425E+01 -0.27825680969E+02 -0.34059705157E+01  0.28170259443E+02  0.00000000000E+00 0. -1.
        -16    1    5    5    0    0  0.20252793017E+03  0.15424798261E+03 -0.16480970629E+03  0.30326925648E+03  0.00000000000E+00 0.  1.
         16    1    1    2    0    0 -0.14001931061E+04 -0.67713309573E+03 -0.12447322633E+04  0.19920864367E+04  0.00000000000E+00 0. -1.
    9900018    1    3    3    0    0 -0.15017018984E+03  0.28564390636E+03  0.23754458654E+03  0.41095758436E+03  0.91187600000E+02 0.  0.
<mgrwt>
<rscale>  0 0.45555273E+04</rscale>
<asrwt>0</asrwt>
<pdfrwt beam="1">  1        1 0.45906087E+00 0.45555273E+04</pdfrwt>
<pdfrwt beam="2">  1       -1 0.26749787E+00 0.45555273E+04</pdfrwt>
<totfact> 0.24636022E-02</totfact>
</mgrwt>
</event>
<event>
12    1  0.4031469E-011  0.2714407E+04  0.7818608E-02  0.9084472E-01
         -2   -1    0    0    0  501 -0.00000000000E+00  0.00000000000E+00  0.94129954166E+03  0.94129954166E+03  0.00000000000E+00 0.  1.
          2   -1    0    0  501    0  0.00000000000E+00 -0.00000000000E+00 -0.21276424574E+04  0.21276424574E+04  0.00000000000E+00 0. -1.
         23    2    1    2    0    0 -0.34434469506E+02 -0.67585061335E+02 -0.38296225312E+02  0.12173701324E+03  0.87176982704E+02 0.  0.
    9900016    2    1    2    0    0 -0.15714635280E+03 -0.35911279763E+03 -0.11730174354E+04  0.24788057838E+04  0.21482204804E+04 0.  0.
        -24    2    4    4    0    0 -0.57482015242E+03  0.87184048664E+02 -0.27622664392E+03  0.64857920398E+03  0.79589943145E+02 0.  0.
        -15    1    4    4    0    0  0.60288305923E+03  0.12336577927E+02 -0.11261592743E+04  0.12774407561E+04  0.00000000000E+00 0.  1.
        -15    1    3    3    0    0 -0.44124231040E+02 -0.82610918948E+02 -0.43284552911E+02  0.10317492047E+03  0.00000000000E+00 0.  1.
         15    1    5    5    0    0 -0.40352502142E+03  0.46863743416E+02 -0.15459570266E+03  0.43465904413E+03  0.00000000000E+00 0. -1.
         15    1    3    3    0    0  0.96897615341E+01  0.15025857612E+02  0.49883275986E+01  0.18562092765E+02  0.00000000000E+00 0. -1.
        -16    1    5    5    0    0 -0.17129513100E+03  0.40320305248E+02 -0.12163094125E+03  0.21392015985E+03  0.00000000000E+00 0.  1.
         16    1    1    2    0    0  0.19158082231E+03  0.42669785896E+03  0.24970745008E+02  0.46839920199E+03  0.00000000000E+00 0. -1.
    9900018    1    4    4    0    0 -0.18520925961E+03 -0.45863342422E+03  0.22936848278E+03  0.55278582375E+03  0.91187600000E+02 0.  0.
<mgrwt>
<rscale>  0 0.12329765E+04</rscale>
<asrwt>0</asrwt>
<pdfrwt beam="1">  1        2 0.32732960E+00 0.27144071E+04</pdfrwt>
<pdfrwt beam="2">  1       -2 0.14481532E+00 0.27144071E+04</pdfrwt>
<totfact> 0.16270402E+00</totfact>
</mgrwt>
</event>
