<event>
11    1  0.1022065E-010  0.7484995E+03  0.7818608E-02  0.9637707E-01
         -1   -1    0    0    0  501 -0.00000000000E+00  0.00000000000E+00  0.21128919773E+03  0.21128919773E+03  0.00000000000E+00 0.  1.
          1   -1    0    0  501    0  0.00000000000E+00 -0.00000000000E+00 -0.66289646947E+03  0.66289646947E+03  0.00000000000E+00 0. -1.
    9900016    2    1    2    0    0 -0.32126794545E+02 -0.21326534855E+02 -0.42473043720E+03  0.82718230295E+03  0.70876488768E+03 0.  0.
         24    2    3    3    0    0 -0.11294185566E+03  0.23536135656E+02  0.12301724491E+03  0.18669546488E+03  0.80075849174E+02 0.  0.
        -15    1    4    4    0    0 -0.21969290138E+02 -0.92323542243E+01  0.10629787920E+02  0.26093647980E+02  0.00000000000E+00 0.  1.
        -15    1    4    4    0    0 -0.30095517850E+02  0.12368606224E+02  0.13381710784E+02  0.35182279604E+02  0.00000000000E+00 0.  1.
         15    1    3    3    0    0 -0.79244653825E+02 -0.10994670472E+03 -0.24977640339E+03  0.28417643239E+03  0.00000000000E+00 0. -1.
         15    1    4    4    0    0 -0.38886031589E+02 -0.10505677696E-01  0.26795378266E+02  0.47224102528E+02  0.00000000000E+00 0. -1.
        -16    1    1    2    0    0  0.32126794545E+02  0.21326534855E+02 -0.26876834540E+02  0.47003364258E+02  0.00000000000E+00 0.  1.
         16    1    4    4    0    0 -0.21991016083E+02  0.20410389334E+02  0.72210367937E+02  0.78195434770E+02  0.00000000000E+00 0. -1.
    9900018    1    3    3    0    0  0.16005971494E+03  0.65084034208E+02 -0.29797127872E+03  0.35631040567E+03  0.91187600000E+02 0.  0.
<mgrwt>
<rscale>  0 0.74849947E+03</rscale>
<asrwt>0</asrwt>
<pdfrwt beam="1">  1        1 0.10198407E+00 0.74849947E+03</pdfrwt>
<pdfrwt beam="2">  1       -1 0.32506030E-01 0.74849947E+03</pdfrwt>
<totfact> 0.26481097E+02</totfact>
</mgrwt>
</event>
<event>
11    1  0.1022065E-010  0.8216385E+03  0.7818608E-02  0.9529214E-01
          2   -1    0    0  501    0  0.00000000000E+00  0.00000000000E+00  0.10526731703E+04  0.10526731703E+04  0.00000000000E+00 0. -1.
         -2   -1    0    0    0  501 -0.00000000000E+00 -0.00000000000E+00 -0.16032749915E+03  0.16032749915E+03  0.00000000000E+00 0.  1.
    9900016    2    1    2    0    0 -0.91142139346E+02  0.49326655189E+02  0.79874962084E+03  0.10733574487E+04  0.70947533241E+03 0.  0.
        -24    2    3    3    0    0  0.42517630290E+02 -0.71704378534E+00  0.24076743123E+03  0.25732727071E+03  0.80250266520E+02 0.  0.
        -15    1    3    3    0    0 -0.17139273193E+03  0.63493469275E+02  0.65316952895E+03  0.67826051245E+03  0.00000000000E+00 0.  1.
        -15    1    4    4    0    0  0.10588677715E+02  0.14085469316E+01  0.12994316088E+02  0.16821306454E+02  0.00000000000E+00 0.  1.
         15    1    4    4    0    0  0.22902844794E+02  0.18898352027E+02  0.82781960160E+02  0.87946238902E+02  0.00000000000E+00 0. -1.
         15    1    4    4    0    0  0.17927855036E+02  0.45098782442E+01  0.38787903600E+02  0.42967993363E+02  0.00000000000E+00 0. -1.
        -16    1    4    4    0    0 -0.89017472548E+01 -0.25533820989E+02  0.10620325138E+03  0.10959173199E+03  0.00000000000E+00 0.  1.
         16    1    1    2    0    0  0.91142139346E+02 -0.49326655189E+02  0.93596050282E+02  0.13964322076E+03  0.00000000000E+00 0. -1.
    9900018    1    3    3    0    0  0.37732962291E+02 -0.13449770300E+02 -0.95187339338E+02  0.13776966549E+03  0.91187600000E+02 0.  0.
<mgrwt>
<rscale>  0 0.82163850E+03</rscale>
<asrwt>0</asrwt>
<pdfrwt beam="1">  1        2 0.16194971E+00 0.82163850E+03</pdfrwt>
<pdfrwt beam="2">  1       -2 0.24665770E-01 0.82163850E+03</pdfrwt>
<totfact> 0.34392461E+02</totfact>
</mgrwt>
</event>
<event>
11    1  0.1022065E-010  0.1017922E+04  0.7818608E-02  0.9289104E-01
          2   -1    0    0  501    0  0.00000000000E+00  0.00000000000E+00  0.11460472986E+04  0.11460472986E+04  0.00000000000E+00 0. -1.
         -2   -1    0    0    0  501 -0.00000000000E+00 -0.00000000000E+00 -0.22603031559E+03  0.22603031559E+03  0.00000000000E+00 0.  1.
    9900016    2    1    2    0    0  0.15617428656E+03  0.18894105097E+03  0.81083772146E+03  0.11037322403E+04  0.70758598014E+03 0.  0.
         24    2    3    3    0    0  0.70964946979E+02  0.11884487758E+03 -0.62472490900E+02  0.17154610520E+03  0.79781736403E+02 0.  0.
        -15    1    4    4    0    0  0.59379309320E+00  0.30862257180E+02 -0.34679805960E+01  0.31062169884E+02  0.00000000000E+00 0.  1.
        -15    1    4    4    0    0  0.19434472605E+02  0.22245459363E+02  0.53111094128E+01  0.30012781792E+02  0.00000000000E+00 0. -1.
         15    1    3    3    0    0  0.13794824980E+03  0.98570180053E+02  0.74358483899E+03  0.76266913718E+03  0.00000000000E+00 0. -1.
         15    1    4    4    0    0  0.17059875333E+02  0.38040493024E+02 -0.14438792227E+02  0.44120258123E+02  0.00000000000E+00 0.  1.
        -16    1    1    2    0    0 -0.15617428656E+03 -0.18894105097E+03  0.10917926159E+03  0.26834537389E+03  0.00000000000E+00 0.  1.
         16    1    4    4    0    0  0.33876805948E+02  0.27696668017E+02 -0.49876827490E+02  0.66350895404E+02  0.00000000000E+00 0. -1.
    9900018    1    3    3    0    0 -0.52738910221E+02 -0.28474006664E+02  0.12972537336E+03  0.16951699795E+03  0.91187600000E+02 0.  0.
<mgrwt>
<rscale>  0 0.10179223E+04</rscale>
<asrwt>0</asrwt>
<pdfrwt beam="1">  1        2 0.17631497E+00 0.10179223E+04</pdfrwt>
<pdfrwt beam="2">  1       -2 0.34773895E-01 0.10179223E+04</pdfrwt>
<totfact> 0.15774853E+02</totfact>
</mgrwt>
</event>
<event>
11    1  0.1022065E-010  0.9447873E+03  0.7818608E-02  0.9371264E-01
         -2   -1    0    0    0  501 -0.00000000000E+00  0.00000000000E+00  0.15274039398E+03  0.15274039398E+03  0.00000000000E+00 0.  1.
          2   -1    0    0  501    0  0.00000000000E+00 -0.00000000000E+00 -0.14610133578E+04  0.14610133578E+04  0.00000000000E+00 0. -1.
    9900016    2    1    2    0    0  0.13755462175E+03 -0.59178922392E+02 -0.12619878315E+04  0.14570191599E+04  0.71264866991E+03 0.  0.
         24    2    3    3    0    0 -0.83956842877E+02  0.67244630408E+02 -0.67205157358E+02  0.14887484323E+03  0.77952511108E+02 0.  0.
        -15    1    4    4    0    0 -0.32209823869E+02  0.52079247092E+02 -0.33256148776E+02  0.69682796749E+02  0.00000000000E+00 0.  1.
        -15    1    4    4    0    0 -0.28965487059E+02  0.18974441357E+02 -0.14072510736E+01  0.34655579940E+02  0.00000000000E+00 0.  1.
         15    1    3    3    0    0  0.18854122036E+03 -0.18671551305E+03 -0.27811811191E+03  0.38439583604E+03  0.00000000000E+00 0. -1.
         15    1    4    4    0    0 -0.15589419433E+02  0.68843324843E+01 -0.14566235706E+02  0.22418725536E+02  0.00000000000E+00 0. -1.
        -16    1    1    2    0    0 -0.13755462175E+03  0.59178922392E+02 -0.46285132387E+02  0.15673459191E+03  0.00000000000E+00 0.  1.
         16    1    4    4    0    0 -0.71921125165E+01 -0.10693390525E+02 -0.17975521802E+02  0.22117741011E+02  0.00000000000E+00 0. -1.
    9900018    1    3    3    0    0  0.32970244270E+02  0.60291960255E+02 -0.91666456221E+03  0.92374848064E+03  0.91187600000E+02 0.  0.
<mgrwt>
<rscale>  0 0.94478729E+03</rscale>
<asrwt>0</asrwt>
<pdfrwt beam="1">  1        2 0.22477128E+00 0.94478729E+03</pdfrwt>
<pdfrwt beam="2">  1       -2 0.23498523E-01 0.94478729E+03</pdfrwt>
<totfact> 0.21433909E+02</totfact>
</mgrwt>
</event>
<event>
11    1  0.1022065E-010  0.9620368E+03  0.7818608E-02  0.9351191E-01
          2   -1    0    0  501    0  0.00000000000E+00  0.00000000000E+00  0.49241112766E+03  0.49241112766E+03  0.00000000000E+00 0. -1.
         -2   -1    0    0    0  501 -0.00000000000E+00 -0.00000000000E+00 -0.46988925509E+03  0.46988925509E+03  0.00000000000E+00 0.  1.
    9900016    2    1    2    0    0 -0.14510926252E+03 -0.76602587852E+02  0.15563158024E+03  0.75101183879E+03  0.71615147748E+03 0.  0.
         24    2    3    3    0    0 -0.46610685571E+02  0.24113753682E+03  0.15501914205E+03  0.30035675846E+03  0.76572712346E+02 0.  0.
        -15    1    4    4    0    0  0.10415940566E+02  0.17461073325E+02  0.17646305170E+02  0.26921608156E+02  0.00000000000E+00 0.  1.
        -15    1    4    4    0    0 -0.17629926626E+02  0.97279719072E+02  0.81793662981E+02  0.12831352758E+03  0.00000000000E+00 0.  1.
         15    1    4    4    0    0  0.18202904013E+01  0.17386260671E+02  0.83473925421E+01  0.19372002465E+02  0.00000000000E+00 0. -1.
         15    1    3    3    0    0 -0.89506799682E+02 -0.33221239381E+03 -0.45510522898E+02  0.34705583050E+03  0.00000000000E+00 0. -1.
        -16    1    1    2    0    0  0.14510926252E+03  0.76602587852E+02 -0.13310970767E+03  0.21128854396E+03  0.00000000000E+00 0.  1.
         16    1    4    4    0    0 -0.41216989912E+02  0.10901048375E+03  0.47231781361E+02  0.12574962026E+03  0.00000000000E+00 0. -1.
    9900018    1    3    3    0    0 -0.89917772625E+01  0.14472269143E+02  0.46122961080E+02  0.10359924983E+03  0.91187600000E+02 0.  0.
<mgrwt>
<rscale>  0 0.96203679E+03</rscale>
<asrwt>0</asrwt>
<pdfrwt beam="1">  1        2 0.75755559E-01 0.96203679E+03</pdfrwt>
<pdfrwt beam="2">  1       -2 0.72290654E-01 0.96203679E+03</pdfrwt>
<totfact> 0.10870137E+02</totfact>
</mgrwt>
</event>
<event>
11    1  0.1022065E-010  0.1404601E+04  0.7818608E-02  0.8950495E-01
         -1   -1    0    0    0  501 -0.00000000000E+00  0.00000000000E+00  0.10098616562E+04  0.10098616562E+04  0.00000000000E+00 0.  1.
          1   -1    0    0  501    0  0.00000000000E+00 -0.00000000000E+00 -0.48840966116E+03  0.48840966116E+03  0.00000000000E+00 0. -1.
    9900016    2    1    2    0    0  0.34553288423E+03  0.35940059381E+03  0.41354726588E+03  0.98816819891E+03  0.74625283068E+03 0.  0.
        -24    2    3    3    0    0  0.16747883279E+02  0.11786178915E+03 -0.94676568843E+02  0.17189151886E+03  0.80069648633E+02 0.  0.
        -15    1    3    3    0    0 -0.72993115588E+02 -0.44526338098E+02  0.22401971387E+03  0.23978203000E+03  0.00000000000E+00 0.  1.
        -15    1    4    4    0    0  0.64529452564E+01  0.80040115490E+01 -0.96102206822E+01  0.14073416249E+02  0.00000000000E+00 0.  1.
         15    1    4    4    0    0  0.15422204655E+02 -0.48906115868E+01 -0.74751648025E+01  0.17822473648E+02  0.00000000000E+00 0. -1.
         15    1    4    4    0    0  0.36755242402E+01  0.17737378205E+02 -0.19336317582E+02  0.26495607969E+02  0.00000000000E+00 0. -1.
        -16    1    4    4    0    0 -0.88027908728E+01  0.97011010980E+02 -0.58254865777E+02  0.11350002099E+03  0.00000000000E+00 0.  1.
         16    1    1    2    0    0 -0.34553288423E+03 -0.35940059381E+03  0.10790472921E+03  0.51010311849E+03  0.00000000000E+00 0. -1.
    9900018    1    3    3    0    0  0.40177811654E+03  0.28606514276E+03  0.28420412085E+03  0.57649465005E+03  0.91187600000E+02 0.  0.
<mgrwt>
<rscale>  0 0.14046013E+04</rscale>
<asrwt>0</asrwt>
<pdfrwt beam="1">  1        1 0.75139948E-01 0.14046013E+04</pdfrwt>
<pdfrwt beam="2">  1       -1 0.15536333E+00 0.14046013E+04</pdfrwt>
<totfact> 0.14149258E+01</totfact>
</mgrwt>
</event>
