<event>
12    1  0.1248059E-010  0.2534395E+04  0.7818608E-02  0.8390834E-01
          2   -1    0    0  501    0  0.00000000000E+00  0.00000000000E+00  0.37263767554E+04  0.37263767554E+04  0.00000000000E+00 0. -1.
         -2   -1    0    0    0  501 -0.00000000000E+00 -0.00000000000E+00 -0.43092525068E+03  0.43092525068E+03  0.00000000000E+00 0.  1.
    9900016    2    1    2    0    0  0.40954486549E+02 -0.23450519305E+03  0.32281252493E+04  0.39099100495E+04  0.21931561765E+04 0.  0.
         24    2    3    3    0    0 -0.48285618813E+03 -0.21011867219E+03  0.10907970634E+04  0.12141281448E+04  0.83480317872E+02 0.  0.
         23    2    3    3    0    0 -0.23602993611E+03 -0.78387288892E+02  0.56775748601E+02  0.27554152432E+03  0.10413908101E+03 0.  0.
        -15    1    4    4    0    0 -0.25257204784E+03 -0.64436917173E+02  0.53715796608E+03  0.59706233860E+03  0.00000000000E+00 0.  1.
        -15    1    5    5    0    0 -0.16374563247E+03 -0.32292877759E+02 -0.95155967982E+01  0.16717059757E+03  0.00000000000E+00 0.  1.
         15    1    5    5    0    0 -0.72284303637E+02 -0.46094411132E+02  0.66291345400E+02  0.10837092675E+03  0.00000000000E+00 0. -1.
         15    1    3    3    0    0  0.95016323193E+03  0.15299057383E+03  0.13840579833E+04  0.16857736456E+04  0.00000000000E+00 0. -1.
        -16    1    1    2    0    0 -0.40954486549E+02  0.23450519305E+03  0.67326255479E+02  0.24739195665E+03  0.00000000000E+00 0.  1.
         16    1    4    4    0    0 -0.23028414030E+03 -0.14568175502E+03  0.55363909735E+03  0.61706580616E+03  0.00000000000E+00 0. -1.
    9900018    1    3    3    0    0 -0.19032262114E+03 -0.98989805800E+02  0.69649445399E+03  0.73446673485E+03  0.91187600000E+02 0.  0.
<mgrwt>
<rscale>  0 0.25343953E+04</rscale>
<asrwt>0</asrwt>
<pdfrwt beam="1">  1        2 0.57328871E+00 0.25343953E+04</pdfrwt>
<pdfrwt beam="2">  1       -2 0.66296195E-01 0.25343953E+04</pdfrwt>
<totfact> 0.10401455E+00</totfact>
</mgrwt>
</event>
<event>
12    1  0.1248059E-010  0.3230529E+04  0.7818608E-02  0.8180801E-01
          1   -1    0    0  501    0  0.00000000000E+00  0.00000000000E+00  0.29121302430E+04  0.29121302430E+04  0.00000000000E+00 0. -1.
         -1   -1    0    0    0  501 -0.00000000000E+00 -0.00000000000E+00 -0.89593491068E+03  0.89593491068E+03  0.00000000000E+00 0.  1.
    9900016    2    1    2    0    0 -0.45163547626E+02  0.86358815293E+02  0.24899089790E+04  0.33244307773E+04  0.22006125689E+04 0.  0.
         24    2    3    3    0    0  0.20409194492E+03 -0.35533255824E+03  0.15314904980E+04  0.15875600013E+04  0.83479718537E+02 0.  0.
         23    2    3    3    0    0  0.29760209933E+02 -0.17763350348E+03 -0.21601145456E+03  0.30043556062E+03  0.10564679801E+03 0.  0.
        -15    1    5    5    0    0 -0.34979674768E+02 -0.57344621846E+02 -0.10387175849E+03  0.12369852672E+03  0.00000000000E+00 0.  1.
        -15    1    4    4    0    0  0.11102419627E+03 -0.16228375905E+03  0.58687388132E+03  0.61893726918E+03  0.00000000000E+00 0.  1.
         15    1    3    3    0    0 -0.16926074553E+03  0.36518296651E+03  0.26615440606E+03  0.48254115563E+03  0.00000000000E+00 0. -1.
         15    1    5    5    0    0  0.64739884701E+02 -0.12028888164E+03 -0.11213969608E+03  0.17673703390E+03  0.00000000000E+00 0. -1.
        -16    1    1    2    0    0  0.45163547626E+02 -0.86358815293E+02 -0.47371364667E+03  0.48363437642E+03  0.00000000000E+00 0.  1.
         16    1    4    4    0    0  0.93067748650E+02 -0.19304879919E+03  0.94461661670E+03  0.96862273216E+03  0.00000000000E+00 0. -1.
    9900018    1    3    3    0    0 -0.10975495695E+03  0.25414191050E+03  0.90827552952E+03  0.95389405972E+03  0.91187600000E+02 0.  0.
<mgrwt>
<rscale>  0 0.32305288E+04</rscale>
<asrwt>0</asrwt>
<pdfrwt beam="1">  1        1 0.44802003E+00 0.32305288E+04</pdfrwt>
<pdfrwt beam="2">  1       -1 0.13783614E+00 0.32305288E+04</pdfrwt>
<totfact> 0.25204413E-01</totfact>
</mgrwt>
</event>
<event>
11    1  0.1248059E-010  0.2685708E+04  0.7818608E-02  0.8339657E-01
          1   -1    0    0  501    0  0.00000000000E+00  0.00000000000E+00  0.14850045250E+04  0.14850045250E+04  0.00000000000E+00 0. -1.
         -1   -1    0    0    0  501 -0.00000000000E+00 -0.00000000000E+00 -0.12143108378E+04  0.12143108378E+04  0.00000000000E+00 0.  1.
    9900016    2    1    2    0    0  0.18820534576E+03  0.17242079803E+03  0.58397960691E+03  0.22952135796E+04  0.22049541970E+04 0.  0.
         24    2    3    3    0    0  0.12983889367E+03  0.40039148960E+03  0.94672120207E+03  0.10389828094E+04  0.77670847616E+02 0.  0.
        -15    1    3    3    0    0  0.17538731242E+03 -0.12072058023E+03  0.60802806325E+02  0.22142978370E+03  0.00000000000E+00 0.  1.
        -15    1    4    4    0    0  0.10691499533E+02  0.13458766535E+03  0.34461297107E+03  0.37011653253E+03  0.00000000000E+00 0.  1.
         15    1    3    3    0    0  0.24549874098E+02  0.17529381916E+03 -0.54845423944E+03  0.57630952804E+03  0.00000000000E+00 0. -1.
         15    1    3    3    0    0  0.11853873700E+02  0.44693994922E+02  0.66802466115E+02  0.81244304310E+02  0.00000000000E+00 0. -1.
        -16    1    1    2    0    0 -0.18820534576E+03 -0.17242079803E+03 -0.31328591965E+03  0.40410178324E+03  0.00000000000E+00 0.  1.
         16    1    4    4    0    0  0.11914739414E+03  0.26580382426E+03  0.60210823100E+03  0.66886627689E+03  0.00000000000E+00 0. -1.
    9900018    1    3    3    0    0 -0.15342460813E+03 -0.32723792542E+03  0.58107371845E+02  0.37724715409E+03  0.91187600000E+02 0.  0.
<mgrwt>
<rscale>  0 0.26857082E+04</rscale>
<asrwt>0</asrwt>
<pdfrwt beam="1">  1        1 0.22846223E+00 0.26857082E+04</pdfrwt>
<pdfrwt beam="2">  1       -1 0.18681705E+00 0.26857082E+04</pdfrwt>
<totfact> 0.10899961E+00</totfact>
</mgrwt>
</event>
<event>
12    1  0.1248059E-010  0.4832384E+04  0.7818608E-02  0.7854897E-01
          1   -1    0    0  501    0  0.00000000000E+00  0.00000000000E+00  0.33218372393E+04  0.33218372393E+04  0.00000000000E+00 0. -1.
         -1   -1    0    0    0  501 -0.00000000000E+00 -0.00000000000E+00 -0.17574564726E+04  0.17574564726E+04  0.00000000000E+00 0.  1.
    9900016    2    1    2    0    0 -0.10899535084E+04  0.11513906096E+04 -0.18294321765E+03  0.27198785105E+04  0.22024013950E+04 0.  0.
        -24    2    3    3    0    0  0.17968044781E+03  0.22226772623E+03 -0.56431434673E+03  0.63760558998E+03  0.80013755014E+02 0.  0.
         23    2    3    3    0    0 -0.95841917660E+02  0.25232957746E+03  0.58951054750E+03  0.65730612950E+03  0.10804061001E+03 0.  0.
        -15    1    5    5    0    0 -0.11143906654E+03  0.23516932413E+03  0.57144175637E+03  0.62790839896E+03  0.00000000000E+00 0.  1.
        -15    1    3    3    0    0 -0.13433862208E+03  0.17788625867E+03  0.73258377835E+02  0.23464265667E+03  0.00000000000E+00 0.  1.
         15    1    5    5    0    0  0.15597148878E+02  0.17160253331E+02  0.18068791130E+02  0.29397730531E+02  0.00000000000E+00 0. -1.
         15    1    4    4    0    0  0.12695828992E+03  0.93575695938E+02 -0.30243266366E+03  0.34108698934E+03  0.00000000000E+00 0. -1.
        -16    1    4    4    0    0  0.52722157892E+02  0.12869203029E+03 -0.26188168308E+03  0.29651860064E+03  0.00000000000E+00 0.  1.
         16    1    1    2    0    0  0.10899535084E+04 -0.11513906096E+04  0.17473239843E+04  0.23594152014E+04  0.00000000000E+00 0. -1.
    9900018    1    3    3    0    0 -0.10394534165E+04  0.49890704722E+03 -0.28139779625E+03  0.11903241344E+04  0.91187600000E+02 0.  0.
<mgrwt>
<rscale>  0 0.48323842E+04</rscale>
<asrwt>0</asrwt>
<pdfrwt beam="1">  1        1 0.51105188E+00 0.48323842E+04</pdfrwt>
<pdfrwt beam="2">  1       -1 0.27037792E+00 0.48323842E+04</pdfrwt>
<totfact> 0.12908770E-02</totfact>
</mgrwt>
</event>
<event>
12    1  0.1248059E-010  0.3028910E+04  0.7818608E-02  0.8235523E-01
         -1   -1    0    0    0  501 -0.00000000000E+00  0.00000000000E+00  0.10480381466E+04  0.10480381466E+04  0.00000000000E+00 0.  1.
          1   -1    0    0  501    0  0.00000000000E+00 -0.00000000000E+00 -0.21884447220E+04  0.21884447220E+04  0.00000000000E+00 0. -1.
    9900016    2    1    2    0    0  0.53914613890E+03 -0.46999610059E+03 -0.94561493688E+03  0.24951875995E+04  0.21954950818E+04 0.  0.
        -24    2    3    3    0    0 -0.68274494246E+03 -0.16014382696E+02 -0.69990917173E+03  0.98075148345E+03  0.74856574263E+02 0.  0.
         23    2    3    3    0    0 -0.39644284939E+01  0.33263272809E+02  0.14456425802E+02  0.11051119232E+03  0.10431478021E+03 0.  0.
        -15    1    3    3    0    0  0.84165698138E+03 -0.23221670315E+03 -0.13805554405E+02  0.87321341313E+03  0.00000000000E+00 0.  1.
        -15    1    5    5    0    0  0.16959218369E+02 -0.12784353544E+02  0.46164441108E+02  0.50815454401E+02  0.00000000000E+00 0.  1.
         15    1    5    5    0    0 -0.20923646863E+02  0.46047626353E+02 -0.31708015306E+02  0.59695737917E+02  0.00000000000E+00 0. -1.
         15    1    4    4    0    0 -0.40796628324E+03 -0.18958478839E+02 -0.46830242717E+03  0.62137193007E+03  0.00000000000E+00 0. -1.
        -16    1    4    4    0    0 -0.27477865922E+03  0.29440961433E+01 -0.23160674456E+03  0.35937955338E+03  0.00000000000E+00 0.  1.
         16    1    1    2    0    0 -0.53914613890E+03  0.46999610059E+03 -0.19479163853E+03  0.74129526918E+03  0.00000000000E+00 0. -1.
    9900018    1    3    3    0    0  0.38419852847E+03 -0.25502828756E+03 -0.24635663654E+03  0.53071151061E+03  0.91187600000E+02 0.  0.
<mgrwt>
<rscale>  0 0.30289097E+04</rscale>
<asrwt>0</asrwt>
<pdfrwt beam="1">  1        1 0.33668380E+00 0.30289097E+04</pdfrwt>
<pdfrwt beam="2">  1       -1 0.16123664E+00 0.30289097E+04</pdfrwt>
<totfact> 0.53858895E-01</totfact>
</mgrwt>
</event>
<event>
12    1  0.1248059E-010  0.2486345E+04  0.7818608E-02  0.8407867E-01
         -2   -1    0    0    0  501 -0.00000000000E+00  0.00000000000E+00  0.97225491421E+03  0.97225491421E+03  0.00000000000E+00 0.  1.
          2   -1    0    0  501    0  0.00000000000E+00 -0.00000000000E+00 -0.15895803353E+04  0.15895803353E+04  0.00000000000E+00 0. -1.
    9900016    2    1    2    0    0 -0.15627081550E+02 -0.30037150624E+02 -0.81863789903E+03  0.23576952244E+04  0.22107492678E+04 0.  0.
         24    2    3    3    0    0  0.21296056098E+03  0.85014424155E+03 -0.22615206735E+03  0.90860553096E+03  0.79509882186E+02 0.  0.
         23    2    3    3    0    0 -0.32039341383E+03 -0.35417680871E+02 -0.69928127173E+02  0.34582103480E+03  0.10390328869E+03 0.  0.
        -15    1    5    5    0    0 -0.18203325903E+02 -0.10717625519E+01 -0.35285558378E+02  0.39718766080E+02  0.00000000000E+00 0. -1.
        -15    1    4    4    0    0  0.16755331459E+03  0.58033544083E+03 -0.12454760669E+03  0.61674584997E+03  0.00000000000E+00 0.  1.
         15    1    3    3    0    0 -0.27361435004E+02 -0.56799670383E+03 -0.54498951454E+03  0.78764362159E+03  0.00000000000E+00 0. -1.
         15    1    5    5    0    0 -0.30219008792E+03 -0.34345918319E+02 -0.34642568795E+02  0.30610226872E+03  0.00000000000E+00 0.  1.
        -16    1    1    2    0    0  0.15627081550E+02  0.30037150624E+02  0.20131247794E+03  0.20414002515E+03  0.00000000000E+00 0.  1.
         16    1    4    4    0    0  0.45407246383E+02  0.26980880071E+03 -0.10160446066E+03  0.29185968100E+03  0.00000000000E+00 0. -1.
    9900018    1    3    3    0    0  0.11916720630E+03 -0.27676700747E+03  0.22431810027E+02  0.31562503700E+03  0.91187600000E+02 0.  0.
<mgrwt>
<rscale>  0 0.24863445E+04</rscale>
<asrwt>0</asrwt>
<pdfrwt beam="1">  1        2 0.24455082E+00 0.24863445E+04</pdfrwt>
<pdfrwt beam="2">  1       -2 0.14957768E+00 0.24863445E+04</pdfrwt>
<totfact> 0.30469786E+00</totfact>
</mgrwt>
</event>
<event>
12    1  0.1248059E-010  0.2725611E+04  0.7818608E-02  0.8326743E-01
          2   -1    0    0  501    0  0.00000000000E+00  0.00000000000E+00  0.17062987124E+04  0.17062987124E+04  0.00000000000E+00 0. -1.
         -2   -1    0    0    0  501 -0.00000000000E+00 -0.00000000000E+00 -0.10884604712E+04  0.10884604712E+04  0.00000000000E+00 0.  1.
    9900016    2    1    2    0    0 -0.14385716567E+03  0.22910337072E+03  0.91755822309E+03  0.23910076435E+04  0.21913058253E+04 0.  0.
        -24    2    3    3    0    0  0.47071262475E+03 -0.18300043488E+03  0.20872780637E+03  0.55167144078E+03  0.75594623784E+02 0.  0.
         23    2    3    3    0    0 -0.99660751521E+02  0.20139143423E+03 -0.16592350643E+02  0.23844600302E+03  0.78041111470E+02 0.  0.
        -15    1    3    3    0    0 -0.50189177796E+03 -0.48801220874E+03  0.22060081264E+03  0.73397274555E+03  0.00000000000E+00 0.  1.
        -15    1    5    5    0    0 -0.81408662690E+01  0.81740149270E+02 -0.29436850722E+02  0.87259692223E+02  0.00000000000E+00 0.  1.
         15    1    5    5    0    0 -0.91519885252E+02  0.11965128496E+03  0.12844500080E+02  0.15118631079E+03  0.00000000000E+00 0. -1.
         15    1    4    4    0    0  0.35631057538E+03 -0.15964295668E+03  0.13285873992E+03  0.41242519870E+03  0.00000000000E+00 0. -1.
        -16    1    4    4    0    0  0.11440204937E+03 -0.23357478197E+02  0.75869066456E+02  0.13924624208E+03  0.00000000000E+00 0.  1.
         16    1    1    2    0    0  0.14385716567E+03 -0.22910337072E+03 -0.29971998188E+03  0.40375154009E+03  0.00000000000E+00 0. -1.
    9900018    1    3    3    0    0 -0.13017260936E+02  0.69872458011E+03  0.50482195472E+03  0.86691745414E+03  0.91187600000E+02 0.  0.
<mgrwt>
<rscale>  0 0.27256109E+04</rscale>
<asrwt>0</asrwt>
<pdfrwt beam="1">  1        2 0.26250749E+00 0.27256109E+04</pdfrwt>
<pdfrwt beam="2">  1       -2 0.16745546E+00 0.27256109E+04</pdfrwt>
<totfact> 0.18931639E+00</totfact>
</mgrwt>
</event>
<event>
12    1  0.1248059E-010  0.2616335E+04  0.7818608E-02  0.8362674E-01
          2   -1    0    0  501    0  0.00000000000E+00  0.00000000000E+00  0.11024176396E+04  0.11024176396E+04  0.00000000000E+00 0. -1.
         -2   -1    0    0    0  501 -0.00000000000E+00 -0.00000000000E+00 -0.15523180939E+04  0.15523180939E+04  0.00000000000E+00 0.  1.
    9900016    2    1    2    0    0 -0.39272807564E+03  0.11746477949E+02 -0.37960780978E+03  0.22555936824E+04  0.21884303620E+04 0.  0.
        -24    2    3    3    0    0 -0.10183033089E+04  0.12604787782E+03  0.25576438668E+03  0.10604734985E+04  0.79742856963E+02 0.  0.
         23    2    3    3    0    0  0.17055803652E+03  0.20881723812E+03 -0.11319649789E+03  0.30029119772E+03  0.68313055377E+02 0.  0.
        -15    1    5    5    0    0  0.14261752982E+03  0.12474296108E+03 -0.74000217770E+02  0.20341238502E+03  0.00000000000E+00 0.  1.
        -15    1    3    3    0    0  0.22562744827E+03 -0.40492020037E+03 -0.29437190162E+03  0.54911103662E+03  0.00000000000E+00 0.  1.
         15    1    4    4    0    0 -0.42988320625E+03  0.47475518600E+02  0.67766355306E+02  0.43777365703E+03  0.00000000000E+00 0. -1.
         15    1    5    5    0    0  0.27940506709E+02  0.84074277040E+02 -0.39196280121E+02  0.96878812701E+02  0.00000000000E+00 0. -1.
        -16    1    4    4    0    0 -0.58842010262E+03  0.78572359216E+02  0.18799803137E+03  0.62269984150E+03  0.00000000000E+00 0.  1.
         16    1    1    2    0    0  0.39272807564E+03 -0.11746477949E+02 -0.70292644503E+02  0.39914205117E+03  0.00000000000E+00 0. -1.
    9900018    1    3    3    0    0  0.22938974844E+03  0.81801562385E+02 -0.22780379695E+03  0.34571794949E+03  0.91187600000E+02 0.  0.
<mgrwt>
<rscale>  0 0.26163355E+04</rscale>
<asrwt>0</asrwt>
<pdfrwt beam="1">  1        2 0.16960271E+00 0.26163355E+04</pdfrwt>
<pdfrwt beam="2">  1       -2 0.23881817E+00 0.26163355E+04</pdfrwt>
<totfact> 0.14447665E+00</totfact>
</mgrwt>
</event>
<event>
12    1  0.1248059E-010  0.2949074E+04  0.7818608E-02  0.8258424E-01
          1   -1    0    0  501    0  0.00000000000E+00  0.00000000000E+00  0.16788433983E+04  0.16788433983E+04  0.00000000000E+00 0. -1.
         -1   -1    0    0    0  501 -0.00000000000E+00 -0.00000000000E+00 -0.12950938273E+04  0.12950938273E+04  0.00000000000E+00 0.  1.
    9900016    2    1    2    0    0  0.93154986014E+02 -0.19321093400E+03 -0.32884820689E+03  0.22297572008E+04  0.21949186123E+04 0.  0.
        -24    2    3    3    0    0 -0.25827636601E+02 -0.88907256760E+03 -0.46100090625E+03  0.10051330907E+04  0.81569584516E+02 0.  0.
         23    2    3    3    0    0  0.30996701037E+03  0.30186681480E+03  0.32376336679E+03  0.55142432415E+03  0.10974035809E+03 0.  0.
        -15    1    5    5    0    0  0.19500700695E+03  0.25351984243E+03  0.21003101419E+03  0.38263960875E+03  0.00000000000E+00 0.  1.
        -15    1    3    3    0    0  0.51120649217E+02  0.35639866661E+03 -0.19956169244E+03  0.41165300852E+03  0.00000000000E+00 0.  1.
         15    1    4    4    0    0 -0.55730466206E+01 -0.84076069620E+03 -0.43532466739E+03  0.94679309945E+03  0.00000000000E+00 0. -1.
         15    1    5    5    0    0  0.11496000342E+03  0.48346972374E+02  0.11373235261E+03  0.16878471540E+03  0.00000000000E+00 0. -1.
        -16    1    4    4    0    0 -0.20254589980E+02 -0.48311871401E+02 -0.25676238864E+02  0.58339991222E+02  0.00000000000E+00 0.  1.
         16    1    1    2    0    0 -0.93154986014E+02  0.19321093400E+03  0.71259777784E+03  0.74418002487E+03  0.00000000000E+00 0. -1.
    9900018    1    3    3    0    0 -0.24210503697E+03  0.37596152190E+02  0.79510250145E+01  0.26154677742E+03  0.91187600000E+02 0.  0.
<mgrwt>
<rscale>  0 0.29490742E+04</rscale>
<asrwt>0</asrwt>
<pdfrwt beam="1">  1        1 0.25828360E+00 0.29490742E+04</pdfrwt>
<pdfrwt beam="2">  1       -1 0.19924520E+00 0.29490742E+04</pdfrwt>
<totfact> 0.64156971E-01</totfact>
</mgrwt>
</event>
<event>
11    1  0.1248059E-010  0.2907945E+04  0.7818608E-02  0.8270518E-01
          1   -1    0    0  501    0  0.00000000000E+00  0.00000000000E+00  0.14534559123E+04  0.14534559123E+04  0.00000000000E+00 0. -1.
         -1   -1    0    0    0  501 -0.00000000000E+00 -0.00000000000E+00 -0.14544888436E+04  0.14544888436E+04  0.00000000000E+00 0.  1.
    9900016    2    1    2    0    0 -0.42641016783E+03  0.22456740545E+03 -0.37964642336E+03  0.22950790878E+04  0.22115606394E+04 0.  0.
         24    2    3    3    0    0  0.47749986274E+03  0.16717108055E+03 -0.94304337659E+03  0.10729486543E+04  0.77043595267E+02 0.  0.
        -15    1    3    3    0    0 -0.31723203869E+01  0.18485770538E+02  0.12097988500E+01  0.18794971196E+02  0.00000000000E+00 0. -1.
        -15    1    4    4    0    0  0.52040859617E+02  0.27649585724E+01 -0.14036955925E+03  0.14973145705E+03  0.00000000000E+00 0.  1.
         15    1    3    3    0    0 -0.41578595577E+03 -0.53322329638E+02  0.32052033398E+03  0.52768789673E+03  0.00000000000E+00 0. -1.
         15    1    3    3    0    0  0.55872506218E+02 -0.35434612568E+01 -0.21315171345E+02  0.59905171715E+02  0.00000000000E+00 0.  1.
        -16    1    1    2    0    0  0.42641016783E+03 -0.22456740545E+03  0.37861349199E+03  0.61286566810E+03  0.00000000000E+00 0.  1.
         16    1    4    4    0    0  0.42545900313E+03  0.16440612198E+03 -0.80267381734E+03  0.92321719727E+03  0.00000000000E+00 0. -1.
    9900018    1    3    3    0    0 -0.54082426063E+03  0.95776345260E+02  0.26298199175E+03  0.61574239384E+03  0.91187600000E+02 0.  0.
<mgrwt>
<rscale>  0 0.29079446E+04</rscale>
<asrwt>0</asrwt>
<pdfrwt beam="1">  1        1 0.22360860E+00 0.29079446E+04</pdfrwt>
<pdfrwt beam="2">  1       -1 0.22376751E+00 0.29079446E+04</pdfrwt>
<totfact> 0.62785065E-01</totfact>
</mgrwt>
</event>
<event>
12    1  0.1248059E-010  0.3160760E+04  0.7818608E-02  0.8199258E-01
          1   -1    0    0  501    0  0.00000000000E+00  0.00000000000E+00  0.21907854312E+04  0.21907854312E+04  0.00000000000E+00 0. -1.
         -1   -1    0    0    0  501 -0.00000000000E+00 -0.00000000000E+00 -0.11400483782E+04  0.11400483782E+04  0.00000000000E+00 0.  1.
    9900016    2    1    2    0    0  0.63857289324E+03  0.25595701523E+03  0.32596644326E+03  0.23315431759E+04  0.22037581821E+04 0.  0.
        -24    2    3    3    0    0  0.69804842323E+03 -0.63134453757E+03  0.75218277570E+02  0.94793622893E+03  0.84010585957E+02 0.  0.
         23    2    3    3    0    0 -0.32976861251E+02 -0.18339439119E+03  0.17155585338E+03  0.26392765105E+03  0.74198504431E+02 0.  0.
        -15    1    3    3    0    0  0.30481748575E+02  0.56414368201E+03  0.17831563148E+03  0.59243876931E+03  0.00000000000E+00 0.  1.
        -15    1    5    5    0    0  0.17363092127E+02 -0.57918684809E+02  0.81509177272E+02  0.10148791553E+03  0.00000000000E+00 0. -1.
         15    1    5    5    0    0 -0.50339953379E+02 -0.12547570638E+03  0.90046676112E+02  0.16243973552E+03  0.00000000000E+00 0.  1.
         15    1    4    4    0    0  0.66782952542E+03 -0.57611954643E+03  0.70799387373E+02  0.88482911348E+03  0.00000000000E+00 0. -1.
        -16    1    4    4    0    0  0.30218897811E+02 -0.55224991132E+02  0.44188901974E+01  0.63107115455E+02  0.00000000000E+00 0.  1.
         16    1    1    2    0    0 -0.63857289324E+03 -0.25595701523E+03  0.72477060970E+03  0.99929063355E+03  0.00000000000E+00 0. -1.
    9900018    1    3    3    0    0 -0.56980417316E+02  0.50655226197E+03 -0.99123319177E+02  0.52724052658E+03  0.91187600000E+02 0.  0.
<mgrwt>
<rscale>  0 0.31607603E+04</rscale>
<asrwt>0</asrwt>
<pdfrwt beam="1">  1        1 0.33704391E+00 0.31607603E+04</pdfrwt>
<pdfrwt beam="2">  1       -1 0.17539206E+00 0.31607603E+04</pdfrwt>
<totfact> 0.41690209E-01</totfact>
</mgrwt>
</event>
<event>
12    1  0.1248059E-010  0.3169125E+04  0.7818608E-02  0.8197019E-01
          1   -1    0    0  501    0  0.00000000000E+00  0.00000000000E+00  0.21682424810E+04  0.21682424810E+04  0.00000000000E+00 0. -1.
         -1   -1    0    0    0  501 -0.00000000000E+00 -0.00000000000E+00 -0.11580060343E+04  0.11580060343E+04  0.00000000000E+00 0.  1.
    9900016    2    1    2    0    0 -0.71776691255E+03  0.17850934167E+03  0.37169602131E+03  0.23491155660E+04  0.21984383285E+04 0.  0.
        -24    2    3    3    0    0 -0.55598047574E+03 -0.22051367667E+03 -0.37713806776E+03  0.71165405736E+03  0.80484807288E+02 0.  0.
         23    2    3    3    0    0 -0.92400129907E+02 -0.73709893020E+00 -0.21584889633E+03  0.25731379387E+03  0.10526782578E+03 0.  0.
        -15    1    3    3    0    0 -0.27615288745E+03 -0.84236292406E+02  0.75145085795E+03  0.80500593918E+03  0.00000000000E+00 0.  1.
        -15    1    5    5    0    0 -0.10957641613E+03  0.36965153666E+01 -0.13193065299E+03  0.17154110993E+03  0.00000000000E+00 0.  1.
         15    1    5    5    0    0  0.17176286220E+02 -0.44336142968E+01 -0.83918243342E+02  0.85772683936E+02  0.00000000000E+00 0. -1.
         15    1    4    4    0    0 -0.42838773093E+03 -0.20061280280E+03 -0.27634451556E+03  0.54783924279E+03  0.00000000000E+00 0. -1.
        -16    1    4    4    0    0 -0.12759274481E+03 -0.19900873872E+02 -0.10079355221E+03  0.16381481458E+03  0.00000000000E+00 0.  1.
         16    1    1    2    0    0  0.71776691255E+03 -0.17850934167E+03  0.63854042538E+03  0.97713294932E+03  0.00000000000E+00 0. -1.
    9900018    1    3    3    0    0  0.20676658055E+03  0.48399640968E+03  0.21323212745E+03  0.57514177555E+03  0.91187600000E+02 0.  0.
<mgrwt>
<rscale>  0 0.31691247E+04</rscale>
<asrwt>0</asrwt>
<pdfrwt beam="1">  1        1 0.33357577E+00 0.31691247E+04</pdfrwt>
<pdfrwt beam="2">  1       -1 0.17815477E+00 0.31691247E+04</pdfrwt>
<totfact> 0.41216989E-01</totfact>
</mgrwt>
</event>
<event>
12    1  0.1248059E-010  0.3023533E+04  0.7818608E-02  0.8237043E-01
         -1   -1    0    0    0  501 -0.00000000000E+00  0.00000000000E+00  0.94903696134E+03  0.94903696134E+03  0.00000000000E+00 0.  1.
          1   -1    0    0  501    0  0.00000000000E+00 -0.00000000000E+00 -0.24081649659E+04  0.24081649659E+04  0.00000000000E+00 0. -1.
    9900016    2    1    2    0    0 -0.11388063219E+03 -0.14738077368E+03 -0.18725753022E+04  0.29037390746E+04  0.22114412631E+04 0.  0.
         24    2    3    3    0    0 -0.41950739782E+03  0.24915669010E+02 -0.88625453356E+02  0.43562986473E+03  0.72881140696E+02 0.  0.
         23    2    3    3    0    0 -0.45905954779E+02 -0.50009747031E+03 -0.11747705624E+04  0.12818626589E+04  0.10431282471E+03 0.  0.
        -15    1    4    4    0    0 -0.11401552444E+03 -0.60185646040E+01  0.59831842218E+01  0.11433092944E+03  0.00000000000E+00 0.  1.
        -15    1    5    5    0    0 -0.22325587706E+02 -0.28886050980E+03 -0.80236754113E+03  0.85307238676E+03  0.00000000000E+00 0. -1.
         15    1    3    3    0    0  0.46774348568E+03  0.47241943047E+03 -0.14832223615E+03  0.68114871535E+03  0.00000000000E+00 0. -1.
         15    1    5    5    0    0 -0.23580367073E+02 -0.21123696051E+03 -0.37240302127E+03  0.42879027210E+03  0.00000000000E+00 0.  1.
        -16    1    1    2    0    0  0.11388063219E+03  0.14738077368E+03  0.41344729761E+03  0.45346285266E+03  0.00000000000E+00 0.  1.
         16    1    4    4    0    0 -0.30549187339E+03  0.30934233614E+02 -0.94608637578E+02  0.32129893529E+03  0.00000000000E+00 0. -1.
    9900018    1    3    3    0    0 -0.11621076526E+03 -0.14461840285E+03 -0.46085705026E+03  0.50509783565E+03  0.91187600000E+02 0.  0.
<mgrwt>
<rscale>  0 0.30235327E+04</rscale>
<asrwt>0</asrwt>
<pdfrwt beam="1">  1        1 0.37048692E+00 0.30235327E+04</pdfrwt>
<pdfrwt beam="2">  1       -1 0.14600568E+00 0.30235327E+04</pdfrwt>
<totfact> 0.49948253E-01</totfact>
</mgrwt>
</event>
<event>
12    1  0.1248059E-010  0.2322492E+04  0.7818608E-02  0.8469105E-01
          2   -1    0    0  501    0  0.00000000000E+00  0.00000000000E+00  0.10270194198E+04  0.10270194198E+04  0.00000000000E+00 0. -1.
         -2   -1    0    0    0  501 -0.00000000000E+00 -0.00000000000E+00 -0.13130152577E+04  0.13130152577E+04  0.00000000000E+00 0.  1.
    9900016    2    1    2    0    0 -0.10627372723E+03  0.32524553526E+02 -0.22279864830E+03  0.22121838408E+04  0.21981278752E+04 0.  0.
         24    2    3    3    0    0  0.34817547767E+03 -0.98300819111E+02 -0.79385627695E+03  0.87607007492E+03  0.80011083151E+02 0.  0.
         23    2    3    3    0    0 -0.20899337964E+03  0.60788844968E+01 -0.73232042530E+02  0.23377924055E+03  0.74663349028E+02 0.  0.
        -15    1    5    5    0    0 -0.13525503280E+02 -0.60383414023E+01 -0.29652193177E+02  0.33145940417E+02  0.00000000000E+00 0. -1.
        -15    1    4    4    0    0  0.16453862677E+03 -0.50004107024E+02 -0.47232050739E+03  0.50265299374E+03  0.00000000000E+00 0.  1.
         15    1    5    5    0    0 -0.19546787636E+03  0.12117225899E+02 -0.43579849353E+02  0.20063330013E+03  0.00000000000E+00 0.  1.
         15    1    3    3    0    0 -0.54191013160E+03 -0.22910953452E+02  0.31903017298E+03  0.62926286542E+03  0.00000000000E+00 0. -1.
        -16    1    1    2    0    0  0.10627372723E+03 -0.32524553526E+02 -0.63197189616E+02  0.12785083674E+03  0.00000000000E+00 0.  1.
         16    1    4    4    0    0  0.18363685090E+03 -0.48296712086E+02 -0.32153576956E+03  0.37341708118E+03  0.00000000000E+00 0. -1.
    9900018    1    3    3    0    0  0.29645430635E+03  0.14765744159E+03  0.32525949819E+03  0.47307165987E+03  0.91187600000E+02 0.  0.
<mgrwt>
<rscale>  0 0.23224919E+04</rscale>
<asrwt>0</asrwt>
<pdfrwt beam="1">  1        2 0.15800299E+00 0.23224919E+04</pdfrwt>
<pdfrwt beam="2">  1       -2 0.20200235E+00 0.23224919E+04</pdfrwt>
<totfact> 0.28260305E+00</totfact>
</mgrwt>
</event>
<event>
12    1  0.1248059E-010  0.2465084E+04  0.7818608E-02  0.8415531E-01
          1   -1    0    0  501    0  0.00000000000E+00  0.00000000000E+00  0.88404186633E+03  0.88404186633E+03  0.00000000000E+00 0. -1.
         -1   -1    0    0    0  501 -0.00000000000E+00 -0.00000000000E+00 -0.17184258247E+04  0.17184258247E+04  0.00000000000E+00 0.  1.
    9900016    2    1    2    0    0 -0.57364073354E+02  0.42279309999E+02 -0.10059149715E+04  0.24167230668E+04  0.21962712207E+04 0.  0.
        -24    2    3    3    0    0 -0.23498040984E+03 -0.58582323545E+03 -0.63934021095E+03  0.90177317783E+03  0.77680774408E+02 0.  0.
         23    2    3    3    0    0 -0.27396471181E+03  0.39307097666E+03  0.16701529971E+03  0.51828425865E+03  0.10565512962E+03 0.  0.
        -15    1    5    5    0    0 -0.20762339642E+03  0.28207471547E+03  0.16915322107E+03  0.38895556565E+03  0.00000000000E+00 0.  1.
        -15    1    3    3    0    0  0.54830261101E+03  0.36247101669E+03 -0.42882731538E+03  0.78480179510E+03  0.00000000000E+00 0.  1.
         15    1    5    5    0    0 -0.66341315394E+02  0.11099626119E+03 -0.21379213606E+01  0.12932869300E+03  0.00000000000E+00 0. -1.
         15    1    4    4    0    0 -0.36250278906E+02 -0.17016254153E+03 -0.20103131199E+03  0.26586267444E+03  0.00000000000E+00 0. -1.
        -16    1    4    4    0    0 -0.19873013094E+03 -0.41566069392E+03 -0.43830889896E+03  0.63591050339E+03  0.00000000000E+00 0.  1.
         16    1    1    2    0    0  0.57364073354E+02 -0.42279309999E+02  0.17153101311E+03  0.18574462422E+03  0.00000000000E+00 0. -1.
    9900018    1    3    3    0    0 -0.96721562707E+02 -0.12743944789E+03 -0.10476274485E+03  0.21186383522E+03  0.91187600000E+02 0.  0.
<mgrwt>
<rscale>  0 0.24650845E+04</rscale>
<asrwt>0</asrwt>
<pdfrwt beam="1">  1        1 0.13600644E+00 0.24650845E+04</pdfrwt>
<pdfrwt beam="2">  1       -1 0.26437320E+00 0.24650845E+04</pdfrwt>
<totfact> 0.93933731E-01</totfact>
</mgrwt>
</event>
<event>
12    1  0.1248059E-010  0.2646196E+04  0.7818608E-02  0.8352677E-01
          1   -1    0    0  501    0  0.00000000000E+00  0.00000000000E+00  0.27618546579E+04  0.27618546579E+04  0.00000000000E+00 0. -1.
         -1   -1    0    0    0  501 -0.00000000000E+00 -0.00000000000E+00 -0.63384513974E+03  0.63384513974E+03  0.00000000000E+00 0.  1.
    9900016    2    1    2    0    0  0.23736783110E+02  0.21007356565E+03  0.13474824370E+04  0.25870485364E+04  0.21982758867E+04 0.  0.
        -24    2    3    3    0    0  0.47397897238E+03  0.42697102863E+03  0.59704820135E+03  0.87762635121E+03  0.82468976349E+02 0.  0.
         23    2    3    3    0    0  0.14318960076E+03 -0.12125665780E+03 -0.65552539046E+02  0.21328154590E+03  0.77365648828E+02 0.  0.
        -15    1    5    5    0    0  0.39584804746E+01 -0.29971404767E+02  0.79962506689E+01  0.31271307874E+02  0.00000000000E+00 0. -1.
        -15    1    3    3    0    0 -0.65691658583E+03  0.63995583924E+02  0.10195834431E+04  0.12145720370E+04  0.00000000000E+00 0.  1.
         15    1    4    4    0    0  0.34074142882E+03  0.25933268774E+03  0.37582434354E+03  0.56973862555E+03  0.00000000000E+00 0. -1.
         15    1    5    5    0    0  0.13923112028E+03 -0.91285253034E+02 -0.73548789715E+02  0.18201023802E+03  0.00000000000E+00 0.  1.
        -16    1    4    4    0    0  0.13323754356E+03  0.16763834089E+03  0.22122385781E+03  0.30788772566E+03  0.00000000000E+00 0.  1.
         16    1    1    2    0    0 -0.23736783110E+02 -0.21007356565E+03  0.78052708121E+03  0.80865126127E+03  0.00000000000E+00 0. -1.
    9900018    1    3    3    0    0  0.63484795814E+02 -0.15963638911E+03 -0.20359666843E+03  0.28156860233E+03  0.91187600000E+02 0.  0.
<mgrwt>
<rscale>  0 0.26461959E+04</rscale>
<asrwt>0</asrwt>
<pdfrwt beam="1">  1        1 0.42490071E+00 0.26461959E+04</pdfrwt>
<pdfrwt beam="2">  1       -1 0.97514638E-01 0.26461959E+04</pdfrwt>
<totfact> 0.78521767E-01</totfact>
</mgrwt>
</event>
<event>
12    1  0.1248059E-010  0.3124587E+04  0.7818608E-02  0.8209023E-01
         -2   -1    0    0    0  501 -0.00000000000E+00  0.00000000000E+00  0.98548190959E+03  0.98548190959E+03  0.00000000000E+00 0.  1.
          2   -1    0    0  501    0  0.00000000000E+00 -0.00000000000E+00 -0.24767178747E+04  0.24767178747E+04  0.00000000000E+00 0. -1.
    9900016    2    1    2    0    0 -0.59322379508E+03 -0.28843792035E+03 -0.63426343063E+03  0.23807596196E+04  0.21978660928E+04 0.  0.
        -24    2    3    3    0    0 -0.10237793451E+04 -0.73076718176E+03 -0.30386967510E+03  0.12963349366E+04  0.77476880523E+02 0.  0.
         23    2    3    3    0    0  0.33810156743E+03  0.81609521205E+02 -0.39814955495E+03  0.54356619370E+03  0.12636595656E+03 0.  0.
        -15    1    5    5    0    0  0.40152444050E+01 -0.16619043403E+02 -0.38781577761E+01  0.17531540120E+02  0.00000000000E+00 0.  1.
        -15    1    3    3    0    0  0.21194610659E+03  0.97217845083E+02  0.33438411800E+02  0.23556440496E+03  0.00000000000E+00 0.  1.
         15    1    5    5    0    0  0.33408632302E+03  0.98228564608E+02 -0.39427139717E+03  0.52603465358E+03  0.00000000000E+00 0. -1.
         15    1    4    4    0    0 -0.19108316225E+03 -0.10384534164E+03 -0.65288347668E+02  0.22706650615E+03  0.00000000000E+00 0. -1.
        -16    1    4    4    0    0 -0.83269618290E+03 -0.62692184012E+03 -0.23858132743E+03  0.10692684305E+04  0.00000000000E+00 0.  1.
         16    1    1    2    0    0  0.59322379508E+03  0.28843792035E+03 -0.85697253446E+03  0.10814401647E+04  0.00000000000E+00 0. -1.
    9900018    1    3    3    0    0 -0.11949212396E+03  0.26350189512E+03  0.34317387615E+02  0.30529408430E+03  0.91187600000E+02 0.  0.
<mgrwt>
<rscale>  0 0.31245868E+04</rscale>
<asrwt>0</asrwt>
<pdfrwt beam="1">  1        2 0.38103352E+00 0.31245868E+04</pdfrwt>
<pdfrwt beam="2">  1       -2 0.15161260E+00 0.31245868E+04</pdfrwt>
<totfact> 0.88590742E-01</totfact>
</mgrwt>
</event>
<event>
12    1  0.1248059E-010  0.3076177E+04  0.7818608E-02  0.8222306E-01
         -1   -1    0    0    0  501 -0.00000000000E+00  0.00000000000E+00  0.52478045810E+03  0.52478045810E+03  0.00000000000E+00 0.  1.
          1   -1    0    0  501    0  0.00000000000E+00 -0.00000000000E+00 -0.45080120317E+04  0.45080120317E+04  0.00000000000E+00 0. -1.
    9900016    2    1    2    0    0  0.78627950074E+02 -0.61251195589E+03 -0.23330265553E+04  0.32708248814E+04  0.22076977254E+04 0.  0.
        -24    2    3    3    0    0 -0.21761473672E+02 -0.41382199092E+03 -0.24836223097E+04  0.25191791182E+04  0.78494909021E+02 0.  0.
         23    2    3    3    0    0  0.26480765524E+03  0.87107765898E+02 -0.28615532366E+02  0.29942555297E+03  0.10547964697E+03 0.  0.
        -15    1    5    5    0    0 -0.27382674215E+00  0.25812884232E+02 -0.52977958717E+01  0.26352355009E+02  0.00000000000E+00 0. -1.
        -15    1    3    3    0    0  0.24019117853E+01 -0.37825483678E+02  0.13060981408E+03  0.13599801443E+03  0.00000000000E+00 0.  1.
         15    1    4    4    0    0 -0.22303204568E+02 -0.18367569820E+03 -0.89049878979E+03  0.90951761371E+03  0.00000000000E+00 0. -1.
         15    1    5    5    0    0  0.26508148198E+03  0.61294881666E+02 -0.23317736494E+02  0.27307319796E+03  0.00000000000E+00 0.  1.
        -16    1    4    4    0    0  0.54173089629E+00 -0.23014629272E+03 -0.15931235199E+04  0.16096615045E+04  0.00000000000E+00 0.  1.
         16    1    1    2    0    0 -0.78627950074E+02  0.61251195589E+03 -0.16502050183E+04  0.17619676084E+04  0.00000000000E+00 0. -1.
    9900018    1    3    3    0    0 -0.16682014328E+03 -0.24797224719E+03  0.48601472625E+02  0.31622219580E+03  0.91187600000E+02 0.  0.
<mgrwt>
<rscale>  0 0.30761773E+04</rscale>
<asrwt>0</asrwt>
<pdfrwt beam="1">  1        1 0.69354032E+00 0.30761773E+04</pdfrwt>
<pdfrwt beam="2">  1       -1 0.80735454E-01 0.30761773E+04</pdfrwt>
<totfact> 0.40838483E-02</totfact>
</mgrwt>
</event>
<event>
12    1  0.1248059E-010  0.2659311E+04  0.7818608E-02  0.8348329E-01
          2   -1    0    0  501    0  0.00000000000E+00  0.00000000000E+00  0.19514142726E+04  0.19514142726E+04  0.00000000000E+00 0. -1.
         -2   -1    0    0    0  501 -0.00000000000E+00 -0.00000000000E+00 -0.90600118980E+03  0.90600118980E+03  0.00000000000E+00 0.  1.
    9900016    2    1    2    0    0 -0.10100840646E+03  0.40861892066E+03  0.88032147758E+03  0.24052790243E+04  0.21984606343E+04 0.  0.
         24    2    3    3    0    0  0.74594005847E+03  0.23899327835E+03 -0.52798845682E+02  0.78911163430E+03  0.79781547703E+02 0.  0.
         23    2    3    3    0    0 -0.38151740060E+03  0.17442691314E+03  0.18666255372E+03  0.47135388690E+03  0.10654249271E+03 0.  0.
        -15    1    5    5    0    0 -0.21034487694E+03  0.38960820419E+02  0.79942727706E+02  0.22837196083E+03  0.00000000000E+00 0. -1.
        -15    1    4    4    0    0  0.31897356005E+03  0.77649792881E+02  0.96165912052E+01  0.32842975074E+03  0.00000000000E+00 0.  1.
         15    1    3    3    0    0 -0.98291894964E+02 -0.24471603101E+03  0.62850038687E+03  0.68158636191E+03  0.00000000000E+00 0. -1.
         15    1    5    5    0    0 -0.17117252366E+03  0.13546609272E+03  0.10671982602E+03  0.24298192607E+03  0.00000000000E+00 0.  1.
        -16    1    1    2    0    0  0.10100840646E+03 -0.40861892066E+03  0.16509160518E+03  0.45213643803E+03  0.00000000000E+00 0.  1.
         16    1    4    4    0    0  0.42696649842E+03  0.16134348547E+03 -0.62415436887E+02  0.46068188356E+03  0.00000000000E+00 0. -1.
    9900018    1    3    3    0    0 -0.36713916936E+03  0.23991476018E+03  0.11795738267E+03  0.46322714121E+03  0.91187600000E+02 0.  0.
<mgrwt>
<rscale>  0 0.26593109E+04</rscale>
<asrwt>0</asrwt>
<pdfrwt beam="1">  1        2 0.30021758E+00 0.26593109E+04</pdfrwt>
<pdfrwt beam="2">  1       -2 0.13938480E+00 0.26593109E+04</pdfrwt>
<totfact> 0.22739016E+00</totfact>
</mgrwt>
</event>
<event>
12    1  0.1248059E-010  0.2838791E+04  0.7818608E-02  0.8291326E-01
          1   -1    0    0  501    0  0.00000000000E+00  0.00000000000E+00  0.14011410397E+04  0.14011410397E+04  0.00000000000E+00 0. -1.
         -1   -1    0    0    0  501 -0.00000000000E+00 -0.00000000000E+00 -0.14378875362E+04  0.14378875362E+04  0.00000000000E+00 0.  1.
    9900016    2    1    2    0    0  0.21124441808E+03  0.31568383207E+03 -0.46950838002E+03  0.22632132116E+04  0.21811500260E+04 0.  0.
        -24    2    3    3    0    0 -0.17123218992E+03  0.34420947676E+03  0.66655312505E+03  0.77366432272E+03  0.80391473354E+02 0.  0.
         23    2    3    3    0    0 -0.16923909202E+02  0.12193138541E+02 -0.53522511473E+02  0.96248792933E+02  0.77227453516E+02 0.  0.
        -15    1    3    3    0    0  0.51751275408E+03 -0.23558262630E+03 -0.48513727495E+03  0.74744685430E+03  0.00000000000E+00 0.  1.
        -15    1    5    5    0    0 -0.67278287202E+01 -0.20760583579E+02 -0.57521943185E+02  0.61522674337E+02  0.00000000000E+00 0.  1.
         15    1    5    5    0    0 -0.10196080482E+02  0.32953722120E+02  0.39994317119E+01  0.34726118596E+02  0.00000000000E+00 0. -1.
         15    1    4    4    0    0 -0.76708693631E+02  0.16334006632E+03  0.39227665513E+03  0.43179297713E+03  0.00000000000E+00 0. -1.
        -16    1    4    4    0    0 -0.94523496294E+02  0.18086941044E+03  0.27427646992E+03  0.34187134559E+03  0.00000000000E+00 0.  1.
         16    1    1    2    0    0 -0.21124441808E+03 -0.31568383207E+03  0.43276188353E+03  0.57581536437E+03  0.00000000000E+00 0. -1.
    9900018    1    3    3    0    0 -0.11811223688E+03  0.19486384308E+03 -0.59740171865E+03  0.64585324159E+03  0.91187600000E+02 0.  0.
<mgrwt>
<rscale>  0 0.28387908E+04</rscale>
<asrwt>0</asrwt>
<pdfrwt beam="1">  1        1 0.21556016E+00 0.28387908E+04</pdfrwt>
<pdfrwt beam="2">  1       -1 0.22121347E+00 0.28387908E+04</pdfrwt>
<totfact> 0.71471672E-01</totfact>
</mgrwt>
</event>
<event>
11    1  0.1248059E-010  0.3370820E+04  0.7818608E-02  0.8145106E-01
         -2   -1    0    0    0  501 -0.00000000000E+00  0.00000000000E+00  0.13278988093E+04  0.13278988093E+04  0.00000000000E+00 0. -1.
          2   -1    0    0  501    0  0.00000000000E+00 -0.00000000000E+00 -0.21391735673E+04  0.21391735673E+04  0.00000000000E+00 0.  1.
    9900016    2    1    2    0    0 -0.35800916452E+03  0.58533924257E+03  0.11282413483E+03  0.23160939431E+04  0.22092463142E+04 0.  0.
        -24    2    3    3    0    0  0.32491056464E+03 -0.12192848139E+03 -0.45413604566E+03  0.57730652444E+03  0.81300957018E+02 0.  0.
        -15    1    3    3    0    0 -0.24408601325E+03 -0.23797261828E+03 -0.18797190174E+03  0.38928445225E+03  0.00000000000E+00 0.  1.
        -15    1    3    3    0    0  0.28051428214E+02  0.29284258380E+02  0.41154687099E+00  0.40553912075E+02  0.00000000000E+00 0.  1.
         15    1    4    4    0    0  0.74688047160E+02  0.40399164445E+01 -0.11836729835E+03  0.14001943663E+03  0.00000000000E+00 0. -1.
         15    1    3    3    0    0 -0.66126447002E+02  0.20913163733E+03  0.30565330171E+03  0.37620830609E+03  0.00000000000E+00 0. -1.
        -16    1    4    4    0    0  0.25022251748E+03 -0.12596839784E+03 -0.33576874730E+03  0.43728708782E+03  0.00000000000E+00 0.  1.
         16    1    1    2    0    0  0.35800916452E+03 -0.58533924257E+03 -0.92409889278E+03  0.11509784335E+04  0.00000000000E+00 0. -1.
    9900018    1    3    3    0    0 -0.40075869711E+03  0.70682444653E+03  0.44886723364E+03  0.93274074820E+03  0.91187600000E+02 0.  0.
<mgrwt>
<rscale>  0 0.33708195E+04</rscale>
<asrwt>0</asrwt>
<pdfrwt beam="1">  1        2 0.32910362E+00 0.33708195E+04</pdfrwt>
<pdfrwt beam="2">  1       -2 0.20429213E+00 0.33708195E+04</pdfrwt>
<totfact> 0.57839817E-01</totfact>
</mgrwt>
</event>
<event>
12    1  0.1248059E-010  0.2631929E+04  0.7818608E-02  0.8357436E-01
         -1   -1    0    0    0  501 -0.00000000000E+00  0.00000000000E+00  0.64713029699E+03  0.64713029699E+03  0.00000000000E+00 0.  1.
          1   -1    0    0  501    0  0.00000000000E+00 -0.00000000000E+00 -0.26760639579E+04  0.26760639579E+04  0.00000000000E+00 0. -1.
    9900016    2    1    2    0    0  0.25686259988E+03 -0.26652885284E+03 -0.14043203171E+04  0.25971378839E+04  0.21531357621E+04 0.  0.
        -24    2    3    3    0    0  0.34031469918E+03 -0.40996648758E+03 -0.95317035191E+03  0.10949531223E+04  0.80635010729E+02 0.  0.
         23    2    3    3    0    0 -0.68726958043E+02 -0.16706138102E+03 -0.30654798524E+03  0.37822156875E+03  0.12824581094E+03 0.  0.
        -15    1    3    3    0    0 -0.24303857065E+03  0.65085510794E+03 -0.88028448086E+02  0.70030645151E+03  0.00000000000E+00 0.  1.
        -15    1    5    5    0    0 -0.58538149731E+01 -0.65626937324E+02 -0.22303394059E+03  0.23256246625E+03  0.00000000000E+00 0.  1.
         15    1    5    5    0    0 -0.62873143070E+02 -0.10143444370E+03 -0.83514044648E+02  0.14565910250E+03  0.00000000000E+00 0. -1.
         15    1    4    4    0    0  0.79927837628E+02 -0.15044590997E+03 -0.33162291378E+03  0.37282192532E+03  0.00000000000E+00 0. -1.
        -16    1    4    4    0    0  0.26038686155E+03 -0.25952057761E+03 -0.62154743813E+03  0.72213119703E+03  0.00000000000E+00 0.  1.
         16    1    1    2    0    0 -0.25686259988E+03  0.26652885284E+03 -0.62461334386E+03  0.72605637105E+03  0.00000000000E+00 0. -1.
    9900018    1    3    3    0    0  0.22831342940E+03 -0.34035609217E+03 -0.56573531853E+02  0.42365674127E+03  0.91187600000E+02 0.  0.
<mgrwt>
<rscale>  0 0.26319286E+04</rscale>
<asrwt>0</asrwt>
<pdfrwt beam="1">  1        1 0.41170215E+00 0.26319286E+04</pdfrwt>
<pdfrwt beam="2">  1       -1 0.99558505E-01 0.26319286E+04</pdfrwt>
<totfact> 0.86244820E-01</totfact>
</mgrwt>
</event>
<event>
12    1  0.1248059E-010  0.2493021E+04  0.7818608E-02  0.8405476E-01
         -1   -1    0    0    0  501 -0.00000000000E+00  0.00000000000E+00  0.11176625972E+04  0.11176625972E+04  0.00000000000E+00 0.  1.
          1   -1    0    0  501    0  0.00000000000E+00 -0.00000000000E+00 -0.13902120466E+04  0.13902120466E+04  0.00000000000E+00 0. -1.
    9900016    2    1    2    0    0 -0.27151525224E+03  0.40427242256E+02 -0.18159416483E+03  0.22186900004E+04  0.21941408303E+04 0.  0.
         24    2    3    3    0    0 -0.32368018256E+03 -0.18241059565E+03 -0.54004568824E+03  0.66036942906E+03  0.79974692655E+02 0.  0.
         23    2    3    3    0    0  0.80702193404E+02 -0.30944080793E+03  0.43177035758E+01  0.32881859805E+03  0.76397449078E+02 0.  0.
        -15    1    4    4    0    0 -0.15024277227E+03 -0.12224050225E+03 -0.23728462968E+03  0.30629989633E+03  0.00000000000E+00 0.  1.
        -15    1    5    5    0    0  0.92958383643E+02 -0.22571214223E+03  0.60501075278E+01  0.24417992555E+03  0.00000000000E+00 0.  1.
         15    1    3    3    0    0 -0.15278133061E+03 -0.81592184426E+02  0.54223082179E+03  0.56922199855E+03  0.00000000000E+00 0. -1.
         15    1    5    5    0    0 -0.12256190239E+02 -0.83728665702E+02 -0.17324039520E+01  0.84638672501E+02  0.00000000000E+00 0. -1.
        -16    1    1    2    0    0  0.27151525224E+03 -0.40427242256E+02 -0.90955284563E+02  0.28918464328E+03  0.00000000000E+00 0.  1.
         16    1    4    4    0    0 -0.17343741028E+03 -0.60170093398E+02 -0.30276105856E+03  0.35406953273E+03  0.00000000000E+00 0. -1.
    9900018    1    3    3    0    0  0.12424406752E+03  0.61387083026E+03 -0.18809700196E+03  0.66027997478E+03  0.91187600000E+02 0.  0.
<mgrwt>
<rscale>  0 0.24930207E+04</rscale>
<asrwt>0</asrwt>
<pdfrwt beam="1">  1        1 0.21387877E+00 0.24930207E+04</pdfrwt>
<pdfrwt beam="2">  1       -1 0.17194809E+00 0.24930207E+04</pdfrwt>
<totfact> 0.16521886E+00</totfact>
</mgrwt>
</event>
<event>
12    1  0.1248059E-010  0.2468173E+04  0.7818608E-02  0.8414413E-01
          2   -1    0    0  501    0  0.00000000000E+00  0.00000000000E+00  0.13073455464E+04  0.13073455464E+04  0.00000000000E+00 0. -1.
         -2   -1    0    0    0  501 -0.00000000000E+00 -0.00000000000E+00 -0.11649325395E+04  0.11649325395E+04  0.00000000000E+00 0.  1.
    9900016    2    1    2    0    0  0.14848020338E+03 -0.20435942605E+02  0.33045371319E+03  0.22318133155E+04  0.22021187571E+04 0.  0.
         24    2    3    3    0    0  0.59175808911E+02 -0.34247798734E+03  0.47455775094E+03  0.59362560860E+03  0.79958464464E+02 0.  0.
         23    2    3    3    0    0 -0.81100814273E+02 -0.22745025827E+03 -0.11550976808E+03  0.29222628566E+03  0.11722940522E+03 0.  0.
        -15    1    4    4    0    0 -0.57007450030E+01 -0.16919491156E+03  0.19317101776E+03  0.25685493707E+03  0.00000000000E+00 0.  1.
        -15    1    5    5    0    0 -0.77508774891E+02 -0.77303905334E+02 -0.12665528968E+02  0.11019945367E+03  0.00000000000E+00 0. -1.
         15    1    5    5    0    0 -0.35920393823E+01 -0.15014635294E+03 -0.10284423911E+03  0.18202683199E+03  0.00000000000E+00 0.  1.
         15    1    3    3    0    0 -0.50371807837E+02  0.86281739625E+03 -0.24247947047E+03  0.89765665591E+03  0.00000000000E+00 0. -1.
        -16    1    1    2    0    0 -0.14848020338E+03  0.20435942605E+02 -0.18804070631E+03  0.24046477034E+03  0.00000000000E+00 0.  1.
         16    1    4    4    0    0  0.64876553914E+02 -0.17328307578E+03  0.28138673317E+03  0.33677067153E+03  0.00000000000E+00 0. -1.
    9900018    1    3    3    0    0  0.22077701658E+03 -0.31332509324E+03  0.21388520079E+03  0.44830476533E+03  0.91187600000E+02 0.  0.
<mgrwt>
<rscale>  0 0.24681729E+04</rscale>
<asrwt>0</asrwt>
<pdfrwt beam="1">  1        2 0.20113008E+00 0.24681729E+04</pdfrwt>
<pdfrwt beam="2">  1       -2 0.17922039E+00 0.24681729E+04</pdfrwt>
<totfact> 0.26875686E+00</totfact>
</mgrwt>
</event>
<event>
12    1  0.1248059E-010  0.3201380E+04  0.7818608E-02  0.8188453E-01
         -1   -1    0    0    0  501 -0.00000000000E+00  0.00000000000E+00  0.80723176469E+03  0.80723176469E+03  0.00000000000E+00 0.  1.
          1   -1    0    0  501    0  0.00000000000E+00 -0.00000000000E+00 -0.31740685205E+04  0.31740685205E+04  0.00000000000E+00 0. -1.
    9900016    2    1    2    0    0  0.10140617617E+03 -0.42952818776E+03 -0.82859016245E+03  0.23809939837E+04  0.21881026065E+04 0.  0.
        -24    2    3    3    0    0  0.44544493243E+03 -0.79524691471E+02 -0.76151936296E+03  0.88934608128E+03  0.79242335557E+02 0.  0.
         23    2    3    3    0    0  0.40891886963E+03 -0.19241312287E+03 -0.14894923523E+02  0.46443909994E+03  0.10603945969E+03 0.  0.
        -15    1    5    5    0    0  0.18596728547E+03 -0.11667387735E+03  0.38773990371E+02  0.22293507407E+03  0.00000000000E+00 0.  1.
        -15    1    3    3    0    0 -0.42079867379E+03 -0.36059821330E+03  0.15699551979E+03  0.57597759377E+03  0.00000000000E+00 0.  1.
         15    1    5    5    0    0  0.22295158417E+03 -0.75739245513E+02 -0.53668913894E+02  0.24150402587E+03  0.00000000000E+00 0. -1.
         15    1    4    4    0    0  0.38668459513E+03 -0.46678241672E+02 -0.61285875982E+03  0.72615404278E+03  0.00000000000E+00 0. -1.
        -16    1    4    4    0    0  0.58760337294E+02 -0.32846449799E+02 -0.14866060313E+03  0.16319203849E+03  0.00000000000E+00 0.  1.
         16    1    1    2    0    0 -0.10140617617E+03  0.42952818776E+03 -0.15382465934E+04  0.16003063015E+04  0.00000000000E+00 0. -1.
    9900018    1    3    3    0    0 -0.33215895210E+03  0.20300783988E+03 -0.20917139576E+03  0.45123120871E+03  0.91187600000E+02 0.  0.
<mgrwt>
<rscale>  0 0.32013803E+04</rscale>
<asrwt>0</asrwt>
<pdfrwt beam="1">  1        1 0.48831823E+00 0.32013803E+04</pdfrwt>
<pdfrwt beam="2">  1       -1 0.12418950E+00 0.32013803E+04</pdfrwt>
<totfact> 0.21129535E-01</totfact>
</mgrwt>
</event>
<event>
11    1  0.1248059E-010  0.3163555E+04  0.7818608E-02  0.8198509E-01
          2   -1    0    0  501    0  0.00000000000E+00  0.00000000000E+00  0.23517049342E+04  0.23517049342E+04  0.00000000000E+00 0. -1.
         -2   -1    0    0    0  501 -0.00000000000E+00 -0.00000000000E+00 -0.10639176884E+04  0.10639176884E+04  0.00000000000E+00 0.  1.
    9900016    2    1    2    0    0 -0.62981442026E+02  0.53397177309E+03  0.16156877193E+04  0.27858518413E+04  0.22048653380E+04 0.  0.
         24    2    3    3    0    0 -0.34210200468E+03  0.73411723306E+03  0.33781692995E+03  0.88118407490E+03  0.80020011276E+02 0.  0.
        -15    1    4    4    0    0 -0.21329068354E+02  0.33139114905E+02 -0.29041615598E+00  0.39410841593E+02  0.00000000000E+00 0.  1.
        -15    1    3    3    0    0  0.10549828243E+03  0.99006798118E+02  0.20458155969E+03  0.25057104428E+03  0.00000000000E+00 0.  1.
         15    1    3    3    0    0  0.33260627500E+02 -0.70179589808E+03  0.38435107454E+03  0.80084299360E+03  0.00000000000E+00 0. -1.
         15    1    3    3    0    0  0.86887245581E+02  0.30267706045E+03  0.28802308223E+03  0.42675530725E+03  0.00000000000E+00 0. -1.
        -16    1    1    2    0    0  0.62981442026E+02 -0.53397177309E+03 -0.32790047354E+03  0.62977078135E+03  0.00000000000E+00 0.  1.
         16    1    4    4    0    0 -0.32077293633E+03  0.70097811816E+03  0.33810734611E+03  0.84177323331E+03  0.00000000000E+00 0. -1.
    9900018    1    3    3    0    0  0.53474407150E+02  0.99966579537E+02  0.40091507289E+03  0.42649842122E+03  0.91187600000E+02 0.  0.
<mgrwt>
<rscale>  0 0.31635553E+04</rscale>
<asrwt>0</asrwt>
<pdfrwt beam="1">  1        2 0.36180076E+00 0.31635553E+04</pdfrwt>
<pdfrwt beam="2">  1       -2 0.16367965E+00 0.31635553E+04</pdfrwt>
<totfact> 0.84686021E-01</totfact>
</mgrwt>
</event>
<event>
12    1  0.1248059E-010  0.2382596E+04  0.7818608E-02  0.8446048E-01
          2   -1    0    0  501    0  0.00000000000E+00  0.00000000000E+00  0.16277680125E+04  0.16277680125E+04  0.00000000000E+00 0. -1.
         -2   -1    0    0    0  501 -0.00000000000E+00 -0.00000000000E+00 -0.87186284275E+03  0.87186284275E+03  0.00000000000E+00 0.  1.
    9900016    2    1    2    0    0  0.61570636241E+02  0.16094503405E+03  0.74741416997E+03  0.23271015989E+04  0.21970615974E+04 0.  0.
         24    2    3    3    0    0 -0.69606234971E+03  0.54852728921E+03  0.43588210832E+03  0.99083884512E+03  0.79896326260E+02 0.  0.
         23    2    3    3    0    0 -0.82941219942E+02  0.20842968696E+03  0.20252996924E+02  0.25458522611E+03  0.11866454018E+03 0.  0.
        -15    1    5    5    0    0 -0.75307786477E+02  0.13213800776E+03 -0.39778772763E+02  0.15720708178E+03  0.00000000000E+00 0.  1.
        -15    1    4    4    0    0 -0.40305417855E+03  0.31168882991E+03  0.29400535323E+03  0.58825313026E+03  0.00000000000E+00 0.  1.
         15    1    5    5    0    0 -0.76334334649E+01  0.76291679201E+02  0.60031769687E+02  0.97378144332E+02  0.00000000000E+00 0. -1.
         15    1    3    3    0    0  0.11539565559E+03 -0.76510646861E+02  0.81851509445E+02  0.16084062301E+03  0.00000000000E+00 0. -1.
        -16    1    1    2    0    0 -0.61570636241E+02 -0.16094503405E+03  0.84909997858E+01  0.17252925639E+03  0.00000000000E+00 0.  1.
         16    1    4    4    0    0 -0.29300817116E+03  0.23683845930E+03  0.14187675509E+03  0.40258571486E+03  0.00000000000E+00 0. -1.
    9900018    1    3    3    0    0  0.72517855030E+03 -0.51950129526E+03  0.20942755527E+03  0.92083690462E+03  0.91187600000E+02 0.  0.
<mgrwt>
<rscale>  0 0.23825956E+04</rscale>
<asrwt>0</asrwt>
<pdfrwt beam="1">  1        2 0.25042585E+00 0.23825956E+04</pdfrwt>
<pdfrwt beam="2">  1       -2 0.13413275E+00 0.23825956E+04</pdfrwt>
<totfact> 0.38867899E+00</totfact>
</mgrwt>
</event>
<event>
12    1  0.1248059E-010  0.2540600E+04  0.7818608E-02  0.8388663E-01
         -1   -1    0    0    0  501 -0.00000000000E+00  0.00000000000E+00  0.12915611893E+04  0.12915611893E+04  0.00000000000E+00 0.  1.
          1   -1    0    0  501    0  0.00000000000E+00 -0.00000000000E+00 -0.12493884825E+04  0.12493884825E+04  0.00000000000E+00 0. -1.
    9900016    2    1    2    0    0  0.25019749431E+03 -0.11610112528E+03 -0.11423750369E+03  0.22238654378E+04  0.22037352429E+04 0.  0.
         24    2    3    3    0    0 -0.65470676308E+03 -0.21378576114E+03 -0.31424573116E+03  0.76086801497E+03  0.76318145680E+02 0.  0.
         23    2    3    3    0    0  0.26338050241E+03 -0.66594300384E+02  0.99656285878E+01  0.30071222139E+03  0.12854740933E+03 0.  0.
        -15    1    4    4    0    0 -0.10505659758E+03 -0.22654924003E+02 -0.78072104626E+02  0.13283594317E+03  0.00000000000E+00 0.  1.
        -15    1    5    5    0    0  0.95709753441E+02 -0.37819645161E+02 -0.57284664386E+02  0.11778036864E+03  0.00000000000E+00 0.  1.
         15    1    3    3    0    0  0.49083662271E+03  0.45441419927E+03 -0.14602534058E+03  0.68464315872E+03  0.00000000000E+00 0. -1.
         15    1    5    5    0    0  0.16767074897E+03 -0.28774655224E+02  0.67250292974E+02  0.18293185274E+03  0.00000000000E+00 0. -1.
        -16    1    1    2    0    0 -0.25019749431E+03  0.11610112528E+03  0.15641021048E+03  0.31708423390E+03  0.00000000000E+00 0.  1.
         16    1    4    4    0    0 -0.54965016550E+03 -0.19113083714E+03 -0.23617362653E+03  0.62803207180E+03  0.00000000000E+00 0. -1.
    9900018    1    3    3    0    0  0.15068713227E+03 -0.29013526302E+03  0.33606793947E+03  0.47764204276E+03  0.91187600000E+02 0.  0.
<mgrwt>
<rscale>  0 0.25405997E+04</rscale>
<asrwt>0</asrwt>
<pdfrwt beam="1">  1        1 0.19221361E+00 0.25405997E+04</pdfrwt>
<pdfrwt beam="2">  1       -1 0.19870172E+00 0.25405997E+04</pdfrwt>
<totfact> 0.13380647E+00</totfact>
</mgrwt>
</event>
<event>
12    1  0.1248059E-010  0.3031113E+04  0.7818608E-02  0.8234902E-01
         -2   -1    0    0    0  501 -0.00000000000E+00  0.00000000000E+00  0.78514828111E+03  0.78514828111E+03  0.00000000000E+00 0.  1.
          2   -1    0    0  501    0  0.00000000000E+00 -0.00000000000E+00 -0.29254492505E+04  0.29254492505E+04  0.00000000000E+00 0. -1.
    9900016    2    1    2    0    0 -0.78352667769E+02  0.58549981897E+03 -0.21301445048E+04  0.31197910216E+04  0.22015065815E+04 0.  0.
         24    2    3    3    0    0  0.81999002586E+03  0.23696695168E+03 -0.89832522505E+03  0.12417448037E+04  0.80031050063E+02 0.  0.
         23    2    3    3    0    0 -0.38091360507E+03  0.41921931865E+03 -0.57138926665E+03  0.81144110997E+03  0.10540858242E+03 0.  0.
        -15    1    4    4    0    0  0.17197787325E+03  0.26312447109E+02 -0.21734876021E+03  0.27840477246E+03  0.00000000000E+00 0.  1.
        -15    1    5    5    0    0 -0.13205954273E+02  0.23251578216E+02 -0.25623251319E+01  0.26862587885E+02  0.00000000000E+00 0.  1.
         15    1    5    5    0    0 -0.36770765079E+03  0.39596774043E+03 -0.56882694152E+03  0.78457852208E+03  0.00000000000E+00 0. -1.
         15    1    3    3    0    0 -0.26032474705E+03 -0.11611099639E+03  0.63167424151E+02  0.29196037553E+03  0.00000000000E+00 0. -1.
        -16    1    1    2    0    0  0.78352667769E+02 -0.58549981897E+03 -0.10156464616E+02  0.59080651006E+03  0.00000000000E+00 0.  1.
         16    1    4    4    0    0  0.64801215261E+03  0.21065450457E+03 -0.68097646484E+03  0.96334003129E+03  0.00000000000E+00 0. -1.
    9900018    1    3    3    0    0 -0.25710434152E+03  0.45424545032E+02 -0.72359743726E+03  0.77464473232E+03  0.91187600000E+02 0.  0.
<mgrwt>
<rscale>  0 0.30311130E+04</rscale>
<asrwt>0</asrwt>
<pdfrwt beam="1">  1        2 0.45006912E+00 0.30311130E+04</pdfrwt>
<pdfrwt beam="2">  1       -2 0.12079204E+00 0.30311130E+04</pdfrwt>
<totfact> 0.86376409E-01</totfact>
</mgrwt>
</event>
<event>
12    1  0.1248059E-010  0.3624485E+04  0.7818608E-02  0.8084906E-01
         -1   -1    0    0    0  501 -0.00000000000E+00  0.00000000000E+00  0.25421128633E+04  0.25421128633E+04  0.00000000000E+00 0.  1.
          1   -1    0    0  501    0  0.00000000000E+00 -0.00000000000E+00 -0.12919266385E+04  0.12919266385E+04  0.00000000000E+00 0. -1.
    9900016    2    1    2    0    0 -0.41713360597E+03 -0.23658483322E+03  0.19515601916E+04  0.29843935343E+04  0.22063646022E+04 0.  0.
        -24    2    3    3    0    0 -0.47850624119E+03 -0.27728012770E+03 -0.65519386576E+02  0.56265254368E+03  0.80203508709E+02 0.  0.
         23    2    3    3    0    0 -0.28232359685E+02 -0.13923517053E+03  0.27016992374E+03  0.32425027351E+03  0.10937528666E+03 0.  0.
        -15    1    3    3    0    0  0.31409851081E+03 -0.39626562140E+03  0.54950501913E+03  0.74675302694E+03  0.00000000000E+00 0.  1.
        -15    1    5    5    0    0 -0.10929282823E+02 -0.14981194327E+03  0.26274975815E+03  0.30265574995E+03  0.00000000000E+00 0.  1.
         15    1    4    4    0    0 -0.26809337267E+03 -0.11582795481E+03 -0.13330429384E+02  0.29234888735E+03  0.00000000000E+00 0. -1.
         15    1    5    5    0    0 -0.17303076862E+02  0.10576772741E+02  0.74201655906E+01  0.21594523563E+02  0.00000000000E+00 0. -1.
        -16    1    4    4    0    0 -0.21041286852E+03 -0.16145217290E+03 -0.52188957192E+02  0.27030365633E+03  0.00000000000E+00 0.  1.
         16    1    1    2    0    0  0.41713360597E+03  0.23658483322E+03 -0.70137396689E+03  0.84964596742E+03  0.00000000000E+00 0. -1.
    9900018    1    3    3    0    0 -0.22449351590E+03  0.57619608642E+03  0.11974046353E+04  0.13507376902E+04  0.91187600000E+02 0.  0.
<mgrwt>
<rscale>  0 0.36244852E+04</rscale>
<asrwt>0</asrwt>
<pdfrwt beam="1">  1        1 0.19875794E+00 0.36244852E+04</pdfrwt>
<pdfrwt beam="2">  1       -1 0.39109429E+00 0.36244852E+04</pdfrwt>
<totfact> 0.60848416E-02</totfact>
</mgrwt>
</event>
<event>
12    1  0.1500156E-010  0.2520770E+04  0.7818608E-02  0.8395623E-01
         -1   -1    0    0    0  501 -0.00000000000E+00  0.00000000000E+00  0.12845388649E+04  0.12845388649E+04  0.00000000000E+00 0.  1.
          1   -1    0    0  501    0  0.00000000000E+00 -0.00000000000E+00 -0.12366855898E+04  0.12366855898E+04  0.00000000000E+00 0. -1.
    9900016    2    1    2    0    0 -0.53999914760E+02  0.27856585868E+03  0.14017364420E+03  0.22228321308E+04  0.22001861519E+04 0.  0.
        -24    2    3    3    0    0  0.73913808237E+01 -0.36528948931E+03  0.65540088436E+03  0.75438726796E+03  0.77838212526E+02 0.  0.
         23    2    3    3    0    0  0.87009499215E+02 -0.20574189043E+03  0.68441220928E+02  0.25706515899E+03  0.10722833959E+03 0.  0.
        -15    1    5    5    0    0  0.20120203982E+02 -0.14525482684E+03  0.78487010187E+02  0.16632497737E+03  0.00000000000E+00 0.  1.
        -15    1    3    3    0    0 -0.25555381760E+03  0.52950387892E+03 -0.62642625257E+03  0.85912278598E+03  0.00000000000E+00 0.  1.
         15    1    5    5    0    0  0.66889295233E+02 -0.60487063592E+02 -0.10045789258E+02  0.90740181621E+02  0.00000000000E+00 0. -1.
         15    1    4    4    0    0  0.23429992325E+02 -0.17024926914E+03  0.23986301650E+03  0.29507294839E+03  0.00000000000E+00 0. -1.
        -16    1    4    4    0    0 -0.16038611501E+02 -0.19504022017E+03  0.41553786785E+03  0.45931431957E+03  0.00000000000E+00 0.  1.
         16    1    1    2    0    0  0.53999914760E+02 -0.27856585868E+03 -0.92320369045E+02  0.29839232389E+03  0.00000000000E+00 0. -1.
    9900018    1    3    3    0    0  0.10715302280E+03  0.32009335949E+03  0.42757791489E+02  0.35225691791E+03  0.91187600000E+02 0.  0.
<mgrwt>
<rscale>  0 0.25207703E+04</rscale>
<asrwt>0</asrwt>
<pdfrwt beam="1">  1        1 0.19025932E+00 0.25207703E+04</pdfrwt>
<pdfrwt beam="2">  1       -1 0.19762136E+00 0.25207703E+04</pdfrwt>
<totfact> 0.13928760E+00</totfact>
</mgrwt>
</event>
<event>
12    1  0.1248059E-010  0.2537801E+04  0.7818608E-02  0.8389641E-01
          1   -1    0    0  501    0  0.00000000000E+00  0.00000000000E+00  0.24941436041E+04  0.24941436041E+04  0.00000000000E+00 0. -1.
         -1   -1    0    0    0  501 -0.00000000000E+00 -0.00000000000E+00 -0.64555579048E+03  0.64555579048E+03  0.00000000000E+00 0.  1.
    9900016    2    1    2    0    0  0.28544232885E+03  0.10660263053E+03  0.16890752994E+04  0.27957725330E+04  0.22069271047E+04 0.  0.
         24    2    3    3    0    0  0.83267163609E+02  0.63917512527E+03  0.24120340568E+03  0.69261468443E+03  0.77831593026E+02 0.  0.
         23    2    3    3    0    0  0.23458639275E+03  0.29936836612E+02  0.78807047930E+03  0.82930688330E+03  0.10376818630E+03 0.  0.
        -15    1    4    4    0    0  0.15212368490E+02  0.56440448786E+02  0.45715446999E+02  0.74208102715E+02  0.00000000000E+00 0.  1.
        -15    1    5    5    0    0  0.52285644852E+02 -0.36945183267E+02  0.18844883414E+03  0.19902687837E+03  0.00000000000E+00 0.  1.
         15    1    3    3    0    0 -0.22135727952E+03  0.28397048976E+02  0.60448991947E+03  0.64437062342E+03  0.00000000000E+00 0. -1.
         15    1    5    5    0    0  0.18230074790E+03  0.66882019879E+02  0.59962164516E+03  0.63028000493E+03  0.00000000000E+00 0. -1.
        -16    1    1    2    0    0 -0.28544232885E+03 -0.10660263053E+03  0.15951251428E+03  0.34392686162E+03  0.00000000000E+00 0.  1.
         16    1    4    4    0    0  0.68054795119E+02  0.58273467649E+03  0.19548795868E+03  0.61840658172E+03  0.00000000000E+00 0. -1.
    9900018    1    3    3    0    0  0.18894605201E+03 -0.59090638033E+03  0.55311494898E+02  0.62948034183E+03  0.91187600000E+02 0.  0.
<mgrwt>
<rscale>  0 0.25378013E+04</rscale>
<asrwt>0</asrwt>
<pdfrwt beam="1">  1        1 0.38371439E+00 0.25378013E+04</pdfrwt>
<pdfrwt beam="2">  1       -1 0.99316277E-01 0.25378013E+04</pdfrwt>
<totfact> 0.11719898E+00</totfact>
</mgrwt>
</event>
<event>
12    1  0.1248059E-010  0.2640228E+04  0.7818608E-02  0.8354664E-01
         -2   -1    0    0    0  501 -0.00000000000E+00  0.00000000000E+00  0.13482360239E+04  0.13482360239E+04  0.00000000000E+00 0.  1.
          2   -1    0    0  501    0  0.00000000000E+00 -0.00000000000E+00 -0.12925782619E+04  0.12925782619E+04  0.00000000000E+00 0. -1.
    9900016    2    1    2    0    0  0.16796193709E+03  0.37156805805E+03  0.77864035256E+02  0.22324429442E+04  0.21935051076E+04 0.  0.
        -24    2    3    3    0    0  0.41659737160E+03  0.65276073367E+03  0.54384459077E+03  0.94975395937E+03  0.81336947168E+02 0.  0.
         23    2    3    3    0    0 -0.24557153372E+03  0.91713590922E+02 -0.61243049134E+03  0.67714366720E+03  0.12139060251E+03 0.  0.
        -15    1    3    3    0    0  0.13255325490E+03 -0.38745395900E+03  0.43391745141E+02  0.41179336963E+03  0.00000000000E+00 0.  1.
        -15    1    5    5    0    0 -0.23714389316E+03  0.52917557068E+02 -0.56664965526E+03  0.61654628838E+03  0.00000000000E+00 0.  1.
         15    1    4    4    0    0  0.44453037401E+02  0.10984572397E+03  0.59907791402E+02  0.13278214895E+03  0.00000000000E+00 0. -1.
         15    1    5    5    0    0 -0.84276405625E+01  0.38796033854E+02 -0.45780836082E+02  0.60597378826E+02  0.00000000000E+00 0. -1.
        -16    1    4    4    0    0  0.37214433420E+03  0.54291500970E+03  0.48393679937E+03  0.81697181042E+03  0.00000000000E+00 0.  1.
         16    1    1    2    0    0 -0.16796193709E+03 -0.37156805805E+03 -0.22206273264E+02  0.40837134161E+03  0.00000000000E+00 0. -1.
    9900018    1    3    3    0    0 -0.13561715570E+03  0.14547692453E+02  0.10305819068E+03  0.19375194795E+03  0.91187600000E+02 0.  0.
<mgrwt>
<rscale>  0 0.26402277E+04</rscale>
<asrwt>0</asrwt>
<pdfrwt beam="1">  1        2 0.19885820E+00 0.26402277E+04</pdfrwt>
<pdfrwt beam="2">  1       -2 0.20742093E+00 0.26402277E+04</pdfrwt>
<totfact> 0.17515542E+00</totfact>
</mgrwt>
</event>
<event>
12    1  0.1248059E-010  0.3056582E+04  0.7818608E-02  0.8227756E-01
         -2   -1    0    0    0  501 -0.00000000000E+00  0.00000000000E+00  0.12619175463E+04  0.12619175463E+04  0.00000000000E+00 0.  1.
          2   -1    0    0  501    0  0.00000000000E+00 -0.00000000000E+00 -0.18508918218E+04  0.18508918218E+04  0.00000000000E+00 0. -1.
    9900016    2    1    2    0    0  0.35262525726E+03  0.42607009770E+03 -0.91071247660E+03  0.24729689424E+04  0.22316580999E+04 0.  0.
         24    2    3    3    0    0  0.61446457944E+03  0.44060714057E+03 -0.68910146953E+03  0.10262200863E+04  0.81027516735E+02 0.  0.
         23    2    3    3    0    0  0.12763954617E+03 -0.11061871650E+03  0.14313559917E+03  0.25317825719E+03  0.12281317510E+03 0.  0.
        -15    1    4    4    0    0  0.28149883447E+03  0.21951751276E+03 -0.27426172767E+03  0.45016555563E+03  0.00000000000E+00 0.  1.
        -15    1    5    5    0    0  0.10708060720E+03 -0.40474505703E+02  0.29755593888E+02  0.11827864311E+03  0.00000000000E+00 0.  1.
         15    1    5    5    0    0  0.20558938972E+02 -0.70144210795E+02  0.11338000528E+03  0.13489961408E+03  0.00000000000E+00 0. -1.
         15    1    3    3    0    0 -0.70214727415E+02 -0.46017166565E+03 -0.35394404059E+02  0.46684133670E+03  0.00000000000E+00 0. -1.
        -16    1    1    2    0    0 -0.35262525726E+03 -0.42607009770E+03  0.32173820118E+03  0.63984042566E+03  0.00000000000E+00 0.  1.
         16    1    4    4    0    0  0.33296574497E+03  0.22108962781E+03 -0.41483974187E+03  0.57605453065E+03  0.00000000000E+00 0. -1.
    9900018    1    3    3    0    0 -0.31926414093E+03  0.55625333927E+03 -0.32935220218E+03  0.72672926225E+03  0.91187600000E+02 0.  0.
<mgrwt>
<rscale>  0 0.30565817E+04</rscale>
<asrwt>0</asrwt>
<pdfrwt beam="1">  1        2 0.28475259E+00 0.30565817E+04</pdfrwt>
<pdfrwt beam="2">  1       -2 0.19414116E+00 0.30565817E+04</pdfrwt>
<totfact> 0.10019304E+00</totfact>
</mgrwt>
</event>
<event>
12    1  0.1248059E-010  0.3058372E+04  0.7818608E-02  0.8227256E-01
          2   -1    0    0  501    0  0.00000000000E+00  0.00000000000E+00  0.75158545213E+03  0.75158545213E+03  0.00000000000E+00 0. -1.
         -2   -1    0    0    0  501 -0.00000000000E+00 -0.00000000000E+00 -0.31113030562E+04  0.31113030562E+04  0.00000000000E+00 0.  1.
    9900016    2    1    2    0    0 -0.27630260090E+03  0.49435922547E+03 -0.11878174302E+04  0.25613186145E+04  0.21974322803E+04 0.  0.
        -24    2    3    3    0    0  0.38915712107E+03 -0.10010448708E+03 -0.34369343827E+03  0.53486095663E+03  0.80541232931E+02 0.  0.
         23    2    3    3    0    0  0.80807751429E+02 -0.18448566137E+03 -0.16734776432E+03  0.27117697978E+03  0.70475727730E+02 0.  0.
        -15    1    5    5    0    0  0.47838839896E+02 -0.32506871640E+02 -0.43365575181E+02  0.72289863862E+02  0.00000000000E+00 0.  1.
        -15    1    3    3    0    0 -0.44363953462E+03  0.10893764926E+04 -0.50659917280E+03  0.12807028934E+04  0.00000000000E+00 0.  1.
         15    1    5    5    0    0  0.32968911533E+02 -0.15197878973E+03 -0.12398218914E+03  0.19888711592E+03  0.00000000000E+00 0. -1.
         15    1    4    4    0    0  0.31294061164E+03 -0.62386898617E+02 -0.23220801925E+03  0.39464479692E+03  0.00000000000E+00 0. -1.
        -16    1    4    4    0    0  0.76216509436E+02 -0.37717588462E+02 -0.11148541902E+03  0.14021615971E+03  0.00000000000E+00 0.  1.
         16    1    1    2    0    0  0.27630260090E+03 -0.49435922547E+03 -0.11719001738E+04  0.13015698938E+04  0.00000000000E+00 0. -1.
    9900018    1    3    3    0    0 -0.30262793878E+03 -0.31042711866E+03 -0.17017705483E+03  0.47457778468E+03  0.91187600000E+02 0.  0.
<mgrwt>
<rscale>  0 0.30583722E+04</rscale>
<asrwt>0</asrwt>
<pdfrwt beam="1">  1        2 0.11562853E+00 0.30583722E+04</pdfrwt>
<pdfrwt beam="2">  1       -2 0.47866201E+00 0.30583722E+04</pdfrwt>
<totfact> 0.71607855E-02</totfact>
</mgrwt>
</event>
<event>
12    1  0.1248059E-010  0.2359809E+04  0.7818608E-02  0.8454706E-01
         -2   -1    0    0    0  501 -0.00000000000E+00  0.00000000000E+00  0.59701882960E+03  0.59701882960E+03  0.00000000000E+00 0. -1.
          2   -1    0    0  501    0  0.00000000000E+00 -0.00000000000E+00 -0.23318770516E+04  0.23318770516E+04  0.00000000000E+00 0.  1.
    9900016    2    1    2    0    0  0.14528494400E+03  0.50219071279E+01 -0.15563814463E+04  0.26987070588E+04  0.21999008269E+04 0.  0.
        -24    2    3    3    0    0 -0.79476396280E+02  0.93769316505E+03 -0.70738724688E+03  0.11799904097E+04  0.79972999607E+02 0.  0.
         23    2    3    3    0    0  0.17756011722E+03 -0.95225852348E+02  0.21201354263E+02  0.22805079251E+03  0.10470008767E+03 0.  0.
        -15    1    3    3    0    0  0.15738819314E+03 -0.77381076534E+03 -0.78031086696E+03  0.11101527791E+04  0.00000000000E+00 0.  1.
        -15    1    5    5    0    0  0.17198865346E+03 -0.10489916350E+03  0.40754430414E+02  0.20553553226E+03  0.00000000000E+00 0.  1.
         15    1    4    4    0    0 -0.60198035953E+02  0.57163604143E+03 -0.47790380021E+03  0.74751830055E+03  0.00000000000E+00 0. -1.
         15    1    5    5    0    0  0.55714637588E+01  0.96733111548E+01 -0.19553076151E+02  0.22515260249E+02  0.00000000000E+00 0. -1.
        -16    1    4    4    0    0 -0.19278360327E+02  0.36605712362E+03 -0.22948344666E+03  0.43247210918E+03  0.00000000000E+00 0.  1.
         16    1    1    2    0    0 -0.14528494400E+03 -0.50219071279E+01 -0.17847677567E+03  0.23018882240E+03  0.00000000000E+00 0. -1.
    9900018    1    3    3    0    0 -0.11018697009E+03 -0.63634640235E+02 -0.89884686720E+02  0.18051307741E+03  0.91187600000E+02 0.  0.
<mgrwt>
<rscale>  0 0.23598089E+04</rscale>
<asrwt>0</asrwt>
<pdfrwt beam="1">  1        2 0.35875031E+00 0.23598089E+04</pdfrwt>
<pdfrwt beam="2">  1       -2 0.91849052E-01 0.23598089E+04</pdfrwt>
<totfact> 0.39546520E+00</totfact>
</mgrwt>
</event>
<event>
11    1  0.1248059E-010  0.2694559E+04  0.7818608E-02  0.8336772E-01
          2   -1    0    0  501    0  0.00000000000E+00  0.00000000000E+00  0.19970924389E+04  0.19970924389E+04  0.00000000000E+00 0.  1.
         -2   -1    0    0    0  501 -0.00000000000E+00 -0.00000000000E+00 -0.90890252086E+03  0.90890252086E+03  0.00000000000E+00 0. -1.
    9900016    2    1    2    0    0  0.12351415403E+03  0.29647130607E+03  0.54943702395E+03  0.22787743746E+04  0.21880997750E+04 0.  0.
         24    2    3    3    0    0 -0.29477936448E+03  0.60384274789E+03 -0.44303325701E+03  0.80900086719E+03  0.81749607981E+02 0.  0.
        -15    1    4    4    0    0 -0.18012842206E+03  0.37493331769E+03 -0.32084114165E+03  0.52531921659E+03  0.00000000000E+00 0.  1.
        -15    1    3    3    0    0 -0.10727468555E+03  0.71600509814E+01 -0.18269622159E+02  0.10905458992E+03  0.00000000000E+00 0. -1.
         15    1    3    3    0    0 -0.69528859029E+02 -0.11500857854E+03  0.28806751673E+02  0.13744476825E+03  0.00000000000E+00 0.  1.
         15    1    3    3    0    0  0.41638138731E+03 -0.22119559700E+03  0.87727333928E+03  0.99594651645E+03  0.00000000000E+00 0. -1.
        -16    1    1    2    0    0 -0.12351415403E+03 -0.29647130607E+03  0.53875289407E+03  0.62722058515E+03  0.00000000000E+00 0.  1.
         16    1    4    4    0    0 -0.11465094242E+03  0.22890943020E+03 -0.12219211536E+03  0.28368165060E+03  0.00000000000E+00 0. -1.
    9900018    1    3    3    0    0  0.17871567577E+03  0.21672682743E+02  0.10465981216E+03  0.22732763277E+03  0.91187600000E+02 0.  0.
<mgrwt>
<rscale>  0 0.26945592E+04</rscale>
<asrwt>0</asrwt>
<pdfrwt beam="1">  1        2 0.30724499E+00 0.26945592E+04</pdfrwt>
<pdfrwt beam="2">  1       -2 0.13983116E+00 0.26945592E+04</pdfrwt>
<totfact> 0.21207531E+00</totfact>
</mgrwt>
</event>
<event>
12    1  0.1248059E-010  0.3058262E+04  0.7818608E-02  0.8227287E-01
          5   -1    0    0  501    0  0.00000000000E+00  0.00000000000E+00  0.11571825834E+04  0.11571825834E+04  0.00000000000E+00 0. -1.
         -5   -1    0    0    0  501 -0.00000000000E+00 -0.00000000000E+00 -0.20206327615E+04  0.20206327615E+04  0.00000000000E+00 0.  1.
    9900016    2    1    2    0    0  0.64037799892E+03  0.26810433089E+02 -0.28481511323E+03  0.23143216743E+04  0.22054846140E+04 0.  0.
         24    2    3    3    0    0 -0.26973041927E+02  0.59122139184E+03 -0.80490382232E+03  0.10020868429E+04  0.77701984128E+02 0.  0.
         23    2    3    3    0    0 -0.27783854289E+02 -0.10434698279E+03  0.25801950228E+02  0.15426738408E+03  0.10710952236E+03 0.  0.
        -15    1    5    5    0    0 -0.55585425491E+02 -0.48030219122E+02  0.47887755603E+02  0.87691952952E+02  0.00000000000E+00 0.  1.
        -15    1    4    4    0    0  0.12641740040E+02  0.39118455207E+03 -0.49364783586E+03  0.62997885140E+03  0.00000000000E+00 0.  1.
         15    1    3    3    0    0  0.32725577317E+03 -0.45917750935E+03  0.53436162775E+03  0.77684147377E+03  0.00000000000E+00 0. -1.
         15    1    5    5    0    0  0.27801571202E+02 -0.56316763669E+02 -0.22085805375E+02  0.66575431133E+02  0.00000000000E+00 0. -1.
        -16    1    1    2    0    0 -0.64037799892E+03 -0.26810433089E+02 -0.57863506491E+03  0.86349367060E+03  0.00000000000E+00 0.  1.
         16    1    4    4    0    0 -0.39614781967E+02  0.20003683978E+03 -0.31125598646E+03  0.37210799148E+03  0.00000000000E+00 0. -1.
    9900018    1    3    3    0    0  0.36787912196E+03 -0.88646661636E+00 -0.40074868889E+02  0.38112597355E+03  0.91187600000E+02 0.  0.
<mgrwt>
<rscale>  0 0.30582616E+04</rscale>
<asrwt>0</asrwt>
<pdfrwt beam="1">  1        5 0.17802809E+00 0.30582616E+04</pdfrwt>
<pdfrwt beam="2">  1       -5 0.31086657E+00 0.30582616E+04</pdfrwt>
<totfact> 0.26515716E-03</totfact>
</mgrwt>
</event>
<event>
12    1  0.1248059E-010  0.2897621E+04  0.7818608E-02  0.8273586E-01
         -1   -1    0    0    0  501 -0.00000000000E+00  0.00000000000E+00  0.21082238400E+04  0.21082238400E+04  0.00000000000E+00 0.  1.
          1   -1    0    0  501    0  0.00000000000E+00 -0.00000000000E+00 -0.99564934517E+03  0.99564934517E+03  0.00000000000E+00 0. -1.
    9900016    2    1    2    0    0  0.68287025536E+02  0.56020983106E+03  0.61613423095E+03  0.23522408892E+04  0.21988446143E+04 0.  0.
         24    2    3    3    0    0  0.29367347291E+03 -0.19286602408E+03  0.24768365056E+03  0.43741612997E+03  0.80896650559E+02 0.  0.
         23    2    3    3    0    0 -0.31533300073E+03  0.65715973685E+01 -0.22698324835E+03  0.40928046524E+03  0.12849520204E+03 0.  0.
        -15    1    4    4    0    0  0.10867707843E+03 -0.11914670325E+03  0.10508961389E+03  0.19248498959E+03  0.00000000000E+00 0.  1.
        -15    1    5    5    0    0 -0.13775860250E+03 -0.60855140762E+02 -0.10287032648E+03  0.18238170081E+03  0.00000000000E+00 0.  1.
         15    1    5    5    0    0 -0.17757439823E+03  0.67426738130E+02 -0.12411292187E+03  0.22689876443E+03  0.00000000000E+00 0. -1.
         15    1    3    3    0    0 -0.13955200848E+03  0.10083829530E+03  0.77290229408E+03  0.79184662724E+03  0.00000000000E+00 0. -1.
        -16    1    1    2    0    0 -0.68287025536E+02 -0.56020983106E+03  0.49644026388E+03  0.75163229592E+03  0.00000000000E+00 0.  1.
         16    1    4    4    0    0  0.18499639448E+03 -0.73719320831E+02  0.14259403667E+03  0.24493114038E+03  0.00000000000E+00 0. -1.
    9900018    1    3    3    0    0  0.22949856184E+03  0.64566596248E+03 -0.17746846534E+03  0.71369766679E+03  0.91187600000E+02 0.  0.
<mgrwt>
<rscale>  0 0.28976209E+04</rscale>
<asrwt>0</asrwt>
<pdfrwt beam="1">  1        1 0.15317682E+00 0.28976209E+04</pdfrwt>
<pdfrwt beam="2">  1       -1 0.32434213E+00 0.28976209E+04</pdfrwt>
<totfact> 0.30013898E-01</totfact>
</mgrwt>
</event>
<event>
11    1  0.1248059E-010  0.3276359E+04  0.7818608E-02  0.8168937E-01
          1   -1    0    0  501    0  0.00000000000E+00  0.00000000000E+00  0.21311113178E+04  0.21311113178E+04  0.00000000000E+00 0. -1.
         -1   -1    0    0    0  501 -0.00000000000E+00 -0.00000000000E+00 -0.12592641402E+04  0.12592641402E+04  0.00000000000E+00 0.  1.
    9900016    2    1    2    0    0 -0.57025196105E+03 -0.66224725583E+03  0.69814966768E+03  0.24993482126E+04  0.22350771357E+04 0.  0.
        -24    2    3    3    0    0 -0.10432426355E+04 -0.84684453456E+03  0.25697132375E+03  0.13703265545E+04  0.79118533252E+02 0.  0.
        -15    1    3    3    0    0  0.19573278267E+03 -0.99789574208E+02  0.73577974174E+01  0.21982588227E+03  0.00000000000E+00 0.  1.
        -15    1    3    3    0    0  0.13902508575E+03  0.39288376091E+03  0.32851938785E+03  0.53066996547E+03  0.00000000000E+00 0.  1.
         15    1    4    4    0    0 -0.89714509648E+03 -0.69794171214E+03  0.20043651739E+03  0.11541952847E+04  0.00000000000E+00 0. -1.
         15    1    3    3    0    0  0.76554344415E+02  0.42037875308E+02  0.16162412981E+03  0.18371202994E+03  0.00000000000E+00 0. -1.
        -16    1    4    4    0    0 -0.14609753905E+03 -0.14890282242E+03  0.56534806361E+02  0.21613126977E+03  0.00000000000E+00 0.  1.
         16    1    1    2    0    0  0.57025196105E+03  0.66224725583E+03  0.17369750998E+03  0.89102724532E+03  0.00000000000E+00 0. -1.
    9900018    1    3    3    0    0  0.61678461642E+02 -0.15053478327E+03 -0.56322971152E+02  0.19481378051E+03  0.91187600000E+02 0.  0.
<mgrwt>
<rscale>  0 0.32763590E+04</rscale>
<asrwt>0</asrwt>
<pdfrwt beam="1">  1        1 0.32786328E+00 0.32763590E+04</pdfrwt>
<pdfrwt beam="2">  1       -1 0.19373294E+00 0.32763590E+04</pdfrwt>
<totfact> 0.33568331E-01</totfact>
</mgrwt>
</event>
<event>
12    1  0.1248059E-010  0.2519099E+04  0.7818608E-02  0.8396213E-01
          4   -1    0    0  501    0  0.00000000000E+00  0.00000000000E+00  0.11154578276E+04  0.11154578276E+04  0.00000000000E+00 0. -1.
         -4   -1    0    0    0  501 -0.00000000000E+00 -0.00000000000E+00 -0.14222541404E+04  0.14222541404E+04  0.00000000000E+00 0.  1.
    9900016    2    1    2    0    0  0.12200609540E+03  0.55127220368E+02 -0.54167030835E+03  0.22673598060E+04  0.21976326511E+04 0.  0.
        -24    2    3    3    0    0 -0.79382633641E+03 -0.22724864770E+02 -0.16058360109E+03  0.81353339412E+03  0.73299512654E+02 0.  0.
         23    2    3    3    0    0  0.61350558526E+02  0.14906408995E+03 -0.58099954210E+02  0.20779893546E+03  0.11756189415E+03 0.  0.
        -15    1    3    3    0    0  0.57382698137E+03  0.27024538985E+01  0.22733092919E+03  0.61722286021E+03  0.00000000000E+00 0.  1.
        -15    1    5    5    0    0  0.46474402749E+02  0.15739538652E+03 -0.77905068276E+02  0.18166556490E+03  0.00000000000E+00 0.  1.
         15    1    4    4    0    0 -0.60392682112E+03  0.13803731720E+02 -0.11730021728E+03  0.61536776748E+03  0.00000000000E+00 0. -1.
         15    1    5    5    0    0  0.14876155777E+02 -0.83312965743E+01  0.19805114067E+02  0.26133370554E+02  0.00000000000E+00 0. -1.
        -16    1    4    4    0    0 -0.18989951529E+03 -0.36528596490E+02 -0.43283383808E+02  0.19816562664E+03  0.00000000000E+00 0.  1.
         16    1    1    2    0    0 -0.12200609540E+03 -0.55127220368E+02  0.23487399548E+03  0.27035216199E+03  0.00000000000E+00 0. -1.
    9900018    1    3    3    0    0  0.28065489191E+03 -0.73914458707E+02 -0.55031768224E+03  0.62880461619E+03  0.91187600000E+02 0.  0.
<mgrwt>
<rscale>  0 0.25190987E+04</rscale>
<asrwt>0</asrwt>
<pdfrwt beam="1">  1        4 0.17160890E+00 0.25190987E+04</pdfrwt>
<pdfrwt beam="2">  1       -4 0.21880833E+00 0.25190987E+04</pdfrwt>
<totfact> 0.36313534E-02</totfact>
</mgrwt>
</event>
<event>
11    1  0.1248059E-010  0.2577270E+04  0.7818608E-02  0.8375963E-01
         -1   -1    0    0    0  501 -0.00000000000E+00  0.00000000000E+00  0.15413478628E+04  0.15413478628E+04  0.00000000000E+00 0.  1.
          1   -1    0    0  501    0  0.00000000000E+00 -0.00000000000E+00 -0.10773560561E+04  0.10773560561E+04  0.00000000000E+00 0. -1.
    9900016    2    1    2    0    0  0.32276312311E+02 -0.35196379247E+03  0.40107565183E+03  0.22597071026E+04  0.21955623971E+04 0.  0.
         24    2    3    3    0    0 -0.91275667914E+03 -0.90346078408E+02  0.52466962955E+03  0.10598034674E+04  0.81351091992E+02 0.  0.
        -15    1    3    3    0    0  0.22618128636E+02 -0.10732347293E+03  0.33403681999E+01  0.10973178958E+03  0.00000000000E+00 0.  1.
        -15    1    4    4    0    0 -0.31279277202E+03 -0.63783395416E+02  0.15834732377E+03  0.35634465718E+03  0.00000000000E+00 0.  1.
         15    1    3    3    0    0  0.40497079511E+03 -0.17609000038E+03 -0.81693810044E+02  0.44909120647E+03  0.00000000000E+00 0. -1.
         15    1    3    3    0    0 -0.53273353874E+02  0.30121995190E+02 -0.97958268588E+01  0.61978569289E+02  0.00000000000E+00 0. -1.
        -16    1    1    2    0    0 -0.32276312311E+02  0.35196379247E+03  0.62916154920E+02  0.35899681628E+03  0.00000000000E+00 0.  1.
         16    1    4    4    0    0 -0.59996390712E+03 -0.26562682991E+02  0.36632230578E+03  0.70345881023E+03  0.00000000000E+00 0. -1.
    9900018    1    3    3    0    0  0.57071742158E+03 -0.83262359416E+01 -0.35444709018E+02  0.57910206984E+03  0.91187600000E+02 0.  0.
<mgrwt>
<rscale>  0 0.25772702E+04</rscale>
<asrwt>0</asrwt>
<pdfrwt beam="1">  1        1 0.16574708E+00 0.25772702E+04</pdfrwt>
<pdfrwt beam="2">  1       -1 0.23713044E+00 0.25772702E+04</pdfrwt>
<totfact> 0.98555097E-01</totfact>
</mgrwt>
</event>
<event>
12    1  0.1248059E-010  0.3531560E+04  0.7818608E-02  0.8106351E-01
         -1   -1    0    0    0  501 -0.00000000000E+00  0.00000000000E+00  0.11514513066E+04  0.11514513066E+04  0.00000000000E+00 0.  1.
          1   -1    0    0  501    0  0.00000000000E+00 -0.00000000000E+00 -0.27078684332E+04  0.27078684332E+04  0.00000000000E+00 0. -1.
    9900016    2    1    2    0    0  0.71839595206E+03  0.21687811768E+03 -0.22449437040E+03  0.23305466728E+04  0.21949763575E+04 0.  0.
        -24    2    3    3    0    0  0.13824054984E+04  0.34001804396E+03 -0.19469605213E+03  0.14390403188E+04  0.79203878525E+02 0.  0.
         23    2    3    3    0    0 -0.13251527086E+03 -0.17428213814E+03  0.11220314945E+03  0.27017325871E+03  0.11166683612E+03 0.  0.
        -15    1    3    3    0    0 -0.14237635765E+03  0.37405137104E+02 -0.16456891195E+03  0.22080103777E+03  0.00000000000E+00 0.  1.
        -15    1    5    5    0    0  0.16009529890E+01 -0.33740360113E+02  0.60262770122E+02  0.69083836126E+02  0.00000000000E+00 0.  1.
         15    1    5    5    0    0 -0.13411622384E+03 -0.14054177802E+03  0.51940379331E+02  0.20108942258E+03  0.00000000000E+00 0. -1.
         15    1    4    4    0    0  0.11311615531E+04  0.24977021859E+03 -0.14426613919E+03  0.11673578458E+04  0.00000000000E+00 0. -1.
        -16    1    4    4    0    0  0.25124394530E+03  0.90247825369E+02 -0.50429912938E+02  0.27168247303E+03  0.00000000000E+00 0.  1.
         16    1    1    2    0    0 -0.71839595206E+03 -0.21687811768E+03 -0.13319227562E+04  0.15287730670E+04  0.00000000000E+00 0. -1.
    9900018    1    3    3    0    0 -0.38911791781E+03  0.13737074759E+02  0.22567444224E+02  0.40053205754E+03  0.91187600000E+02 0.  0.
<mgrwt>
<rscale>  0 0.35315598E+04</rscale>
<asrwt>0</asrwt>
<pdfrwt beam="1">  1        1 0.41659514E+00 0.35315598E+04</pdfrwt>
<pdfrwt beam="2">  1       -1 0.17714636E+00 0.35315598E+04</pdfrwt>
<totfact> 0.17197501E-01</totfact>
</mgrwt>
</event>
<event>
12    1  0.1248059E-010  0.2381099E+04  0.7818608E-02  0.8446614E-01
          1   -1    0    0  501    0  0.00000000000E+00  0.00000000000E+00  0.49681971206E+03  0.49681971206E+03  0.00000000000E+00 0. -1.
         -1   -1    0    0    0  501 -0.00000000000E+00 -0.00000000000E+00 -0.28529615726E+04  0.28529615726E+04  0.00000000000E+00 0.  1.
    9900016    2    1    2    0    0 -0.39080612234E+02 -0.24912771576E+02 -0.24189397125E+04  0.32717331544E+04  0.22024578453E+04 0.  0.
        -24    2    3    3    0    0 -0.31081019170E+03 -0.35825966934E+03 -0.22854514043E+04  0.23354866763E+04  0.79100746106E+02 0.  0.
         23    2    3    3    0    0  0.18144309826E+03  0.59677146254E+02 -0.31200910760E+03  0.37265602512E+03  0.70992042799E+02 0.  0.
        -15    1    5    5    0    0  0.12511212668E+03  0.14788638835E+02 -0.23856071384E+03  0.26978317640E+03  0.00000000000E+00 0.  1.
        -15    1    3    3    0    0 -0.25742714783E+02  0.18900605914E+03  0.29931831696E+03  0.35493299738E+03  0.00000000000E+00 0.  1.
         15    1    4    4    0    0 -0.15101740728E+03 -0.21244389969E+03 -0.13944224214E+04  0.14185741282E+04  0.00000000000E+00 0. -1.
         15    1    5    5    0    0  0.56330971579E+02  0.44888507420E+02 -0.73448393762E+02  0.10287284872E+03  0.00000000000E+00 0. -1.
        -16    1    4    4    0    0 -0.15979278442E+03 -0.14581576964E+03 -0.89102898289E+03  0.91691254816E+03  0.00000000000E+00 0.  1.
         16    1    1    2    0    0  0.39080612234E+02  0.24912771576E+02  0.62797851907E+02  0.78048130306E+02  0.00000000000E+00 0. -1.
    9900018    1    3    3    0    0  0.11602919599E+03  0.84663692365E+02 -0.12079751758E+03  0.20865745560E+03  0.91187600000E+02 0.  0.
<mgrwt>
<rscale>  0 0.23810985E+04</rscale>
<asrwt>0</asrwt>
<pdfrwt beam="1">  1        1 0.76433801E-01 0.23810985E+04</pdfrwt>
<pdfrwt beam="2">  1       -1 0.43891717E+00 0.23810985E+04</pdfrwt>
<totfact> 0.15484607E-01</totfact>
</mgrwt>
</event>
<event>
12    1  0.1427346E-010  0.2967219E+04  0.7818608E-02  0.8253154E-01
          1   -1    0    0  501    0  0.00000000000E+00  0.00000000000E+00  0.90715607976E+03  0.90715607976E+03  0.00000000000E+00 0. -1.
         -1   -1    0    0    0  501 -0.00000000000E+00 -0.00000000000E+00 -0.24263702175E+04  0.24263702175E+04  0.00000000000E+00 0.  1.
    9900016    2    1    2    0    0  0.61722957902E+03  0.24158401118E+03 -0.11697451454E+04  0.25842174395E+04  0.22069301941E+04 0.  0.
         24    2    3    3    0    0  0.49594352720E+03 -0.59783337324E+02  0.19886511312E+03  0.54357884784E+03  0.79978753458E+02 0.  0.
         23    2    3    3    0    0 -0.18076243818E+03  0.12086922546E+03 -0.46575234630E+02  0.24553846625E+03  0.10409350225E+03 0.  0.
        -15    1    5    5    0    0 -0.17996034397E+03  0.75761571352E+02 -0.45105649786E+02  0.20039975234E+03  0.00000000000E+00 0.  1.
        -15    1    4    4    0    0  0.17628273990E+03 -0.40038617887E+02  0.10837899054E+03  0.21077167955E+03  0.00000000000E+00 0.  1.
         15    1    5    5    0    0 -0.80209420721E+00  0.45107654104E+02 -0.14695848443E+01  0.45138713910E+02  0.00000000000E+00 0. -1.
         15    1    3    3    0    0 -0.29469626176E+03 -0.15495818741E+02 -0.10737656020E+04  0.11135791733E+04  0.00000000000E+00 0. -1.
        -16    1    1    2    0    0 -0.61722957902E+03 -0.24158401118E+03 -0.34946899228E+03  0.74930885771E+03  0.00000000000E+00 0.  1.
         16    1    4    4    0    0  0.31966078731E+03 -0.19744719437E+02  0.90486122575E+02  0.33280716829E+03  0.00000000000E+00 0. -1.
    9900018    1    3    3    0    0  0.59674475176E+03  0.19599394179E+03 -0.24826942191E+03  0.68152095215E+03  0.91187600000E+02 0.  0.
<mgrwt>
<rscale>  0 0.29672186E+04</rscale>
<asrwt>0</asrwt>
<pdfrwt beam="1">  1        1 0.13956248E+00 0.29672186E+04</pdfrwt>
<pdfrwt beam="2">  1       -1 0.37328772E+00 0.29672186E+04</pdfrwt>
<totfact> 0.16630979E-01</totfact>
</mgrwt>
</event>
<event>
12    1  0.1248059E-010  0.3257696E+04  0.7818608E-02  0.8173744E-01
          2   -1    0    0  501    0  0.00000000000E+00  0.00000000000E+00  0.67502274305E+03  0.67502274305E+03  0.00000000000E+00 0. -1.
         -2   -1    0    0    0  501 -0.00000000000E+00 -0.00000000000E+00 -0.39304534601E+04  0.39304534601E+04  0.00000000000E+00 0.  1.
    9900016    2    1    2    0    0 -0.32874342517E+03 -0.47172662920E+02 -0.11811795051E+04  0.25048059316E+04  0.21837056193E+04 0.  0.
         24    2    3    3    0    0  0.36783330256E+03 -0.35703419560E+03 -0.10808862786E+02  0.51889622701E+03  0.79760313403E+02 0.  0.
         23    2    3    3    0    0  0.14507773062E+03  0.24097299296E+03 -0.83287691370E+03  0.88735001260E+03  0.12079139133E+03 0.  0.
        -15    1    4    4    0    0  0.16996373616E+03 -0.15893369615E+03 -0.44402886937E+02  0.23689492977E+03  0.00000000000E+00 0.  1.
        -15    1    5    5    0    0 -0.38929882154E+01  0.10144943333E+03 -0.30062444841E+03  0.31730458846E+03  0.00000000000E+00 0.  1.
         15    1    3    3    0    0 -0.90816701478E+03  0.12530889297E+03 -0.32078853867E+03  0.97127490028E+03  0.00000000000E+00 0. -1.
         15    1    5    5    0    0  0.14897071884E+03  0.13952355964E+03 -0.53225246529E+03  0.57004542413E+03  0.00000000000E+00 0. -1.
        -16    1    1    2    0    0  0.32874342517E+03  0.47172662920E+02 -0.20742512119E+04  0.21006702716E+04  0.00000000000E+00 0.  1.
         16    1    4    4    0    0  0.19786956640E+03 -0.19810049944E+03  0.33594024150E+02  0.28200129724E+03  0.00000000000E+00 0. -1.
    9900018    1    3    3    0    0  0.66512556418E+02 -0.56420353261E+02 -0.16705189949E+02  0.12728479166E+03  0.91187600000E+02 0.  0.
<mgrwt>
<rscale>  0 0.32576958E+04</rscale>
<asrwt>0</asrwt>
<pdfrwt beam="1">  1        2 0.10384965E+00 0.32576958E+04</pdfrwt>
<pdfrwt beam="2">  1       -2 0.60468515E+00 0.32576958E+04</pdfrwt>
<totfact> 0.17322839E-02</totfact>
</mgrwt>
</event>
<event>
12    1  0.1248059E-010  0.2827151E+04  0.7818608E-02  0.8294888E-01
         -2   -1    0    0    0  501 -0.00000000000E+00  0.00000000000E+00  0.13633757430E+04  0.13633757430E+04  0.00000000000E+00 0. -1.
          2   -1    0    0  501    0  0.00000000000E+00 -0.00000000000E+00 -0.14656236613E+04  0.14656236613E+04  0.00000000000E+00 0.  1.
    9900016    2    1    2    0    0 -0.43325940943E+03 -0.30590200308E+03  0.84170205025E+02  0.22668237484E+04  0.22022977844E+04 0.  0.
        -24    2    3    3    0    0 -0.10196206901E+03 -0.80346707995E+03  0.35768185984E+03  0.88895206297E+03  0.79648259976E+02 0.  0.
         23    2    3    3    0    0 -0.52649124740E+03  0.10390963475E+03  0.64184437662E+02  0.55059150542E+03  0.10507672445E+03 0.  0.
        -15    1    5    5    0    0 -0.12377211247E+03  0.45559709239E+02 -0.24419521725E+02  0.13413253137E+03  0.00000000000E+00 0.  1.
        -15    1    3    3    0    0  0.29950297398E+03  0.26544534178E+03 -0.45427411411E+03  0.60541575107E+03  0.00000000000E+00 0.  1.
         15    1    4    4    0    0 -0.93972024067E+02 -0.67201678523E+03  0.26769311398E+03  0.72944972699E+03  0.00000000000E+00 0. -1.
         15    1    5    5    0    0 -0.40271913493E+03  0.58349925513E+02  0.88603959387E+02  0.41645897405E+03  0.00000000000E+00 0. -1.
        -16    1    4    4    0    0 -0.79900449455E+01 -0.13145029472E+03  0.89988745860E+02  0.15950233597E+03  0.00000000000E+00 0.  1.
         16    1    1    2    0    0  0.43325940943E+03  0.30590200308E+03 -0.18641812332E+03  0.56217565587E+03  0.00000000000E+00 0. -1.
    9900018    1    3    3    0    0 -0.10430906699E+03  0.12821010034E+03  0.11657802163E+03  0.22186442889E+03  0.91187600000E+02 0.  0.
<mgrwt>
<rscale>  0 0.28271510E+04</rscale>
<asrwt>0</asrwt>
<pdfrwt beam="1">  1        2 0.22548056E+00 0.28271510E+04</pdfrwt>
<pdfrwt beam="2">  1       -2 0.20975011E+00 0.28271510E+04</pdfrwt>
<totfact> 0.13249001E+00</totfact>
</mgrwt>
</event>
<event>
12    1  0.1318430E-010  0.3173431E+04  0.7818608E-02  0.8195869E-01
          1   -1    0    0  501    0  0.00000000000E+00  0.00000000000E+00  0.23201382030E+04  0.23201382030E+04  0.00000000000E+00 0. -1.
         -1   -1    0    0    0  501 -0.00000000000E+00 -0.00000000000E+00 -0.10851360435E+04  0.10851360435E+04  0.00000000000E+00 0.  1.
    9900016    2    1    2    0    0  0.11882103162E+03  0.36271532356E+03  0.12995335459E+03  0.22361661656E+04  0.21995159473E+04 0.  0.
        -24    2    3    3    0    0  0.20038503319E+03 -0.16404165923E+03  0.24406780221E+03  0.36473015790E+03  0.79969797520E+02 0.  0.
         23    2    3    3    0    0  0.27222484925E+03  0.49012508027E+02  0.38514824555E+03  0.48654933841E+03  0.10900684917E+03 0.  0.
        -15    1    3    3    0    0  0.30112623103E+03  0.13732918409E+03 -0.54733651752E+03  0.63961986775E+03  0.00000000000E+00 0.  1.
        -15    1    5    5    0    0  0.16787986125E+03 -0.22891955371E+02  0.24130896000E+03  0.29485200289E+03  0.00000000000E+00 0.  1.
         15    1    5    5    0    0  0.10434498800E+03  0.71904463398E+02  0.14383928555E+03  0.19169733552E+03  0.00000000000E+00 0. -1.
         15    1    4    4    0    0  0.60574911871E+02 -0.16425457641E+02  0.30227313325E+02  0.69662084937E+02  0.00000000000E+00 0. -1.
        -16    1    4    4    0    0  0.13981012132E+03 -0.14761620159E+03  0.21384048888E+03  0.29506807296E+03  0.00000000000E+00 0.  1.
         16    1    1    2    0    0 -0.11882103162E+03 -0.36271532356E+03  0.11050488049E+04  0.11691080809E+04  0.00000000000E+00 0. -1.
    9900018    1    3    3    0    0 -0.65491508185E+03  0.34041529067E+03  0.48073824355E+02  0.74526680158E+03  0.91187600000E+02 0.  0.
<mgrwt>
<rscale>  0 0.31734307E+04</rscale>
<asrwt>0</asrwt>
<pdfrwt beam="1">  1        1 0.35694434E+00 0.31734307E+04</pdfrwt>
<pdfrwt beam="2">  1       -1 0.16694401E+00 0.31734307E+04</pdfrwt>
<totfact> 0.39179843E-01</totfact>
</mgrwt>
</event>
<event>
12    1  0.1248059E-010  0.2791682E+04  0.7818608E-02  0.8305855E-01
          2   -1    0    0  501    0  0.00000000000E+00  0.00000000000E+00  0.33417122488E+04  0.33417122488E+04  0.00000000000E+00 0.  1.
         -2   -1    0    0    0  501 -0.00000000000E+00 -0.00000000000E+00 -0.58304602148E+03  0.58304602148E+03  0.00000000000E+00 0. -1.
    9900016    2    1    2    0    0 -0.12472134405E+03  0.49190371201E+03  0.20229028184E+04  0.30309616103E+04  0.21993334888E+04 0.  0.
         24    2    3    3    0    0 -0.56639828845E+02  0.23356408113E+03  0.13644727133E+04  0.13877621779E+04  0.79610470530E+02 0.  0.
         23    2    3    3    0    0 -0.48068919957E+02  0.15970009793E+03  0.38148092572E+03  0.42919336876E+03  0.10423295426E+03 0.  0.
        -15    1    5    5    0    0 -0.29040755229E+02 -0.61323926353E+01  0.61746406246E+02  0.68509783155E+02  0.00000000000E+00 0.  1.
        -15    1    4    4    0    0 -0.58235296485E+02  0.13723985566E+03  0.65334524721E+03  0.67013889589E+03  0.00000000000E+00 0.  1.
         15    1    5    5    0    0 -0.19028164728E+02  0.16583249056E+03  0.31973451947E+03  0.36068358560E+03  0.00000000000E+00 0. -1.
         15    1    3    3    0    0  0.20529022660E+03  0.49648586398E+03 -0.17465062426E+03  0.56492931489E+03  0.00000000000E+00 0. -1.
        -16    1    1    2    0    0  0.12472134405E+03 -0.49190371201E+03  0.73576340891E+03  0.89379666001E+03  0.00000000000E+00 0.  1.
         16    1    4    4    0    0  0.15954676403E+01  0.96324225472E+02  0.71112746605E+03  0.71762328203E+03  0.00000000000E+00 0. -1.
    9900018    1    3    3    0    0 -0.22530282185E+03 -0.39784633103E+03  0.45159980370E+03  0.64907674873E+03  0.91187600000E+02 0.  0.
<mgrwt>
<rscale>  0 0.27916820E+04</rscale>
<asrwt>0</asrwt>
<pdfrwt beam="1">  1        2 0.51410957E+00 0.27916820E+04</pdfrwt>
<pdfrwt beam="2">  1       -2 0.89699390E-01 0.27916820E+04</pdfrwt>
<totfact> 0.96819751E-01</totfact>
</mgrwt>
</event>
<event>
12    1  0.1248059E-010  0.2860266E+04  0.7818608E-02  0.8284799E-01
         -1   -1    0    0    0  501 -0.00000000000E+00  0.00000000000E+00  0.84944822183E+03  0.84944822183E+03  0.00000000000E+00 0.  1.
          1   -1    0    0  501    0  0.00000000000E+00 -0.00000000000E+00 -0.24077747671E+04  0.24077747671E+04  0.00000000000E+00 0. -1.
    9900016    2    1    2    0    0  0.11722441031E+03  0.43364103972E+03 -0.16498846317E+04  0.27987810658E+04  0.22156872619E+04 0.  0.
         24    2    3    3    0    0  0.97374379563E+02 -0.47425802840E+03 -0.22361091701E+03  0.53941983809E+03  0.81052280816E+02 0.  0.
         23    2    3    3    0    0 -0.12021115345E+03 -0.31806434981E+03 -0.43515878255E+02  0.35158675644E+03  0.78127867038E+02 0.  0.
        -15    1    5    5    0    0 -0.72985704592E+02 -0.89983363340E+02 -0.18482097426E+02  0.11732649606E+03  0.00000000000E+00 0. -1.
        -15    1    4    4    0    0  0.45069496177E+02 -0.13155058745E+03 -0.10034433454E+03  0.17148120019E+03  0.00000000000E+00 0.  1.
         15    1    5    5    0    0 -0.47225448859E+02 -0.22808098647E+03 -0.25033780829E+02  0.23426026038E+03  0.00000000000E+00 0.  1.
         15    1    3    3    0    0  0.58719319250E+02  0.11832068399E+04 -0.12574884388E+04  0.17276294620E+04  0.00000000000E+00 0. -1.
        -16    1    1    2    0    0 -0.11722441031E+03 -0.43364103972E+03  0.91558086441E+02  0.45844192314E+03  0.00000000000E+00 0.  1.
         16    1    4    4    0    0  0.52304883386E+02 -0.34270744095E+03 -0.12326658247E+03  0.36793863790E+03  0.00000000000E+00 0. -1.
    9900018    1    3    3    0    0  0.81341864951E+02  0.42756577979E+02 -0.12526939773E+03  0.18014500924E+03  0.91187600000E+02 0.  0.
<mgrwt>
<rscale>  0 0.28602657E+04</rscale>
<asrwt>0</asrwt>
<pdfrwt beam="1">  1        1 0.37042689E+00 0.28602657E+04</pdfrwt>
<pdfrwt beam="2">  1       -1 0.13068434E+00 0.28602657E+04</pdfrwt>
<totfact> 0.67611745E-01</totfact>
</mgrwt>
</event>
<event>
12    1  0.1305000E-010  0.2274571E+04  0.7818608E-02  0.8488015E-01
          1   -1    0    0  501    0  0.00000000000E+00  0.00000000000E+00  0.76945387523E+03  0.76945387523E+03  0.00000000000E+00 0. -1.
         -1   -1    0    0    0  501 -0.00000000000E+00 -0.00000000000E+00 -0.16809568255E+04  0.16809568255E+04  0.00000000000E+00 0.  1.
    9900016    2    1    2    0    0 -0.71046721748E+02 -0.25354481623E+02 -0.85540654301E+03  0.23564038216E+04  0.21943628073E+04 0.  0.
         24    2    3    3    0    0  0.64649005503E+03 -0.53517628497E+03 -0.79713484160E+03  0.11602583296E+04  0.80077391122E+02 0.  0.
         23    2    3    3    0    0 -0.29166589632E+03  0.42149986224E+03 -0.14717489586E+02  0.52380142267E+03  0.10686532151E+03 0.  0.
        -15    1    4    4    0    0  0.12148219277E+03 -0.14364693867E+03 -0.17455790024E+03  0.25663753951E+03  0.00000000000E+00 0.  1.
        -15    1    5    5    0    0 -0.21570689158E+03  0.34222480699E+03 -0.51977869004E+02  0.40785902032E+03  0.00000000000E+00 0.  1.
         15    1    3    3    0    0 -0.49848365241E+03 -0.30800948206E+02 -0.67463996983E+02  0.50397027791E+03  0.00000000000E+00 0. -1.
         15    1    5    5    0    0 -0.75959004740E+02  0.79275055257E+02  0.37260379418E+02  0.11594240235E+03  0.00000000000E+00 0. -1.
        -16    1    1    2    0    0  0.71046721748E+02  0.25354481623E+02 -0.56096407223E+02  0.94006879072E+02  0.00000000000E+00 0.  1.
         16    1    4    4    0    0  0.52500786226E+03 -0.39152934630E+03 -0.62257694137E+03  0.90362079014E+03  0.00000000000E+00 0. -1.
    9900018    1    3    3    0    0  0.72612771948E+02  0.11912288931E+03  0.23909785159E+02  0.16837379139E+03  0.91187600000E+02 0.  0.
<mgrwt>
<rscale>  0 0.22745714E+04</rscale>
<asrwt>0</asrwt>
<pdfrwt beam="1">  1        1 0.11837752E+00 0.22745714E+04</pdfrwt>
<pdfrwt beam="2">  1       -1 0.25860874E+00 0.22745714E+04</pdfrwt>
<totfact> 0.13056359E+00</totfact>
</mgrwt>
</event>
<event>
12    1  0.1248059E-010  0.3762290E+04  0.7818608E-02  0.8054296E-01
          2   -1    0    0  501    0  0.00000000000E+00  0.00000000000E+00  0.40386484093E+04  0.40386484093E+04  0.00000000000E+00 0. -1.
         -2   -1    0    0    0  501 -0.00000000000E+00 -0.00000000000E+00 -0.87621076899E+03  0.87621076899E+03  0.00000000000E+00 0.  1.
    9900016    2    1    2    0    0  0.38799456224E+02 -0.41087917972E+03  0.36443886425E+04  0.42803484482E+04  0.22066914515E+04 0.  0.
         24    2    3    3    0    0 -0.92681289182E+01  0.38799396420E+03  0.13895069782E+04  0.14448956182E+04  0.79802823923E+02 0.  0.
         23    2    3    3    0    0 -0.16789404842E+03  0.14678075524E+03  0.63628753817E+03  0.68233065177E+03  0.10478685755E+03 0.  0.
        -15    1    4    4    0    0  0.75054192840E+01  0.35213349528E+03  0.11706791544E+04  0.12225154446E+04  0.00000000000E+00 0.  1.
        -15    1    5    5    0    0  0.95673696697E+01  0.27068287663E+02  0.43916906919E+02  0.52468290164E+02  0.00000000000E+00 0.  1.
         15    1    5    5    0    0 -0.17746141809E+03  0.11971246757E+03  0.59237063125E+03  0.62986236161E+03  0.00000000000E+00 0. -1.
         15    1    3    3    0    0 -0.58104568808E+02 -0.36053211580E+03 -0.43271708365E+02  0.36773902184E+03  0.00000000000E+00 0. -1.
        -16    1    1    2    0    0 -0.38799456224E+02  0.41087917972E+03 -0.48195100217E+03  0.63451073011E+03  0.00000000000E+00 0.  1.
         16    1    4    4    0    0 -0.16773548202E+02  0.35860468926E+02  0.21882782378E+03  0.22238017360E+03  0.00000000000E+00 0. -1.
    9900018    1    3    3    0    0  0.27406620237E+03 -0.58512178336E+03  0.16618658345E+04  0.17853831563E+04  0.91187600000E+02 0.  0.
<mgrwt>
<rscale>  0 0.37622904E+04</rscale>
<asrwt>0</asrwt>
<pdfrwt beam="1">  1        2 0.62133051E+00 0.37622904E+04</pdfrwt>
<pdfrwt beam="2">  1       -2 0.13480166E+00 0.37622904E+04</pdfrwt>
<totfact> 0.10098930E-01</totfact>
</mgrwt>
</event>
<event>
12    1  0.1248059E-010  0.3088074E+04  0.7818608E-02  0.8219019E-01
          1   -1    0    0  501    0  0.00000000000E+00  0.00000000000E+00  0.31764085763E+04  0.31764085763E+04  0.00000000000E+00 0. -1.
         -1   -1    0    0    0  501 -0.00000000000E+00 -0.00000000000E+00 -0.75054886009E+03  0.75054886009E+03  0.00000000000E+00 0.  1.
    9900016    2    1    2    0    0 -0.37185629830E+02 -0.61568073837E+03  0.23892860479E+04  0.33090713823E+04  0.22047267522E+04 0.  0.
         24    2    3    3    0    0 -0.23669467762E+03 -0.57362441523E+03 -0.17497144443E+03  0.64961267573E+03  0.79449870543E+02 0.  0.
         23    2    3    3    0    0  0.15422304057E+03 -0.29860255781E+03  0.12123665661E+04  0.12600173926E+04  0.69734535649E+02 0.  0.
        -15    1    5    5    0    0  0.89359048671E+02 -0.11999479720E+03  0.44515634963E+03  0.46962534700E+03  0.00000000000E+00 0. -1.
        -15    1    4    4    0    0 -0.91705300194E+02 -0.29973713523E+03 -0.11553923589E+03  0.33406814776E+03  0.00000000000E+00 0.  1.
         15    1    3    3    0    0 -0.43617822102E+02  0.22642902067E+03  0.88675508846E+03  0.91624625659E+03  0.00000000000E+00 0. -1.
         15    1    5    5    0    0  0.64863991904E+02 -0.17860776061E+03  0.76721021642E+03  0.79039204562E+03  0.00000000000E+00 0.  1.
        -16    1    1    2    0    0  0.37185629830E+02  0.61568073837E+03  0.36573668351E+02  0.61788605413E+03  0.00000000000E+00 0.  1.
         16    1    4    4    0    0 -0.14498937743E+03 -0.27388728001E+03 -0.59432208540E+02  0.31554452797E+03  0.00000000000E+00 0. -1.
    9900018    1    3    3    0    0  0.88903829321E+02  0.30117214002E+02  0.46513583781E+03  0.48319505736E+03  0.91187600000E+02 0.  0.
<mgrwt>
<rscale>  0 0.30880737E+04</rscale>
<asrwt>0</asrwt>
<pdfrwt beam="1">  1        1 0.48867824E+00 0.30880737E+04</pdfrwt>
<pdfrwt beam="2">  1       -1 0.11546906E+00 0.30880737E+04</pdfrwt>
<totfact> 0.25396361E-01</totfact>
</mgrwt>
</event>
<event>
12    1  0.1248059E-010  0.2469341E+04  0.7818608E-02  0.8413990E-01
         -2   -1    0    0    0  501 -0.00000000000E+00  0.00000000000E+00  0.10568434239E+04  0.10568434239E+04  0.00000000000E+00 0. -1.
          2   -1    0    0  501    0  0.00000000000E+00 -0.00000000000E+00 -0.14424190385E+04  0.14424190385E+04  0.00000000000E+00 0.  1.
    9900016    2    1    2    0    0 -0.10403557793E+03  0.23016495627E+03 -0.36441830635E+03  0.22457926609E+04  0.22015868516E+04 0.  0.
        -24    2    3    3    0    0 -0.30543301564E+03 -0.61797262714E+03  0.25664905103E+03  0.73992775679E+03  0.80279853879E+02 0.  0.
         23    2    3    3    0    0 -0.28119431139E+02  0.54536259213E+03 -0.72562411431E+03  0.91481025774E+03  0.11016529897E+03 0.  0.
        -15    1    5    5    0    0 -0.51752824765E+01  0.40316074051E+03 -0.45278726440E+03  0.60628514170E+03  0.00000000000E+00 0.  1.
        -15    1    3    3    0    0  0.27997383818E+03  0.23460461601E+03  0.21564180924E+03  0.42417692749E+03  0.00000000000E+00 0.  1.
         15    1    4    4    0    0 -0.65159900029E+02 -0.12966406282E+03  0.90018462384E+02  0.17076857242E+03  0.00000000000E+00 0. -1.
         15    1    5    5    0    0 -0.22944148663E+02  0.14220185162E+03 -0.27283684991E+03  0.30852511605E+03  0.00000000000E+00 0. -1.
        -16    1    4    4    0    0 -0.24027311561E+03 -0.48830856432E+03  0.16663058865E+03  0.56915918436E+03  0.00000000000E+00 0.  1.
         16    1    1    2    0    0  0.10403557793E+03 -0.23016495627E+03 -0.21157308228E+02  0.25346980148E+03  0.00000000000E+00 0. -1.
    9900018    1    3    3    0    0 -0.50456969327E+02  0.68170375266E+02 -0.11108505232E+03  0.16687771888E+03  0.91187600000E+02 0.  0.
<mgrwt>
<rscale>  0 0.24693409E+04</rscale>
<asrwt>0</asrwt>
<pdfrwt beam="1">  1        2 0.22191062E+00 0.24693409E+04</pdfrwt>
<pdfrwt beam="2">  1       -2 0.16259130E+00 0.24693409E+04</pdfrwt>
<totfact> 0.29502781E+00</totfact>
</mgrwt>
</event>
<event>
12    1  0.1248059E-010  0.2766239E+04  0.7818608E-02  0.8313827E-01
         -3   -1    0    0    0  501 -0.00000000000E+00  0.00000000000E+00  0.11855066694E+04  0.11855066694E+04  0.00000000000E+00 0.  1.
          3   -1    0    0  501    0  0.00000000000E+00 -0.00000000000E+00 -0.16136723587E+04  0.16136723587E+04  0.00000000000E+00 0. -1.
    9900016    2    1    2    0    0  0.27421963926E+03 -0.26425097840E+03 -0.65386712131E+01  0.22310291073E+04  0.21982773104E+04 0.  0.
        -24    2    3    3    0    0  0.35656949443E+03 -0.85974854164E+03  0.42370574991E+03  0.10257642548E+04  0.79726938550E+02 0.  0.
         23    2    3    3    0    0  0.25891248497E+03 -0.75211740120E+02 -0.25576226158E+03  0.38701473522E+03  0.10804438949E+03 0.  0.
        -15    1    5    5    0    0  0.19228980646E+03 -0.58434710077E+02 -0.24594469603E+03  0.31761419760E+03  0.00000000000E+00 0. -1.
        -15    1    3    3    0    0 -0.22667734877E+03  0.55746920983E+03 -0.70445987159E+02  0.60590195367E+03  0.00000000000E+00 0.  1.
         15    1    5    5    0    0  0.66622678510E+02 -0.16777030043E+02 -0.98175655563E+01  0.69400537623E+02  0.00000000000E+00 0.  1.
         15    1    4    4    0    0  0.92110202323E+02 -0.24755876394E+03  0.15884174609E+03  0.30822123755E+03  0.00000000000E+00 0. -1.
        -16    1    4    4    0    0  0.26445929210E+03 -0.61218977769E+03  0.26486400382E+03  0.71754301726E+03  0.00000000000E+00 0.  1.
         16    1    1    2    0    0 -0.27421963926E+03  0.26425097840E+03 -0.42162701805E+03  0.56814992079E+03  0.00000000000E+00 0. -1.
    9900018    1    3    3    0    0 -0.11458499137E+03  0.11324009352E+03 -0.10403617238E+03  0.21234816360E+03  0.91187600000E+02 0.  0.
<mgrwt>
<rscale>  0 0.27662388E+04</rscale>
<asrwt>0</asrwt>
<pdfrwt beam="1">  1        3 0.24825729E+00 0.27662388E+04</pdfrwt>
<pdfrwt beam="2">  1       -3 0.18238564E+00 0.27662388E+04</pdfrwt>
<totfact> 0.32666990E-02</totfact>
</mgrwt>
</event>
<event>
12    1  0.1248059E-010  0.3395499E+04  0.7818608E-02  0.8139012E-01
          1   -1    0    0  501    0  0.00000000000E+00  0.00000000000E+00  0.17997108908E+04  0.17997108908E+04  0.00000000000E+00 0. -1.
         -1   -1    0    0    0  501 -0.00000000000E+00 -0.00000000000E+00 -0.16015646393E+04  0.16015646393E+04  0.00000000000E+00 0.  1.
    9900016    2    1    2    0    0  0.23244932382E+03 -0.65472872996E+03 -0.56131321523E+03  0.23719645569E+04  0.21973713696E+04 0.  0.
        -24    2    3    3    0    0 -0.74596972276E+02 -0.77994037260E+03  0.67160282381E+03  0.10350065818E+04  0.79476905017E+02 0.  0.
         23    2    3    3    0    0  0.24773716307E+03 -0.23181223766E+02 -0.63893073327E+03  0.69357625844E+03  0.10442448590E+03 0.  0.
        -15    1    5    5    0    0  0.20684678967E+03 -0.37163703420E+02 -0.41131817445E+03  0.46189758160E+03  0.00000000000E+00 0.  1.
        -15    1    3    3    0    0 -0.21066589196E+01 -0.31982089754E+02 -0.45768975362E+02  0.55875676126E+02  0.00000000000E+00 0.  1.
         15    1    5    5    0    0  0.40890373403E+02  0.13982479654E+02 -0.22761255882E+03  0.23167867685E+03  0.00000000000E+00 0. -1.
         15    1    4    4    0    0 -0.10979334678E+02 -0.13120026286E+03  0.75961770023E+02  0.15200080681E+03  0.00000000000E+00 0. -1.
        -16    1    4    4    0    0 -0.63617637598E+02 -0.64874010974E+03  0.59564105378E+03  0.88300577504E+03  0.00000000000E+00 0.  1.
         16    1    1    2    0    0 -0.23244932382E+03  0.65472872996E+03  0.75945946674E+03  0.10293109732E+04  0.00000000000E+00 0. -1.
    9900018    1    3    3    0    0  0.61415791941E+02  0.18037495617E+03 -0.54821633041E+03  0.58750604051E+03  0.91187600000E+02 0.  0.
<mgrwt>
<rscale>  0 0.33954990E+04</rscale>
<asrwt>0</asrwt>
<pdfrwt beam="1">  1        1 0.27687860E+00 0.33954990E+04</pdfrwt>
<pdfrwt beam="2">  1       -1 0.24639456E+00 0.33954990E+04</pdfrwt>
<totfact> 0.24693831E-01</totfact>
</mgrwt>
</event>
<event>
11    1  0.1248059E-010  0.2892838E+04  0.7818608E-02  0.8275011E-01
          2   -1    0    0  501    0  0.00000000000E+00  0.00000000000E+00  0.17102413224E+04  0.17102413224E+04  0.00000000000E+00 0. -1.
         -2   -1    0    0    0  501 -0.00000000000E+00 -0.00000000000E+00 -0.12232943250E+04  0.12232943250E+04  0.00000000000E+00 0.  1.
    9900016    2    1    2    0    0 -0.60419950225E+03  0.31756388952E+02  0.33738677187E+03  0.23102910985E+04  0.22039849407E+04 0.  0.
         24    2    3    3    0    0 -0.97091449884E+02 -0.43906178896E+03  0.60043418993E+03  0.75436311111E+03  0.79627148714E+02 0.  0.
        -15    1    3    3    0    0 -0.14742114307E+03 -0.35051345607E+02  0.10318495355E+02  0.15188173556E+03  0.00000000000E+00 0.  1.
        -15    1    4    4    0    0 -0.45553579668E+02 -0.13919503161E+03  0.14091458026E+03  0.20324198478E+03  0.00000000000E+00 0.  1.
         15    1    3    3    0    0  0.20021028584E+03  0.53552897997E+03 -0.46984004530E+03  0.74001696948E+03  0.00000000000E+00 0. -1.
         15    1    3    3    0    0 -0.22346560342E+03 -0.95968643937E+02  0.19088040053E+03  0.30916368454E+03  0.00000000000E+00 0. -1.
        -16    1    1    2    0    0  0.60419950225E+03 -0.31756388952E+02  0.14956022558E+03  0.62324454898E+03  0.00000000000E+00 0.  1.
         16    1    4    4    0    0 -0.51537870217E+02 -0.29986675735E+03  0.45951960966E+03  0.55112112633E+03  0.00000000000E+00 0. -1.
    9900018    1    3    3    0    0 -0.33643159172E+03  0.66309187487E+02  0.55937313617E+01  0.35486559777E+03  0.91187600000E+02 0.  0.
<mgrwt>
<rscale>  0 0.28928384E+04</rscale>
<asrwt>0</asrwt>
<pdfrwt beam="1">  1        2 0.26311405E+00 0.28928384E+04</pdfrwt>
<pdfrwt beam="2">  1       -2 0.18819913E+00 0.28928384E+04</pdfrwt>
<totfact> 0.13324357E+00</totfact>
</mgrwt>
</event>
<event>
11    1  0.1248059E-010  0.2677177E+04  0.7818608E-02  0.8342448E-01
          2   -1    0    0  501    0  0.00000000000E+00  0.00000000000E+00  0.24679743961E+04  0.24679743961E+04  0.00000000000E+00 0. -1.
         -2   -1    0    0    0  501 -0.00000000000E+00 -0.00000000000E+00 -0.72602845654E+03  0.72602845654E+03  0.00000000000E+00 0.  1.
    9900016    2    1    2    0    0  0.41481698278E+03  0.50025079372E+01  0.12945908541E+04  0.25839006262E+04  0.21973799881E+04 0.  0.
        -24    2    3    3    0    0 -0.47772511419E+03  0.50590836203E+03  0.31440601926E+03  0.76759624183E+03  0.78665685207E+02 0.  0.
        -15    1    3    3    0    0 -0.12515499736E+02 -0.20218738813E+02 -0.19131644477E+01  0.23855719043E+02  0.00000000000E+00 0.  1.
        -15    1    3    3    0    0  0.43614873457E+03 -0.67015993369E+02  0.50031140451E+03  0.66710446222E+03  0.00000000000E+00 0.  1.
         15    1    4    4    0    0 -0.17898775129E+03  0.15265305787E+03  0.76480869388E+02  0.24736389101E+03  0.00000000000E+00 0. -1.
         15    1    3    3    0    0  0.92328726497E+02 -0.32378809313E+03  0.61895433460E+03  0.70460470571E+03  0.00000000000E+00 0. -1.
        -16    1    4    4    0    0 -0.29873736289E+03  0.35325530416E+03  0.23792514987E+03  0.52023235082E+03  0.00000000000E+00 0.  1.
         16    1    1    2    0    0 -0.41481698278E+03 -0.50025079372E+01  0.44735508546E+03  0.61010222649E+03  0.00000000000E+00 0. -1.
    9900018    1    3    3    0    0  0.37658013564E+03 -0.89883028787E+02 -0.13716773979E+03  0.42073949737E+03  0.91187600000E+02 0.  0.
<mgrwt>
<rscale>  0 0.26771774E+04</rscale>
<asrwt>0</asrwt>
<pdfrwt beam="1">  1        2 0.37968836E+00 0.26771774E+04</pdfrwt>
<pdfrwt beam="2">  1       -2 0.11169669E+00 0.26771774E+04</pdfrwt>
<totfact> 0.20209864E+00</totfact>
</mgrwt>
</event>
<event>
11    1  0.1248059E-010  0.2445139E+04  0.7818608E-02  0.8422795E-01
          1   -1    0    0  501    0  0.00000000000E+00  0.00000000000E+00  0.96897909928E+03  0.96897909928E+03  0.00000000000E+00 0. -1.
         -1   -1    0    0    0  501 -0.00000000000E+00 -0.00000000000E+00 -0.15425271784E+04  0.15425271784E+04  0.00000000000E+00 0.  1.
    9900016    2    1    2    0    0 -0.17740430805E+03 -0.13759731239E+03 -0.56060239477E+03  0.22866220861E+04  0.22054387796E+04 0.  0.
         24    2    3    3    0    0  0.24384514105E+03 -0.19134588457E+03 -0.11504517379E+04  0.11941780855E+04  0.80301919524E+02 0.  0.
        -15    1    4    4    0    0  0.17104950711E+03 -0.17512140035E+03 -0.84424368036E+03  0.87901810594E+03  0.00000000000E+00 0.  1.
        -15    1    3    3    0    0  0.59293376684E+02 -0.14422760812E+03 -0.61229982033E+02  0.16753034998E+03  0.00000000000E+00 0.  1.
         15    1    3    3    0    0 -0.76380816256E+02  0.38334986663E+02  0.29241472737E+02  0.90325323261E+02  0.00000000000E+00 0. -1.
         15    1    3    3    0    0 -0.34837636860E+03  0.29489209854E+02  0.54947997779E+03  0.65127870661E+03  0.00000000000E+00 0. -1.
        -16    1    1    2    0    0  0.17740430805E+03  0.13759731239E+03 -0.12945684366E+02  0.22488419161E+03  0.00000000000E+00 0.  1.
         16    1    4    4    0    0  0.72795633940E+02 -0.16224484218E+02 -0.30620805758E+03  0.31515997959E+03  0.00000000000E+00 0. -1.
    9900018    1    3    3    0    0 -0.55785640924E+02  0.13015198378E+03  0.72357874682E+02  0.18330962069E+03  0.91187600000E+02 0.  0.
<mgrwt>
<rscale>  0 0.24451393E+04</rscale>
<asrwt>0</asrwt>
<pdfrwt beam="1">  1        1 0.14907371E+00 0.24451393E+04</pdfrwt>
<pdfrwt beam="2">  1       -1 0.23731187E+00 0.24451393E+04</pdfrwt>
<totfact> 0.12065462E+00</totfact>
</mgrwt>
</event>
<event>
12    1  0.1248059E-010  0.3463589E+04  0.7818608E-02  0.8122473E-01
          2   -1    0    0  501    0  0.00000000000E+00  0.00000000000E+00  0.18852855948E+04  0.18852855948E+04  0.00000000000E+00 0.  1.
         -2   -1    0    0    0  501 -0.00000000000E+00 -0.00000000000E+00 -0.15907999958E+04  0.15907999958E+04  0.00000000000E+00 0. -1.
    9900016    2    1    2    0    0  0.99792451161E+03  0.18687103563E+03  0.26446747608E+03  0.24603714564E+04  0.22254686119E+04 0.  0.
         24    2    3    3    0    0  0.37542204040E+02  0.42927932364E+03 -0.55435977399E+03  0.70699572089E+03  0.82692415282E+02 0.  0.
         23    2    3    3    0    0 -0.84659915512E+01  0.48663997390E+02 -0.46373669689E+02  0.14028168782E+03  0.12283556912E+03 0.  0.
        -15    1    5    5    0    0  0.25586788399E+02  0.59819327259E+02  0.17206879253E+02  0.67298680135E+02  0.00000000000E+00 0.  1.
        -15    1    4    4    0    0  0.66747981576E+01  0.11524402965E+03 -0.93980310480E+02  0.14885576260E+03  0.00000000000E+00 0.  1.
         15    1    3    3    0    0  0.34823864275E+03 -0.53973066396E+03  0.21850369192E+03  0.67847122659E+03  0.00000000000E+00 0. -1.
         15    1    5    5    0    0 -0.34052779951E+02 -0.11155329868E+02 -0.63580548942E+02  0.72983007684E+02  0.00000000000E+00 0. -1.
        -16    1    1    2    0    0 -0.99792451161E+03 -0.18687103563E+03  0.30018122929E+02  0.10157141343E+04  0.00000000000E+00 0.  1.
         16    1    4    4    0    0  0.30867405883E+02  0.31403529399E+03 -0.46037946351E+03  0.55813995829E+03  0.00000000000E+00 0. -1.
    9900018    1    3    3    0    0  0.62060965637E+03  0.24865837855E+03  0.64669722783E+03  0.93462282108E+03  0.91187600000E+02 0.  0.
<mgrwt>
<rscale>  0 0.34635891E+04</rscale>
<asrwt>0</asrwt>
<pdfrwt beam="1">  1        2 0.29004394E+00 0.34635891E+04</pdfrwt>
<pdfrwt beam="2">  1       -2 0.24473846E+00 0.34635891E+04</pdfrwt>
<totfact> 0.44159451E-01</totfact>
</mgrwt>
</event>
<event>
12    1  0.1248059E-010  0.2566852E+04  0.7818608E-02  0.8379549E-01
         -1   -1    0    0    0  501 -0.00000000000E+00  0.00000000000E+00  0.67720758970E+03  0.67720758970E+03  0.00000000000E+00 0.  1.
          1   -1    0    0  501    0  0.00000000000E+00 -0.00000000000E+00 -0.24323149916E+04  0.24323149916E+04  0.00000000000E+00 0. -1.
    9900016    2    1    2    0    0 -0.32440852179E+03  0.31008782656E+02 -0.14060485373E+04  0.26319825049E+04  0.22009445661E+04 0.  0.
        -24    2    3    3    0    0  0.27617479770E+03  0.23346054230E+03 -0.21926146887E+03  0.43033251880E+03  0.79587318759E+02 0.  0.
         23    2    3    3    0    0  0.41896788556E+03 -0.82531007845E+02 -0.50390624071E+03  0.67016123731E+03  0.11335399495E+03 0.  0.
        -15    1    5    5    0    0  0.21931998602E+03  0.17029072015E+01 -0.30751336854E+03  0.37771500895E+03  0.00000000000E+00 0.  1.
        -15    1    3    3    0    0 -0.46346913876E+03 -0.41951798006E+03 -0.63564775682E+03  0.89154195018E+03  0.00000000000E+00 0.  1.
         15    1    5    5    0    0  0.19964789954E+03 -0.84233915047E+02 -0.19639287217E+03  0.29244622835E+03  0.00000000000E+00 0. -1.
         15    1    4    4    0    0  0.10291812475E+03  0.43497364500E+02 -0.49291788608E+02  0.12212224017E+03  0.00000000000E+00 0. -1.
        -16    1    4    4    0    0  0.17325667295E+03  0.18996317780E+03 -0.16996968026E+03  0.30821027863E+03  0.00000000000E+00 0.  1.
         16    1    1    2    0    0  0.32440852179E+03 -0.31008782656E+02 -0.34905886459E+03  0.47754007639E+03  0.00000000000E+00 0. -1.
    9900018    1    3    3    0    0 -0.55608206629E+03  0.29959722827E+03 -0.47233070860E+02  0.63994679858E+03  0.91187600000E+02 0.  0.
<mgrwt>
<rscale>  0 0.25668519E+04</rscale>
<asrwt>0</asrwt>
<pdfrwt beam="1">  1        1 0.37420230E+00 0.25668519E+04</pdfrwt>
<pdfrwt beam="2">  1       -1 0.10418578E+00 0.25668519E+04</pdfrwt>
<totfact> 0.11552245E+00</totfact>
</mgrwt>
</event>
<event>
12    1  0.1248059E-010  0.3495060E+04  0.7818608E-02  0.8114962E-01
         -1   -1    0    0    0  501 -0.00000000000E+00  0.00000000000E+00  0.16095776590E+04  0.16095776590E+04  0.00000000000E+00 0.  1.
          1   -1    0    0  501    0  0.00000000000E+00 -0.00000000000E+00 -0.18973062611E+04  0.18973062611E+04  0.00000000000E+00 0. -1.
    9900016    2    1    2    0    0 -0.30235749005E+03 -0.65539060047E+03 -0.97692047218E+03  0.25089148200E+04  0.21952956690E+04 0.  0.
         24    2    3    3    0    0 -0.25004370784E+02 -0.78640518087E+02  0.63379580371E+03  0.64333204180E+03  0.73276500679E+02 0.  0.
         23    2    3    3    0    0 -0.94284964455E+02 -0.24273794023E+03 -0.44788741462E+03  0.52937957571E+03  0.10875769790E+03 0.  0.
        -15    1    4    4    0    0  0.13013661786E+02 -0.47584752360E+02  0.17201302884E+03  0.17894732784E+03  0.00000000000E+00 0.  1.
        -15    1    5    5    0    0 -0.21601409915E+02 -0.48925636666E+02 -0.19697011260E+03  0.20410184734E+03  0.00000000000E+00 0.  1.
         15    1    3    3    0    0 -0.32169490663E+03 -0.45243349086E+02 -0.55324108424E+03  0.64156860185E+03  0.00000000000E+00 0. -1.
         15    1    5    5    0    0 -0.72683554540E+02 -0.19381230357E+03 -0.25091730202E+03  0.32527772836E+03  0.00000000000E+00 0. -1.
        -16    1    1    2    0    0  0.30235749005E+03  0.65539060047E+03  0.68919187002E+03  0.99796910006E+03  0.00000000000E+00 0.  1.
         16    1    4    4    0    0 -0.38018032570E+02 -0.31055765727E+02  0.46178277487E+03  0.46438471396E+03  0.00000000000E+00 0. -1.
    9900018    1    3    3    0    0  0.13862675182E+03 -0.28876879306E+03 -0.60958777703E+03  0.69463460069E+03  0.91187600000E+02 0.  0.
<mgrwt>
<rscale>  0 0.34950604E+04</rscale>
<asrwt>0</asrwt>
<pdfrwt beam="1">  1        1 0.29189327E+00 0.34950604E+04</pdfrwt>
<pdfrwt beam="2">  1       -1 0.24762733E+00 0.34950604E+04</pdfrwt>
<totfact> 0.20635073E-01</totfact>
</mgrwt>
</event>
<event>
12    1  0.1248059E-010  0.2895158E+04  0.7818608E-02  0.8274320E-01
         -1   -1    0    0    0  501 -0.00000000000E+00  0.00000000000E+00  0.64004643907E+03  0.64004643907E+03  0.00000000000E+00 0.  1.
          1   -1    0    0  501    0  0.00000000000E+00 -0.00000000000E+00 -0.32739572727E+04  0.32739572727E+04  0.00000000000E+00 0. -1.
    9900016    2    1    2    0    0  0.56900520249E+03 -0.28429864486E+02 -0.23529463590E+04  0.32787744510E+04  0.22112055886E+04 0.  0.
         24    2    3    3    0    0  0.76253954266E+03 -0.14908878616E+03 -0.15278598447E+04  0.17158626121E+04  0.78324825576E+02 0.  0.
         23    2    3    3    0    0 -0.35765620876E+03  0.24436161216E+03 -0.20572847599E+03  0.49264222299E+03  0.11287866439E+03 0.  0.
        -15    1    4    4    0    0  0.47205617177E+03 -0.13077468027E+03 -0.96424072208E+03  0.10815263364E+04  0.00000000000E+00 0.  1.
        -15    1    5    5    0    0 -0.68004087260E+02  0.82430109256E+02 -0.98834252060E+01  0.10731710437E+03  0.00000000000E+00 0. -1.
         15    1    3    3    0    0  0.17861873001E+03 -0.42575601683E+03 -0.11605640805E+03  0.47606924541E+03  0.00000000000E+00 0. -1.
         15    1    5    5    0    0 -0.28965212150E+03  0.16193150291E+03 -0.19584505078E+03  0.38532511862E+03  0.00000000000E+00 0.  1.
        -16    1    1    2    0    0 -0.56900520249E+03  0.28429864486E+02 -0.28096447464E+03  0.63522926071E+03  0.00000000000E+00 0.  1.
         16    1    4    4    0    0  0.29048337089E+03 -0.18314105886E+02 -0.56361912265E+03  0.63433627569E+03  0.00000000000E+00 0. -1.
    9900018    1    3    3    0    0 -0.14496861413E+02  0.30205332634E+03 -0.50330163022E+03  0.59420037052E+03  0.91187600000E+02 0.  0.
<mgrwt>
<rscale>  0 0.28951578E+04</rscale>
<asrwt>0</asrwt>
<pdfrwt beam="1">  1        1 0.50368574E+00 0.28951578E+04</pdfrwt>
<pdfrwt beam="2">  1       -1 0.98468682E-01 0.28951578E+04</pdfrwt>
<totfact> 0.31669338E-01</totfact>
</mgrwt>
</event>
<event>
12    1  0.1248059E-010  0.2793427E+04  0.7818608E-02  0.8305312E-01
          1   -1    0    0  501    0  0.00000000000E+00  0.00000000000E+00  0.27769939312E+04  0.27769939312E+04  0.00000000000E+00 0. -1.
         -1   -1    0    0    0  501 -0.00000000000E+00 -0.00000000000E+00 -0.70248956057E+03  0.70248956057E+03  0.00000000000E+00 0.  1.
    9900016    2    1    2    0    0 -0.46001714753E+03  0.27710953164E+03  0.16576081485E+04  0.27996247354E+04  0.21913074674E+04 0.  0.
         24    2    3    3    0    0 -0.95877183617E+00  0.64512607500E+03  0.39606802041E+03  0.76122448776E+03  0.80026696088E+02 0.  0.
         23    2    3    3    0    0 -0.31835474777E+03  0.41481359982E+03  0.13337935764E+03  0.54429476179E+03  0.71039894734E+02 0.  0.
        -15    1    5    5    0    0 -0.26442709266E+03  0.38188116348E+03  0.11598123817E+03  0.47875521716E+03  0.00000000000E+00 0. -1.
        -15    1    4    4    0    0  0.10035272694E+02  0.38081815071E+03  0.27764136023E+03  0.47138932478E+03  0.00000000000E+00 0.  1.
         15    1    3    3    0    0 -0.28568437798E+03 -0.63318113994E+03  0.59565715150E+03  0.91506358354E+03  0.00000000000E+00 0. -1.
         15    1    5    5    0    0 -0.53927655108E+02  0.32932436344E+02  0.17398119477E+02  0.65539544630E+02  0.00000000000E+00 0.  1.
        -16    1    1    2    0    0  0.46001714753E+03 -0.27710953164E+03  0.41689622212E+03  0.67985875634E+03  0.00000000000E+00 0.  1.
         16    1    4    4    0    0 -0.10994044530E+02  0.26430792429E+03  0.11842666018E+03  0.28983516298E+03  0.00000000000E+00 0. -1.
    9900018    1    3    3    0    0  0.14498075005E+03 -0.14964900324E+03  0.53250361898E+03  0.57904190235E+03  0.91187600000E+02 0.  0.
<mgrwt>
<rscale>  0 0.27934275E+04</rscale>
<asrwt>0</asrwt>
<pdfrwt beam="1">  1        1 0.42722983E+00 0.27934275E+04</pdfrwt>
<pdfrwt beam="2">  1       -1 0.10807532E+00 0.27934275E+04</pdfrwt>
<totfact> 0.59614856E-01</totfact>
</mgrwt>
</event>
<event>
12    1  0.1248059E-010  0.2833335E+04  0.7818608E-02  0.8292993E-01
          1   -1    0    0  501    0  0.00000000000E+00  0.00000000000E+00  0.24233111240E+04  0.24233111240E+04  0.00000000000E+00 0. -1.
         -1   -1    0    0    0  501 -0.00000000000E+00 -0.00000000000E+00 -0.82818396317E+03  0.82818396317E+03  0.00000000000E+00 0.  1.
    9900016    2    1    2    0    0  0.13064269779E+03  0.37008552305E+02  0.65906501296E+03  0.23056359581E+04  0.22052558429E+04 0.  0.
        -24    2    3    3    0    0  0.17424581432E+02  0.88915166085E+03  0.43770600956E+03  0.99458881746E+03  0.82012639235E+02 0.  0.
         23    2    3    3    0    0  0.11793768725E+03 -0.81490940624E+02  0.39834516107E+01  0.18232842630E+03  0.11259536258E+03 0.  0.
        -15    1    5    5    0    0 -0.75662788936E+01 -0.48741073520E+02 -0.14260802608E+02  0.51345022302E+02  0.00000000000E+00 0.  1.
        -15    1    3    3    0    0  0.35718174268E+03 -0.37099107615E+03 -0.54812157712E+02  0.51789723742E+03  0.00000000000E+00 0.  1.
         15    1    4    4    0    0  0.35725163473E+02  0.74052194755E+03  0.33884319073E+03  0.81514645924E+03  0.00000000000E+00 0. -1.
         15    1    5    5    0    0  0.12550396614E+03 -0.32749867104E+02  0.18244254219E+02  0.13098340400E+03  0.00000000000E+00 0. -1.
        -16    1    4    4    0    0 -0.18300582041E+02  0.14862971330E+03  0.98862818830E+02  0.17944235823E+03  0.00000000000E+00 0.  1.
         16    1    1    2    0    0 -0.13064269779E+03 -0.37008552305E+02  0.93606214787E+03  0.94585912910E+03  0.00000000000E+00 0. -1.
    9900018    1    3    3    0    0 -0.36190131357E+03 -0.39966109177E+03  0.27218770950E+03  0.61082147689E+03  0.91187600000E+02 0.  0.
<mgrwt>
<rscale>  0 0.28333354E+04</rscale>
<asrwt>0</asrwt>
<pdfrwt beam="1">  1        1 0.37281709E+00 0.28333354E+04</pdfrwt>
<pdfrwt beam="2">  1       -1 0.12741292E+00 0.28333354E+04</pdfrwt>
<totfact> 0.70479626E-01</totfact>
</mgrwt>
</event>
<event>
12    1  0.1248059E-010  0.2784566E+04  0.7818608E-02  0.8308076E-01
          3   -1    0    0  501    0  0.00000000000E+00  0.00000000000E+00  0.13281645995E+04  0.13281645995E+04  0.00000000000E+00 0. -1.
         -3   -1    0    0    0  501 -0.00000000000E+00 -0.00000000000E+00 -0.14594967896E+04  0.14594967896E+04  0.00000000000E+00 0.  1.
    9900016    2    1    2    0    0 -0.35910597615E+03 -0.28210127896E+03  0.14947728870E+03  0.22515716605E+04  0.21997029911E+04 0.  0.
         24    2    3    3    0    0 -0.61235782141E+03  0.36314344680E+03  0.40302241249E+03  0.82157101679E+03  0.75475865456E+02 0.  0.
         23    2    3    3    0    0 -0.44096699437E+02  0.29976942686E+02  0.84217863083E+02  0.16032375253E+03  0.12557038333E+03 0.  0.
        -15    1    5    5    0    0  0.35931031394E+02 -0.10261075415E+02  0.54240971397E+02  0.65866620254E+02  0.00000000000E+00 0. -1.
        -15    1    4    4    0    0 -0.11898912348E+03  0.59975071985E+02  0.10887918312E+03  0.17207584747E+03  0.00000000000E+00 0.  1.
         15    1    3    3    0    0  0.15285719855E+03 -0.35857421302E+03 -0.67310884908E+03  0.77782794505E+03  0.00000000000E+00 0. -1.
         15    1    5    5    0    0 -0.80027730830E+02  0.40238018100E+02  0.29976891687E+02  0.94457132276E+02  0.00000000000E+00 0.  1.
        -16    1    1    2    0    0  0.35910597615E+03  0.28210127896E+03 -0.28080947884E+03  0.53608972860E+03  0.00000000000E+00 0.  1.
         16    1    4    4    0    0 -0.49336869793E+03  0.30316837482E+03  0.29414322937E+03  0.64949516932E+03  0.00000000000E+00 0. -1.
    9900018    1    3    3    0    0  0.14449134614E+03 -0.31664745543E+03  0.33534586221E+03  0.49184894615E+03  0.91187600000E+02 0.  0.
<mgrwt>
<rscale>  0 0.27845660E+04</rscale>
<asrwt>0</asrwt>
<pdfrwt beam="1">  1        3 0.20433301E+00 0.27845660E+04</pdfrwt>
<pdfrwt beam="2">  1       -3 0.22453797E+00 0.27845660E+04</pdfrwt>
<totfact> 0.32369731E-02</totfact>
</mgrwt>
</event>
<event>
12    1  0.1248059E-010  0.2729382E+04  0.7818608E-02  0.8325534E-01
         -2   -1    0    0    0  501 -0.00000000000E+00  0.00000000000E+00  0.71975528643E+03  0.71975528643E+03  0.00000000000E+00 0.  1.
          2   -1    0    0  501    0  0.00000000000E+00 -0.00000000000E+00 -0.25875205291E+04  0.25875205291E+04  0.00000000000E+00 0. -1.
    9900016    2    1    2    0    0 -0.19336337685E+02 -0.44758392340E+03 -0.17314766992E+04  0.28390025731E+04  0.22048171779E+04 0.  0.
         24    2    3    3    0    0  0.42264924582E+03 -0.55904124008E+03 -0.11674267815E+04  0.13639522960E+04  0.79505235806E+02 0.  0.
         23    2    3    3    0    0  0.23930256374E+03  0.64259855780E+02 -0.56203263729E+03  0.62343752900E+03  0.10676432502E+03 0.  0.
        -15    1    4    4    0    0  0.36351664192E+03 -0.43280421240E+03 -0.96016378391E+03  0.11141715878E+04  0.00000000000E+00 0.  1.
        -15    1    5    5    0    0  0.32537681843E+02  0.40409591325E+00 -0.19228406383E+03  0.19501801259E+03  0.00000000000E+00 0. -1.
         15    1    5    5    0    0  0.20676488190E+03  0.63855759867E+02 -0.36974857347E+03  0.42841951641E+03  0.00000000000E+00 0.  1.
         15    1    3    3    0    0 -0.50958877263E+03 -0.18044077590E+03  0.66056197268E+02  0.54461271743E+03  0.00000000000E+00 0. -1.
        -16    1    1    2    0    0  0.19336337685E+02  0.44758392340E+03 -0.13628854345E+03  0.46827324236E+03  0.00000000000E+00 0.  1.
         16    1    4    4    0    0  0.59132603902E+02 -0.12623702768E+03 -0.20726299757E+03  0.24978070815E+03  0.00000000000E+00 0. -1.
    9900018    1    3    3    0    0 -0.17169937462E+03  0.22763823681E+03 -0.68073477682E+02  0.30700003072E+03  0.91187600000E+02 0.  0.
<mgrwt>
<rscale>  0 0.27293820E+04</rscale>
<asrwt>0</asrwt>
<pdfrwt beam="1">  1        2 0.39808008E+00 0.27293820E+04</pdfrwt>
<pdfrwt beam="2">  1       -2 0.11073158E+00 0.27293820E+04</pdfrwt>
<totfact> 0.17508195E+00</totfact>
</mgrwt>
</event>
<event>
12    1  0.1248059E-010  0.3024791E+04  0.7818608E-02  0.8236687E-01
         -1   -1    0    0    0  501 -0.00000000000E+00  0.00000000000E+00  0.16269362501E+04  0.16269362501E+04  0.00000000000E+00 0.  1.
          1   -1    0    0  501    0  0.00000000000E+00 -0.00000000000E+00 -0.14059191386E+04  0.14059191386E+04  0.00000000000E+00 0. -1.
    9900016    2    1    2    0    0 -0.55194441481E+03  0.26942941703E+03 -0.16237295669E+03  0.23088230743E+04  0.22196991156E+04 0.  0.
         24    2    3    3    0    0 -0.35417063130E+03  0.60355911952E+03  0.21672340729E+03  0.73692123042E+03  0.79771033249E+02 0.  0.
         23    2    3    3    0    0  0.13097891237E+02  0.35727112935E+03  0.31231480243E+03  0.48064594393E+03  0.75271329054E+02 0.  0.
        -15    1    5    5    0    0  0.71394224097E+01  0.10642785292E+03  0.50525282346E+02  0.11802823131E+03  0.00000000000E+00 0. -1.
        -15    1    4    4    0    0 -0.27978486930E+03  0.42016100826E+03  0.17802304158E+03  0.53526353256E+03  0.00000000000E+00 0.  1.
         15    1    3    3    0    0 -0.25460840518E+03 -0.69000909482E+03 -0.55476941519E+03  0.92125300268E+03  0.00000000000E+00 0. -1.
         15    1    5    5    0    0  0.59584688272E+01  0.25084327643E+03  0.26178952009E+03  0.36261771262E+03  0.00000000000E+00 0.  1.
        -16    1    1    2    0    0  0.55194441481E+03 -0.26942941703E+03  0.38339006816E+03  0.72403231431E+03  0.00000000000E+00 0.  1.
         16    1    4    4    0    0 -0.74385762001E+02  0.18339811125E+03  0.38700365711E+02  0.20165769786E+03  0.00000000000E+00 0. -1.
    9900018    1    3    3    0    0  0.43736730429E+02 -0.13917370206E+01 -0.13664175122E+03  0.17000289730E+03  0.91187600000E+02 0.  0.
<mgrwt>
<rscale>  0 0.30247914E+04</rscale>
<asrwt>0</asrwt>
<pdfrwt beam="1">  1        1 0.21629525E+00 0.30247914E+04</pdfrwt>
<pdfrwt beam="2">  1       -1 0.25029788E+00 0.30247914E+04</pdfrwt>
<totfact> 0.44853911E-01</totfact>
</mgrwt>
</event>
<event>
11    1  0.1248059E-010  0.2826405E+04  0.7818608E-02  0.8295117E-01
         -2   -1    0    0    0  501 -0.00000000000E+00  0.00000000000E+00  0.15852769079E+04  0.15852769079E+04  0.00000000000E+00 0.  1.
          2   -1    0    0  501    0  0.00000000000E+00 -0.00000000000E+00 -0.12598056826E+04  0.12598056826E+04  0.00000000000E+00 0. -1.
    9900016    2    1    2    0    0 -0.70527875163E+02  0.13654017725E+03 -0.26025716678E+03  0.22395290004E+04  0.22190400965E+04 0.  0.
         24    2    3    3    0    0 -0.60321718499E+02  0.59448766384E+03  0.36098280514E+03  0.70267757172E+03  0.79955562724E+02 0.  0.
        -15    1    3    3    0    0  0.68543950136E+01 -0.12038402217E+02  0.54080455980E+02  0.55826531129E+02  0.00000000000E+00 0. -1.
        -15    1    4    4    0    0 -0.76447539134E+02  0.41296304190E+03  0.26654500253E+03  0.49742229402E+03  0.00000000000E+00 0.  1.
         15    1    3    3    0    0 -0.23969522592E+02 -0.56862710615E+03 -0.53559531892E+03  0.78152010179E+03  0.00000000000E+00 0. -1.
         15    1    3    3    0    0 -0.79691302836E+02 -0.29961298572E+02  0.24910610630E+03  0.26325317730E+03  0.00000000000E+00 0.  1.
        -16    1    1    2    0    0  0.70527875163E+02 -0.13654017725E+03  0.58572839212E+03  0.60555359012E+03  0.00000000000E+00 0.  1.
         16    1    4    4    0    0  0.16125820634E+02  0.18152462194E+03  0.94437802611E+02  0.20525527770E+03  0.00000000000E+00 0. -1.
    9900018    1    3    3    0    0  0.86600273750E+02  0.15267932034E+03 -0.38883121528E+03  0.43625161850E+03  0.91187600000E+02 0.  0.
<mgrwt>
<rscale>  0 0.28264047E+04</rscale>
<asrwt>0</asrwt>
<pdfrwt beam="1">  1        2 0.19381626E+00 0.28264047E+04</pdfrwt>
<pdfrwt beam="2">  1       -2 0.24388875E+00 0.28264047E+04</pdfrwt>
<totfact> 0.10621056E+00</totfact>
</mgrwt>
</event>
