<event>
13    1  0.2152153E-012  0.5655937E+04  0.7818608E-02  0.7734589E-01
          1   -1    0    0  501    0  0.00000000000E+00  0.00000000000E+00  0.46071228482E+04  0.46071228482E+04  0.00000000000E+00 0. -1.
         -1   -1    0    0    0  501 -0.00000000000E+00 -0.00000000000E+00 -0.17358788036E+04  0.17358788036E+04  0.00000000000E+00 0.  1.
    9900016    2    1    2    0    0  0.47940139195E+03 -0.53774861729E+03 -0.80711948691E+03  0.21426297621E+04  0.18494380663E+04 0.  0.
         23    2    3    3    0    0 -0.53140301537E+03 -0.33538521717E+03  0.22965988424E+03  0.68058052898E+03  0.12479497328E+03 0.  0.
    9900016    2    1    2    0    0 -0.47940139195E+03  0.53774861729E+03  0.36783635316E+04  0.42003718897E+04  0.18957232053E+04 0.  0.
         24    2    5    5    0    0 -0.66846240906E+03 -0.48257338907E+03  0.96349653253E+03  0.12705398137E+04  0.78909960265E+02 0.  0.
        -15    1    6    6    0    0 -0.19802137921E+03 -0.12516319488E+03  0.32508069199E+03  0.40069408317E+03  0.00000000000E+00 0.  1.
        -15    1    4    4    0    0 -0.50288976358E+03 -0.27341455092E+03  0.20300791305E+03  0.60734326680E+03  0.00000000000E+00 0.  1.
         15    1    4    4    0    0 -0.28513251791E+02 -0.61970666247E+02  0.26651971197E+02  0.73237262179E+02  0.00000000000E+00 0. -1.
         15    1    5    5    0    0  0.19992527338E+03  0.97556120399E+03  0.23864113805E+04  0.25858555749E+04  0.00000000000E+00 0. -1.
        -16    1    3    3    0    0  0.10108044073E+04 -0.20236340012E+03 -0.10367793712E+04  0.14620492331E+04  0.00000000000E+00 0.  1.
         16    1    6    6    0    0 -0.47044102985E+03 -0.35741019419E+03  0.63841584053E+03  0.86984573053E+03  0.00000000000E+00 0. -1.
    9900018    1    5    5    0    0 -0.10864256258E+02  0.44760802369E+02  0.32845561856E+03  0.34397650101E+03  0.91187600000E+02 0.  0.
<mgrwt>
<rscale>  0 0.56559374E+04</rscale>
<asrwt>0</asrwt>
<pdfrwt beam="1">  1        1 0.70878813E+00 0.56559374E+04</pdfrwt>
<pdfrwt beam="2">  1       -1 0.26705828E+00 0.56559374E+04</pdfrwt>
<totfact> 0.91192410E-04</totfact>
</mgrwt>
</event>
<event>
13    1  0.2152153E-012  0.4270629E+04  0.7818608E-02  0.7952071E-01
          1   -1    0    0  501    0  0.00000000000E+00  0.00000000000E+00  0.25682829822E+04  0.25682829822E+04  0.00000000000E+00 0. -1.
         -1   -1    0    0    0  501 -0.00000000000E+00 -0.00000000000E+00 -0.17753374100E+04  0.17753374100E+04  0.00000000000E+00 0.  1.
    9900016    2    1    2    0    0  0.57963965235E+03  0.10149738391E+03  0.12537622113E+04  0.23098147717E+04  0.18485239387E+04 0.  0.
         23    2    3    3    0    0 -0.50257168314E+03 -0.32449703295E+03  0.12820162770E+02  0.60905324067E+03  0.11359961404E+03 0.  0.
    9900016    2    1    2    0    0 -0.57963965235E+03 -0.10149738391E+03 -0.46081663902E+03  0.20338056204E+04  0.18914886945E+04 0.  0.
        -24    2    5    5    0    0 -0.39755972025E+03  0.83734606511E+03 -0.49972468224E+02  0.93181620613E+03  0.81129714026E+02 0.  0.
        -15    1    5    5    0    0 -0.13878404671E+03 -0.90052607562E+03 -0.33841206328E+03  0.97197271004E+03  0.00000000000E+00 0.  1.
        -15    1    4    4    0    0 -0.42200151397E+03 -0.26540251876E+03  0.53057626461E+02  0.50133709865E+03  0.00000000000E+00 0.  1.
         15    1    6    6    0    0 -0.23864387918E+02  0.11109342711E+03 -0.18372265103E+01  0.11364257107E+03  0.00000000000E+00 0. -1.
         15    1    4    4    0    0 -0.80570169171E+02 -0.59094514186E+02 -0.40237463691E+02  0.10771614202E+03  0.00000000000E+00 0. -1.
        -16    1    6    6    0    0 -0.37369533233E+03  0.72625263800E+03 -0.48135241714E+02  0.81817363506E+03  0.00000000000E+00 0.  1.
         16    1    3    3    0    0  0.10822113355E+04  0.42599441686E+03  0.12409420485E+04  0.17007615311E+04  0.00000000000E+00 0. -1.
    9900018    1    5    5    0    0 -0.43295885388E+02 -0.38317373399E+02 -0.72432107520E+02  0.13001670427E+03  0.91187600000E+02 0.  0.
<mgrwt>
<rscale>  0 0.42706294E+04</rscale>
<asrwt>0</asrwt>
<pdfrwt beam="1">  1        1 0.39512046E+00 0.42706294E+04</pdfrwt>
<pdfrwt beam="2">  1       -1 0.27312883E+00 0.42706294E+04</pdfrwt>
<totfact> 0.45841302E-02</totfact>
</mgrwt>
</event>
<event>
13    1  0.2152153E-012  0.4590730E+04  0.7818608E-02  0.7894942E-01
          2   -1    0    0  501    0  0.00000000000E+00  0.00000000000E+00  0.42016777969E+04  0.42016777969E+04  0.00000000000E+00 0. -1.
         -2   -1    0    0    0  501 -0.00000000000E+00 -0.00000000000E+00 -0.12539518322E+04  0.12539518322E+04  0.00000000000E+00 0.  1.
    9900016    2    1    2    0    0 -0.35941112967E+03 -0.30506486422E+03 -0.21676238923E+02  0.19007472502E+04  0.18412303816E+04 0.  0.
         23    2    3    3    0    0 -0.45500413584E+03  0.30645854723E+02  0.84438320793E+03  0.96699210289E+03  0.11883935864E+03 0.  0.
    9900016    2    1    2    0    0  0.37222771140E+03  0.28266316994E+03  0.27687749564E+04  0.33329982394E+04  0.17956365355E+04 0.  0.
         24    2    5    5    0    0 -0.10585862556E+03  0.93570014300E+00 -0.23962689915E+03  0.27384498442E+03  0.79769045081E+02 0.  0.
        -15    1    4    4    0    0 -0.21721677620E+03 -0.13085933026E+02  0.29335761398E+03  0.36525752448E+03  0.00000000000E+00 0.  1.
        -15    1    6    6    0    0 -0.40489713781E+02  0.39490274130E+02 -0.10765096489E+03  0.12160439513E+03  0.00000000000E+00 0.  1.
         15    1    5    5    0    0  0.47808633696E+03  0.28172746980E+03  0.30084018556E+04  0.30591532550E+04  0.00000000000E+00 0. -1.
         15    1    4    4    0    0 -0.23778735964E+03  0.43731787749E+02  0.55102559395E+03  0.60173457841E+03  0.00000000000E+00 0. -1.
        -16    1    3    3    0    0  0.95593006176E+02 -0.33571071894E+03 -0.86605944686E+03  0.93375514731E+03  0.00000000000E+00 0.  1.
         16    1    6    6    0    0 -0.65368911782E+02 -0.38554573987E+02 -0.13197593426E+03  0.15224058929E+03  0.00000000000E+00 0. -1.
    9900018    1    1    2    0    0 -0.12816581733E+02  0.22401694282E+02  0.20062724722E+03  0.22188413958E+03  0.91187600000E+02 0.  0.
<mgrwt>
<rscale>  0 0.45907305E+04</rscale>
<asrwt>0</asrwt>
<pdfrwt beam="1">  1        2 0.64641197E+00 0.45907305E+04</pdfrwt>
<pdfrwt beam="2">  1       -2 0.19291567E+00 0.45907305E+04</pdfrwt>
<totfact> 0.25681451E-02</totfact>
</mgrwt>
</event>
<event>
12    1  0.2152153E-012  0.4428179E+04  0.7818608E-02  0.7923333E-01
          2   -1    0    0  501    0  0.00000000000E+00  0.00000000000E+00  0.15899805235E+04  0.15899805235E+04  0.00000000000E+00 0.  1.
         -2   -1    0    0    0  501 -0.00000000000E+00 -0.00000000000E+00 -0.30831776410E+04  0.30831776410E+04  0.00000000000E+00 0. -1.
    9900016    2    1    2    0    0 -0.73463672279E+03 -0.14306712294E+02  0.24499162848E+03  0.20004291884E+04  0.18443969863E+04 0.  0.
    9900016    2    1    2    0    0  0.73463672279E+03  0.14306712294E+02 -0.17381887460E+04  0.26727289761E+04  0.18926923328E+04 0.  0.
         24    2    4    4    0    0  0.13469307954E+03  0.49322341765E+03  0.19459204509E+03  0.55279655531E+03  0.79412858854E+02 0.  0.
        -15    1    5    5    0    0  0.10859995127E+03  0.46923987093E+03  0.17614505517E+03  0.51284216514E+03  0.00000000000E+00 0.  1.
        -15    1    3    3    0    0  0.13976917457E+03 -0.52138066465E+02 -0.42479628258E+03  0.45022847737E+03  0.00000000000E+00 0. -1.
         15    1    4    4    0    0  0.53746602790E+03 -0.50260040808E+03 -0.18055186311E+04  0.19497113706E+04  0.00000000000E+00 0. -1.
         15    1    3    3    0    0  0.11332992146E+03  0.53831514806E+02 -0.19860247686E+03  0.23491370096E+03  0.00000000000E+00 0.  1.
        -16    1    3    3    0    0 -0.98773581882E+03 -0.16000160636E+02  0.86839038792E+03  0.13152870100E+04  0.00000000000E+00 0.  1.
         16    1    5    5    0    0  0.26093128272E+02  0.23983546719E+02  0.18446989921E+02  0.39954390164E+02  0.00000000000E+00 0. -1.
    9900018    1    4    4    0    0  0.62477615340E+02  0.23683702721E+02 -0.12726215998E+03  0.17022105025E+03  0.91187600000E+02 0.  0.
<mgrwt>
<rscale>  0 0.44281790E+04</rscale>
<asrwt>0</asrwt>
<pdfrwt beam="1">  1        2 0.24461239E+00 0.44281790E+04</pdfrwt>
<pdfrwt beam="2">  1       -2 0.47433501E+00 0.44281790E+04</pdfrwt>
<totfact> 0.20731456E-02</totfact>
</mgrwt>
</event>
<event>
12    1  0.2152153E-012  0.4949987E+04  0.7818608E-02  0.7836269E-01
         -2   -1    0    0    0  501 -0.00000000000E+00  0.00000000000E+00  0.25499680942E+04  0.25499680942E+04  0.00000000000E+00 0.  1.
          2   -1    0    0  501    0  0.00000000000E+00 -0.00000000000E+00 -0.24022237655E+04  0.24022237655E+04  0.00000000000E+00 0. -1.
    9900016    2    1    2    0    0  0.45370998073E+03  0.12898778885E+04  0.98676050801E+03  0.24803413671E+04  0.18189995282E+04 0.  0.
    9900016    2    1    2    0    0 -0.45370998073E+03 -0.12898778885E+04 -0.83901617935E+03  0.24718504926E+04  0.18805475252E+04 0.  0.
         24    2    4    4    0    0 -0.30071149585E+03  0.41557312961E+03  0.24300622343E+02  0.51983636828E+03  0.80690146495E+02 0.  0.
        -15    1    5    5    0    0 -0.10629305974E+03  0.21472187154E+03  0.51452881644E+01  0.23964592768E+03  0.00000000000E+00 0.  1.
        -15    1    3    3    0    0 -0.74081496366E+02 -0.12446883189E+03 -0.20082188435E+03  0.24760853671E+03  0.00000000000E+00 0.  1.
         15    1    4    4    0    0 -0.14577704604E+03 -0.16161504646E+04 -0.79292666697E+03  0.18060802780E+04  0.00000000000E+00 0. -1.
         15    1    3    3    0    0  0.11780496900E+03 -0.12697569270E+03 -0.84429387605E+02  0.19268928032E+03  0.00000000000E+00 0. -1.
        -16    1    3    3    0    0  0.40998650809E+03  0.15413224131E+04  0.12720117800E+04  0.20400435501E+04  0.00000000000E+00 0.  1.
         16    1    5    5    0    0 -0.19441843612E+03  0.20085125808E+03  0.19155334179E+02  0.28019044059E+03  0.00000000000E+00 0. -1.
    9900018    1    4    4    0    0 -0.72214388325E+01 -0.89300553550E+02 -0.70390134722E+02  0.14593384632E+03  0.91187600000E+02 0.  0.
<mgrwt>
<rscale>  0 0.49499875E+04</rscale>
<asrwt>0</asrwt>
<pdfrwt beam="1">  1        2 0.36957289E+00 0.49499875E+04</pdfrwt>
<pdfrwt beam="2">  1       -2 0.39230278E+00 0.49499875E+04</pdfrwt>
<totfact> 0.24154032E-02</totfact>
</mgrwt>
</event>
<event>
13    1  0.2152153E-012  0.5471395E+04  0.7818608E-02  0.7759638E-01
          2   -1    0    0  501    0  0.00000000000E+00  0.00000000000E+00  0.28716444721E+04  0.28716444721E+04  0.00000000000E+00 0. -1.
         -2   -1    0    0    0  501 -0.00000000000E+00 -0.00000000000E+00 -0.26061864244E+04  0.26061864244E+04  0.00000000000E+00 0.  1.
    9900016    2    1    2    0    0  0.44710554083E+03 -0.40466658531E+03 -0.17687678928E+04  0.26265238069E+04  0.18456513862E+04 0.  0.
         23    2    3    3    0    0  0.52087748804E+03 -0.96580181398E+03 -0.44867491578E+03  0.11902228241E+04  0.10599381832E+03 0.  0.
    9900016    2    1    2    0    0 -0.43279323000E+03  0.38694080289E+03  0.18988954786E+04  0.26865388951E+04  0.18096005171E+04 0.  0.
         24    2    5    5    0    0  0.31165439855E+02  0.93760919774E+02 -0.34956494974E+03  0.37206565289E+03  0.80466149777E+02 0.  0.
        -15    1    6    6    0    0  0.43917884077E+02  0.83324071578E+02 -0.19427504470E+03  0.21590385462E+03  0.00000000000E+00 0.  1.
        -15    1    4    4    0    0  0.49130987974E+03 -0.90757767352E+03 -0.44759947765E+03  0.11249124072E+04  0.00000000000E+00 0. -1.
         15    1    4    4    0    0  0.29567608304E+02 -0.58224140464E+02 -0.10754381310E+01  0.65310416939E+02  0.00000000000E+00 0.  1.
         15    1    5    5    0    0 -0.46395866985E+03  0.29317988312E+03  0.22484604283E+04  0.23144732422E+04  0.00000000000E+00 0. -1.
        -16    1    3    3    0    0 -0.73771947215E+02  0.56113522868E+03 -0.13200929771E+04  0.14363009828E+04  0.00000000000E+00 0.  1.
         16    1    6    6    0    0 -0.12752444222E+02  0.10436848196E+02 -0.15528990504E+03  0.15616179827E+03  0.00000000000E+00 0. -1.
    9900018    1    1    2    0    0 -0.14312310833E+02  0.17725782416E+02  0.13533046193E+03  0.16476819452E+03  0.91187600000E+02 0.  0.
<mgrwt>
<rscale>  0 0.54713950E+04</rscale>
<asrwt>0</asrwt>
<pdfrwt beam="1">  1        2 0.44179146E+00 0.54713950E+04</pdfrwt>
<pdfrwt beam="2">  1       -2 0.40095176E+00 0.54713950E+04</pdfrwt>
<totfact> 0.10740935E-02</totfact>
</mgrwt>
</event>
<event>
12    1  0.2152153E-012  0.5038326E+04  0.7818608E-02  0.7822622E-01
          2   -1    0    0  501    0  0.00000000000E+00  0.00000000000E+00  0.16499399706E+04  0.16499399706E+04  0.00000000000E+00 0. -1.
         -2   -1    0    0    0  501 -0.00000000000E+00 -0.00000000000E+00 -0.38463109515E+04  0.38463109515E+04  0.00000000000E+00 0.  1.
    9900016    2    1    2    0    0 -0.24400052935E+03  0.78317420904E+03 -0.27033599110E+04  0.33741763086E+04  0.18449967081E+04 0.  0.
    9900016    2    1    2    0    0  0.23234049329E+03 -0.74680689098E+03  0.47828435213E+03  0.20191296308E+04  0.17990069225E+04 0.  0.
         24    2    4    4    0    0 -0.54272431408E+03 -0.11033518776E+03  0.79071651192E+03  0.96868423044E+03  0.79956246371E+02 0.  0.
        -15    1    3    3    0    0  0.10327186863E+01 -0.66713160629E+02  0.84917829374E+02  0.10799421306E+03  0.00000000000E+00 0.  1.
        -15    1    5    5    0    0 -0.22668547779E+03 -0.78776876572E+01  0.30056937064E+03  0.37655054159E+03  0.00000000000E+00 0.  1.
         15    1    4    4    0    0  0.77506480737E+03 -0.63647170322E+03 -0.31243215979E+03  0.10504454003E+04  0.00000000000E+00 0. -1.
         15    1    3    3    0    0  0.10640647359E+03  0.17674787793E+02  0.15418381750E+03  0.18816850248E+03  0.00000000000E+00 0. -1.
        -16    1    3    3    0    0 -0.35143972163E+03  0.83221258187E+03 -0.29424615579E+04  0.30780135931E+04  0.00000000000E+00 0.  1.
         16    1    5    5    0    0 -0.31603883628E+03 -0.10245750010E+03  0.49014714128E+03  0.59213368885E+03  0.00000000000E+00 0. -1.
    9900018    1    1    2    0    0  0.11660036059E+02 -0.36367318057E+02  0.28704578027E+02  0.10294498267E+03  0.91187600000E+02 0.  0.
<mgrwt>
<rscale>  0 0.50383260E+04</rscale>
<asrwt>0</asrwt>
<pdfrwt beam="1">  1        2 0.25383692E+00 0.50383260E+04</pdfrwt>
<pdfrwt beam="2">  1       -2 0.59174014E+00 0.50383260E+04</pdfrwt>
<totfact> 0.42053752E-03</totfact>
</mgrwt>
</event>
<event>
13    1  0.2152153E-012  0.4243294E+04  0.7818608E-02  0.7957187E-01
         -1   -1    0    0    0  501 -0.00000000000E+00  0.00000000000E+00  0.15992307497E+04  0.15992307497E+04  0.00000000000E+00 0.  1.
          1   -1    0    0  501    0  0.00000000000E+00 -0.00000000000E+00 -0.28147201513E+04  0.28147201513E+04  0.00000000000E+00 0. -1.
    9900016    2    1    2    0    0 -0.85271962416E+03 -0.45311436686E+03 -0.36124078077E+03  0.21177869201E+04  0.18498873345E+04 0.  0.
         23    2    3    3    0    0  0.13165348462E+03 -0.40932168025E+03  0.59939040215E+03  0.74166174912E+03  0.76918255168E+02 0.  0.
    9900016    2    1    2    0    0  0.79784096935E+03  0.39896162069E+03 -0.74844690860E+03  0.21366228659E+04  0.17914418520E+04 0.  0.
         24    2    5    5    0    0  0.85467024279E+03 -0.27681851724E+03 -0.10586765462E+04  0.13908676854E+04  0.81407453298E+02 0.  0.
        -15    1    4    4    0    0  0.95982984354E+02 -0.35493225209E+03  0.46896590313E+03  0.59591832927E+03  0.00000000000E+00 0.  1.
        -15    1    6    6    0    0  0.46075219303E+03 -0.16986593567E+03 -0.52314973183E+03  0.71751840492E+03  0.00000000000E+00 0.  1.
         15    1    5    5    0    0 -0.56829273440E+02  0.67578013793E+03  0.31022963762E+03  0.74575518047E+03  0.00000000000E+00 0. -1.
         15    1    4    4    0    0  0.35670500267E+02 -0.54389428162E+02  0.13042449902E+03  0.14574341985E+03  0.00000000000E+00 0. -1.
        -16    1    3    3    0    0 -0.98437310878E+03 -0.43792686608E+02 -0.96063118292E+03  0.13761251710E+04  0.00000000000E+00 0.  1.
         16    1    6    6    0    0  0.39391804976E+03 -0.10695258157E+03 -0.53552681439E+03  0.67334928051E+03  0.00000000000E+00 0. -1.
    9900018    1    1    2    0    0  0.54878654807E+02  0.54152746163E+02 -0.10580171218E+03  0.15954111496E+03  0.91187600000E+02 0.  0.
<mgrwt>
<rscale>  0 0.42432945E+04</rscale>
<asrwt>0</asrwt>
<pdfrwt beam="1">  1        1 0.43303387E+00 0.42432945E+04</pdfrwt>
<pdfrwt beam="2">  1       -1 0.24603550E+00 0.42432945E+04</pdfrwt>
<totfact> 0.46186820E-02</totfact>
</mgrwt>
</event>
<event>
13    1  0.2152153E-012  0.4611129E+04  0.7818608E-02  0.7891465E-01
          2   -1    0    0  501    0  0.00000000000E+00  0.00000000000E+00  0.37590209685E+04  0.37590209685E+04  0.00000000000E+00 0. -1.
         -2   -1    0    0    0  501 -0.00000000000E+00 -0.00000000000E+00 -0.14140989004E+04  0.14140989004E+04  0.00000000000E+00 0.  1.
    9900016    2    1    2    0    0  0.28871307240E+03 -0.53675976301E+03 -0.16359225262E+03  0.19763603512E+04  0.18729045708E+04 0.  0.
         23    2    3    3    0    0  0.45818724914E+03 -0.44984398949E+03  0.77870015623E+03  0.10150119066E+04  0.10761071996E+03 0.  0.
    9900016    2    1    2    0    0 -0.28871307240E+03  0.53675976301E+03  0.25085143208E+04  0.31967595177E+04  0.18855134672E+04 0.  0.
         24    2    5    5    0    0 -0.74855118498E+02 -0.69803088373E+01 -0.29382170909E+03  0.31334502146E+03  0.78752093705E+02 0.  0.
        -15    1    4    4    0    0  0.48791118539E+02 -0.78896748908E+02  0.68890960156E+02  0.11554754272E+03  0.00000000000E+00 0.  1.
        -15    1    6    6    0    0 -0.18672253039E+01 -0.30441765016E+02 -0.60540624002E+02  0.67789045886E+02  0.00000000000E+00 0.  1.
         15    1    4    4    0    0  0.40939613060E+03 -0.37094724058E+03  0.70980919607E+03  0.89946436387E+03  0.00000000000E+00 0. -1.
         15    1    5    5    0    0 -0.19844868903E+03  0.51570255231E+03  0.26136374321E+04  0.26714100455E+04  0.00000000000E+00 0. -1.
        -16    1    3    3    0    0 -0.16947417673E+03 -0.86915773521E+02 -0.94229240885E+03  0.96134844465E+03  0.00000000000E+00 0.  1.
         16    1    6    6    0    0 -0.72987893194E+02  0.23461456179E+02 -0.23328108509E+03  0.24555597557E+03  0.00000000000E+00 0. -1.
    9900018    1    5    5    0    0 -0.15409264875E+02  0.28037519531E+02  0.18869859776E+03  0.21200445075E+03  0.91187600000E+02 0.  0.
<mgrwt>
<rscale>  0 0.46111289E+04</rscale>
<asrwt>0</asrwt>
<pdfrwt beam="1">  1        2 0.57831091E+00 0.46111289E+04</pdfrwt>
<pdfrwt beam="2">  1       -2 0.21755368E+00 0.46111289E+04</pdfrwt>
<totfact> 0.40451341E-02</totfact>
</mgrwt>
</event>
<event>
13    1  0.2152153E-012  0.4308044E+04  0.7818608E-02  0.7945132E-01
          2   -1    0    0  501    0  0.00000000000E+00  0.00000000000E+00  0.22949877063E+04  0.22949877063E+04  0.00000000000E+00 0. -1.
         -2   -1    0    0    0  501 -0.00000000000E+00 -0.00000000000E+00 -0.20217151685E+04  0.20217151685E+04  0.00000000000E+00 0.  1.
    9900016    2    1    2    0    0  0.53091587424E+02 -0.97021555176E+03 -0.30769808392E+03  0.21027106124E+04  0.18391783152E+04 0.  0.
         23    2    3    3    0    0 -0.39956678152E+03  0.25769567933E+03  0.38499840395E+03  0.62200334398E+03  0.11226625870E+03 0.  0.
    9900016    2    1    2    0    0 -0.65277684640E+02  0.88044311096E+03  0.55985714097E+03  0.20837288772E+04  0.18025106844E+04 0.  0.
         24    2    5    5    0    0  0.20303017647E+03 -0.26343084091E+03 -0.42849256021E+03  0.54838791897E+03  0.80662103968E+02 0.  0.
        -15    1    4    4    0    0 -0.18070414919E+03  0.12904863850E+03  0.11023454839E+03  0.24790965349E+03  0.00000000000E+00 0. -1.
        -15    1    6    6    0    0  0.15113713189E+03 -0.22536553169E+03 -0.29892986916E+03  0.40372158994E+03  0.00000000000E+00 0.  1.
         15    1    4    4    0    0 -0.21886263233E+03  0.12864704082E+03  0.27476385557E+03  0.37409369049E+03  0.00000000000E+00 0.  1.
         15    1    5    5    0    0 -0.26830786111E+03  0.11438739519E+04  0.98834970118E+03  0.15353409582E+04  0.00000000000E+00 0. -1.
        -16    1    3    3    0    0  0.45265836894E+03 -0.12279112311E+04 -0.69269648787E+03  0.14807072684E+04  0.00000000000E+00 0.  1.
         16    1    6    6    0    0  0.51893044583E+02 -0.38065309216E+02 -0.12956269105E+03  0.14466632903E+03  0.00000000000E+00 0. -1.
    9900018    1    1    2    0    0  0.12186097216E+02  0.89772440804E+02  0.21113480764E+02  0.13026338533E+03  0.91187600000E+02 0.  0.
<mgrwt>
<rscale>  0 0.43080443E+04</rscale>
<asrwt>0</asrwt>
<pdfrwt beam="1">  1        2 0.35307503E+00 0.43080443E+04</pdfrwt>
<pdfrwt beam="2">  1       -2 0.31103310E+00 0.43080443E+04</pdfrwt>
<totfact> 0.95499944E-02</totfact>
</mgrwt>
</event>
<event>
13    1  0.2152153E-012  0.4415280E+04  0.7818608E-02  0.7925639E-01
         -2   -1    0    0    0  501 -0.00000000000E+00  0.00000000000E+00  0.17627637666E+04  0.17627637666E+04  0.00000000000E+00 0.  1.
          2   -1    0    0  501    0  0.00000000000E+00 -0.00000000000E+00 -0.27647912014E+04  0.27647912014E+04  0.00000000000E+00 0. -1.
    9900016    2    1    2    0    0 -0.10865549751E+04 -0.18988792579E+03 -0.89414735390E+03  0.23256200981E+04  0.18418333834E+04 0.  0.
         23    2    3    3    0    0 -0.53236618372E+03  0.62469882986E+03 -0.10388244545E+04  0.13298248067E+04  0.12496154448E+03 0.  0.
    9900016    2    1    2    0    0  0.10531602127E+04  0.13510171510E+03 -0.13552283203E+03  0.20870608559E+04  0.17916633810E+04 0.  0.
         24    2    5    5    0    0 -0.32950338588E+03  0.28180874050E+03  0.40223767506E+03  0.59626645648E+03  0.75828044670E+02 0.  0.
        -15    1    4    4    0    0 -0.90152525592E+02  0.46638321474E+02 -0.14850882187E+03  0.17988185309E+03  0.00000000000E+00 0. -1.
        -15    1    6    6    0    0 -0.21335570073E+03  0.16679021350E+03  0.29663003062E+03  0.40165782131E+03  0.00000000000E+00 0.  1.
         15    1    4    4    0    0 -0.44221365813E+03  0.57806050839E+03 -0.89031563267E+03  0.11499429536E+04  0.00000000000E+00 0.  1.
         15    1    5    5    0    0  0.13826635986E+04 -0.14670702540E+03 -0.53776050708E+03  0.14907943994E+04  0.00000000000E+00 0. -1.
        -16    1    3    3    0    0 -0.55418879135E+03 -0.81458675565E+03  0.14467710064E+03  0.99579529141E+03  0.00000000000E+00 0.  1.
         16    1    6    6    0    0 -0.11614768515E+03  0.11501852700E+03  0.10560764443E+03  0.19460863517E+03  0.00000000000E+00 0. -1.
    9900018    1    1    2    0    0  0.33394762338E+02  0.54786210697E+02  0.27642751127E+02  0.11487401411E+03  0.91187600000E+02 0.  0.
<mgrwt>
<rscale>  0 0.44152797E+04</rscale>
<asrwt>0</asrwt>
<pdfrwt beam="1">  1        2 0.42535249E+00 0.44152797E+04</pdfrwt>
<pdfrwt beam="2">  1       -2 0.27119443E+00 0.44152797E+04</pdfrwt>
<totfact> 0.88281210E-02</totfact>
</mgrwt>
</event>
<event>
13    1  0.2152153E-012  0.4832515E+04  0.7818608E-02  0.7854876E-01
         -2   -1    0    0    0  501 -0.00000000000E+00  0.00000000000E+00  0.27705956085E+04  0.27705956085E+04  0.00000000000E+00 0.  1.
          2   -1    0    0  501    0  0.00000000000E+00 -0.00000000000E+00 -0.21072369558E+04  0.21072369558E+04  0.00000000000E+00 0. -1.
    9900016    2    1    2    0    0 -0.29560079525E+03  0.12938325688E+04  0.11241609188E+04  0.25294754904E+04  0.18366071814E+04 0.  0.
         23    2    3    3    0    0  0.64588057936E+03  0.41448006187E+03 -0.67932848218E+02  0.77427306345E+03  0.76996496156E+02 0.  0.
    9900016    2    1    2    0    0  0.29560079525E+03 -0.12938325688E+04 -0.46080226617E+03  0.23483570739E+04  0.18817703557E+04 0.  0.
         24    2    5    5    0    0  0.51237963032E+03 -0.91174389257E+02 -0.85129297921E+03  0.10008734450E+04  0.78754438594E+02 0.  0.
        -15    1    4    4    0    0  0.61897749513E+03  0.37623114245E+03 -0.59867554604E+02  0.72681987873E+03  0.00000000000E+00 0. -1.
        -15    1    6    6    0    0  0.30217666005E+03 -0.45002207346E+02 -0.42596854551E+03  0.52419951766E+03  0.00000000000E+00 0.  1.
         15    1    4    4    0    0  0.26903084236E+02  0.38248919424E+02 -0.80652936143E+01  0.47453184715E+02  0.00000000000E+00 0.  1.
         15    1    5    5    0    0 -0.21773757340E+03 -0.11015562076E+04  0.43508206188E+03  0.12042143206E+04  0.00000000000E+00 0. -1.
        -16    1    3    3    0    0 -0.94148137462E+03  0.87935250695E+03  0.11920937670E+04  0.17552024270E+04  0.00000000000E+00 0.  1.
         16    1    6    6    0    0  0.21020297027E+03 -0.46172181911E+02 -0.42532443370E+03  0.47667392733E+03  0.00000000000E+00 0. -1.
    9900018    1    5    5    0    0  0.95873832989E+00 -0.10110197200E+03 -0.44591348836E+02  0.14326930832E+03  0.91187600000E+02 0.  0.
<mgrwt>
<rscale>  0 0.48325155E+04</rscale>
<asrwt>0</asrwt>
<pdfrwt beam="1">  1        2 0.32419030E+00 0.48325155E+04</pdfrwt>
<pdfrwt beam="2">  1       -2 0.42624548E+00 0.48325155E+04</pdfrwt>
<totfact> 0.21438711E-02</totfact>
</mgrwt>
</event>
