<event>
12    1  0.6539734E-014  0.2390386E+04  0.7818608E-02  0.9278345E-01
         -1   -1    0    0    0  501 -0.00000000000E+00  0.00000000000E+00  0.14816947471E+04  0.14816947471E+04  0.00000000000E+00 0.  1.
          1   -1    0    0  501    0  0.00000000000E+00 -0.00000000000E+00 -0.10313039433E+04  0.10313039433E+04  0.00000000000E+00 0. -1.
        -24    2    1    2    0    0 -0.14470598486E+02  0.21247369534E+02  0.19934652874E+02  0.84163699142E+02  0.77622734655E+02 0.  0.
    9900016    2    1    2    0    0  0.58135259104E+02  0.22300991843E+03 -0.30796254031E+02  0.19050774077E+04  0.18908353678E+04 0.  0.
         24    2    4    4    0    0  0.22056568361E+03 -0.71413009627E+03  0.32882528597E+03  0.82284991716E+03  0.10161152636E+03 0.  0.
        -15    1    1    2    0    0 -0.43664660618E+02 -0.24425728796E+03  0.46125240487E+03  0.52375758353E+03  0.00000000000E+00 0.  1.
        -15    1    5    5    0    0  0.18169431860E+03 -0.51536712174E+03  0.28220540733E+03  0.61502519258E+03  0.00000000000E+00 0.  1.
         15    1    3    3    0    0  0.21110689544E+02  0.36319828027E+02  0.17299327221E+02  0.45431903364E+02  0.00000000000E+00 0. -1.
         15    1    4    4    0    0 -0.18654835656E+03  0.89626323824E+03 -0.34533558260E+03  0.97843995532E+03  0.00000000000E+00 0. -1.
        -16    1    3    3    0    0 -0.35581288030E+02 -0.15072458493E+02  0.26353256534E+01  0.38731795778E+02  0.00000000000E+00 0.  1.
         16    1    5    5    0    0  0.38871365010E+02 -0.19876297454E+03  0.46619878645E+02  0.20782472459E+03  0.00000000000E+00 0. -1.
    9900018    1    4    4    0    0  0.24117932060E+02  0.40876776465E+02 -0.14285957403E+02  0.10378753525E+03  0.91187600000E+02 0.  0.
<mgrwt>
<rscale>  0 0.10280117E+04</rscale>
<asrwt>0</asrwt>
<pdfrwt beam="1">  1        1 0.15866214E+00 0.23903864E+04</pdfrwt>
<pdfrwt beam="2">  1       -1 0.22795304E+00 0.23903864E+04</pdfrwt>
<totfact> 0.12462348E+00</totfact>
</mgrwt>
</event>
<event>
12    1  0.6539734E-014  0.3218847E+04  0.7818608E-02  0.8851720E-01
         -2   -1    0    0    0  501 -0.00000000000E+00  0.00000000000E+00  0.14478285368E+04  0.14478285368E+04  0.00000000000E+00 0.  1.
          2   -1    0    0  501    0  0.00000000000E+00 -0.00000000000E+00 -0.24300364981E+04  0.24300364981E+04  0.00000000000E+00 0. -1.
        -24    2    1    2    0    0 -0.12852582229E+03 -0.84433986660E+02 -0.61408510388E+03  0.63803609426E+03  0.79633897688E+02 0.  0.
    9900016    2    1    2    0    0 -0.33225851447E+03 -0.16056384838E+03 -0.10614109947E+04  0.21209270939E+04  0.17987667909E+04 0.  0.
         24    2    4    4    0    0  0.17203612664E+03 -0.56219817366E+03  0.25979790108E+03  0.65081955953E+03  0.10201928412E+03 0.  0.
        -15    1    1    2    0    0  0.49619740869E+03  0.24782677518E+03  0.80041492335E+03  0.97380389628E+03  0.00000000000E+00 0.  1.
        -15    1    5    5    0    0  0.11058398674E+03 -0.32679965401E+03  0.98031488456E+02  0.35866001270E+03  0.00000000000E+00 0.  1.
         15    1    4    4    0    0 -0.50429464111E+03  0.40163432528E+03 -0.13212088957E+04  0.14701075343E+04  0.00000000000E+00 0. -1.
         15    1    3    3    0    0 -0.26185237415E+02 -0.53009011162E+00 -0.33306077693E+02  0.42370301690E+02  0.00000000000E+00 0. -1.
        -16    1    3    3    0    0 -0.10234058488E+03 -0.83903896548E+02 -0.58077902619E+03  0.59566579257E+03  0.00000000000E+00 0.  1.
         16    1    5    5    0    0  0.61452139893E+02 -0.23539851965E+03  0.16176641262E+03  0.29215954683E+03  0.00000000000E+00 0. -1.
    9900018    1    1    2    0    0 -0.35413071927E+02 -0.28289401451E+01 -0.10712678606E+03  0.14509795054E+03  0.91187600000E+02 0.  0.
<mgrwt>
<rscale>  0 0.15502315E+04</rscale>
<asrwt>0</asrwt>
<pdfrwt beam="1">  1        2 0.37385176E+00 0.32188472E+04</pdfrwt>
<pdfrwt beam="2">  1       -2 0.22274285E+00 0.32188472E+04</pdfrwt>
<totfact> 0.29943823E-01</totfact>
</mgrwt>
</event>
<event>
12    1  0.6539734E-014  0.2536286E+04  0.7818608E-02  0.8802821E-01
          1   -1    0    0  501    0  0.00000000000E+00  0.00000000000E+00  0.25152367506E+04  0.25152367506E+04  0.00000000000E+00 0. -1.
         -1   -1    0    0    0  501 -0.00000000000E+00 -0.00000000000E+00 -0.87950669386E+03  0.87950669386E+03  0.00000000000E+00 0.  1.
         24    2    1    2    0    0 -0.37050691431E+03 -0.20712719138E+03  0.16072626966E+03  0.46073926657E+03  0.79187695035E+02 0.  0.
    9900016    2    1    2    0    0  0.36657100874E+03  0.69121124865E+03  0.11483544725E+04  0.23500070541E+04  0.18951696138E+04 0.  0.
        -24    2    4    4    0    0  0.83860598650E+03  0.91282077401E+03  0.11972229322E+04  0.17246901813E+04  0.68641868580E+02 0.  0.
        -15    1    4    4    0    0 -0.46977472230E+03 -0.24359588975E+03 -0.49506597763E+02  0.53148673590E+03  0.00000000000E+00 0.  1.
        -15    1    3    3    0    0 -0.20156092761E+03 -0.14994369079E+03  0.70867957176E+02  0.26102142691E+03  0.00000000000E+00 0.  1.
         15    1    5    5    0    0  0.65661003716E+03  0.75478221807E+03  0.96628830218E+03  0.13908795852E+04  0.00000000000E+00 0. -1.
         15    1    1    2    0    0  0.39359055625E+01 -0.48408405727E+03  0.32664931460E+03  0.58399712378E+03  0.00000000000E+00 0. -1.
        -16    1    5    5    0    0  0.18199594934E+03  0.15803855594E+03  0.23093463004E+03  0.33381059614E+03  0.00000000000E+00 0.  1.
         16    1    3    3    0    0 -0.16894598669E+03 -0.57183500586E+02  0.89858312482E+02  0.19971783967E+03  0.00000000000E+00 0. -1.
    9900018    1    4    4    0    0 -0.22602554563E+01  0.21986364393E+02  0.63813804406E+00  0.93830136885E+02  0.91187600000E+02 0.  0.
<mgrwt>
<rscale>  0 0.16291769E+04</rscale>
<asrwt>0</asrwt>
<pdfrwt beam="1">  1        1 0.38695950E+00 0.25362855E+04</pdfrwt>
<pdfrwt beam="2">  1       -1 0.13530872E+00 0.25362855E+04</pdfrwt>
<totfact> 0.52932839E-01</totfact>
</mgrwt>
</event>
