<event>
11    1  0.1374190E-012  0.3086408E+04  0.7818608E-02  0.8403340E-01
          2   -1    0    0  501    0  0.00000000000E+00  0.00000000000E+00  0.27937599850E+04  0.27937599850E+04  0.00000000000E+00 0. -1.
         -2   -1    0    0    0  501 -0.00000000000E+00 -0.00000000000E+00 -0.17919574504E+04  0.17919574504E+04  0.00000000000E+00 0.  1.
        -24    2    1    2    0    0  0.11768711409E+04 -0.60675764374E+03 -0.43182252753E+02  0.13272043905E+04  0.80163999617E+02 0.  0.
    9900016    2    1    2    0    0 -0.48277821328E+03  0.39273496815E+03  0.95082576052E+03  0.25260947081E+04  0.22560517035E+04 0.  0.
        -15    1    1    2    0    0 -0.69409292758E+03  0.21402267560E+03  0.94159026821E+02  0.73241833682E+03  0.00000000000E+00 0.  1.
        -15    1    4    4    0    0  0.56642701433E+03 -0.49218322608E+03  0.34629890511E+03  0.82644226796E+03  0.00000000000E+00 0.  1.
         15    1    4    4    0    0 -0.39577227335E+03  0.10077436366E+03  0.27535306503E+03  0.49255504783E+03  0.00000000000E+00 0. -1.
         15    1    3    3    0    0  0.10470690097E+04 -0.56354850650E+03 -0.26515857901E+02  0.11893878766E+04  0.00000000000E+00 0. -1.
        -16    1    3    3    0    0  0.12980213117E+03 -0.43209137238E+02 -0.16666394853E+02  0.13781651394E+03  0.00000000000E+00 0.  1.
         16    1    4    4    0    0 -0.65307675058E+03  0.83252824267E+03  0.30030108978E+03  0.10999060239E+04  0.00000000000E+00 0. -1.
    9900018    1    4    4    0    0 -0.35620368148E+00 -0.48384412105E+02  0.28872700602E+02  0.10719136835E+03  0.91187600000E+02 0.  0.
<mgrwt>
<rscale>  0 0.24990040E+04</rscale>
<asrwt>0</asrwt>
<pdfrwt beam="1">  1        2 0.42980923E+00 0.30864080E+04</pdfrwt>
<pdfrwt beam="2">  1       -2 0.27568576E+00 0.30864080E+04</pdfrwt>
<totfact> 0.85016013E-02</totfact>
</mgrwt>
</event>
<event>
11    1  0.1374190E-012  0.3216817E+04  0.7818608E-02  0.8739226E-01
          2   -1    0    0  501    0  0.00000000000E+00  0.00000000000E+00  0.24940326696E+04  0.24940326696E+04  0.00000000000E+00 0.  1.
         -2   -1    0    0    0  501 -0.00000000000E+00 -0.00000000000E+00 -0.12228065797E+04  0.12228065797E+04  0.00000000000E+00 0. -1.
         24    2    1    2    0    0 -0.13999330526E+03  0.22527944085E+03  0.77602045282E+02  0.28570947539E+03  0.72518100560E+02 0.  0.
    9900016    2    1    2    0    0 -0.10460771175E+03 -0.82835495160E+03  0.84552040364E+03  0.24476914581E+04  0.21399004701E+04 0.  0.
        -15    1    4    4    0    0 -0.23661300102E+03 -0.56852132523E+03 -0.15511693831E+03  0.63503029380E+03  0.00000000000E+00 0.  1.
        -15    1    3    3    0    0 -0.12856997440E+03  0.21258679648E+03  0.50262530383E+02  0.25347525780E+03  0.00000000000E+00 0.  1.
         15    1    4    4    0    0  0.53825967691E+03  0.15725054094E+03 -0.98016913804E+02  0.56926138794E+03  0.00000000000E+00 0. -1.
         15    1    1    2    0    0  0.21803645996E+03  0.72916791253E+03  0.30394577828E+03  0.81951740596E+03  0.00000000000E+00 0. -1.
        -16    1    4    4    0    0 -0.40625438764E+03 -0.41708416731E+03  0.10986542558E+04  0.12433997763E+04  0.00000000000E+00 0.  1.
         16    1    3    3    0    0 -0.11423330863E+02  0.12692644372E+02  0.27339514899E+02  0.32234217596E+02  0.00000000000E+00 0. -1.
    9900018    1    1    2    0    0  0.26564557053E+02 -0.12609240178E+03  0.44157862706E+02  0.16392090992E+03  0.91187600000E+02 0.  0.
<mgrwt>
<rscale>  0 0.17393649E+04</rscale>
<asrwt>0</asrwt>
<pdfrwt beam="1">  1        2 0.38369733E+00 0.32168172E+04</pdfrwt>
<pdfrwt beam="2">  1       -2 0.18812409E+00 0.32168172E+04</pdfrwt>
<totfact> 0.46622499E-01</totfact>
</mgrwt>
</event>
<event>
11    1  0.1374190E-012  0.4968350E+04  0.7818608E-02  0.7833408E-01
          1   -1    0    0  501    0  0.00000000000E+00  0.00000000000E+00  0.31343410848E+04  0.31343410848E+04  0.00000000000E+00 0. -1.
         -1   -1    0    0    0  501 -0.00000000000E+00 -0.00000000000E+00 -0.19688751475E+04  0.19688751475E+04  0.00000000000E+00 0.  1.
         24    2    1    2    0    0  0.85601671916E+02  0.82667660944E+03 -0.20841743909E+03  0.86033161863E+03  0.77529363906E+02 0.  0.
    9900016    2    1    2    0    0  0.16767779319E+03 -0.42220885766E+03  0.21600793348E+04  0.30880680722E+04  0.21595938331E+04 0.  0.
        -15    1    4    4    0    0  0.29165557364E+03 -0.79585484864E+03  0.67702910749E+03  0.10848116547E+04  0.00000000000E+00 0.  1.
        -15    1    3    3    0    0  0.27356874690E+02  0.15674543152E+03 -0.11004576944E+02  0.15949492032E+03  0.00000000000E+00 0.  1.
         15    1    1    2    0    0 -0.23472801517E+03 -0.41592886385E+03 -0.89300403767E+03  0.10126945602E+04  0.00000000000E+00 0. -1.
         15    1    4    4    0    0  0.21992085219E+03 -0.39346807150E+03  0.80747953100E+03  0.92477321409E+03  0.00000000000E+00 0. -1.
        -16    1    4    4    0    0 -0.34389863264E+03  0.76711406247E+03  0.67557069627E+03  0.10784832034E+04  0.00000000000E+00 0.  1.
         16    1    3    3    0    0  0.58244797226E+02  0.66993117792E+03 -0.19741286214E+03  0.70083669831E+03  0.00000000000E+00 0. -1.
    9900018    1    1    2    0    0 -0.18551449943E+02  0.11461112069E+02  0.10680807934E+03  0.14212198138E+03  0.91187600000E+02 0.  0.
<mgrwt>
<rscale>  0 0.49683503E+04</rscale>
<asrwt>0</asrwt>
<pdfrwt beam="1">  1        1 0.48220632E+00 0.49683503E+04</pdfrwt>
<pdfrwt beam="2">  1       -1 0.30290387E+00 0.49683503E+04</pdfrwt>
<totfact> 0.10889353E-02</totfact>
</mgrwt>
</event>
<event>
12    1  0.1374190E-012  0.4934589E+04  0.7818608E-02  0.8327655E-01
         -2   -1    0    0    0  501 -0.00000000000E+00  0.00000000000E+00  0.21316739682E+04  0.21316739682E+04  0.00000000000E+00 0.  1.
          2   -1    0    0  501    0  0.00000000000E+00 -0.00000000000E+00 -0.36717781207E+04  0.36717781207E+04  0.00000000000E+00 0. -1.
         24    2    1    2    0    0 -0.30136230111E+03  0.33367109866E+03 -0.64125811806E+03  0.78766797351E+03  0.83983474006E+02 0.  0.
    9900016    2    1    2    0    0 -0.16486317372E+04  0.13651970304E+03 -0.62886567489E+03  0.27910478020E+04  0.21582056347E+04 0.  0.
         23    2    4    4    0    0  0.95925826380E+02 -0.62586814116E+03  0.25590290731E+03  0.69163556005E+03  0.10936523977E+03 0.  0.
        -15    1    5    5    0    0  0.21621397364E+02 -0.11968895619E+03  0.47747172208E+01  0.12171987916E+03  0.00000000000E+00 0. -1.
        -15    1    3    3    0    0 -0.23482402344E+03  0.29080456553E+03 -0.56713322177E+03  0.67922728784E+03  0.00000000000E+00 0.  1.
         15    1    1    2    0    0  0.20242004673E+04 -0.48849944202E+03 -0.21411352306E+03  0.20932901942E+04  0.00000000000E+00 0. -1.
         15    1    5    5    0    0  0.74304429016E+02 -0.50617918497E+03  0.25112819009E+03  0.56991568089E+03  0.00000000000E+00 0.  1.
        -16    1    4    4    0    0 -0.17445575636E+04  0.76238784420E+03 -0.88476858220E+03  0.20994122419E+04  0.00000000000E+00 0.  1.
         16    1    3    3    0    0 -0.66538277669E+02  0.42866533134E+02 -0.74124896289E+02  0.10844068567E+03  0.00000000000E+00 0. -1.
    9900018    1    1    2    0    0 -0.74206429002E+02  0.18308640323E+02 -0.55866836494E+02  0.13144611911E+03  0.91187600000E+02 0.  0.
<mgrwt>
<rscale>  0 0.27227686E+04</rscale>
<asrwt>0</asrwt>
<pdfrwt beam="1">  1        2 0.56488894E+00 0.49345887E+04</pdfrwt>
<pdfrwt beam="2">  1       -2 0.32794984E+00 0.49345887E+04</pdfrwt>
<totfact> 0.93299428E-03</totfact>
</mgrwt>
</event>
<event>
12    1  0.1374190E-012  0.4099898E+04  0.7818608E-02  0.8316277E-01
          2   -1    0    0  501    0  0.00000000000E+00  0.00000000000E+00  0.30892160023E+04  0.30892160023E+04  0.00000000000E+00 0.  1.
         -2   -1    0    0    0  501 -0.00000000000E+00 -0.00000000000E+00 -0.22504404193E+04  0.22504404193E+04  0.00000000000E+00 0. -1.
        -24    2    1    2    0    0  0.75154546745E+03 -0.36720312368E+03 -0.55775358633E+03  0.10084379000E+04  0.78735070568E+02 0.  0.
    9900016    2    1    2    0    0 -0.11413644020E+04  0.17228917169E+02 -0.31280354564E+03  0.25434100651E+04  0.22512394736E+04 0.  0.
         23    2    4    4    0    0  0.53858740640E+03  0.50842087816E+02 -0.58387262804E+03  0.80452958248E+03  0.11704397070E+03 0.  0.
        -15    1    5    5    0    0  0.44590181621E+03  0.85096757942E+02 -0.46308955210E+03  0.64847653865E+03  0.00000000000E+00 0. -1.
        -15    1    1    2    0    0  0.38981893452E+03  0.34997420651E+03  0.17093327150E+04  0.17878084566E+04  0.00000000000E+00 0.  1.
         15    1    3    3    0    0  0.64515577122E+03 -0.29475401863E+03 -0.44511512890E+03  0.83739678684E+03  0.00000000000E+00 0. -1.
         15    1    5    5    0    0  0.92685590189E+02 -0.34254670126E+02 -0.12078307594E+03  0.15605304383E+03  0.00000000000E+00 0.  1.
        -16    1    3    3    0    0  0.10638969623E+03 -0.72449105047E+02 -0.11263845743E+03  0.17104111312E+03  0.00000000000E+00 0.  1.
         16    1    4    4    0    0 -0.15607873598E+04 -0.60033517407E+02  0.27742926314E+03  0.15863884146E+04  0.00000000000E+00 0. -1.
    9900018    1    4    4    0    0 -0.11916444854E+03  0.26420346759E+02 -0.63601807359E+01  0.15249206803E+03  0.91187600000E+02 0.  0.
<mgrwt>
<rscale>  0 0.27584773E+04</rscale>
<asrwt>0</asrwt>
<pdfrwt beam="1">  1        2 0.47526400E+00 0.40998976E+04</pdfrwt>
<pdfrwt beam="2">  1       -2 0.34622160E+00 0.40998976E+04</pdfrwt>
<totfact> 0.18886108E-02</totfact>
</mgrwt>
</event>
<event>
12    1  0.1374190E-012  0.4350588E+04  0.7818608E-02  0.8268657E-01
          2   -1    0    0  501    0  0.00000000000E+00  0.00000000000E+00  0.35392693276E+04  0.35392693276E+04  0.00000000000E+00 0. -1.
         -2   -1    0    0    0  501 -0.00000000000E+00 -0.00000000000E+00 -0.19858001996E+04  0.19858001996E+04  0.00000000000E+00 0.  1.
        -24    2    1    2    0    0 -0.45216526847E+03 -0.74598905553E+03 -0.76363064853E+02  0.87921491442E+03  0.78958514916E+02 0.  0.
    9900016    2    1    2    0    0  0.88420548773E+02 -0.38702032375E+03  0.23323686993E+04  0.32639797929E+04  0.22485589640E+04 0.  0.
         23    2    4    4    0    0  0.13102609289E+03 -0.21688320873E+03 -0.39198921749E+03  0.48006214694E+03  0.11224061229E+03 0.  0.
        -15    1    5    5    0    0  0.10743890191E+03 -0.78470831370E+02 -0.15186529551E+03  0.20190061169E+03  0.00000000000E+00 0. -1.
        -15    1    1    2    0    0  0.36374471970E+03  0.11330093793E+04 -0.70253650647E+03  0.13818748198E+04  0.00000000000E+00 0.  1.
         15    1    3    3    0    0 -0.19313934201E+03 -0.34407428162E+03  0.26113491748E+01  0.39458425697E+03  0.00000000000E+00 0. -1.
         15    1    5    5    0    0  0.23587190978E+02 -0.13841237736E+03 -0.24012392198E+03  0.27816153525E+03  0.00000000000E+00 0.  1.
        -16    1    3    3    0    0 -0.25902592646E+03 -0.40191477391E+03 -0.78974414028E+02  0.48463065745E+03  0.00000000000E+00 0.  1.
         16    1    4    4    0    0 -0.22623558648E+02 -0.17059203381E+03  0.26707091410E+04  0.26762475191E+04  0.00000000000E+00 0. -1.
    9900018    1    4    4    0    0 -0.19981985468E+02  0.45491878793E+00  0.53648775801E+02  0.10767012693E+03  0.91187600000E+02 0.  0.
<mgrwt>
<rscale>  0 0.29142287E+04</rscale>
<asrwt>0</asrwt>
<pdfrwt beam="1">  1        2 0.54450297E+00 0.43505876E+04</pdfrwt>
<pdfrwt beam="2">  1       -2 0.30550772E+00 0.43505876E+04</pdfrwt>
<totfact> 0.16617624E-02</totfact>
</mgrwt>
</event>
<event>
11    1  0.1374190E-012  0.4271728E+04  0.7818608E-02  0.8362318E-01
         -2   -1    0    0    0  501 -0.00000000000E+00  0.00000000000E+00  0.28138776905E+04  0.28138776905E+04  0.00000000000E+00 0.  1.
          2   -1    0    0  501    0  0.00000000000E+00 -0.00000000000E+00 -0.21382795585E+04  0.21382795585E+04  0.00000000000E+00 0. -1.
        -24    2    1    2    0    0 -0.58280427511E+03 -0.12746661687E+03 -0.10072545277E+03  0.61045920824E+03  0.81278943002E+02 0.  0.
    9900016    2    1    2    0    0 -0.10988183270E+04  0.15002442240E+02  0.49616861424E+03  0.24680773178E+04  0.21535077348E+04 0.  0.
        -15    1    4    4    0    0  0.38485006929E+03 -0.15389314975E+03  0.32842220866E+03  0.52882305596E+03  0.00000000000E+00 0.  1.
        -15    1    1    2    0    0  0.17402047060E+04  0.10626696933E+03  0.27439450573E+03  0.17649072022E+04  0.00000000000E+00 0.  1.
         15    1    4    4    0    0  0.10592138701E+03 -0.11921281877E+03  0.27748273112E+03  0.32004328215E+03  0.00000000000E+00 0. -1.
         15    1    3    3    0    0 -0.28476565369E+03 -0.74928809016E+02 -0.88934519115E+02  0.30759576173E+03  0.00000000000E+00 0. -1.
        -16    1    3    3    0    0 -0.29803862142E+03 -0.52537807855E+02 -0.11790933656E+02  0.30286344651E+03  0.00000000000E+00 0.  1.
         16    1    4    4    0    0 -0.15895897833E+04  0.28810841076E+03 -0.10973632554E+03  0.16192109796E+04  0.00000000000E+00 0. -1.
    9900018    1    1    2    0    0 -0.58582103919E+02  0.61972053035E+01  0.57604648065E+01  0.10871352079E+03  0.91187600000E+02 0.  0.
<mgrwt>
<rscale>  0 0.26173904E+04</rscale>
<asrwt>0</asrwt>
<pdfrwt beam="1">  1        2 0.32896609E+00 0.42717284E+04</pdfrwt>
<pdfrwt beam="2">  1       -2 0.43290426E+00 0.42717284E+04</pdfrwt>
<totfact> 0.19024575E-02</totfact>
</mgrwt>
</event>
<event>
11    1  0.1374190E-012  0.3890018E+04  0.7818608E-02  0.8341119E-01
         -2   -1    0    0    0  501 -0.00000000000E+00  0.00000000000E+00  0.20203195653E+04  0.20203195653E+04  0.00000000000E+00 0. -1.
          2   -1    0    0  501    0  0.00000000000E+00 -0.00000000000E+00 -0.33278073276E+04  0.33278073276E+04  0.00000000000E+00 0.  1.
         24    2    1    2    0    0  0.52825768440E+03 -0.69671715107E+03 -0.11606717228E+04  0.14553389695E+04  0.79885532613E+02 0.  0.
    9900016    2    1    2    0    0 -0.75056365571E+03 -0.57438176497E+03  0.44703986556E+03  0.24723030643E+04  0.22403521123E+04 0.  0.
        -15    1    4    4    0    0  0.18325100586E+03 -0.47628328752E+03  0.10503802742E+04  0.11677865479E+04  0.00000000000E+00 0. -1.
        -15    1    3    3    0    0  0.15620237818E+03 -0.23561622084E+03 -0.43060671163E+03  0.51510807271E+03  0.00000000000E+00 0.  1.
         15    1    1    2    0    0  0.22230597131E+03  0.12710989160E+04 -0.59385590506E+03  0.14204848592E+04  0.00000000000E+00 0. -1.
         15    1    4    4    0    0  0.36034939293E+02 -0.10942963048E+02  0.54645383296E+02  0.66365527238E+02  0.00000000000E+00 0.  1.
        -16    1    4    4    0    0 -0.93950104277E+03 -0.64873360416E+02 -0.63796884766E+03  0.11374862693E+04  0.00000000000E+00 0.  1.
         16    1    3    3    0    0  0.37205530622E+03 -0.46110093023E+03 -0.73006501118E+03  0.94023089680E+03  0.00000000000E+00 0. -1.
    9900018    1    4    4    0    0 -0.30348558096E+02 -0.22282153986E+02 -0.20016944241E+02  0.10066471981E+03  0.91187600000E+02 0.  0.
<mgrwt>
<rscale>  0 0.26812367E+04</rscale>
<asrwt>0</asrwt>
<pdfrwt beam="1">  1        2 0.51197036E+00 0.38900184E+04</pdfrwt>
<pdfrwt beam="2">  1       -2 0.31081839E+00 0.38900184E+04</pdfrwt>
<totfact> 0.22179753E-02</totfact>
</mgrwt>
</event>
<event>
11    1  0.1374190E-012  0.5704018E+04  0.7818608E-02  0.7728224E-01
         -2   -1    0    0    0  501 -0.00000000000E+00  0.00000000000E+00  0.23747573849E+04  0.23747573849E+04  0.00000000000E+00 0.  1.
          2   -1    0    0  501    0  0.00000000000E+00 -0.00000000000E+00 -0.34251734734E+04  0.34251734734E+04  0.00000000000E+00 0. -1.
        -24    2    1    2    0    0  0.19257748290E+02  0.15625028735E+04  0.69502720566E+03  0.17121236995E+04  0.80738189069E+02 0.  0.
    9900016    2    1    2    0    0  0.61688762135E+03 -0.18580354957E+04 -0.13023742101E+04  0.32581501964E+04  0.22553309908E+04 0.  0.
        -15    1    4    4    0    0  0.65690735986E+03 -0.19893944257E+03 -0.50811261742E+03  0.85398045248E+03  0.00000000000E+00 0.  1.
        -15    1    1    2    0    0 -0.63614536964E+03  0.29553262226E+03 -0.44306908402E+03  0.82965696245E+03  0.00000000000E+00 0.  1.
         15    1    3    3    0    0 -0.87477784588E+01  0.13428109877E+04  0.60994548508E+03  0.14748733393E+04  0.00000000000E+00 0. -1.
         15    1    4    4    0    0  0.40762896161E+03 -0.26690014051E+03 -0.71720697932E+03  0.86705415433E+03  0.00000000000E+00 0. -1.
        -16    1    3    3    0    0  0.28005526749E+02  0.21969188579E+03  0.85081720575E+02  0.23725036014E+03  0.00000000000E+00 0.  1.
         16    1    4    4    0    0 -0.44156559785E+03 -0.13720996156E+04 -0.66290807468E+02  0.14429248087E+04  0.00000000000E+00 0. -1.
    9900018    1    4    4    0    0 -0.60831022692E+01 -0.20096297058E+02 -0.10763805920E+02  0.94190780867E+02  0.91187600000E+02 0.  0.
<mgrwt>
<rscale>  0 0.57040182E+04</rscale>
<asrwt>0</asrwt>
<pdfrwt beam="1">  1        2 0.52694977E+00 0.57040182E+04</pdfrwt>
<pdfrwt beam="2">  1       -2 0.36534729E+00 0.57040182E+04</pdfrwt>
<totfact> 0.78336744E-03</totfact>
</mgrwt>
</event>
<event>
11    1  0.1374190E-012  0.3602585E+04  0.7818608E-02  0.8089900E-01
          2   -1    0    0  501    0  0.00000000000E+00  0.00000000000E+00  0.33947947639E+04  0.33947947639E+04  0.00000000000E+00 0.  1.
         -2   -1    0    0    0  501 -0.00000000000E+00 -0.00000000000E+00 -0.95577333013E+03  0.95577333013E+03  0.00000000000E+00 0. -1.
         24    2    1    2    0    0  0.70717121304E+03 -0.33082642646E+03  0.14473589233E+03  0.79807243331E+03  0.80211478411E+02 0.  0.
    9900016    2    1    2    0    0 -0.29286827016E+03  0.26787208722E+03  0.18680973946E+04  0.29547946370E+04  0.22546609927E+04 0.  0.
        -15    1    3    3    0    0  0.21935157024E+03 -0.12055322790E+03  0.12272087688E+02  0.25059687999E+03  0.00000000000E+00 0.  1.
        -15    1    4    4    0    0  0.11581592619E+02 -0.76169924653E+02  0.49660452071E+02  0.91663248956E+02  0.00000000000E+00 0.  1.
         15    1    4    4    0    0 -0.32755335493E+03 -0.83735126231E+03  0.10526083998E+04  0.13843528380E+04  0.00000000000E+00 0. -1.
         15    1    1    2    0    0 -0.41430294289E+03  0.62954339246E+02  0.42618814681E+03  0.59770102375E+03  0.00000000000E+00 0. -1.
        -16    1    4    4    0    0  0.90456399974E+02  0.11302134820E+04  0.64061846976E+03  0.13022890996E+04  0.00000000000E+00 0.  1.
         16    1    3    3    0    0  0.48781964280E+03 -0.21027319856E+03  0.13246380464E+03  0.54747555331E+03  0.00000000000E+00 0. -1.
    9900018    1    4    4    0    0 -0.67352907825E+02  0.51179792202E+02  0.12521007305E+03  0.17648945042E+03  0.91187600000E+02 0.  0.
<mgrwt>
<rscale>  0 0.36025848E+04</rscale>
<asrwt>0</asrwt>
<pdfrwt beam="1">  1        2 0.52227611E+00 0.36025848E+04</pdfrwt>
<pdfrwt beam="2">  1       -2 0.14704205E+00 0.36025848E+04</pdfrwt>
<totfact> 0.24702518E-01</totfact>
</mgrwt>
</event>
