<event>
13    1  0.4036471E-008  0.6226513E+04  0.7818608E-02  0.7662934E-01
          2   -1    0    0  501    0  0.00000000000E+00  0.00000000000E+00  0.40589468782E+04  0.40589468782E+04  0.00000000000E+00 0. -1.
         -2   -1    0    0    0  501 -0.00000000000E+00 -0.00000000000E+00 -0.23879019771E+04  0.23879019771E+04  0.00000000000E+00 0.  1.
    9900016    2    1    2    0    0 -0.45754818396E+03 -0.25992025837E+03  0.15041139643E+03  0.18939982167E+04  0.18132006991E+04 0.  0.
         24    2    3    3    0    0  0.50649597298E+03 -0.12345539805E+03 -0.49696020934E+03  0.72477035586E+03  0.80890129878E+02 0.  0.
    9900016    2    1    2    0    0  0.22972291018E+03 -0.70944181340E+03 -0.70816198392E+03  0.21100220138E+04  0.18424492397E+04 0.  0.
         23    2    5    5    0    0  0.30160816748E+03  0.93086279517E+02  0.53170867817E+03  0.63134081456E+03  0.12745416256E+03 0.  0.
        -15    1    6    6    0    0  0.24294083135E+03  0.26451550720E+02  0.44242100978E+03  0.50542683146E+03  0.00000000000E+00 0. -1.
        -15    1    4    4    0    0  0.38335103482E+03 -0.77927712793E+02 -0.41337163614E+03  0.56912815243E+03  0.00000000000E+00 0.  1.
         15    1    6    6    0    0  0.58667336131E+02  0.66634728797E+02  0.89287668398E+02  0.12591398309E+03  0.00000000000E+00 0.  1.
         15    1    3    3    0    0 -0.96404415694E+03 -0.13646486032E+03  0.64737160576E+03  0.11692278609E+04  0.00000000000E+00 0. -1.
        -16    1    5    5    0    0 -0.71885257300E+02 -0.80252809292E+03 -0.12398706621E+04  0.14786811992E+04  0.00000000000E+00 0.  1.
         16    1    4    4    0    0  0.12314493816E+03 -0.45527685260E+02 -0.83588573195E+02  0.15564220343E+03  0.00000000000E+00 0. -1.
    9900018    1    1    2    0    0  0.22782527378E+03  0.96936207177E+03  0.22287954886E+04  0.24428286248E+04  0.91187600000E+02 0.  0.
<mgrwt>
<rscale>  0 0.62265134E+04</rscale>
<asrwt>0</asrwt>
<pdfrwt beam="1">  1        2 0.62445337E+00 0.62265134E+04</pdfrwt>
<pdfrwt beam="2">  1       -2 0.36736953E+00 0.62265134E+04</pdfrwt>
<totfact> 0.24301127E-03</totfact>
</mgrwt>
</event>
<event>
12    1  0.4036471E-008  0.5210669E+04  0.7818608E-02  0.7796807E-01
         -2   -1    0    0    0  501 -0.00000000000E+00  0.00000000000E+00  0.18803082363E+04  0.18803082363E+04  0.00000000000E+00 0.  1.
          2   -1    0    0  501    0  0.00000000000E+00 -0.00000000000E+00 -0.36099223686E+04  0.36099223686E+04  0.00000000000E+00 0. -1.
    9900016    2    1    2    0    0  0.15482962469E+04 -0.33054067229E+03 -0.84976180064E+03  0.25758798282E+04  0.18456931942E+04 0.  0.
         24    2    3    3    0    0 -0.16881046922E+03 -0.42732396922E+03 -0.71106028540E+03  0.85046376490E+03  0.81111877969E+02 0.  0.
    9900016    2    1    2    0    0 -0.83860646870E+03  0.20486660774E+03 -0.76359456855E+03  0.21786303151E+04  0.18488164453E+04 0.  0.
        -15    1    5    5    0    0 -0.68449512262E+03  0.74397047887E+01 -0.10819706762E+04  0.12803317797E+04  0.00000000000E+00 0.  1.
        -15    1    4    4    0    0 -0.13210959578E+03 -0.23350137538E+03 -0.38183369816E+03  0.46666134471E+03  0.00000000000E+00 0.  1.
         15    1    3    3    0    0  0.17171067161E+04  0.96783296927E+02 -0.13870151524E+03  0.17254160633E+04  0.00000000000E+00 0. -1.
         15    1    5    5    0    0 -0.17613492939E+03 -0.61766265005E+02 -0.22710676120E+03  0.29396609639E+03  0.00000000000E+00 0. -1.
        -16    1    5    5    0    0  0.22023583315E+02  0.25919316796E+03  0.54548286884E+03  0.60433243892E+03  0.00000000000E+00 0.  1.
         16    1    4    4    0    0 -0.36700873440E+02 -0.19382259384E+03 -0.32922658724E+03  0.38380242018E+03  0.00000000000E+00 0. -1.
    9900018    1    1    2    0    0 -0.70968977820E+03  0.12567406455E+03 -0.11625776311E+03  0.73572046163E+03  0.91187600000E+02 0.  0.
<mgrwt>
<rscale>  0 0.52106686E+04</rscale>
<asrwt>0</asrwt>
<pdfrwt beam="1">  1        2 0.55537267E+00 0.52106686E+04</pdfrwt>
<pdfrwt beam="2">  1       -2 0.28927819E+00 0.52106686E+04</pdfrwt>
<totfact> 0.17927960E-02</totfact>
</mgrwt>
</event>
<event>
13    1  0.4036471E-008  0.4401861E+04  0.7818608E-02  0.7928047E-01
          1   -1    0    0  501    0  0.00000000000E+00  0.00000000000E+00  0.26531974020E+04  0.26531974020E+04  0.00000000000E+00 0. -1.
         -1   -1    0    0    0  501 -0.00000000000E+00 -0.00000000000E+00 -0.18257574280E+04  0.18257574280E+04  0.00000000000E+00 0.  1.
    9900016    2    1    2    0    0  0.16140135939E+03 -0.32588600016E+02 -0.43745753225E+03  0.19027537938E+04  0.18444485603E+04 0.  0.
        -24    2    3    3    0    0 -0.49570673434E+03  0.65532799539E+03 -0.47170595405E+03  0.95081196598E+03  0.79730418047E+02 0.  0.
    9900016    2    1    2    0    0  0.16466877468E+02  0.80644694633E+01  0.69012704600E+03  0.19671732840E+04  0.18420529840E+04 0.  0.
         23    2    5    5    0    0  0.54545613660E+03 -0.45116407281E+01 -0.44620098330E+03  0.71368647315E+03  0.11274002223E+03 0.  0.
        -15    1    6    6    0    0  0.46007047843E+03  0.35237370459E+02 -0.38884098124E+03  0.60341016406E+03  0.00000000000E+00 0.  1.
        -15    1    3    3    0    0  0.65710809373E+03 -0.68791659541E+03  0.34248421799E+02  0.95194182778E+03  0.00000000000E+00 0.  1.
         15    1    4    4    0    0 -0.27607413413E+03  0.42910255774E+03 -0.29354131417E+03  0.58865306906E+03  0.00000000000E+00 0. -1.
         15    1    6    6    0    0  0.85385658162E+02 -0.39749011187E+02 -0.57360002061E+02  0.11027630909E+03  0.00000000000E+00 0. -1.
        -16    1    4    4    0    0 -0.21963260021E+03  0.22622543765E+03 -0.17816463988E+03  0.36215889692E+03  0.00000000000E+00 0.  1.
         16    1    5    5    0    0 -0.52898925913E+03  0.12576110191E+02  0.11363280293E+04  0.12534868109E+04  0.00000000000E+00 0. -1.
    9900018    1    1    2    0    0 -0.17786823686E+03  0.24524130552E+02  0.57477046019E+03  0.60902775221E+03  0.91187600000E+02 0.  0.
<mgrwt>
<rscale>  0 0.44018609E+04</rscale>
<asrwt>0</asrwt>
<pdfrwt beam="1">  1        1 0.40818422E+00 0.44018609E+04</pdfrwt>
<pdfrwt beam="2">  1       -1 0.28088576E+00 0.44018609E+04</pdfrwt>
<totfact> 0.35227288E-02</totfact>
</mgrwt>
</event>
<event>
13    1  0.4036471E-008  0.5368689E+04  0.7818608E-02  0.7774021E-01
         -1   -1    0    0    0  501 -0.00000000000E+00  0.00000000000E+00  0.18134479689E+04  0.18134479689E+04  0.00000000000E+00 0.  1.
          1   -1    0    0  501    0  0.00000000000E+00 -0.00000000000E+00 -0.39734835645E+04  0.39734835645E+04  0.00000000000E+00 0. -1.
    9900016    2    1    2    0    0 -0.29402366968E+03 -0.95372134541E+03 -0.26387234407E+04  0.33806309015E+04  0.18627317502E+04 0.  0.
        -24    2    3    3    0    0  0.45813578407E+03 -0.11376978178E+04 -0.21140501905E+04  0.24452843317E+04  0.77217444563E+02 0.  0.
    9900016    2    1    2    0    0  0.11927572574E+03  0.10555703184E+04  0.49090077247E+03  0.21840971413E+04  0.18441370227E+04 0.  0.
         23    2    5    5    0    0  0.54810164519E+03 -0.24358941075E+03  0.54036588695E+03  0.81509952683E+03  0.11243101161E+03 0.  0.
        -15    1    3    3    0    0 -0.75215945375E+03  0.18397647237E+03 -0.52467325023E+03  0.93534656986E+03  0.00000000000E+00 0.  1.
        -15    1    6    6    0    0  0.10078007115E+03 -0.68474670095E+02  0.16682259231E+03  0.20657971946E+03  0.00000000000E+00 0. -1.
         15    1    6    6    0    0  0.44732157404E+03 -0.17511474066E+03  0.37354329463E+03  0.60851980737E+03  0.00000000000E+00 0.  1.
         15    1    4    4    0    0  0.17211731080E+03 -0.35028647286E+03 -0.71520334165E+03  0.81476426140E+03  0.00000000000E+00 0. -1.
        -16    1    4    4    0    0  0.28601847326E+03 -0.78741134492E+03 -0.13988468488E+04  0.16305200703E+04  0.00000000000E+00 0.  1.
         16    1    5    5    0    0 -0.42882591946E+03  0.12991597291E+04 -0.49465114470E+02  0.13689976145E+04  0.00000000000E+00 0. -1.
    9900018    1    1    2    0    0  0.17474794395E+03 -0.10184897297E+03 -0.12212927327E+02  0.22220349051E+03  0.91187600000E+02 0.  0.
<mgrwt>
<rscale>  0 0.53686891E+04</rscale>
<asrwt>0</asrwt>
<pdfrwt beam="1">  1        1 0.61130516E+00 0.53686891E+04</pdfrwt>
<pdfrwt beam="2">  1       -1 0.27899200E+00 0.53686891E+04</pdfrwt>
<totfact> 0.31969812E-03</totfact>
</mgrwt>
</event>
<event>
12    1  0.4036471E-008  0.4136264E+04  0.7818608E-02  0.7977608E-01
         -2   -1    0    0    0  501 -0.00000000000E+00  0.00000000000E+00  0.25180591100E+04  0.25180591100E+04  0.00000000000E+00 0.  1.
          2   -1    0    0  501    0  0.00000000000E+00 -0.00000000000E+00 -0.16985982739E+04  0.16985982739E+04  0.00000000000E+00 0. -1.
    9900016    2    1    2    0    0  0.17901179320E+03 -0.21184413531E+03  0.95666278658E+03  0.20826612805E+04  0.18290301152E+04 0.  0.
        -24    2    3    3    0    0 -0.50349602134E+03 -0.79870964903E+03  0.43787676689E+03  0.10437354013E+04  0.78753908214E+02 0.  0.
    9900016    2    1    2    0    0 -0.19866208185E+02  0.13011969476E+02 -0.14144145347E+03  0.18634509146E+04  0.18579234777E+04 0.  0.
        -15    1    5    5    0    0 -0.13220707278E+03 -0.37000480635E+03  0.33007755139E+03  0.51316026419E+03  0.00000000000E+00 0.  1.
        -15    1    3    3    0    0  0.68250781454E+03  0.58686551372E+03  0.51878601969E+03  0.10389258791E+04  0.00000000000E+00 0.  1.
         15    1    4    4    0    0 -0.37706270981E+03 -0.56112694686E+03  0.28017314513E+03  0.73180375025E+03  0.00000000000E+00 0. -1.
         15    1    5    5    0    0 -0.99876676935E+01 -0.11912312904E+03  0.35550137086E+03  0.37506172567E+03  0.00000000000E+00 0. -1.
        -16    1    4    4    0    0 -0.12643331153E+03 -0.23758270217E+03  0.15770362176E+03  0.31193165109E+03  0.00000000000E+00 0.  1.
         16    1    5    5    0    0  0.12232853229E+03  0.50213990487E+03 -0.82702037572E+03  0.97522892478E+03  0.00000000000E+00 0. -1.
    9900018    1    1    2    0    0 -0.15914558501E+03  0.19883216583E+03  0.42395030393E+01  0.27054518879E+03  0.91187600000E+02 0.  0.
<mgrwt>
<rscale>  0 0.41362644E+04</rscale>
<asrwt>0</asrwt>
<pdfrwt beam="1">  1        2 0.26132281E+00 0.41362644E+04</pdfrwt>
<pdfrwt beam="2">  1       -2 0.38739371E+00 0.41362644E+04</pdfrwt>
<totfact> 0.68721343E-02</totfact>
</mgrwt>
</event>
<event>
13    1  0.4036471E-008  0.5092388E+04  0.7818608E-02  0.7814411E-01
         -2   -1    0    0    0  501 -0.00000000000E+00  0.00000000000E+00  0.22453525550E+04  0.22453525550E+04  0.00000000000E+00 0.  1.
          2   -1    0    0  501    0  0.00000000000E+00 -0.00000000000E+00 -0.28873433062E+04  0.28873433062E+04  0.00000000000E+00 0. -1.
    9900016    2    1    2    0    0  0.37237221191E+03 -0.49069980199E+03 -0.18233133980E+04  0.26644571219E+04  0.18426645509E+04 0.  0.
        -24    2    3    3    0    0  0.11132949665E+04 -0.21064203828E+03 -0.90925805269E+03  0.14549547227E+04  0.79669870031E+02 0.  0.
    9900016    2    1    2    0    0 -0.15733860170E+03  0.36768223382E+03  0.11379097363E+04  0.22007081153E+04  0.18407422362E+04 0.  0.
         23    2    5    5    0    0  0.19504669146E+03 -0.50520952240E+03 -0.17832309302E+03  0.58250408804E+03  0.11929800375E+03 0.  0.
        -15    1    6    6    0    0  0.42694074690E+02 -0.11087069769E+03 -0.93844184828E+02  0.15139955960E+03  0.00000000000E+00 0. -1.
        -15    1    3    3    0    0 -0.74092275456E+03 -0.28005776372E+03 -0.91405534527E+03  0.12095023991E+04  0.00000000000E+00 0.  1.
         15    1    4    4    0    0  0.45086291585E+03 -0.12518921319E+03 -0.37291649850E+03  0.59834473578E+03  0.00000000000E+00 0. -1.
         15    1    6    6    0    0  0.15235261677E+03 -0.39433882471E+03 -0.84478908193E+02  0.43110452844E+03  0.00000000000E+00 0.  1.
        -16    1    4    4    0    0  0.66243205063E+03 -0.85452825088E+02 -0.53634155418E+03  0.85660998696E+03  0.00000000000E+00 0.  1.
         16    1    5    5    0    0 -0.35238529317E+03  0.87289175622E+03  0.13162328294E+04  0.16182040273E+04  0.00000000000E+00 0. -1.
    9900018    1    1    2    0    0 -0.21503361021E+03  0.12301756817E+03  0.43412910374E+02  0.26753062401E+03  0.91187600000E+02 0.  0.
<mgrwt>
<rscale>  0 0.50923879E+04</rscale>
<asrwt>0</asrwt>
<pdfrwt beam="1">  1        2 0.44420666E+00 0.50923879E+04</pdfrwt>
<pdfrwt beam="2">  1       -2 0.34543886E+00 0.50923879E+04</pdfrwt>
<totfact> 0.24566060E-02</totfact>
</mgrwt>
</event>
<event>
12    1  0.4036471E-008  0.4652897E+04  0.7818608E-02  0.7884402E-01
         -2   -1    0    0    0  501 -0.00000000000E+00  0.00000000000E+00  0.16383357757E+04  0.16383357757E+04  0.00000000000E+00 0.  1.
          2   -1    0    0  501    0  0.00000000000E+00 -0.00000000000E+00 -0.33035738863E+04  0.33035738863E+04  0.00000000000E+00 0. -1.
    9900016    2    1    2    0    0  0.51188108694E+03 -0.11510707650E+04 -0.49701444289E+03  0.22854433380E+04  0.18409893377E+04 0.  0.
        -24    2    3    3    0    0  0.42555697868E+03 -0.35501308770E+03 -0.11324087182E+04  0.12632468978E+04  0.79436674167E+02 0.  0.
    9900016    2    1    2    0    0 -0.45330872434E+03  0.87013477021E+03 -0.10539274854E+04  0.23343878389E+04  0.18373840427E+04 0.  0.
        -15    1    5    5    0    0  0.24019674487E+03 -0.19883251363E+02  0.22679160978E+03  0.33094448809E+03  0.00000000000E+00 0. -1.
        -15    1    3    3    0    0  0.86324108263E+02 -0.79605767733E+03  0.63539427528E+03  0.10221964402E+04  0.00000000000E+00 0.  1.
         15    1    5    5    0    0  0.29078617753E+02 -0.47976228071E+02  0.14187804113E+03  0.15256691327E+03  0.00000000000E+00 0.  1.
         15    1    4    4    0    0  0.24385339907E+03 -0.23714617471E+03 -0.75546765448E+03  0.82851322584E+03  0.00000000000E+00 0. -1.
        -16    1    4    4    0    0  0.18170357961E+03 -0.11786691299E+03 -0.37694106368E+03  0.43473367193E+03  0.00000000000E+00 0.  1.
         16    1    5    5    0    0 -0.72258408697E+03  0.93799424964E+03 -0.14225971363E+04  0.18508764376E+04  0.00000000000E+00 0. -1.
    9900018    1    1    2    0    0 -0.58572362599E+02  0.28093599482E+03 -0.11429618238E+03  0.32207848507E+03  0.91187600000E+02 0.  0.
<mgrwt>
<rscale>  0 0.46528973E+04</rscale>
<asrwt>0</asrwt>
<pdfrwt beam="1">  1        2 0.50824213E+00 0.46528973E+04</pdfrwt>
<pdfrwt beam="2">  1       -2 0.25205166E+00 0.46528973E+04</pdfrwt>
<totfact> 0.51684881E-02</totfact>
</mgrwt>
</event>
<event>
13    1  0.4036471E-008  0.6217751E+04  0.7818608E-02  0.7663974E-01
         -2   -1    0    0    0  501 -0.00000000000E+00  0.00000000000E+00  0.53804678623E+04  0.53804678623E+04  0.00000000000E+00 0.  1.
          2   -1    0    0  501    0  0.00000000000E+00 -0.00000000000E+00 -0.17963318034E+04  0.17963318034E+04  0.00000000000E+00 0. -1.
    9900016    2    1    2    0    0 -0.16210467867E+04 -0.25156623294E+03  0.21401053828E+04  0.32660157112E+04  0.18427504775E+04 0.  0.
        -24    2    3    3    0    0 -0.83126121570E+03 -0.96131801927E+03  0.63164223621E+03  0.14213016654E+04  0.77452996304E+02 0.  0.
    9900016    2    1    2    0    0  0.14027014618E+02  0.18815515532E+03  0.13545700772E+04  0.22974483137E+04  0.18460253358E+04 0.  0.
         23    2    5    5    0    0 -0.27608063270E+03  0.39250571092E+03  0.17205871643E+04  0.17876541350E+04  0.70752155116E+02 0.  0.
        -15    1    6    6    0    0 -0.31719272126E+02  0.20093255498E+02  0.95144400738E+02  0.10228542483E+03  0.00000000000E+00 0. -1.
        -15    1    3    3    0    0 -0.78978557097E+03  0.70975178633E+03  0.15084631465E+04  0.18447140458E+04  0.00000000000E+00 0.  1.
         15    1    4    4    0    0 -0.29302709315E+03 -0.31828507958E+03  0.17717706839E+03  0.46750613126E+03  0.00000000000E+00 0. -1.
         15    1    6    6    0    0 -0.24436136057E+03  0.37241245543E+03  0.16254427636E+04  0.16853687101E+04  0.00000000000E+00 0.  1.
        -16    1    4    4    0    0 -0.53823412254E+03 -0.64303293969E+03  0.45446516782E+03  0.95379553414E+03  0.00000000000E+00 0.  1.
         16    1    5    5    0    0  0.29010764731E+03 -0.20435055561E+03 -0.36601708709E+03  0.50979417871E+03  0.00000000000E+00 0. -1.
    9900018    1    1    2    0    0  0.16070197720E+04  0.63411077621E+02  0.89460598950E+02  0.16133356407E+04  0.91187600000E+02 0.  0.
<mgrwt>
<rscale>  0 0.62177506E+04</rscale>
<asrwt>0</asrwt>
<pdfrwt beam="1">  1        2 0.27635874E+00 0.62177506E+04</pdfrwt>
<pdfrwt beam="2">  1       -2 0.82776428E+00 0.62177506E+04</pdfrwt>
<totfact> 0.28768763E-04</totfact>
</mgrwt>
</event>
<event>
12    1  0.4036471E-008  0.4359155E+04  0.7818608E-02  0.7935769E-01
         -2   -1    0    0    0  501 -0.00000000000E+00  0.00000000000E+00  0.28092891394E+04  0.28092891394E+04  0.00000000000E+00 0.  1.
          2   -1    0    0  501    0  0.00000000000E+00 -0.00000000000E+00 -0.16910182262E+04  0.16910182262E+04  0.00000000000E+00 0. -1.
    9900016    2    1    2    0    0 -0.40124518990E+03 -0.37577486240E+03  0.17093617788E+03  0.19296647355E+04  0.18417878176E+04 0.  0.
        -24    2    3    3    0    0 -0.10612422066E+04 -0.94959190325E+02  0.45070990806E+03  0.11597771828E+04  0.81801121483E+02 0.  0.
    9900016    2    1    2    0    0  0.53252622074E+03  0.64641009957E+03  0.92477447076E+03  0.22555199800E+04  0.18790243122E+04 0.  0.
        -15    1    5    5    0    0 -0.30172011100E+03  0.15442187027E+03 -0.29397463781E+03  0.44866716736E+03  0.00000000000E+00 0. -1.
        -15    1    3    3    0    0  0.65999701672E+03 -0.28081567207E+03 -0.27977373018E+03  0.76988755274E+03  0.00000000000E+00 0.  1.
         15    1    5    5    0    0 -0.78012917162E+02  0.18863560751E+03 -0.54632432412E+02  0.21131519192E+03  0.00000000000E+00 0.  1.
         15    1    4    4    0    0 -0.64716750226E+03 -0.31275614575E+02  0.30598171440E+03  0.71653942641E+03  0.00000000000E+00 0. -1.
        -16    1    4    4    0    0 -0.41407470437E+03 -0.63683575750E+02  0.14472819365E+03  0.44323775635E+03  0.00000000000E+00 0.  1.
         16    1    5    5    0    0  0.91225924890E+03  0.30335262179E+03  0.12733815410E+04  0.15955376208E+04  0.00000000000E+00 0. -1.
    9900018    1    1    2    0    0 -0.13128103084E+03 -0.27063523717E+03  0.22560264558E+02  0.31512265007E+03  0.91187600000E+02 0.  0.
<mgrwt>
<rscale>  0 0.43591555E+04</rscale>
<asrwt>0</asrwt>
<pdfrwt beam="1">  1        2 0.26015665E+00 0.43591555E+04</pdfrwt>
<pdfrwt beam="2">  1       -2 0.43219833E+00 0.43591555E+04</pdfrwt>
<totfact> 0.34631803E-02</totfact>
</mgrwt>
</event>
<event>
12    1  0.4036471E-008  0.5742972E+04  0.7818608E-02  0.7723113E-01
         -2   -1    0    0    0  501 -0.00000000000E+00  0.00000000000E+00  0.23488212186E+04  0.23488212186E+04  0.00000000000E+00 0.  1.
          2   -1    0    0  501    0  0.00000000000E+00 -0.00000000000E+00 -0.35104550761E+04  0.35104550761E+04  0.00000000000E+00 0. -1.
    9900016    2    1    2    0    0 -0.33687830755E+03  0.11624090038E+04 -0.18239343182E+04  0.28688403657E+04  0.18544074419E+04 0.  0.
        -24    2    3    3    0    0 -0.94644059356E+03  0.26010333792E+03 -0.36880171603E+03  0.10513881421E+04  0.77451766311E+02 0.  0.
    9900016    2    1    2    0    0 -0.14863836760E+03 -0.56204651266E+03 -0.45832013506E+02  0.19388046525E+04  0.18490195403E+04 0.  0.
        -15    1    5    5    0    0  0.13253575912E+03 -0.29435083913E+02  0.35635451402E+03  0.38134064991E+03  0.00000000000E+00 0.  1.
        -15    1    3    3    0    0  0.60956228601E+03  0.90230566585E+03 -0.14551326021E+04  0.18174522236E+04  0.00000000000E+00 0.  1.
         15    1    5    5    0    0  0.31624338894E+03 -0.12732078537E+03  0.36813111866E+03  0.50173796345E+03  0.00000000000E+00 0. -1.
         15    1    4    4    0    0 -0.37166606704E+03  0.11030401502E+03 -0.18543297229E+03  0.42975345063E+03  0.00000000000E+00 0. -1.
        -16    1    4    4    0    0 -0.57477452652E+03  0.14979932289E+03 -0.18336874374E+03  0.62163469148E+03  0.00000000000E+00 0.  1.
         16    1    5    5    0    0 -0.59741751566E+03 -0.40529064338E+03 -0.77031764619E+03  0.10557260391E+04  0.00000000000E+00 0. -1.
    9900018    1    1    2    0    0  0.48551667515E+03 -0.60036249110E+03  0.70813247417E+03  0.10516312766E+04  0.91187600000E+02 0.  0.
<mgrwt>
<rscale>  0 0.57429718E+04</rscale>
<asrwt>0</asrwt>
<pdfrwt beam="1">  1        2 0.54007001E+00 0.57429718E+04</pdfrwt>
<pdfrwt beam="2">  1       -2 0.36135711E+00 0.57429718E+04</pdfrwt>
<totfact> 0.72214813E-03</totfact>
</mgrwt>
</event>
<event>
13    1  0.4036471E-008  0.5793418E+04  0.7818608E-02  0.7716557E-01
         -2   -1    0    0    0  501 -0.00000000000E+00  0.00000000000E+00  0.26883366133E+04  0.26883366133E+04  0.00000000000E+00 0. -1.
          2   -1    0    0  501    0  0.00000000000E+00 -0.00000000000E+00 -0.31212318983E+04  0.31212318983E+04  0.00000000000E+00 0.  1.
    9900016    2    1    2    0    0 -0.82576505281E+03 -0.43301319242E+03  0.62021884758E+02  0.20627693268E+04  0.18389622710E+04 0.  0.
         24    2    3    3    0    0  0.37558165999E+03 -0.72932188487E+03  0.70773038023E+01  0.82420093038E+03  0.79278561697E+02 0.  0.
    9900016    2    1    2    0    0  0.14767439808E+04  0.45326629591E+03 -0.12752332512E+04  0.27263129682E+04  0.18494159715E+04 0.  0.
         23    2    5    5    0    0 -0.45678157584E+02 -0.56211803274E+03 -0.24081625191E+03  0.62422043198E+03  0.11659975861E+03 0.  0.
        -15    1    4    4    0    0  0.21980737751E+03 -0.42579332072E+03 -0.34949602881E+02  0.48045469081E+03  0.00000000000E+00 0.  1.
        -15    1    6    6    0    0  0.39224598476E+02 -0.21338604376E+03 -0.88308059522E+02  0.23424450084E+03  0.00000000000E+00 0.  1.
         15    1    6    6    0    0 -0.84902756060E+02 -0.34873198898E+03 -0.15250819238E+03  0.38997593114E+03  0.00000000000E+00 0. -1.
         15    1    3    3    0    0 -0.12013467128E+04  0.29630869246E+03  0.54944580956E+02  0.12385683964E+04  0.00000000000E+00 0. -1.
        -16    1    5    5    0    0  0.15224221384E+04  0.10153843287E+04 -0.10344169993E+04  0.21020925362E+04  0.00000000000E+00 0.  1.
         16    1    4    4    0    0  0.15577428248E+03 -0.30352856415E+03  0.42026906683E+02  0.34374623957E+03  0.00000000000E+00 0. -1.
    9900018    1    1    2    0    0 -0.65097892798E+03 -0.20253103497E+02  0.78031608143E+03  0.10204862166E+04  0.91187600000E+02 0.  0.
<mgrwt>
<rscale>  0 0.57934176E+04</rscale>
<asrwt>0</asrwt>
<pdfrwt beam="1">  1        2 0.48018952E+00 0.57934176E+04</pdfrwt>
<pdfrwt beam="2">  1       -2 0.41359025E+00 0.57934176E+04</pdfrwt>
<totfact> 0.60348041E-03</totfact>
</mgrwt>
</event>
