<event>
12    1  0.3453217E-015  0.1520726E+04  0.7818608E-02  0.9242298E-01
         -2   -1    0    0    0  501 -0.00000000000E+00  0.00000000000E+00  0.98072089965E+03  0.98072089965E+03  0.00000000000E+00 0.  1.
          2   -1    0    0  501    0  0.00000000000E+00 -0.00000000000E+00 -0.99713637363E+03  0.99713637363E+03  0.00000000000E+00 0. -1.
         23    2    1    2    0    0  0.34384240233E+03 -0.70157371135E+02  0.24104887968E+03  0.43549051087E+03  0.91639338160E+02 0.  0.
    9900016    2    1    2    0    0  0.56983147649E+02  0.13059793623E+03  0.20169276054E+03  0.69991424424E+03  0.65490234353E+03 0.  0.
         23    2    4    4    0    0 -0.48934599731E+02 -0.20736972347E+03 -0.81681821678E+02  0.24632647758E+03  0.92779395884E+02 0.  0.
        -15    1    5    5    0    0 -0.18633179605E+02 -0.19957128469E+03 -0.64116813809E+02  0.21044443178E+03  0.00000000000E+00 0.  1.
        -15    1    3    3    0    0  0.14549325850E+03  0.27606806573E+01  0.60713034314E+02  0.15767682824E+03  0.00000000000E+00 0.  1.
         15    1    3    3    0    0  0.19834914383E+03 -0.72918051792E+02  0.18033584537E+03  0.27781368264E+03  0.00000000000E+00 0. -1.
         15    1    5    5    0    0 -0.30301420126E+02 -0.77984387790E+01 -0.17565007868E+02  0.35882045795E+02  0.00000000000E+00 0. -1.
        -16    1    4    4    0    0  0.10591774738E+03  0.33796765970E+03  0.28337458222E+03  0.45358776666E+03  0.00000000000E+00 0.  1.
         16    1    1    2    0    0 -0.46356273444E+03 -0.41030000628E+02 -0.53331670035E+03  0.70781393924E+03  0.00000000000E+00 0. -1.
    9900018    1    1    2    0    0  0.62737184458E+02 -0.19410564472E+02  0.74159586144E+02  0.13463857894E+03  0.91187600000E+02 0.  0.
<mgrwt>
<rscale>  0 0.10627314E+04</rscale>
<asrwt>0</asrwt>
<pdfrwt beam="1">  1        2 0.15340560E+00 0.15207259E+04</pdfrwt>
<pdfrwt beam="2">  1       -2 0.15088014E+00 0.15207259E+04</pdfrwt>
<totfact> 0.71140742E+00</totfact>
</mgrwt>
</event>
<event>
12    1  0.3453217E-015  0.1126833E+04  0.7818608E-02  0.9814337E-01
          1   -1    0    0  501    0  0.00000000000E+00  0.00000000000E+00  0.57817199392E+03  0.57817199392E+03  0.00000000000E+00 0. -1.
         -1   -1    0    0    0  501 -0.00000000000E+00 -0.00000000000E+00 -0.68311312766E+03  0.68311312766E+03  0.00000000000E+00 0.  1.
         23    2    1    2    0    0  0.55597244775E+02  0.49718051594E+02  0.32838454865E+02  0.12606013070E+03  0.96176162088E+02 0.  0.
    9900016    2    1    2    0    0  0.25164159983E+02  0.17574614260E+03 -0.20597382308E+03  0.71573922530E+03  0.66207060141E+03 0.  0.
         23    2    4    4    0    0  0.94930187257E+02  0.33602977089E+02  0.22078021055E+03  0.26055686264E+03  0.94895083010E+02 0.  0.
        -15    1    5    5    0    0  0.40271488366E+02 -0.15721760596E+02  0.21849870206E+02  0.48439481413E+02  0.00000000000E+00 0.  1.
        -15    1    3    3    0    0  0.67578952235E+02 -0.26629377620E+01  0.13594155010E+02  0.68984107396E+02  0.00000000000E+00 0. -1.
         15    1    3    3    0    0 -0.11981707461E+02  0.52380989356E+02  0.19244299855E+02  0.57076023307E+02  0.00000000000E+00 0.  1.
         15    1    5    5    0    0  0.54658698891E+02  0.49324737685E+02  0.19893034034E+03  0.21211738123E+03  0.00000000000E+00 0. -1.
        -16    1    4    4    0    0 -0.69766027274E+02  0.14214316551E+03 -0.42675403362E+03  0.45518236266E+03  0.00000000000E+00 0.  1.
         16    1    1    2    0    0 -0.11963426825E+03 -0.27579564109E+03  0.68416105026E+02  0.30831211006E+03  0.00000000000E+00 0. -1.
    9900018    1    1    2    0    0  0.38872863496E+02  0.50331446887E+02 -0.22187055492E+00  0.11117365552E+03  0.91187600000E+02 0.  0.
<mgrwt>
<rscale>  0 0.64598775E+03</rscale>
<asrwt>0</asrwt>
<pdfrwt beam="1">  1        1 0.88949538E-01 0.11268330E+04</pdfrwt>
<pdfrwt beam="2">  1       -1 0.10509433E+00 0.11268330E+04</pdfrwt>
<totfact> 0.30509578E+01</totfact>
</mgrwt>
</event>
<event>
12    1  0.3453217E-015  0.1106208E+04  0.7818608E-02  0.9199162E-01
         -1   -1    0    0    0  501 -0.00000000000E+00  0.00000000000E+00  0.44613608873E+03  0.44613608873E+03  0.00000000000E+00 0.  1.
          1   -1    0    0  501    0  0.00000000000E+00 -0.00000000000E+00 -0.68571926695E+03  0.68571926695E+03  0.00000000000E+00 0. -1.
         23    2    1    2    0    0  0.70688598926E+01  0.16461587206E+03  0.65882787638E+01  0.18827438204E+03  0.90859690736E+02 0.  0.
    9900016    2    1    2    0    0 -0.60184372741E+02 -0.16142756349E+03 -0.22518538958E+03  0.71841872627E+03  0.66010301438E+03 0.  0.
         23    2    4    4    0    0 -0.43567366928E+02 -0.23726118623E+03  0.17443544286E+03  0.31132700080E+03  0.91136116588E+02 0.  0.
        -15    1    3    3    0    0 -0.92862501732E+01  0.70714272544E+02  0.46284249784E+02  0.85023376560E+02  0.00000000000E+00 0.  1.
        -15    1    5    5    0    0 -0.50272562366E+02 -0.11336904786E+03  0.44734261703E+02  0.13183711810E+03  0.00000000000E+00 0.  1.
         15    1    3    3    0    0  0.16355110066E+02  0.93901599514E+02 -0.39695971020E+02  0.10325100548E+03  0.00000000000E+00 0. -1.
         15    1    5    5    0    0  0.67051954383E+01 -0.12389213837E+03  0.12970118116E+03  0.17948988270E+03  0.00000000000E+00 0. -1.
        -16    1    1    2    0    0  0.11023522137E+03  0.23349263956E+02 -0.19319705057E+02  0.11432516417E+03  0.00000000000E+00 0.  1.
         16    1    4    4    0    0 -0.16617005813E+02  0.75833622743E+02 -0.39962083245E+03  0.40709172547E+03  0.00000000000E+00 0. -1.
    9900018    1    1    2    0    0 -0.57119708524E+02 -0.26537572525E+02 -0.16663623512E+01  0.11083708321E+03  0.91187600000E+02 0.  0.
<mgrwt>
<rscale>  0 0.11062081E+04</rscale>
<asrwt>0</asrwt>
<pdfrwt beam="1">  1        1 0.10549527E+00 0.11062081E+04</pdfrwt>
<pdfrwt beam="2">  1       -1 0.68636321E-01 0.11062081E+04</pdfrwt>
<totfact> 0.60171591E+01</totfact>
</mgrwt>
</event>
<event>
12    1  0.3453217E-015  0.1078379E+04  0.7818608E-02  0.9226525E-01
          2   -1    0    0  501    0  0.00000000000E+00  0.00000000000E+00  0.47206890740E+03  0.47206890740E+03  0.00000000000E+00 0. -1.
         -2   -1    0    0    0  501 -0.00000000000E+00 -0.00000000000E+00 -0.61585338729E+03  0.61585338729E+03  0.00000000000E+00 0.  1.
         23    2    1    2    0    0 -0.10869824282E+03 -0.20899236486E+02  0.69094743208E+02  0.16046455019E+03  0.93395408085E+02 0.  0.
    9900016    2    1    2    0    0  0.24359349706E+02 -0.76517697044E+02 -0.23671282597E+03  0.79641901565E+03  0.75617587282E+03 0.  0.
         23    2    4    4    0    0  0.17172449198E+03 -0.31778094699E+03 -0.24982194307E+02  0.37321987361E+03  0.90525867072E+02 0.  0.
        -15    1    3    3    0    0 -0.48386870550E+02  0.36648411857E+02  0.37307881199E+02  0.71247970728E+02  0.00000000000E+00 0. -1.
        -15    1    5    5    0    0  0.14124959791E+03 -0.30554408436E+03 -0.90887574990E+01  0.33673616068E+03  0.00000000000E+00 0. -1.
         15    1    3    3    0    0 -0.60311372272E+02 -0.57547648343E+02  0.31786862009E+02  0.89216579466E+02  0.00000000000E+00 0.  1.
         15    1    5    5    0    0  0.30474894070E+02 -0.12236862633E+02 -0.15893436808E+02  0.36483712931E+02  0.00000000000E+00 0.  1.
        -16    1    4    4    0    0 -0.10827136702E+03  0.24422360681E+03 -0.15243805917E+03  0.30757961721E+03  0.00000000000E+00 0.  1.
         16    1    1    2    0    0  0.84338893117E+02  0.97416933530E+02  0.23833602873E+02  0.13103872884E+03  0.00000000000E+00 0. -1.
    9900018    1    4    4    0    0 -0.39093775253E+02 -0.29603568574E+01 -0.59292572492E+02  0.11561952483E+03  0.91187600000E+02 0.  0.
<mgrwt>
<rscale>  0 0.10783788E+04</rscale>
<asrwt>0</asrwt>
<pdfrwt beam="1">  1        2 0.72625986E-01 0.10783788E+04</pdfrwt>
<pdfrwt beam="2">  1       -2 0.94746674E-01 0.10783788E+04</pdfrwt>
<totfact> 0.61392975E+01</totfact>
</mgrwt>
</event>
<event>
12    1  0.3453217E-015  0.1058424E+04  0.7818608E-02  0.9884285E-01
         -1   -1    0    0    0  501 -0.00000000000E+00  0.00000000000E+00  0.14523896394E+03  0.14523896394E+03  0.00000000000E+00 0.  1.
          1   -1    0    0  501    0  0.00000000000E+00 -0.00000000000E+00 -0.25104240797E+04  0.25104240797E+04  0.00000000000E+00 0. -1.
         23    2    1    2    0    0  0.37450358957E+02 -0.63064816686E+02 -0.94422931802E+02  0.15034423710E+03  0.91148225931E+02 0.  0.
    9900016    2    1    2    0    0  0.51822470238E+02  0.93279143325E+02 -0.11418790864E+04  0.13243522077E+04  0.66229476453E+03 0.  0.
         23    2    4    4    0    0  0.33114751678E+03  0.13509517699E+03 -0.79862824005E+03  0.87983875931E+03  0.91650378358E+02 0.  0.
        -15    1    3    3    0    0 -0.15394052016E+02 -0.34678041252E+02 -0.80159907628E+02  0.88685704448E+02  0.00000000000E+00 0. -1.
        -15    1    5    5    0    0  0.10677970881E+03  0.33443678425E+02 -0.35745307730E+03  0.37455718964E+03  0.00000000000E+00 0.  1.
         15    1    3    3    0    0  0.52844410972E+02 -0.28386775433E+02 -0.14263024174E+02  0.61658532655E+02  0.00000000000E+00 0.  1.
         15    1    5    5    0    0  0.22436780798E+03  0.10165149856E+03 -0.44117516275E+03  0.50528156967E+03  0.00000000000E+00 0. -1.
        -16    1    4    4    0    0 -0.27932504655E+03 -0.41816033662E+02 -0.34325084639E+03  0.44451344844E+03  0.00000000000E+00 0.  1.
         16    1    1    2    0    0 -0.96838532033E+02 -0.66786366845E+02 -0.10448806991E+04  0.10514817143E+04  0.00000000000E+00 0. -1.
    9900018    1    1    2    0    0  0.75657028386E+01  0.36572040206E+02 -0.84002398378E+02  0.12948488449E+03  0.91187600000E+02 0.  0.
<mgrwt>
<rscale>  0 0.61028975E+03</rscale>
<asrwt>0</asrwt>
<pdfrwt beam="1">  1        1 0.38621905E+00 0.10584240E+04</pdfrwt>
<pdfrwt beam="2">  1       -1 0.22344458E-01 0.10584240E+04</pdfrwt>
<totfact> 0.22813829E+01</totfact>
</mgrwt>
</event>
<event>
12    1  0.3453217E-015  0.1140181E+04  0.7818608E-02  0.9428367E-01
          3   -1    0    0  501    0  0.00000000000E+00  0.00000000000E+00  0.80118316037E+03  0.80118316037E+03  0.00000000000E+00 0. -1.
         -3   -1    0    0    0  501 -0.00000000000E+00 -0.00000000000E+00 -0.80421137784E+03  0.80421137784E+03  0.00000000000E+00 0.  1.
         23    2    1    2    0    0  0.21329951527E+03 -0.37221348484E+03 -0.13254356895E+03  0.45788103939E+03  0.89708901722E+02 0.  0.
    9900016    2    1    2    0    0 -0.35441693018E+03  0.19777694058E+03  0.14940356661E+03  0.79568543034E+03  0.66788232475E+03 0.  0.
         23    2    4    4    0    0 -0.42485697159E+02 -0.10180383210E+02  0.35476094704E+03  0.36822900409E+03  0.88479349220E+02 0.  0.
        -15    1    3    3    0    0  0.16693012470E+03 -0.23709784046E+03 -0.12217308794E+03  0.31465427996E+03  0.00000000000E+00 0.  1.
        -15    1    5    5    0    0 -0.56245225394E+02  0.21848570953E+02  0.17475848867E+03  0.18488216462E+03  0.00000000000E+00 0.  1.
         15    1    3    3    0    0  0.46369390576E+02 -0.13511564439E+03 -0.10370481010E+02  0.14322675943E+03  0.00000000000E+00 0. -1.
         15    1    5    5    0    0  0.13759528235E+02 -0.32028954163E+02  0.18000245837E+03  0.18334683947E+03  0.00000000000E+00 0. -1.
        -16    1    4    4    0    0 -0.31193123302E+03  0.20795732379E+03 -0.20535738043E+03  0.42745642626E+03  0.00000000000E+00 0.  1.
         16    1    1    2    0    0  0.16972900129E+03  0.15867557313E+03 -0.70143022020E+02  0.24270540769E+03  0.00000000000E+00 0. -1.
    9900018    1    1    2    0    0 -0.28611586382E+02  0.15760971127E+02  0.50254806888E+02  0.10912266078E+03  0.91187600000E+02 0.  0.
<mgrwt>
<rscale>  0 0.89777540E+03</rscale>
<asrwt>0</asrwt>
<pdfrwt beam="1">  1        3 0.12325895E+00 0.11401811E+04</pdfrwt>
<pdfrwt beam="2">  1       -3 0.12372483E+00 0.11401811E+04</pdfrwt>
<totfact> 0.70884387E-01</totfact>
</mgrwt>
</event>
<event>
12    1  0.3453217E-015  0.1787873E+04  0.7818608E-02  0.8712775E-01
          1   -1    0    0  501    0  0.00000000000E+00  0.00000000000E+00  0.57100821620E+03  0.57100821620E+03  0.00000000000E+00 0. -1.
         -1   -1    0    0    0  501 -0.00000000000E+00 -0.00000000000E+00 -0.13994932430E+04  0.13994932430E+04  0.00000000000E+00 0.  1.
         23    2    1    2    0    0 -0.17314009193E+03  0.55018891146E+03  0.25801339158E+02  0.58452254405E+03  0.91189723536E+02 0.  0.
    9900016    2    1    2    0    0  0.17676356793E+03 -0.50125347671E+03 -0.55107335166E+03  0.10788210756E+04  0.76004780600E+03 0.  0.
         23    2    4    4    0    0 -0.10566351595E+03  0.23089536856E+02 -0.39185611905E+03  0.41661381204E+03  0.91202768757E+02 0.  0.
        -15    1    3    3    0    0 -0.16148504945E+03  0.54277717383E+03  0.14173232584E+02  0.56646744139E+03  0.00000000000E+00 0.  1.
        -15    1    5    5    0    0 -0.82808979885E+02 -0.26440407970E+02 -0.23995408588E+03  0.25521439155E+03  0.00000000000E+00 0. -1.
         15    1    3    3    0    0 -0.11655042478E+02  0.74117376276E+01  0.11628106574E+02  0.18055102667E+02  0.00000000000E+00 0. -1.
         15    1    5    5    0    0 -0.22854536068E+02  0.49529944826E+02 -0.15190203317E+03  0.16139942049E+03  0.00000000000E+00 0.  1.
        -16    1    1    2    0    0 -0.36234759977E+01 -0.48935434752E+02 -0.30321301432E+03  0.30715783957E+03  0.00000000000E+00 0.  1.
         16    1    4    4    0    0  0.20822602411E+03 -0.42575290957E+03 -0.55892829853E+02  0.47722911223E+03  0.00000000000E+00 0. -1.
    9900018    1    4    4    0    0  0.74201059769E+02 -0.98590103990E+02 -0.10332440276E+03  0.18497815134E+03  0.91187600000E+02 0.  0.
<mgrwt>
<rscale>  0 0.17878726E+04</rscale>
<asrwt>0</asrwt>
<pdfrwt beam="1">  1        1 0.87847419E-01 0.17878726E+04</pdfrwt>
<pdfrwt beam="2">  1       -1 0.21530665E+00 0.17878726E+04</pdfrwt>
<totfact> 0.41106409E+00</totfact>
</mgrwt>
</event>
<event>
12    1  0.3453217E-015  0.8616391E+03  0.7818608E-02  0.9941350E-01
          2   -1    0    0  501    0  0.00000000000E+00  0.00000000000E+00  0.89570540297E+03  0.89570540297E+03  0.00000000000E+00 0. -1.
         -2   -1    0    0    0  501 -0.00000000000E+00 -0.00000000000E+00 -0.30615502675E+03  0.30615502675E+03  0.00000000000E+00 0.  1.
         23    2    1    2    0    0 -0.26734677755E+02  0.15461132166E+03  0.14909684231E+03  0.23417185305E+03  0.89371050101E+02 0.  0.
    9900016    2    1    2    0    0  0.19095771879E+02 -0.13314013699E+03  0.29613485781E+03  0.73611833029E+03  0.66036610876E+03 0.  0.
         23    2    4    4    0    0  0.19717178877E+03  0.14522122944E+03 -0.40034854385E+02  0.26473081082E+03  0.92269674678E+02 0.  0.
        -15    1    5    5    0    0  0.17081950738E+03  0.75031386335E+02 -0.24624558665E+02  0.18818974979E+03  0.00000000000E+00 0. -1.
        -15    1    3    3    0    0 -0.50029840042E+02  0.49032848228E+02  0.40429651466E+02  0.80881158607E+02  0.00000000000E+00 0. -1.
         15    1    3    3    0    0  0.23295162287E+02  0.10557847343E+03  0.10866719085E+03  0.15329069445E+03  0.00000000000E+00 0.  1.
         15    1    5    5    0    0  0.26352281391E+02  0.70189843101E+02 -0.15410295720E+02  0.76541061028E+02  0.00000000000E+00 0.  1.
        -16    1    4    4    0    0 -0.17807601690E+03 -0.27836136642E+03  0.33616971220E+03  0.47138751947E+03  0.00000000000E+00 0.  1.
         16    1    1    2    0    0 -0.18167067456E+02 -0.39446884654E+02  0.12614889335E+03  0.13341530025E+03  0.00000000000E+00 0. -1.
    9900018    1    1    2    0    0  0.25805973331E+02  0.17975699985E+02  0.18169782746E+02  0.98154946122E+02  0.91187600000E+02 0.  0.
<mgrwt>
<rscale>  0 0.58298476E+03</rscale>
<asrwt>0</asrwt>
<pdfrwt beam="1">  1        2 0.13780083E+00 0.86163906E+03</pdfrwt>
<pdfrwt beam="2">  1       -2 0.47100774E-01 0.86163906E+03</pdfrwt>
<totfact> 0.12676686E+02</totfact>
</mgrwt>
</event>
<event>
12    1  0.3453217E-015  0.9532510E+03  0.7818608E-02  0.9911206E-01
          2   -1    0    0  501    0  0.00000000000E+00  0.00000000000E+00  0.14324705122E+04  0.14324705122E+04  0.00000000000E+00 0. -1.
         -2   -1    0    0    0  501 -0.00000000000E+00 -0.00000000000E+00 -0.23358883312E+03  0.23358883312E+03  0.00000000000E+00 0.  1.
         23    2    1    2    0    0  0.80479406878E+02  0.70531452396E+02  0.17265512088E+02  0.14786825722E+03  0.10057486205E+03 0.  0.
    9900016    2    1    2    0    0 -0.23181423454E+03 -0.66542067025E+02  0.91828757571E+03  0.12144476236E+04  0.75727489900E+03 0.  0.
         23    2    4    4    0    0  0.38718582170E+02 -0.31987668254E+03  0.31648078228E+03  0.45871880683E+03  0.80266042318E+02 0.  0.
        -15    1    3    3    0    0  0.11869073942E+02  0.57206749015E+02  0.43892670529E+02  0.73075670201E+02  0.00000000000E+00 0. -1.
        -15    1    5    5    0    0  0.44007527718E+02 -0.21610082600E+03  0.16682695268E+03  0.27652750611E+03  0.00000000000E+00 0. -1.
         15    1    3    3    0    0  0.68610332936E+02  0.13324703381E+02 -0.26627158441E+02  0.74792587015E+02  0.00000000000E+00 0.  1.
         15    1    5    5    0    0 -0.52889455478E+01 -0.10377585654E+03  0.14965382959E+03  0.18219130072E+03  0.00000000000E+00 0.  1.
        -16    1    4    4    0    0 -0.23034334453E+03  0.26620211682E+03  0.42011232873E+03  0.54810217307E+03  0.00000000000E+00 0.  1.
         16    1    1    2    0    0  0.15133482766E+03 -0.39893853707E+01  0.26332859124E+03  0.30374346450E+03  0.00000000000E+00 0. -1.
    9900018    1    4    4    0    0 -0.40189472179E+02 -0.12867501307E+02  0.18169446471E+03  0.20762664367E+03  0.91187600000E+02 0.  0.
<mgrwt>
<rscale>  0 0.59721261E+03</rscale>
<asrwt>0</asrwt>
<pdfrwt beam="1">  1        2 0.22038007E+00 0.95325097E+03</pdfrwt>
<pdfrwt beam="2">  1       -2 0.35936744E-01 0.95325097E+03</pdfrwt>
<totfact> 0.10110616E+02</totfact>
</mgrwt>
</event>
<event>
12    1  0.3453217E-015  0.1077131E+04  0.7818608E-02  0.9706913E-01
         -2   -1    0    0    0  501 -0.00000000000E+00  0.00000000000E+00  0.45146061278E+03  0.45146061278E+03  0.00000000000E+00 0.  1.
          2   -1    0    0  501    0  0.00000000000E+00 -0.00000000000E+00 -0.94570887431E+03  0.94570887431E+03  0.00000000000E+00 0. -1.
         23    2    1    2    0    0 -0.26441604236E+02 -0.17919823357E+03 -0.19665211907E+03  0.27968322560E+03  0.82094368869E+02 0.  0.
    9900016    2    1    2    0    0 -0.20572484395E+01 -0.39968646105E+02 -0.32579651000E+03  0.74037065188E+03  0.66362912180E+03 0.  0.
         23    2    4    4    0    0  0.37024133995E+01  0.30028100073E+03 -0.22295430142E+03  0.38487168460E+03  0.90748034798E+02 0.  0.
        -15    1    5    5    0    0  0.30178818776E+02  0.11173457989E+03 -0.44747761090E+02  0.12408762859E+03  0.00000000000E+00 0.  1.
        -15    1    3    3    0    0 -0.34537453171E+02 -0.46673440658E+02 -0.99357165325E+02  0.11507863414E+03  0.00000000000E+00 0.  1.
         15    1    3    3    0    0  0.80958489344E+01 -0.13252479291E+03 -0.97294953747E+02  0.16460459146E+03  0.00000000000E+00 0. -1.
         15    1    5    5    0    0 -0.26476405377E+02  0.18854642084E+03 -0.17820654033E+03  0.26078405601E+03  0.00000000000E+00 0. -1.
        -16    1    1    2    0    0  0.57008315600E+02  0.20697136068E+03  0.11839484230E+03  0.24516205023E+03  0.00000000000E+00 0.  1.
         16    1    4    4    0    0 -0.57596618390E+01 -0.34024964683E+03 -0.10284220858E+03  0.35549896729E+03  0.00000000000E+00 0. -1.
    9900018    1    1    2    0    0 -0.28509462925E+02  0.12195518991E+02 -0.90194474765E+02  0.13195355937E+03  0.91187600000E+02 0.  0.
<mgrwt>
<rscale>  0 0.70606669E+03</rscale>
<asrwt>0</asrwt>
<pdfrwt beam="1">  1        2 0.14549367E+00 0.10771314E+04</pdfrwt>
<pdfrwt beam="2">  1       -2 0.69455480E-01 0.10771314E+04</pdfrwt>
<totfact> 0.51260056E+01</totfact>
</mgrwt>
</event>
<event>
12    1  0.3453217E-015  0.1538896E+04  0.7818608E-02  0.8858992E-01
          2   -1    0    0  501    0  0.00000000000E+00  0.00000000000E+00  0.13329234590E+04  0.13329234590E+04  0.00000000000E+00 0. -1.
         -2   -1    0    0    0  501 -0.00000000000E+00 -0.00000000000E+00 -0.44417418618E+03  0.44417418618E+03  0.00000000000E+00 0.  1.
         23    2    1    2    0    0 -0.20773062486E+03  0.37780337368E+03  0.10848146099E+03  0.45484343886E+03  0.96056883311E+02 0.  0.
    9900016    2    1    2    0    0  0.24885911108E+03 -0.33113021073E+03  0.43312798231E+03  0.96958439225E+03  0.76217843777E+03 0.  0.
         23    2    4    4    0    0 -0.24356549824E+01 -0.45601394429E+03  0.26567513799E+03  0.53584076683E+03  0.92668218112E+02 0.  0.
        -15    1    5    5    0    0 -0.37934743680E+02 -0.90886580484E+02  0.57360083358E+02  0.11397190203E+03  0.00000000000E+00 0. -1.
        -15    1    3    3    0    0 -0.16453771787E+03  0.21640425762E+03  0.91803383854E+02  0.28693435592E+03  0.00000000000E+00 0. -1.
         15    1    5    5    0    0  0.35499088698E+02 -0.36512736380E+03  0.20831505463E+03  0.42186886479E+03  0.00000000000E+00 0.  1.
         15    1    3    3    0    0 -0.43192906985E+02  0.16139911606E+03  0.16678077135E+02  0.16790908295E+03  0.00000000000E+00 0.  1.
        -16    1    1    2    0    0 -0.41128486218E+02 -0.46673162948E+02  0.34713982949E+03  0.35266981404E+03  0.00000000000E+00 0.  1.
         16    1    4    4    0    0  0.18566431323E+03  0.18164573283E+03  0.56206115029E+02  0.26575465533E+03  0.00000000000E+00 0. -1.
    9900018    1    4    4    0    0  0.65630452827E+02 -0.56761999278E+02  0.11124672929E+03  0.16798897009E+03  0.91187600000E+02 0.  0.
<mgrwt>
<rscale>  0 0.15388960E+04</rscale>
<asrwt>0</asrwt>
<pdfrwt beam="1">  1        2 0.20506515E+00 0.15388960E+04</pdfrwt>
<pdfrwt beam="2">  1       -2 0.68334491E-01 0.15388960E+04</pdfrwt>
<totfact> 0.29854799E+01</totfact>
</mgrwt>
</event>
