<event>
11    1  0.2769879E-008  0.2497036E+04  0.7818608E-02  0.8404042E-01
         -2   -1    0    0    0  501 -0.00000000000E+00  0.00000000000E+00  0.11671872805E+04  0.11671872805E+04  0.00000000000E+00 0.  1.
          2   -1    0    0  501    0  0.00000000000E+00 -0.00000000000E+00 -0.13355163387E+04  0.13355163387E+04  0.00000000000E+00 0. -1.
    9900016    2    1    2    0    0 -0.37224378948E+02  0.27874858532E+03 -0.19275853555E+03  0.22204214420E+04  0.21940895831E+04 0.  0.
        -24    2    3    3    0    0  0.30569398514E+03  0.45354765686E+03  0.15318344362E+03  0.57347093030E+03  0.79053468663E+02 0.  0.
        -15    1    3    3    0    0  0.25210136045E+03  0.49227154261E+02  0.13194049093E+03  0.28876755670E+03  0.00000000000E+00 0.  1.
        -15    1    3    3    0    0 -0.18020009303E+03  0.10096688180E+03 -0.41897243499E+03  0.46712341627E+03  0.00000000000E+00 0.  1.
         15    1    3    3    0    0  0.18435684392E+03 -0.14445763600E+03  0.72461410800E+02  0.24516547586E+03  0.00000000000E+00 0. -1.
         15    1    4    4    0    0  0.17035666496E+03  0.27633719180E+03  0.12847570011E+03  0.34912697173E+03  0.00000000000E+00 0. -1.
        -16    1    4    4    0    0  0.13533732018E+03  0.17721046505E+03  0.24707743514E+02  0.22434395857E+03  0.00000000000E+00 0.  1.
         16    1    1    2    0    0  0.37224378948E+02 -0.27874858532E+03  0.24429477400E+02  0.28228217722E+03  0.00000000000E+00 0. -1.
    9900018    1    3    3    0    0 -0.59917647543E+03 -0.18053547160E+03 -0.13137144591E+03  0.64589406283E+03  0.91187600000E+02 0.  0.
<mgrwt>
<rscale>  0 0.24970364E+04</rscale>
<asrwt>0</asrwt>
<pdfrwt beam="1">  1        2 0.20546405E+00 0.24970364E+04</pdfrwt>
<pdfrwt beam="2">  1       -2 0.17956728E+00 0.24970364E+04</pdfrwt>
<totfact> 0.25677639E+00</totfact>
</mgrwt>
</event>
<event>
11    1  0.2769880E-008  0.2679508E+04  0.7818608E-02  0.8341685E-01
         -1   -1    0    0    0  501 -0.00000000000E+00  0.00000000000E+00  0.29419990419E+04  0.29419990419E+04  0.00000000000E+00 0.  1.
          1   -1    0    0  501    0  0.00000000000E+00 -0.00000000000E+00 -0.61010932793E+03  0.61010932793E+03  0.00000000000E+00 0. -1.
    9900016    2    1    2    0    0 -0.36366889997E+02  0.35178226198E+03  0.16203552055E+04  0.27575300746E+04  0.22030315045E+04 0.  0.
         24    2    3    3    0    0  0.37093511333E+03 -0.48862653010E+03  0.45460143339E+03  0.76787814567E+03  0.81398029146E+02 0.  0.
        -15    1    4    4    0    0  0.27491347663E+03 -0.32539515186E+03  0.35133277138E+03  0.55217220206E+03  0.00000000000E+00 0.  1.
        -15    1    3    3    0    0  0.52342403899E+01 -0.50999298392E+02  0.26436594727E+03  0.26929106890E+03  0.00000000000E+00 0.  1.
         15    1    3    3    0    0 -0.31276737865E+03  0.48622053410E+02  0.50194247901E+03  0.59340861931E+03  0.00000000000E+00 0. -1.
         15    1    3    3    0    0  0.76951833731E+02  0.46066667738E+02 -0.12408096079E+03  0.15310064474E+03  0.00000000000E+00 0. -1.
        -16    1    1    2    0    0  0.36366889997E+02 -0.35178226198E+03  0.71153450850E+03  0.79457829527E+03  0.00000000000E+00 0.  1.
         16    1    4    4    0    0  0.96021636709E+02 -0.16323137824E+03  0.10326866201E+03  0.21570594362E+03  0.00000000000E+00 0. -1.
    9900018    1    3    3    0    0 -0.17672069880E+03  0.79671936932E+03  0.52352630658E+03  0.97385159594E+03  0.91187600000E+02 0.  0.
<mgrwt>
<rscale>  0 0.26795082E+04</rscale>
<asrwt>0</asrwt>
<pdfrwt beam="1">  1        1 0.93862975E-01 0.26795082E+04</pdfrwt>
<pdfrwt beam="2">  1       -1 0.45261523E+00 0.26795082E+04</pdfrwt>
<totfact> 0.90658036E-02</totfact>
</mgrwt>
</event>
<event>
11    1  0.2769879E-008  0.2514393E+04  0.7818608E-02  0.8397876E-01
          1   -1    0    0  501    0  0.00000000000E+00  0.00000000000E+00  0.23233368135E+04  0.23233368135E+04  0.00000000000E+00 0. -1.
         -1   -1    0    0    0  501 -0.00000000000E+00 -0.00000000000E+00 -0.68029017639E+03  0.68029017639E+03  0.00000000000E+00 0.  1.
    9900016    2    1    2    0    0 -0.25221287367E+03  0.31409126900E+02  0.16275304773E+04  0.27489927068E+04  0.22007970330E+04 0.  0.
        -24    2    3    3    0    0  0.43384080447E+03  0.26878000939E+03  0.14852618587E+03  0.53751569208E+03  0.80015962590E+02 0.  0.
        -15    1    3    3    0    0 -0.19180677687E+03  0.68654200381E+02  0.21072534479E+03  0.29310136441E+03  0.00000000000E+00 0.  1.
        -15    1    3    3    0    0 -0.47802215383E+02 -0.27129049930E+03  0.66997493973E+03  0.72439630498E+03  0.00000000000E+00 0.  1.
         15    1    4    4    0    0  0.25119733973E+03  0.20038223844E+03  0.84683882236E+02  0.33230182798E+03  0.00000000000E+00 0. -1.
         15    1    3    3    0    0  0.59673081196E+02 -0.38487415735E+03  0.35160499173E+03  0.52470473966E+03  0.00000000000E+00 0. -1.
        -16    1    4    4    0    0  0.18264346475E+03  0.68397770949E+02  0.63842303639E+02  0.20521386410E+03  0.00000000000E+00 0.  1.
         16    1    1    2    0    0  0.25221287367E+03 -0.31409126900E+02  0.15516159758E+02  0.25463428306E+03  0.00000000000E+00 0. -1.
    9900018    1    3    3    0    0 -0.50611776708E+03  0.35013957378E+03  0.24669901518E+03  0.66927460565E+03  0.91187600000E+02 0.  0.
<mgrwt>
<rscale>  0 0.25143931E+04</rscale>
<asrwt>0</asrwt>
<pdfrwt beam="1">  1        1 0.35743643E+00 0.25143931E+04</pdfrwt>
<pdfrwt beam="2">  1       -1 0.10466003E+00 0.25143931E+04</pdfrwt>
<totfact> 0.13649204E+00</totfact>
</mgrwt>
</event>
<event>
11    1  0.2769879E-008  0.2503611E+04  0.7818608E-02  0.8401700E-01
          2   -1    0    0  501    0  0.00000000000E+00  0.00000000000E+00  0.15379906662E+04  0.15379906662E+04  0.00000000000E+00 0. -1.
         -2   -1    0    0    0  501 -0.00000000000E+00 -0.00000000000E+00 -0.10188729019E+04  0.10188729019E+04  0.00000000000E+00 0.  1.
    9900016    2    1    2    0    0  0.10428902627E+03 -0.19825366266E+03  0.23957986124E+03  0.21986427493E+04  0.21740401821E+04 0.  0.
        -24    2    3    3    0    0  0.76964908174E+03 -0.20287903745E+03 -0.60279927262E+01  0.80004992712E+03  0.80770887895E+02 0.  0.
        -15    1    3    3    0    0 -0.35427370680E+03  0.16911356548E+03  0.19008678905E+02  0.39302746371E+03  0.00000000000E+00 0.  1.
        -15    1    3    3    0    0 -0.14455184972E+02  0.20559630953E+03 -0.20772698698E+03  0.29262483829E+03  0.00000000000E+00 0.  1.
         15    1    4    4    0    0  0.49525726215E+03 -0.15001977730E+03 -0.37550093433E+02  0.51884072586E+03  0.00000000000E+00 0. -1.
         15    1    3    3    0    0  0.29651614342E+02  0.27500696266E+02  0.15115120333E+02  0.43173758128E+02  0.00000000000E+00 0. -1.
        -16    1    4    4    0    0  0.27439181958E+03 -0.52859260145E+02  0.31522100706E+02  0.28120920126E+03  0.00000000000E+00 0.  1.
         16    1    1    2    0    0 -0.10428902627E+03  0.19825366266E+03  0.27953790308E+03  0.35822081879E+03  0.00000000000E+00 0. -1.
    9900018    1    3    3    0    0 -0.32628277804E+03 -0.39758519649E+03  0.41921104170E+03  0.66976676208E+03  0.91187600000E+02 0.  0.
<mgrwt>
<rscale>  0 0.25036110E+04</rscale>
<asrwt>0</asrwt>
<pdfrwt beam="1">  1        2 0.23661395E+00 0.25036110E+04</pdfrwt>
<pdfrwt beam="2">  1       -2 0.15674968E+00 0.25036110E+04</pdfrwt>
<totfact> 0.28696713E+00</totfact>
</mgrwt>
</event>
<event>
11    1  0.2769879E-008  0.2774857E+04  0.7818608E-02  0.8311117E-01
         -1   -1    0    0    0  501 -0.00000000000E+00  0.00000000000E+00  0.47932158094E+03  0.47932158094E+03  0.00000000000E+00 0.  1.
          1   -1    0    0  501    0  0.00000000000E+00 -0.00000000000E+00 -0.40160044927E+04  0.40160044927E+04  0.00000000000E+00 0. -1.
    9900016    2    1    2    0    0  0.42636115458E+03 -0.15115746196E+03 -0.24861003723E+04  0.33514921326E+04  0.22016294060E+04 0.  0.
        -24    2    3    3    0    0  0.39071884458E+02 -0.25604487230E+03 -0.18241309740E+03  0.32704631455E+03  0.81235244630E+02 0.  0.
        -15    1    3    3    0    0  0.54377810227E+03 -0.61722277175E+03 -0.11748977835E+04  0.14342396509E+04  0.00000000000E+00 0.  1.
        -15    1    3    3    0    0 -0.98596456370E+02  0.89289160499E+02 -0.12551131194E+03  0.18288494967E+03  0.00000000000E+00 0.  1.
         15    1    3    3    0    0 -0.15965815044E+03 -0.13192971004E+03 -0.25714736206E+03  0.33018319038E+03  0.00000000000E+00 0. -1.
         15    1    4    4    0    0 -0.20483772026E+02 -0.13109514745E+03 -0.81026706647E+02  0.15546977131E+03  0.00000000000E+00 0. -1.
        -16    1    4    4    0    0  0.59555656484E+02 -0.12494972485E+03 -0.10138639075E+03  0.17157654324E+03  0.00000000000E+00 0.  1.
         16    1    1    2    0    0 -0.42636115458E+03  0.15115746196E+03 -0.10505825394E+04  0.11438339410E+04  0.00000000000E+00 0. -1.
    9900018    1    3    3    0    0  0.10176577467E+03  0.76475073164E+03 -0.74613081738E+03  0.10771380271E+04  0.91187600000E+02 0.  0.
<mgrwt>
<rscale>  0 0.27748568E+04</rscale>
<asrwt>0</asrwt>
<pdfrwt beam="1">  1        1 0.61784686E+00 0.27748568E+04</pdfrwt>
<pdfrwt beam="2">  1       -1 0.73741779E-01 0.27748568E+04</pdfrwt>
<totfact> 0.14934113E-01</totfact>
</mgrwt>
</event>
<event>
11    1  0.2769879E-008  0.3184207E+04  0.7818608E-02  0.8193001E-01
         -2   -1    0    0    0  501 -0.00000000000E+00  0.00000000000E+00  0.11952530801E+04  0.11952530801E+04  0.00000000000E+00 0.  1.
          2   -1    0    0  501    0  0.00000000000E+00 -0.00000000000E+00 -0.21207172482E+04  0.21207172482E+04  0.00000000000E+00 0. -1.
    9900016    2    1    2    0    0  0.30090128580E+03 -0.43362635254E+03 -0.88970187486E+01  0.22582989537E+04  0.21957371450E+04 0.  0.
        -24    2    3    3    0    0 -0.28711760605E+03 -0.27848289248E+03 -0.10784110222E+03  0.42169400769E+03  0.78783828843E+02 0.  0.
        -15    1    3    3    0    0 -0.22293808914E+03 -0.16120321243E+03  0.11128605235E+03  0.29677003342E+03  0.00000000000E+00 0.  1.
        -15    1    3    3    0    0  0.26548829014E+03 -0.67370606990E+02 -0.16686088989E+03  0.32072634357E+03  0.00000000000E+00 0.  1.
         15    1    3    3    0    0 -0.10758178763E+03 -0.96256964779E+02 -0.34544245054E+03  0.37439248247E+03  0.00000000000E+00 0. -1.
         15    1    4    4    0    0 -0.11867510225E+03 -0.16547479370E+03 -0.70199076172E+02  0.21539173044E+03  0.00000000000E+00 0. -1.
        -16    1    4    4    0    0 -0.16844250380E+03 -0.11300809877E+03 -0.37642026052E+02  0.20630227725E+03  0.00000000000E+00 0.  1.
         16    1    1    2    0    0 -0.30090128580E+03  0.43362635254E+03 -0.91656714935E+03  0.10576713746E+04  0.00000000000E+00 0. -1.
    9900018    1    3    3    0    0  0.65305047848E+03  0.16968732414E+03  0.49996137156E+03  0.84471608654E+03  0.91187600000E+02 0.  0.
<mgrwt>
<rscale>  0 0.31842072E+04</rscale>
<asrwt>0</asrwt>
<pdfrwt beam="1">  1        2 0.32626419E+00 0.31842072E+04</pdfrwt>
<pdfrwt beam="2">  1       -2 0.18388509E+00 0.31842072E+04</pdfrwt>
<totfact> 0.82254694E-01</totfact>
</mgrwt>
</event>
<event>
11    1  0.2769879E-008  0.3091167E+04  0.7818608E-02  0.8218166E-01
         -1   -1    0    0    0  501 -0.00000000000E+00  0.00000000000E+00  0.13712186238E+04  0.13712186238E+04  0.00000000000E+00 0.  1.
          1   -1    0    0  501    0  0.00000000000E+00 -0.00000000000E+00 -0.17421207811E+04  0.17421207811E+04  0.00000000000E+00 0. -1.
    9900016    2    1    2    0    0  0.63442713354E+03 -0.25645778223E+03  0.60125192537E+02  0.23046039982E+04  0.21998445781E+04 0.  0.
        -24    2    3    3    0    0  0.65940489191E+02 -0.10171934703E+04  0.15973926821E+03  0.10350339736E+04  0.82146141405E+02 0.  0.
        -15    1    3    3    0    0  0.15690795600E+03  0.45693529407E+03  0.15884202238E+02  0.48338626118E+03  0.00000000000E+00 0.  1.
        -15    1    3    3    0    0  0.36428933830E+03  0.29517985209E+03  0.22556276524E+02  0.46941096353E+03  0.00000000000E+00 0.  1.
         15    1    3    3    0    0 -0.13402233473E+02  0.10448188887E+03 -0.13492909691E+03  0.17117811238E+03  0.00000000000E+00 0. -1.
         15    1    4    4    0    0  0.77878060750E+02 -0.67827105735E+03  0.12563692891E+03  0.69419108140E+03  0.00000000000E+00 0. -1.
        -16    1    4    4    0    0 -0.11937571559E+02 -0.33892241298E+03  0.34102339296E+02  0.34084289222E+03  0.00000000000E+00 0.  1.
         16    1    1    2    0    0 -0.63442713354E+03  0.25645778223E+03 -0.43102734978E+03  0.80873540673E+03  0.00000000000E+00 0. -1.
    9900018    1    3    3    0    0  0.60691583526E+02 -0.95861346926E+02 -0.31254575188E+01  0.14559468749E+03  0.91187600000E+02 0.  0.
<mgrwt>
<rscale>  0 0.30911671E+04</rscale>
<asrwt>0</asrwt>
<pdfrwt beam="1">  1        1 0.26801858E+00 0.30911671E+04</pdfrwt>
<pdfrwt beam="2">  1       -1 0.21095671E+00 0.30911671E+04</pdfrwt>
<totfact> 0.47712873E-01</totfact>
</mgrwt>
</event>
<event>
11    1  0.2769879E-008  0.2687933E+04  0.7818608E-02  0.8338931E-01
         -1   -1    0    0    0  501 -0.00000000000E+00  0.00000000000E+00  0.76527116455E+03  0.76527116455E+03  0.00000000000E+00 0.  1.
          1   -1    0    0  501    0  0.00000000000E+00 -0.00000000000E+00 -0.23602690299E+04  0.23602690299E+04  0.00000000000E+00 0. -1.
    9900016    2    1    2    0    0 -0.39283206912E+03  0.31103273508E+01 -0.10750275246E+04  0.24738532574E+04  0.21931573249E+04 0.  0.
        -24    2    3    3    0    0  0.18873500417E+03  0.41213464888E+03 -0.79782062572E+03  0.92112274486E+03  0.80457999422E+02 0.  0.
        -15    1    3    3    0    0  0.46170405455E+02 -0.30943745568E+03 -0.24795004315E+03  0.39920229110E+03  0.00000000000E+00 0.  1.
        -15    1    3    3    0    0 -0.52132663777E+03 -0.10975925777E+03  0.24688115434E+03  0.58717873113E+03  0.00000000000E+00 0.  1.
         15    1    3    3    0    0 -0.16140985543E+03 -0.83005795543E+02 -0.35907091580E+03  0.40233695592E+03  0.00000000000E+00 0. -1.
         15    1    4    4    0    0  0.72446847093E+02  0.25331898681E+03 -0.44891131759E+03  0.52051938080E+03  0.00000000000E+00 0. -1.
        -16    1    4    4    0    0  0.11628815707E+03  0.15881566207E+03 -0.34890930813E+03  0.40060336406E+03  0.00000000000E+00 0.  1.
         16    1    1    2    0    0  0.39283206912E+03 -0.31103273508E+01 -0.51997034068E+03  0.65168693699E+03  0.00000000000E+00 0. -1.
    9900018    1    3    3    0    0  0.54999014461E+02  0.93178187460E+02  0.82932905686E+02  0.16401253443E+03  0.91187600000E+02 0.  0.
<mgrwt>
<rscale>  0 0.26879329E+04</rscale>
<asrwt>0</asrwt>
<pdfrwt beam="1">  1        1 0.36311831E+00 0.26879329E+04</pdfrwt>
<pdfrwt beam="2">  1       -1 0.11773403E+00 0.26879329E+04</pdfrwt>
<totfact> 0.95883806E-01</totfact>
</mgrwt>
</event>
