<event>
12    1  0.2830732E-013  0.1917461E+04  0.7818608E-02  0.8646213E-01
          1   -1    0    0  501    0  0.00000000000E+00  0.00000000000E+00  0.20515234629E+04  0.20515234629E+04  0.00000000000E+00 0. -1.
         -1   -1    0    0    0  501 -0.00000000000E+00 -0.00000000000E+00 -0.44803991674E+03  0.44803991674E+03  0.00000000000E+00 0.  1.
         24    2    1    2    0    0 -0.42475431926E+01  0.62626166136E+01 -0.18764871668E+02  0.82207098999E+02  0.79678257555E+02 0.  0.
    9900016    2    1    2    0    0 -0.14189472500E+02  0.71621116206E+02  0.15033861527E+04  0.22740592553E+04  0.17046538204E+04 0.  0.
        -24    2    4    4    0    0 -0.72738688963E+02 -0.30478197144E+03  0.86994506830E+03  0.92824442923E+03  0.81549564922E+02 0.  0.
        -15    1    4    4    0    0  0.25444067014E+03 -0.32841782779E+03  0.38902193365E+03  0.56915409960E+03  0.00000000000E+00 0.  1.
        -15    1    3    3    0    0 -0.58211739332E+01 -0.35747108578E+02 -0.17311945061E+02  0.40142811056E+02  0.00000000000E+00 0.  1.
         15    1    5    5    0    0 -0.30739579816E+02 -0.18000726528E+03  0.39113457637E+03  0.43166398292E+03  0.00000000000E+00 0. -1.
         15    1    1    2    0    0  0.18437015692E+02 -0.77883732820E+02  0.11886226510E+03  0.14329702527E+03  0.00000000000E+00 0. -1.
        -16    1    5    5    0    0 -0.41999109147E+02 -0.12477470616E+03  0.47881049193E+03  0.49658044631E+03  0.00000000000E+00 0.  1.
         16    1    3    3    0    0  0.15736307406E+01  0.42009725192E+02 -0.14529266078E+01  0.42064287943E+02  0.00000000000E+00 0. -1.
    9900018    1    4    4    0    0 -0.19589145368E+03  0.70482091543E+03  0.24441915073E+03  0.77666072650E+03  0.91187600000E+02 0.  0.
<mgrwt>
<rscale>  0 0.19174612E+04</rscale>
<asrwt>0</asrwt>
<pdfrwt beam="1">  1        1 0.31561899E+00 0.19174612E+04</pdfrwt>
<pdfrwt beam="2">  1       -1 0.68929219E-01 0.19174612E+04</pdfrwt>
<totfact> 0.54699816E+00</totfact>
</mgrwt>
</event>
<event>
12    1  0.2830732E-013  0.4966444E+04  0.7818608E-02  0.8645780E-01
         -1   -1    0    0    0  501 -0.00000000000E+00  0.00000000000E+00  0.15680995388E+04  0.15680995388E+04  0.00000000000E+00 0.  1.
          1   -1    0    0  501    0  0.00000000000E+00 -0.00000000000E+00 -0.41167451909E+04  0.41167451909E+04  0.00000000000E+00 0. -1.
         24    2    1    2    0    0 -0.46041314737E+02  0.62271996452E+02 -0.93009943934E+02  0.14447342149E+03  0.78893064600E+02 0.  0.
    9900016    2    1    2    0    0  0.40014112226E+03  0.18788374878E+04 -0.27771036088E+03  0.26015532598E+04  0.17322855121E+04 0.  0.
        -24    2    4    4    0    0 -0.48651417246E+03  0.66681196434E+02  0.45808785913E+02  0.49897472097E+03  0.75729157783E+02 0.  0.
        -15    1    3    3    0    0  0.12272354074E+02  0.16668119032E+02 -0.59904777138E+02  0.63379958903E+02  0.00000000000E+00 0.  1.
        -15    1    4    4    0    0  0.42046488703E+03  0.56140018237E+03  0.77953569470E+02  0.70571782249E+03  0.00000000000E+00 0.  1.
         15    1    1    2    0    0 -0.35409980752E+03 -0.19411094843E+04 -0.21779253473E+04  0.29388180485E+04  0.00000000000E+00 0. -1.
         15    1    5    5    0    0 -0.31508724305E+03  0.18322695044E+02  0.23320381415E+01  0.31562815192E+03  0.00000000000E+00 0. -1.
        -16    1    5    5    0    0 -0.17142692942E+03  0.48358501390E+02  0.43476747771E+02  0.18334656905E+03  0.00000000000E+00 0.  1.
         16    1    3    3    0    0 -0.58313668811E+02  0.45603877420E+02 -0.33105166796E+02  0.81093462588E+02  0.00000000000E+00 0. -1.
    9900018    1    4    4    0    0  0.46619040770E+03  0.12507561090E+04 -0.40147271626E+03  0.13968607163E+04  0.91187600000E+02 0.  0.
<mgrwt>
<rscale>  0 0.19183408E+04</rscale>
<asrwt>0</asrwt>
<pdfrwt beam="1">  1        1 0.63334541E+00 0.49664442E+04</pdfrwt>
<pdfrwt beam="2">  1       -1 0.24124609E+00 0.49664442E+04</pdfrwt>
<totfact> 0.43096781E-03</totfact>
</mgrwt>
</event>
<event>
12    1  0.2830732E-013  0.4589443E+04  0.7818608E-02  0.8315905E-01
          1   -1    0    0  501    0  0.00000000000E+00  0.00000000000E+00  0.35044347650E+04  0.35044347650E+04  0.00000000000E+00 0. -1.
         -1   -1    0    0    0  501 -0.00000000000E+00 -0.00000000000E+00 -0.21754166117E+04  0.21754166117E+04  0.00000000000E+00 0.  1.
         24    2    1    2    0    0 -0.37669934368E+03  0.46013069893E+03 -0.45795703332E+03  0.75478601069E+03  0.79715882585E+02 0.  0.
    9900016    2    1    2    0    0  0.17718697416E+04 -0.89629536152E+03  0.21848889338E+03  0.27810296144E+04  0.19348179665E+04 0.  0.
        -24    2    4    4    0    0  0.33470862074E+03  0.42626458939E+03  0.56424220978E+03  0.78627588132E+03  0.78288755768E+02 0.  0.
        -15    1    4    4    0    0  0.85283504880E+03 -0.82825966962E+03 -0.27871498630E+03  0.12210748316E+04  0.00000000000E+00 0.  1.
        -15    1    3    3    0    0 -0.10099945800E+03  0.93827210559E+02 -0.14255391415E+03  0.19830797865E+03  0.00000000000E+00 0.  1.
         15    1    1    2    0    0 -0.13951703979E+04  0.43616466259E+03  0.15684862933E+04  0.21440357516E+04  0.00000000000E+00 0. -1.
         15    1    5    5    0    0  0.17935170415E+03  0.25512798071E+03  0.37365047823E+03  0.48669497656E+03  0.00000000000E+00 0. -1.
        -16    1    5    5    0    0  0.15535691659E+03  0.17113660868E+03  0.19059173155E+03  0.29958090476E+03  0.00000000000E+00 0.  1.
         16    1    3    3    0    0 -0.27569988569E+03  0.36630348837E+03 -0.31540311917E+03  0.55647803204E+03  0.00000000000E+00 0. -1.
    9900018    1    4    4    0    0  0.58432607204E+03 -0.49430028130E+03 -0.67038330093E+02  0.77367890151E+03  0.91187600000E+02 0.  0.
<mgrwt>
<rscale>  0 0.27596524E+04</rscale>
<asrwt>0</asrwt>
<pdfrwt beam="1">  1        1 0.53914381E+00 0.45894432E+04</pdfrwt>
<pdfrwt beam="2">  1       -1 0.33467948E+00 0.45894432E+04</pdfrwt>
<totfact> 0.35131906E-03</totfact>
</mgrwt>
</event>
<event>
11    1  0.2830732E-013  0.4739502E+04  0.7818608E-02  0.7869998E-01
          1   -1    0    0  501    0  0.00000000000E+00  0.00000000000E+00  0.26953548876E+04  0.26953548876E+04  0.00000000000E+00 0. -1.
         -1   -1    0    0    0  501 -0.00000000000E+00 -0.00000000000E+00 -0.20834803875E+04  0.20834803875E+04  0.00000000000E+00 0.  1.
        -24    2    1    2    0    0 -0.68542496838E+03  0.61827666823E+03  0.43911367735E+03  0.10257011327E+04  0.84667386185E+02 0.  0.
         24    2    1    2    0    0  0.23729272501E+03 -0.24433245226E+02 -0.23002867403E+03  0.34110488627E+03  0.80836450622E+02 0.  0.
        -15    1    1    2    0    0  0.47698803399E+03  0.32486172196E+03 -0.98975573564E+03  0.11457177398E+04  0.00000000000E+00 0.  1.
        -15    1    4    4    0    0  0.69766571481E+02  0.20799532028E+02 -0.37410871293E+02  0.81850890769E+02  0.00000000000E+00 0.  1.
         15    1    3    3    0    0 -0.44148444062E+03  0.44309250186E+03  0.27272771342E+03  0.68236345314E+03  0.00000000000E+00 0. -1.
         15    1    1    2    0    0 -0.18828892352E+02  0.21782442403E+03  0.10546483379E+04  0.10770724783E+04  0.00000000000E+00 0. -1.
        -16    1    3    3    0    0 -0.24394052776E+03  0.17518416637E+03  0.16638596393E+03  0.34333767959E+03  0.00000000000E+00 0.  1.
         16    1    4    4    0    0  0.16752615353E+03 -0.45232777254E+02 -0.19261780273E+03  0.25925399550E+03  0.00000000000E+00 0. -1.
    9900018    1    1    2    0    0 -0.10026898261E+02 -0.11365295690E+04  0.33789689444E+03  0.11892390380E+04  0.91187600000E+02 0.  0.
<mgrwt>
<rscale>  0 0.47395017E+04</rscale>
<asrwt>0</asrwt>
<pdfrwt beam="1">  1        1 0.41466998E+00 0.47395017E+04</pdfrwt>
<pdfrwt beam="2">  1       -1 0.32053544E+00 0.47395017E+04</pdfrwt>
<totfact> 0.17695235E-02</totfact>
</mgrwt>
</event>
<event>
12    1  0.2830732E-013  0.3471521E+04  0.7818608E-02  0.8120572E-01
         -1   -1    0    0    0  501 -0.00000000000E+00  0.00000000000E+00  0.17902566996E+04  0.17902566996E+04  0.00000000000E+00 0.  1.
          1   -1    0    0  501    0  0.00000000000E+00 -0.00000000000E+00 -0.16829235012E+04  0.16829235012E+04  0.00000000000E+00 0. -1.
         24    2    1    2    0    0 -0.47222276619E+03 -0.22552976609E+03 -0.77287601364E+03  0.93683802284E+03  0.80437132504E+02 0.  0.
    9900016    2    1    2    0    0  0.31383802257E+03 -0.22651799486E+03  0.95720137521E+03  0.20512023029E+04  0.17723971643E+04 0.  0.
        -24    2    4    4    0    0  0.35199477509E+03  0.58891298375E+03  0.40750146823E+03  0.80183351473E+03  0.78490219854E+02 0.  0.
        -15    1    4    4    0    0 -0.50683358536E+02 -0.86932516493E+02 -0.18502456383E+03  0.21061850459E+03  0.00000000000E+00 0.  1.
        -15    1    3    3    0    0 -0.17283718786E+03 -0.41115437831E+02 -0.27087005687E+03  0.32393480894E+03  0.00000000000E+00 0.  1.
         15    1    1    2    0    0  0.15838474363E+03  0.45204776095E+03 -0.76992163264E+02  0.48513987508E+03  0.00000000000E+00 0. -1.
         15    1    5    5    0    0  0.18512655340E+03  0.37979683831E+03  0.26455992267E+03  0.49850720340E+03  0.00000000000E+00 0. -1.
        -16    1    5    5    0    0  0.16686822169E+03  0.20911614544E+03  0.14294154556E+03  0.30332631132E+03  0.00000000000E+00 0.  1.
         16    1    3    3    0    0 -0.29938557834E+03 -0.18441432826E+03 -0.50200595676E+03  0.61290321390E+03  0.00000000000E+00 0. -1.
    9900018    1    4    4    0    0  0.12526606015E+02 -0.72849846212E+03  0.73472447081E+03  0.10387502835E+04  0.91187600000E+02 0.  0.
<mgrwt>
<rscale>  0 0.34715213E+04</rscale>
<asrwt>0</asrwt>
<pdfrwt beam="1">  1        1 0.25891131E+00 0.34715213E+04</pdfrwt>
<pdfrwt beam="2">  1       -1 0.27542411E+00 0.34715213E+04</pdfrwt>
<totfact> 0.19077063E-01</totfact>
</mgrwt>
</event>
<event>
12    1  0.2830732E-013  0.2905288E+04  0.7818608E-02  0.8850049E-01
          1   -1    0    0  501    0  0.00000000000E+00  0.00000000000E+00  0.34141736254E+04  0.34141736254E+04  0.00000000000E+00 0. -1.
         -1   -1    0    0    0  501 -0.00000000000E+00 -0.00000000000E+00 -0.79477779761E+03  0.79477779761E+03  0.00000000000E+00 0.  1.
        -24    2    1    2    0    0  0.13415505757E+03 -0.17804477333E+03  0.66880817379E+03  0.70959571159E+03  0.80772395031E+02 0.  0.
    9900016    2    1    2    0    0 -0.98538363424E+03  0.11573501708E+03  0.10411107179E+04  0.22521103896E+04  0.17331226671E+04 0.  0.
         24    2    4    4    0    0 -0.61151569677E+03  0.59014550362E+03  0.55691066416E+02  0.85529733739E+03  0.78796431559E+02 0.  0.
        -15    1    1    2    0    0  0.85122857667E+03  0.62309756242E+02  0.90947693606E+03  0.12472453218E+04  0.00000000000E+00 0.  1.
        -15    1    5    5    0    0 -0.15609706244E+03  0.20065059648E+03  0.15377151367E+02  0.25468296282E+03  0.00000000000E+00 0.  1.
         15    1    4    4    0    0  0.17625334755E+03 -0.19574616517E+03  0.62142313882E+03  0.67494334663E+03  0.00000000000E+00 0. -1.
         15    1    3    3    0    0 -0.34926505609E+01 -0.24670233810E+02  0.33852364481E+02  0.42033339448E+02  0.00000000000E+00 0. -1.
        -16    1    3    3    0    0  0.13764770813E+03 -0.15337453951E+03  0.63495580930E+03  0.66756237214E+03  0.00000000000E+00 0.  1.
         16    1    5    5    0    0 -0.45541863434E+03  0.38949490714E+03  0.40313915049E+02  0.60061437457E+03  0.00000000000E+00 0. -1.
    9900018    1    4    4    0    0 -0.55012128502E+03 -0.27866432137E+03  0.36399651270E+03  0.72186970562E+03  0.91187600000E+02 0.  0.
<mgrwt>
<rscale>  0 0.15528514E+04</rscale>
<asrwt>0</asrwt>
<pdfrwt beam="1">  1        1 0.52525747E+00 0.29052880E+04</pdfrwt>
<pdfrwt beam="2">  1       -1 0.12227351E+00 0.29052880E+04</pdfrwt>
<totfact> 0.14623008E-01</totfact>
</mgrwt>
</event>
<event>
12    1  0.2830733E-013  0.3588188E+04  0.7818608E-02  0.8800682E-01
          1   -1    0    0  501    0  0.00000000000E+00  0.00000000000E+00  0.26214222916E+04  0.26214222916E+04  0.00000000000E+00 0. -1.
         -1   -1    0    0    0  501 -0.00000000000E+00 -0.00000000000E+00 -0.13686732977E+04  0.13686732977E+04  0.00000000000E+00 0.  1.
         24    2    1    2    0    0 -0.75331751758E+02  0.10726739234E+03 -0.65800254748E+02  0.16731365566E+03  0.80517200409E+02 0.  0.
    9900016    2    1    2    0    0  0.60800470639E+03 -0.60111654690E+03 -0.39390249152E+03  0.19626425769E+04  0.17221486248E+04 0.  0.
        -24    2    4    4    0    0 -0.11171648350E+03 -0.51597507895E+02  0.46509032984E+03  0.48757330701E+03  0.79220194965E+02 0.  0.
        -15    1    4    4    0    0 -0.12318074040E+03 -0.13585386767E+03  0.21510553315E+02  0.18464146899E+03  0.00000000000E+00 0.  1.
        -15    1    3    3    0    0 -0.27966928932E+02  0.10096260250E+02  0.14083082980E+02  0.32900103513E+02  0.00000000000E+00 0.  1.
         15    1    5    5    0    0 -0.19825925248E+01 -0.31362023566E+02  0.15142879626E+03  0.15465505983E+03  0.00000000000E+00 0. -1.
         15    1    1    2    0    0 -0.53267295463E+03  0.49384915456E+03  0.17124517402E+04  0.18601393568E+04  0.00000000000E+00 0. -1.
        -16    1    5    5    0    0 -0.10973389098E+03 -0.20235484329E+02  0.31366153358E+03  0.33291824718E+03  0.00000000000E+00 0.  1.
         16    1    3    3    0    0 -0.47364822826E+02  0.97171132095E+02 -0.79883337728E+02  0.13441355215E+03  0.00000000000E+00 0. -1.
    9900018    1    4    4    0    0  0.84290193029E+03 -0.41366517133E+03 -0.88050337467E+03  0.12904278009E+04  0.91187600000E+02 0.  0.
<mgrwt>
<rscale>  0 0.16327429E+04</rscale>
<asrwt>0</asrwt>
<pdfrwt beam="1">  1        1 0.40329574E+00 0.35881875E+04</pdfrwt>
<pdfrwt beam="2">  1       -1 0.21056512E+00 0.35881875E+04</pdfrwt>
<totfact> 0.11422106E-01</totfact>
</mgrwt>
</event>
