<event>
13    1  0.3547328E-010  0.6367647E+04  0.7818608E-02  0.7646417E-01
          2   -1    0    0  501    0  0.00000000000E+00  0.00000000000E+00  0.28414605316E+04  0.28414605316E+04  0.00000000000E+00 0. -1.
         -2   -1    0    0    0  501 -0.00000000000E+00 -0.00000000000E+00 -0.35674369340E+04  0.35674369340E+04  0.00000000000E+00 0.  1.
    9900016    2    1    2    0    0  0.35570457078E+03  0.37367927276E+03 -0.18690956748E+04  0.29949152744E+04  0.22825067182E+04 0.  0.
         23    2    3    3    0    0 -0.33822581080E+03 -0.10623335511E+03  0.41883818806E+03  0.55637126911E+03  0.91876746128E+02 0.  0.
    9900016    2    1    2    0    0 -0.30064049940E+03  0.41923903523E+03  0.36861692537E+03  0.23004649894E+04  0.22113603621E+04 0.  0.
         24    2    5    5    0    0 -0.27878327864E+03 -0.13912670340E+02  0.12689395026E+04  0.13011257670E+04  0.69333407820E+02 0.  0.
        -15    1    6    6    0    0 -0.22200808622E+03 -0.29104346013E+02  0.10907275278E+04  0.11134725830E+04  0.00000000000E+00 0.  1.
        -15    1    4    4    0    0 -0.12021833536E+03 -0.13900031112E+02  0.88381541314E+02  0.14985645087E+03  0.00000000000E+00 0.  1.
         15    1    5    5    0    0 -0.21857220766E+02  0.43315170557E+03 -0.90032257728E+03  0.99933922233E+03  0.00000000000E+00 0. -1.
         15    1    4    4    0    0 -0.21800747544E+03 -0.92333323994E+02  0.33045664675E+03  0.40651481824E+03  0.00000000000E+00 0. -1.
        -16    1    3    3    0    0  0.69393038158E+03  0.47991262787E+03 -0.22879338628E+04  0.24385440052E+04  0.00000000000E+00 0.  1.
         16    1    6    6    0    0 -0.56775192413E+02  0.15191675674E+02  0.17821197486E+03  0.18765318400E+03  0.00000000000E+00 0. -1.
    9900018    1    1    2    0    0 -0.55064071374E+02 -0.79291830799E+03  0.77450234700E+03  0.11135172019E+04  0.91187600000E+02 0.  0.
<mgrwt>
<rscale>  0 0.63676467E+04</rscale>
<asrwt>0</asrwt>
<pdfrwt beam="1">  1        2 0.43714778E+00 0.63676467E+04</pdfrwt>
<pdfrwt beam="2">  1       -2 0.54883645E+00 0.63676467E+04</pdfrwt>
<totfact> 0.12612052E-03</totfact>
</mgrwt>
</event>
<event>
13    1  0.3547328E-010  0.6337415E+04  0.7818608E-02  0.7649918E-01
         -2   -1    0    0    0  501 -0.00000000000E+00  0.00000000000E+00  0.22157740060E+04  0.22157740060E+04  0.00000000000E+00 0.  1.
          2   -1    0    0  501    0  0.00000000000E+00 -0.00000000000E+00 -0.45314677598E+04  0.45314677598E+04  0.00000000000E+00 0. -1.
    9900016    2    1    2    0    0  0.15886757244E+04  0.30582755178E+03  0.30649732067E+03  0.28029974236E+04  0.22683546681E+04 0.  0.
         23    2    3    3    0    0  0.16606049437E+03 -0.41165299073E+03 -0.76064811004E+03  0.88533953131E+03  0.90588441992E+02 0.  0.
    9900016    2    1    2    0    0 -0.13801032954E+04 -0.25224687138E+03 -0.20840382011E+04  0.33574760396E+04  0.22273564022E+04 0.  0.
         24    2    5    5    0    0  0.41087198833E+03 -0.57434464552E+03 -0.20532399581E+03  0.74196337312E+03  0.98306363815E+02 0.  0.
        -15    1    6    6    0    0  0.38233788621E+03 -0.52969797817E+03 -0.16083788272E+03  0.67277859050E+03  0.00000000000E+00 0.  1.
        -15    1    4    4    0    0  0.48615692897E+01 -0.10200725899E+03 -0.14060026627E+03  0.17377442453E+03  0.00000000000E+00 0.  1.
         15    1    5    5    0    0 -0.17909752838E+04  0.32209777413E+03 -0.18787142053E+04  0.26155126664E+04  0.00000000000E+00 0. -1.
         15    1    4    4    0    0  0.16119892508E+03 -0.30964573174E+03 -0.62004784377E+03  0.71156510679E+03  0.00000000000E+00 0. -1.
        -16    1    3    3    0    0  0.14226152300E+04  0.71748054251E+03  0.10671454307E+04  0.19176578923E+04  0.00000000000E+00 0.  1.
         16    1    6    6    0    0  0.28534102115E+02 -0.44646667346E+02 -0.44486113089E+02  0.69184782622E+02  0.00000000000E+00 0. -1.
    9900018    1    1    2    0    0 -0.20857242895E+03 -0.53580680396E+02 -0.53815287341E+03  0.58676830264E+03  0.91187600000E+02 0.  0.
<mgrwt>
<rscale>  0 0.63374154E+04</rscale>
<asrwt>0</asrwt>
<pdfrwt beam="1">  1        2 0.69714888E+00 0.63374154E+04</pdfrwt>
<pdfrwt beam="2">  1       -2 0.34088831E+00 0.63374154E+04</pdfrwt>
<totfact> 0.13171832E-03</totfact>
</mgrwt>
</event>
<event>
12    1  0.3547328E-010  0.4525271E+04  0.7818608E-02  0.8303772E-01
          2   -1    0    0  501    0  0.00000000000E+00  0.00000000000E+00  0.19233644362E+04  0.19233644362E+04  0.00000000000E+00 0.  1.
         -2   -1    0    0    0  501 -0.00000000000E+00 -0.00000000000E+00 -0.35544522407E+04  0.35544522407E+04  0.00000000000E+00 0. -1.
         23    2    1    2    0    0 -0.25288022251E+03  0.60483450440E+03 -0.45224527308E+03  0.80152080661E+03  0.90203280247E+02 0.  0.
    9900016    2    1    2    0    0  0.10513566551E+04  0.53626993395E+03 -0.74962538371E+03  0.26024807049E+04  0.21950014453E+04 0.  0.
        -24    2    4    4    0    0 -0.80976721804E+02  0.11644953018E+04 -0.16208217483E+03  0.11804916010E+04  0.68434283927E+02 0.  0.
        -15    1    3    3    0    0 -0.26428561650E+02  0.38584637718E+02 -0.61362440697E+02  0.77153044444E+02  0.00000000000E+00 0. -1.
        -15    1    4    4    0    0  0.11323333769E+04 -0.62822536783E+03 -0.58754320888E+03  0.14219891039E+04  0.00000000000E+00 0.  1.
         15    1    5    5    0    0 -0.23521121890E+02  0.37411337818E+03 -0.19978783624E+02  0.37538408957E+03  0.00000000000E+00 0. -1.
         15    1    3    3    0    0 -0.22645166086E+03  0.56624986668E+03 -0.39088283238E+03  0.72436776217E+03  0.00000000000E+00 0.  1.
        -16    1    5    5    0    0 -0.57455599914E+02  0.79038192360E+03 -0.14210339121E+03  0.80510751140E+03  0.00000000000E+00 0.  1.
         16    1    1    2    0    0 -0.85494328496E+03 -0.14429632577E+04 -0.22093388475E+03  0.16917100121E+04  0.00000000000E+00 0. -1.
    9900018    1    1    2    0    0  0.56466852322E+02  0.30185881932E+03 -0.20828326296E+03  0.38210515337E+03  0.91187600000E+02 0.  0.
<mgrwt>
<rscale>  0 0.27983788E+04</rscale>
<asrwt>0</asrwt>
<pdfrwt beam="1">  1        2 0.29590223E+00 0.45252705E+04</pdfrwt>
<pdfrwt beam="2">  1       -2 0.54683880E+00 0.45252705E+04</pdfrwt>
<totfact> 0.48536600E-03</totfact>
</mgrwt>
</event>
