<event>
12    1  0.6358592E-010  0.2275279E+04  0.7818608E-02  0.9267409E-01
         -2   -1    0    0    0  501 -0.00000000000E+00  0.00000000000E+00  0.80006062204E+03  0.80006062204E+03  0.00000000000E+00 0.  1.
          2   -1    0    0  501    0  0.00000000000E+00 -0.00000000000E+00 -0.17768522706E+04  0.17768522706E+04  0.00000000000E+00 0. -1.
         23    2    1    2    0    0 -0.22869679033E+02 -0.27510810579E+02  0.50312127525E+01  0.98834569059E+02  0.91995065202E+02 0.  0.
    9900016    2    1    2    0    0  0.82253841736E+02 -0.29918104620E+03 -0.58799160951E+03  0.19629500842E+04  0.18469336500E+04 0.  0.
        -24    2    4    4    0    0  0.25468007337E+03  0.62884355748E+03 -0.63312367483E+03  0.93136737998E+03  0.79331263135E+02 0.  0.
        -15    1    4    4    0    0  0.13274220407E+02 -0.73688325975E+03 -0.37774185792E+02  0.73797021114E+03  0.00000000000E+00 0.  1.
        -15    1    3    3    0    0 -0.48694377583E+02 -0.33327210558E+02  0.26564325033E+02  0.64710963030E+02  0.00000000000E+00 0.  1.
         15    1    3    3    0    0  0.25824698550E+02  0.58163999793E+01 -0.21533112281E+02  0.34123606029E+02  0.00000000000E+00 0. -1.
         15    1    5    5    0    0  0.88725820907E+02  0.32461022347E+03 -0.31452522869E+03  0.46061935257E+03  0.00000000000E+00 0. -1.
        -16    1    5    5    0    0  0.16595425246E+03  0.30423333401E+03 -0.31859844614E+03  0.47074802742E+03  0.00000000000E+00 0.  1.
         16    1    1    2    0    0 -0.59384162703E+02  0.32669185678E+03 -0.39383125179E+03  0.51512823933E+03  0.00000000000E+00 0. -1.
    9900018    1    4    4    0    0 -0.18570045204E+03 -0.19114134394E+03  0.82906251116E+02  0.29361249312E+03  0.91187600000E+02 0.  0.
<mgrwt>
<rscale>  0 0.10383946E+04</rscale>
<asrwt>0</asrwt>
<pdfrwt beam="1">  1        2 0.27336188E+00 0.22752793E+04</pdfrwt>
<pdfrwt beam="2">  1       -2 0.12308625E+00 0.22752793E+04</pdfrwt>
<totfact> 0.40100430E+00</totfact>
</mgrwt>
</event>
<event>
12    1  0.6358592E-010  0.2296973E+04  0.7818608E-02  0.9255493E-01
          1   -1    0    0  501    0  0.00000000000E+00  0.00000000000E+00  0.12305035609E+04  0.12305035609E+04  0.00000000000E+00 0. -1.
         -1   -1    0    0    0  501 -0.00000000000E+00 -0.00000000000E+00 -0.14408021781E+04  0.14408021781E+04  0.00000000000E+00 0.  1.
         23    2    1    2    0    0 -0.30601704321E+02 -0.17400263415E+02 -0.35587576099E+03  0.36972431129E+03  0.93857741412E+02 0.  0.
    9900016    2    1    2    0    0  0.30908043167E+03 -0.22302898348E+03  0.31432772216E+03  0.18968180622E+04  0.18313503771E+04 0.  0.
         24    2    4    4    0    0 -0.61507586595E+03 -0.68894842319E+02  0.24474771288E+03  0.67154338799E+03  0.89466523481E+02 0.  0.
        -15    1    5    5    0    0 -0.52152549725E+03 -0.85229445750E+02  0.18786026756E+03  0.56084256510E+03  0.00000000000E+00 0.  1.
        -15    1    3    3    0    0  0.24328628119E+02 -0.34922788599E+02 -0.15508684654E+03  0.16082105981E+03  0.00000000000E+00 0.  1.
         15    1    4    4    0    0  0.60908531648E+03 -0.38345164568E+02 -0.33138644369E+03  0.69445824170E+03  0.00000000000E+00 0. -1.
         15    1    3    3    0    0 -0.54930332440E+02  0.17522525184E+02 -0.20078891445E+03  0.20890325148E+03  0.00000000000E+00 0. -1.
        -16    1    1    2    0    0 -0.27847872734E+03  0.24042924690E+03 -0.16875057832E+03  0.40476336547E+03  0.00000000000E+00 0.  1.
         16    1    5    5    0    0 -0.93550368702E+02  0.16334603431E+02  0.56887445319E+02  0.11070082289E+03  0.00000000000E+00 0. -1.
    9900018    1    4    4    0    0  0.31507098113E+03 -0.11578897659E+03  0.40096645297E+03  0.53081643254E+03  0.91187600000E+02 0.  0.
<mgrwt>
<rscale>  0 0.10498557E+04</rscale>
<asrwt>0</asrwt>
<pdfrwt beam="1">  1        1 0.18930824E+00 0.22969729E+04</pdfrwt>
<pdfrwt beam="2">  1       -1 0.22166187E+00 0.22969729E+04</pdfrwt>
<totfact> 0.97357809E-01</totfact>
</mgrwt>
</event>
<event>
12    1  0.6358592E-010  0.2637238E+04  0.7818608E-02  0.8930353E-01
          1   -1    0    0  501    0  0.00000000000E+00  0.00000000000E+00  0.20112896773E+04  0.20112896773E+04  0.00000000000E+00 0. -1.
         -1   -1    0    0    0  501 -0.00000000000E+00 -0.00000000000E+00 -0.10382306413E+04  0.10382306413E+04  0.00000000000E+00 0.  1.
         23    2    1    2    0    0  0.18669637708E+03  0.98368508618E+02 -0.21838277654E+02  0.23086031707E+03  0.91036668024E+02 0.  0.
    9900016    2    1    2    0    0  0.48253329656E+03 -0.21805247674E+03  0.94643415373E+03  0.21370873450E+04  0.18414720871E+04 0.  0.
        -24    2    4    4    0    0 -0.56184000598E+03  0.79695923260E+02  0.35085365754E+03  0.67284353678E+03  0.87203804300E+02 0.  0.
        -15    1    3    3    0    0  0.16302677161E+03  0.56289537487E+02  0.10436801071E+02  0.17278647837E+03  0.00000000000E+00 0. -1.
        -15    1    4    4    0    0 -0.21912971116E+01  0.10750262642E+03 -0.94895705340E+02  0.14341133624E+03  0.00000000000E+00 0.  1.
         15    1    5    5    0    0 -0.13666773895E+03  0.38956104300E+02  0.12713607081E+03  0.19068096243E+03  0.00000000000E+00 0. -1.
         15    1    3    3    0    0  0.23669605471E+02  0.42078971131E+02 -0.32275078725E+02  0.58073838700E+02  0.00000000000E+00 0.  1.
        -16    1    5    5    0    0 -0.42517226703E+03  0.40739818960E+02  0.22371758673E+03  0.48216257436E+03  0.00000000000E+00 0.  1.
         16    1    1    2    0    0 -0.66922967364E+03  0.11968396812E+03  0.48463159856E+02  0.68157265656E+03  0.00000000000E+00 0. -1.
    9900018    1    4    4    0    0  0.10465645996E+04 -0.40525102642E+03  0.69047620153E+03  0.13208324719E+04  0.91187600000E+02 0.  0.
<mgrwt>
<rscale>  0 0.14328850E+04</rscale>
<asrwt>0</asrwt>
<pdfrwt beam="1">  1        1 0.30942918E+00 0.26372379E+04</pdfrwt>
<pdfrwt beam="2">  1       -1 0.15972779E+00 0.26372379E+04</pdfrwt>
<totfact> 0.74859698E-01</totfact>
</mgrwt>
</event>
<event>
12    1  0.6358592E-010  0.2058068E+04  0.7818608E-02  0.9198624E-01
          1   -1    0    0  501    0  0.00000000000E+00  0.00000000000E+00  0.14909229172E+04  0.14909229172E+04  0.00000000000E+00 0. -1.
         -1   -1    0    0    0  501 -0.00000000000E+00 -0.00000000000E+00 -0.84112944901E+03  0.84112944901E+03  0.00000000000E+00 0.  1.
         23    2    1    2    0    0  0.14243054114E+03 -0.26344371356E+02  0.11035668012E+03  0.20446302522E+03  0.92984121675E+02 0.  0.
    9900016    2    1    2    0    0 -0.15284961697E+03 -0.16843856905E+03  0.47023571620E+03  0.19206165424E+04  0.18482185252E+04 0.  0.
         24    2    4    4    0    0 -0.71728539338E+03  0.29891451265E+03  0.43047354341E+03  0.89202884606E+03  0.80992401998E+02 0.  0.
        -15    1    3    3    0    0  0.14444703100E+03 -0.41391054875E+01  0.11090560968E+03  0.18215963114E+03  0.00000000000E+00 0.  1.
        -15    1    5    5    0    0 -0.32052817921E+03  0.10423554661E+03  0.22023309244E+03  0.40262386647E+03  0.00000000000E+00 0.  1.
         15    1    3    3    0    0 -0.20164898612E+01 -0.22205265868E+02 -0.54892956412E+00  0.22303394076E+02  0.00000000000E+00 0. -1.
         15    1    4    4    0    0  0.51242110022E+03 -0.22632988324E+03 -0.27037810654E+03  0.62201681689E+03  0.00000000000E+00 0. -1.
        -16    1    1    2    0    0  0.10419075835E+02  0.19478294041E+03  0.69201071858E+02  0.20697279860E+03  0.00000000000E+00 0.  1.
         16    1    5    5    0    0 -0.39675721417E+03  0.19467896605E+03  0.21024045097E+03  0.48940497959E+03  0.00000000000E+00 0. -1.
    9900018    1    4    4    0    0  0.52014676194E+02 -0.24102319847E+03  0.31014027933E+03  0.40657087942E+03  0.91187600000E+02 0.  0.
<mgrwt>
<rscale>  0 0.11067637E+04</rscale>
<asrwt>0</asrwt>
<pdfrwt beam="1">  1        1 0.22937276E+00 0.20580681E+04</pdfrwt>
<pdfrwt beam="2">  1       -1 0.12940453E+00 0.20580681E+04</pdfrwt>
<totfact> 0.31265261E+00</totfact>
</mgrwt>
</event>
<event>
12    1  0.6358592E-010  0.2228287E+04  0.7818608E-02  0.9280103E-01
         -1   -1    0    0    0  501 -0.00000000000E+00  0.00000000000E+00  0.94358773626E+03  0.94358773626E+03  0.00000000000E+00 0.  1.
          1   -1    0    0  501    0  0.00000000000E+00 -0.00000000000E+00 -0.14937620611E+04  0.14937620611E+04  0.00000000000E+00 0. -1.
         23    2    1    2    0    0  0.37065513201E+02  0.10120848010E+02  0.72433539740E+02  0.12371562846E+03  0.92642620935E+02 0.  0.
    9900016    2    1    2    0    0  0.21638287122E+03  0.51399117957E+02 -0.26261460512E+03  0.18690940283E+04  0.18371397985E+04 0.  0.
        -24    2    4    4    0    0  0.59617057456E+03  0.16118943572E+02  0.25370626155E+03  0.65295424271E+03  0.79392705055E+02 0.  0.
        -15    1    4    4    0    0 -0.40947444408E+03  0.62483404311E+02 -0.80795220707E+03  0.90794287545E+03  0.00000000000E+00 0.  1.
        -15    1    3    3    0    0  0.53521295949E+02 -0.10331197175E+02  0.92400998892E+01  0.55286908044E+02  0.00000000000E+00 0.  1.
         15    1    5    5    0    0  0.16606697009E+03  0.34150258250E+02  0.50369629839E+02  0.17686598967E+03  0.00000000000E+00 0. -1.
         15    1    3    3    0    0 -0.16455782748E+02  0.20452045185E+02  0.63193439851E+02  0.68428720420E+02  0.00000000000E+00 0. -1.
        -16    1    5    5    0    0  0.43010360447E+03 -0.18031314678E+02  0.20333663171E+03  0.47608825304E+03  0.00000000000E+00 0.  1.
         16    1    1    2    0    0 -0.25344838442E+03 -0.61519965967E+02 -0.35999325942E+03  0.44454014060E+03  0.00000000000E+00 0. -1.
    9900018    1    4    4    0    0  0.29686740749E+02 -0.27203229926E+02  0.29163134040E+03  0.30819691009E+03  0.91187600000E+02 0.  0.
<mgrwt>
<rscale>  0 0.10263544E+04</rscale>
<asrwt>0</asrwt>
<pdfrwt beam="1">  1        1 0.22980955E+00 0.22282869E+04</pdfrwt>
<pdfrwt beam="2">  1       -1 0.14516734E+00 0.22282869E+04</pdfrwt>
<totfact> 0.22785734E+00</totfact>
</mgrwt>
</event>
<event>
12    1  0.6358592E-010  0.3076955E+04  0.7818608E-02  0.8957015E-01
          2   -1    0    0  501    0  0.00000000000E+00  0.00000000000E+00  0.13282045324E+04  0.13282045324E+04  0.00000000000E+00 0. -1.
         -2   -1    0    0    0  501 -0.00000000000E+00 -0.00000000000E+00 -0.20172578278E+04  0.20172578278E+04  0.00000000000E+00 0.  1.
         23    2    1    2    0    0 -0.66604957190E+01 -0.92147922477E+02 -0.18691680261E+03  0.22780377987E+03  0.91766383839E+02 0.  0.
    9900016    2    1    2    0    0 -0.70913620012E+03  0.56847332521E+02 -0.10224888149E+04  0.22320076443E+04  0.18520985336E+04 0.  0.
        -24    2    4    4    0    0 -0.84062099838E+03 -0.48064895720E+02 -0.19989082868E+03  0.86904181048E+03  0.79519983943E+02 0.  0.
        -15    1    4    4    0    0  0.43351156584E+03 -0.26479562822E+02  0.38995327521E+02  0.43606660103E+03  0.00000000000E+00 0.  1.
        -15    1    3    3    0    0 -0.39220711756E+02 -0.12753799561E+02 -0.85697251741E+02  0.95104903080E+02  0.00000000000E+00 0. -1.
         15    1    3    3    0    0  0.32560216037E+02 -0.79394122917E+02 -0.10121955087E+03  0.13269887679E+03  0.00000000000E+00 0.  1.
         15    1    5    5    0    0 -0.52209732966E+02 -0.13624148101E+02  0.35591189324E+01  0.54075326679E+02  0.00000000000E+00 0. -1.
        -16    1    5    5    0    0 -0.78841126542E+03 -0.34440747619E+02 -0.20344994761E+03  0.81496648380E+03  0.00000000000E+00 0.  1.
         16    1    1    2    0    0  0.71579669584E+03  0.35300589956E+02  0.52035232204E+03  0.88565093602E+03  0.00000000000E+00 0. -1.
    9900018    1    4    4    0    0 -0.30202676758E+03  0.13139179106E+03 -0.86159331369E+03  0.92689923276E+03  0.91187600000E+02 0.  0.
<mgrwt>
<rscale>  0 0.13955920E+04</rscale>
<asrwt>0</asrwt>
<pdfrwt beam="1">  1        2 0.20433916E+00 0.30769553E+04</pdfrwt>
<pdfrwt beam="2">  1       -2 0.31034735E+00 0.30769553E+04</pdfrwt>
<totfact> 0.36922105E-01</totfact>
</mgrwt>
</event>
<event>
12    1  0.6358592E-010  0.2481977E+04  0.7818608E-02  0.9027768E-01
         -1   -1    0    0    0  501 -0.00000000000E+00  0.00000000000E+00  0.97294169984E+03  0.97294169984E+03  0.00000000000E+00 0.  1.
          1   -1    0    0  501    0  0.00000000000E+00 -0.00000000000E+00 -0.20172498838E+04  0.20172498838E+04  0.00000000000E+00 0. -1.
         23    2    1    2    0    0  0.13104968345E+03 -0.96946927794E+02 -0.37502749810E+03  0.41955990024E+03  0.93873101665E+02 0.  0.
    9900016    2    1    2    0    0  0.69083457627E+02  0.27800071647E+03 -0.15965136719E+02  0.18637689278E+04  0.18415544543E+04 0.  0.
        -24    2    4    4    0    0 -0.61228929984E+03 -0.43898900845E+03  0.92102589486E+02  0.76294341188E+03  0.77396553574E+02 0.  0.
        -15    1    4    4    0    0  0.67517559540E+03  0.49449130044E+03 -0.16649879723E+03  0.85329102908E+03  0.00000000000E+00 0.  1.
        -15    1    3    3    0    0  0.30333712120E+02 -0.79652703497E+02 -0.15285112845E+03  0.17500901329E+03  0.00000000000E+00 0. -1.
         15    1    5    5    0    0 -0.29906401295E+03 -0.16707712967E+03  0.39762931951E+02  0.34486974622E+03  0.00000000000E+00 0. -1.
         15    1    3    3    0    0  0.10071597133E+03 -0.17294224297E+02 -0.22217636966E+03  0.24455088695E+03  0.00000000000E+00 0.  1.
        -16    1    5    5    0    0 -0.31322528689E+03 -0.27191187878E+03  0.52339657536E+02  0.41807366566E+03  0.00000000000E+00 0.  1.
         16    1    1    2    0    0 -0.20013314108E+03 -0.18105378867E+03 -0.65331554918E+03  0.70686275567E+03  0.00000000000E+00 0. -1.
    9900018    1    4    4    0    0  0.61971620675E+01  0.22249842447E+03  0.58431071020E+02  0.24753448682E+03  0.91187600000E+02 0.  0.
<mgrwt>
<rscale>  0 0.13022686E+04</rscale>
<asrwt>0</asrwt>
<pdfrwt beam="1">  1        1 0.31034613E+00 0.24819772E+04</pdfrwt>
<pdfrwt beam="2">  1       -1 0.14968334E+00 0.24819772E+04</pdfrwt>
<totfact> 0.89673058E-01</totfact>
</mgrwt>
</event>
<event>
12    1  0.6358592E-010  0.2377266E+04  0.7818608E-02  0.9044858E-01
          2   -1    0    0  501    0  0.00000000000E+00  0.00000000000E+00  0.12616154241E+04  0.12616154241E+04  0.00000000000E+00 0.  1.
         -2   -1    0    0    0  501 -0.00000000000E+00 -0.00000000000E+00 -0.13555736078E+04  0.13555736078E+04  0.00000000000E+00 0. -1.
         23    2    1    2    0    0  0.17798606671E+03 -0.86267543190E+00  0.11455196534E+03  0.23079645648E+03  0.92005800934E+02 0.  0.
    9900016    2    1    2    0    0 -0.52866147589E+03 -0.19902914951E+03  0.98587986593E+01  0.19274644965E+04  0.18428040132E+04 0.  0.
         24    2    4    4    0    0 -0.98949440707E+03 -0.33238452956E+03  0.75347152424E+02  0.10496304491E+04  0.80425301821E+02 0.  0.
        -15    1    3    3    0    0  0.15664638749E+03  0.18861215393E+02  0.12352885717E+03  0.20038267070E+03  0.00000000000E+00 0.  1.
        -15    1    5    5    0    0 -0.43281828084E+03 -0.15175946013E+03 -0.64289927583E+01  0.45869808144E+03  0.00000000000E+00 0.  1.
         15    1    4    4    0    0  0.38347894843E+03  0.26990093532E+03 -0.31819413396E+03  0.56670109023E+03  0.00000000000E+00 0. -1.
         15    1    3    3    0    0  0.21339679219E+02 -0.19723890825E+02 -0.89768918321E+01  0.30413785779E+02  0.00000000000E+00 0. -1.
        -16    1    1    2    0    0  0.35067540918E+03  0.19989182495E+03 -0.21836894773E+03  0.45892807892E+03  0.00000000000E+00 0.  1.
         16    1    5    5    0    0 -0.55667612624E+03 -0.18062506944E+03  0.81776145183E+02  0.59093236766E+03  0.00000000000E+00 0. -1.
    9900018    1    4    4    0    0  0.77353982747E+02 -0.13654555527E+03  0.25270578020E+03  0.31113295719E+03  0.91187600000E+02 0.  0.
<mgrwt>
<rscale>  0 0.12808906E+04</rscale>
<asrwt>0</asrwt>
<pdfrwt beam="1">  1        2 0.19409468E+00 0.23772659E+04</pdfrwt>
<pdfrwt beam="2">  1       -2 0.20854979E+00 0.23772659E+04</pdfrwt>
<totfact> 0.18202238E+00</totfact>
</mgrwt>
</event>
<event>
12    1  0.6358592E-010  0.2032161E+04  0.7818608E-02  0.9365042E-01
         -1   -1    0    0    0  501 -0.00000000000E+00  0.00000000000E+00  0.95761638398E+03  0.95761638398E+03  0.00000000000E+00 0.  1.
          1   -1    0    0  501    0  0.00000000000E+00 -0.00000000000E+00 -0.15098226119E+04  0.15098226119E+04  0.00000000000E+00 0. -1.
         23    2    1    2    0    0  0.72030006861E+01  0.37344905087E+02  0.26110127067E+03  0.27856957754E+03  0.89334264580E+02 0.  0.
    9900016    2    1    2    0    0 -0.14999597781E+03 -0.14222215132E+03 -0.70214391480E+03  0.19797129854E+04  0.18394378200E+04 0.  0.
        -24    2    4    4    0    0  0.30809903966E+03  0.34477583990E+03 -0.62249248606E+03  0.77947030849E+03  0.79256978285E+02 0.  0.
        -15    1    3    3    0    0  0.42691462383E+02  0.33362390236E+02  0.20522181562E+03  0.21225363047E+03  0.00000000000E+00 0.  1.
        -15    1    4    4    0    0 -0.75008464803E+02 -0.71791311083E+03 -0.15308048619E+03  0.73787474530E+03  0.00000000000E+00 0.  1.
         15    1    5    5    0    0  0.14578252500E+03  0.21851907371E+03 -0.32644426820E+03  0.41900953499E+03  0.00000000000E+00 0. -1.
         15    1    3    3    0    0 -0.35488461697E+02  0.39825148509E+01  0.55879455055E+02  0.66315947067E+02  0.00000000000E+00 0. -1.
        -16    1    5    5    0    0  0.16231651466E+03  0.12625676619E+03 -0.29604821785E+03  0.36046077350E+03  0.00000000000E+00 0.  1.
         16    1    1    2    0    0  0.14279297712E+03  0.10487724624E+03 -0.11116358381E+03  0.20915643298E+03  0.00000000000E+00 0. -1.
    9900018    1    4    4    0    0 -0.38308655266E+03  0.23091511961E+03  0.73429057446E+02  0.46236793159E+03  0.91187600000E+02 0.  0.
<mgrwt>
<rscale>  0 0.95009303E+03</rscale>
<asrwt>0</asrwt>
<pdfrwt beam="1">  1        1 0.23228040E+00 0.20321615E+04</pdfrwt>
<pdfrwt beam="2">  1       -1 0.14732560E+00 0.20321615E+04</pdfrwt>
<totfact> 0.21587682E+00</totfact>
</mgrwt>
</event>
<event>
12    1  0.6358592E-010  0.2663697E+04  0.7818608E-02  0.8346881E-01
          1   -1    0    0  501    0  0.00000000000E+00  0.00000000000E+00  0.90752504796E+03  0.90752504796E+03  0.00000000000E+00 0. -1.
         -1   -1    0    0    0  501 -0.00000000000E+00 -0.00000000000E+00 -0.19545692983E+04  0.19545692983E+04  0.00000000000E+00 0.  1.
         23    2    1    2    0    0  0.32788150920E+03  0.81840879448E+02  0.30956988074E+03  0.46700387028E+03  0.89749039967E+02 0.  0.
    9900016    2    1    2    0    0 -0.39438518736E+03 -0.93390569685E+02 -0.13631423547E+04  0.23272763753E+04  0.18422260375E+04 0.  0.
        -24    2    4    4    0    0  0.41024540460E+03  0.49803142383E+03 -0.29416238366E+03  0.71360896442E+03  0.79810118592E+02 0.  0.
        -15    1    3    3    0    0  0.30896839819E+03  0.67466136499E+02  0.31054462329E+03  0.44322806060E+03  0.00000000000E+00 0.  1.
        -15    1    4    4    0    0  0.89133377173E+02 -0.19600391041E+03 -0.11163210485E+03  0.24253663364E+03  0.00000000000E+00 0.  1.
         15    1    3    3    0    0  0.18913111009E+02  0.14374742949E+02 -0.97474254686E+00  0.23775809680E+02  0.00000000000E+00 0. -1.
         15    1    5    5    0    0  0.37674962653E+03  0.42187265132E+03 -0.27138035553E+03  0.62734688362E+03  0.00000000000E+00 0. -1.
        -16    1    5    5    0    0  0.33495778064E+02  0.76158772510E+02 -0.22782028134E+02  0.86262080801E+02  0.00000000000E+00 0.  1.
         16    1    1    2    0    0  0.66503678165E+02  0.11549690237E+02  0.65282235837E+01  0.67814100726E+02  0.00000000000E+00 0. -1.
    9900018    1    4    4    0    0 -0.89376396913E+03 -0.39541808311E+03 -0.95734786614E+03  0.13711307772E+04  0.91187600000E+02 0.  0.
<mgrwt>
<rscale>  0 0.26636971E+04</rscale>
<asrwt>0</asrwt>
<pdfrwt beam="1">  1        1 0.13961924E+00 0.26636971E+04</pdfrwt>
<pdfrwt beam="2">  1       -1 0.30070296E+00 0.26636971E+04</pdfrwt>
<totfact> 0.51351110E-01</totfact>
</mgrwt>
</event>
<event>
12    1  0.6358592E-010  0.3099881E+04  0.7818608E-02  0.8215771E-01
         -2   -1    0    0    0  501 -0.00000000000E+00  0.00000000000E+00  0.14742478418E+04  0.14742478418E+04  0.00000000000E+00 0. -1.
          2   -1    0    0  501    0  0.00000000000E+00 -0.00000000000E+00 -0.16295194546E+04  0.16295194546E+04  0.00000000000E+00 0.  1.
         23    2    1    2    0    0 -0.84138379197E+02  0.14063404691E+03  0.10625954401E+03  0.21610728391E+03  0.92488190920E+02 0.  0.
    9900016    2    1    2    0    0  0.38698197148E+02 -0.21988580934E+03 -0.10231941032E+04  0.21205380562E+04  0.18438839865E+04 0.  0.
        -24    2    4    4    0    0  0.36964842370E+03  0.35380943430E+01  0.15817722195E+03  0.40992520174E+03  0.79788233578E+02 0.  0.
        -15    1    3    3    0    0 -0.75620713141E+01  0.97581503879E+02  0.73298034373E+02  0.12227811196E+03  0.00000000000E+00 0.  1.
        -15    1    4    4    0    0 -0.32759328290E+03 -0.52584951630E+03 -0.15768632849E+03  0.63929652822E+03  0.00000000000E+00 0.  1.
         15    1    5    5    0    0  0.28482416591E+03 -0.30336080555E+02  0.12796959370E+03  0.31372169224E+03  0.00000000000E+00 0. -1.
         15    1    3    3    0    0 -0.76576307882E+02  0.43052543033E+02  0.32961509640E+02  0.93829171947E+02  0.00000000000E+00 0. -1.
        -16    1    5    5    0    0  0.84824257792E+02  0.33874174898E+02  0.30207628250E+02  0.96203509496E+02  0.00000000000E+00 0.  1.
         16    1    1    2    0    0  0.45440182049E+02  0.79251762433E+02  0.76166294636E+03  0.76712195631E+03  0.00000000000E+00 0. -1.
    9900018    1    4    4    0    0 -0.33569436533E+01  0.30242561262E+03 -0.10236849966E+04  0.10713163263E+04  0.91187600000E+02 0.  0.
<mgrwt>
<rscale>  0 0.30998810E+04</rscale>
<asrwt>0</asrwt>
<pdfrwt beam="1">  1        2 0.25069530E+00 0.30998810E+04</pdfrwt>
<pdfrwt beam="2">  1       -2 0.22680736E+00 0.30998810E+04</pdfrwt>
<totfact> 0.81614086E-01</totfact>
</mgrwt>
</event>
<event>
12    1  0.6358592E-010  0.3070194E+04  0.7818608E-02  0.8887237E-01
          4   -1    0    0  501    0  0.00000000000E+00  0.00000000000E+00  0.17350495052E+04  0.17350495052E+04  0.00000000000E+00 0. -1.
         -4   -1    0    0    0  501 -0.00000000000E+00 -0.00000000000E+00 -0.16002883046E+04  0.16002883046E+04  0.00000000000E+00 0.  1.
         23    2    1    2    0    0  0.43276371461E+01  0.14707224721E+03 -0.17927094802E+03  0.24912545772E+03  0.90974977548E+02 0.  0.
    9900016    2    1    2    0    0  0.95632857963E+03 -0.24406721743E+03  0.88531112708E+02  0.20946887224E+04  0.18454674007E+04 0.  0.
        -24    2    4    4    0    0  0.99010411846E+03  0.16821475197E+03  0.69695874076E+03  0.12251785400E+04  0.81906046206E+02 0.  0.
        -15    1    3    3    0    0 -0.24519109489E+01 -0.10973980564E+02 -0.28311863356E+02  0.30463120710E+02  0.00000000000E+00 0.  1.
        -15    1    4    4    0    0  0.86731426456E+02 -0.36400968066E+03 -0.60434539947E+03  0.71081555260E+03  0.00000000000E+00 0.  1.
         15    1    3    3    0    0  0.67795480950E+01  0.15804622778E+03 -0.15095908466E+03  0.21866233701E+03  0.00000000000E+00 0. -1.
         15    1    5    5    0    0  0.90769091093E+03  0.17129864232E+03  0.62096437244E+03  0.11130331381E+04  0.00000000000E+00 0. -1.
        -16    1    5    5    0    0  0.82413207526E+02 -0.30838903550E+01  0.75994368320E+02  0.11214540192E+03  0.00000000000E+00 0.  1.
         16    1    1    2    0    0 -0.96065621678E+03  0.96994970221E+02  0.22550103590E+03  0.99152362971E+03  0.00000000000E+00 0. -1.
    9900018    1    4    4    0    0 -0.12050696528E+03 -0.48272288740E+02 -0.40822285824E+01  0.15869462979E+03  0.91187600000E+02 0.  0.
<mgrwt>
<rscale>  0 0.14958202E+04</rscale>
<asrwt>0</asrwt>
<pdfrwt beam="1">  1        4 0.26693069E+00 0.30701939E+04</pdfrwt>
<pdfrwt beam="2">  1       -4 0.24619820E+00 0.30701939E+04</pdfrwt>
<totfact> 0.55008910E-03</totfact>
</mgrwt>
</event>
<event>
12    1  0.6358592E-010  0.2519202E+04  0.7818608E-02  0.8396176E-01
          1   -1    0    0  501    0  0.00000000000E+00  0.00000000000E+00  0.73151241803E+03  0.73151241803E+03  0.00000000000E+00 0. -1.
         -1   -1    0    0    0  501 -0.00000000000E+00 -0.00000000000E+00 -0.21689242210E+04  0.21689242210E+04  0.00000000000E+00 0.  1.
         23    2    1    2    0    0  0.29611382942E+03  0.24222040852E+02 -0.25549670222E+02  0.31128708935E+03  0.89312704054E+02 0.  0.
    9900016    2    1    2    0    0 -0.24529463347E+03 -0.17190552724E+03 -0.14968586686E+04  0.24113366875E+04  0.18666113091E+04 0.  0.
        -24    2    4    4    0    0  0.28207129840E+03  0.39381923079E+03 -0.88296213161E+01  0.49091394232E+03  0.79124791477E+02 0.  0.
        -15    1    4    4    0    0 -0.75453872295E+03 -0.45490137120E+03 -0.83332925991E+03  0.12127248647E+04  0.00000000000E+00 0.  1.
        -15    1    3    3    0    0  0.21487323595E+03  0.96745167200E+01  0.21705581713E+02  0.21618333905E+03  0.00000000000E+00 0. -1.
         15    1    5    5    0    0  0.19495067156E+03  0.26372560524E+03 -0.42684846410E+02  0.33072489370E+03  0.00000000000E+00 0. -1.
         15    1    3    3    0    0  0.81240593471E+02  0.14547524132E+02 -0.47255251936E+02  0.95103750301E+02  0.00000000000E+00 0.  1.
        -16    1    5    5    0    0  0.87120626842E+02  0.13009362555E+03  0.33855225094E+02  0.16018904862E+03  0.00000000000E+00 0.  1.
         16    1    1    2    0    0 -0.50819195956E+02  0.14768348639E+03  0.84996535909E+02  0.17781286215E+03  0.00000000000E+00 0. -1.
    9900018    1    4    4    0    0  0.22717279108E+03 -0.11082338684E+03 -0.65469978738E+03  0.70769788050E+03  0.91187600000E+02 0.  0.
<mgrwt>
<rscale>  0 0.25192023E+04</rscale>
<asrwt>0</asrwt>
<pdfrwt beam="1">  1        1 0.11254037E+00 0.25192023E+04</pdfrwt>
<pdfrwt beam="2">  1       -1 0.33368064E+00 0.25192023E+04</pdfrwt>
<totfact> 0.44978290E-01</totfact>
</mgrwt>
</event>
<event>
12    1  0.6358592E-010  0.2773375E+04  0.7818608E-02  0.8996960E-01
         -2   -1    0    0    0  501 -0.00000000000E+00  0.00000000000E+00  0.84722943958E+03  0.84722943958E+03  0.00000000000E+00 0.  1.
          2   -1    0    0  501    0  0.00000000000E+00 -0.00000000000E+00 -0.28981303618E+04  0.28981303618E+04  0.00000000000E+00 0. -1.
         23    2    1    2    0    0 -0.12149148605E+03  0.92499842270E+01  0.14333652931E+03  0.20893671596E+03  0.90903505152E+02 0.  0.
    9900016    2    1    2    0    0  0.62453782004E+03 -0.20251079604E+03 -0.22702518304E+04  0.29921956133E+04  0.18352474231E+04 0.  0.
         24    2    4    4    0    0  0.48309221972E+03  0.76333067147E+03 -0.92747146205E+03  0.12970664790E+04  0.78270883118E+02 0.  0.
        -15    1    5    5    0    0  0.56596853269E+02  0.52923388797E+02 -0.66063399004E+02  0.10182564299E+03  0.00000000000E+00 0.  1.
        -15    1    3    3    0    0 -0.96006297831E+01 -0.40857050037E+01 -0.12718979392E+02  0.16451064232E+02  0.00000000000E+00 0. -1.
         15    1    3    3    0    0 -0.11189085627E+03  0.13335689231E+02  0.15605550870E+03  0.19248565172E+03  0.00000000000E+00 0.  1.
         15    1    4    4    0    0  0.16796612033E+01 -0.66052830443E+03 -0.68868649657E+03  0.95424816100E+03  0.00000000000E+00 0. -1.
        -16    1    1    2    0    0 -0.50304633399E+03  0.19326081182E+03  0.76014378876E+02  0.54422747203E+03  0.00000000000E+00 0.  1.
         16    1    5    5    0    0  0.42649536645E+03  0.71040728268E+03 -0.86140806304E+03  0.11952408360E+04  0.00000000000E+00 0. -1.
    9900018    1    4    4    0    0  0.13976593912E+03 -0.30531316308E+03 -0.65409387175E+03  0.74088097340E+03  0.91187600000E+02 0.  0.
<mgrwt>
<rscale>  0 0.13419291E+04</rscale>
<asrwt>0</asrwt>
<pdfrwt beam="1">  1        2 0.44586620E+00 0.27733752E+04</pdfrwt>
<pdfrwt beam="2">  1       -2 0.13034299E+00 0.27733752E+04</pdfrwt>
<totfact> 0.74932526E-01</totfact>
</mgrwt>
</event>
<event>
12    1  0.6358592E-010  0.2455980E+04  0.7818608E-02  0.9148149E-01
          1   -1    0    0  501    0  0.00000000000E+00  0.00000000000E+00  0.21862610097E+04  0.21862610097E+04  0.00000000000E+00 0. -1.
         -1   -1    0    0    0  501 -0.00000000000E+00 -0.00000000000E+00 -0.77634841663E+03  0.77634841663E+03  0.00000000000E+00 0.  1.
         23    2    1    2    0    0  0.17150227538E+02 -0.78383405113E+02 -0.14765952932E+02  0.12332315292E+03  0.92479609534E+02 0.  0.
    9900016    2    1    2    0    0  0.14398394969E+02  0.46921570701E+03  0.72853435320E+03  0.20403107162E+04  0.18470882008E+04 0.  0.
        -24    2    4    4    0    0 -0.55507341223E+02  0.62411732758E+03  0.76654206059E+03  0.99326818573E+03  0.79946573522E+02 0.  0.
        -15    1    3    3    0    0 -0.10254508349E+01 -0.92903102536E+02  0.46456690008E+01  0.93024836741E+02  0.00000000000E+00 0. -1.
        -15    1    4    4    0    0  0.19274552019E+03 -0.49435673215E+03  0.24001065091E+03  0.58236116520E+03  0.00000000000E+00 0.  1.
         15    1    3    3    0    0  0.18175678373E+02  0.14519697422E+02 -0.19411621932E+02  0.30298316184E+02  0.00000000000E+00 0.  1.
         15    1    5    5    0    0  0.15366252473E+01  0.34124661181E+03  0.37734419654E+03  0.50876345579E+03  0.00000000000E+00 0. -1.
        -16    1    5    5    0    0 -0.57043966471E+02  0.28287071577E+03  0.38919786405E+03  0.48450472994E+03  0.00000000000E+00 0.  1.
         16    1    1    2    0    0 -0.31548622507E+02 -0.39083230190E+03  0.69614419275E+03  0.79897555713E+03  0.00000000000E+00 0. -1.
    9900018    1    4    4    0    0 -0.12283978400E+03  0.33945511158E+03 -0.27801835829E+03  0.46468136530E+03  0.91187600000E+02 0.  0.
<mgrwt>
<rscale>  0 0.11605019E+04</rscale>
<asrwt>0</asrwt>
<pdfrwt beam="1">  1        1 0.33634784E+00 0.24559800E+04</pdfrwt>
<pdfrwt beam="2">  1       -1 0.11943822E+00 0.24559800E+04</pdfrwt>
<totfact> 0.12373534E+00</totfact>
</mgrwt>
</event>
<event>
12    1  0.6358592E-010  0.2273657E+04  0.7818608E-02  0.9212123E-01
          2   -1    0    0  501    0  0.00000000000E+00  0.00000000000E+00  0.71146869692E+03  0.71146869692E+03  0.00000000000E+00 0. -1.
         -2   -1    0    0    0  501 -0.00000000000E+00 -0.00000000000E+00 -0.20159186660E+04  0.20159186660E+04  0.00000000000E+00 0.  1.
         23    2    1    2    0    0  0.51197242106E+02 -0.61032413832E+02 -0.73320519464E+02  0.14181279700E+03  0.91590707394E+02 0.  0.
    9900016    2    1    2    0    0  0.25849691197E+03 -0.15419300593E+03 -0.85731519220E+03  0.20545665157E+04  0.18427311502E+04 0.  0.
        -24    2    4    4    0    0 -0.51448994432E+03  0.49043898277E+03 -0.53671982204E+03  0.89396010220E+03  0.76591111256E+02 0.  0.
        -15    1    3    3    0    0  0.54655675270E+02  0.68662233358E+00 -0.14655018873E+02  0.56590492732E+02  0.00000000000E+00 0. -1.
        -15    1    4    4    0    0  0.55772882696E+03 -0.22371127303E+03 -0.31634726133E+03  0.67910512283E+03  0.00000000000E+00 0.  1.
         15    1    5    5    0    0 -0.33442824938E+03  0.36116499074E+03 -0.39193763563E+03  0.62920387376E+03  0.00000000000E+00 0. -1.
         15    1    3    3    0    0 -0.34584331640E+01 -0.61719036166E+02 -0.58665500591E+02  0.85222304268E+02  0.00000000000E+00 0.  1.
        -16    1    5    5    0    0 -0.18006169493E+03  0.12927399203E+03 -0.14478218641E+03  0.26475622844E+03  0.00000000000E+00 0.  1.
         16    1    1    2    0    0 -0.30969415408E+03  0.21522541976E+03 -0.37381425739E+03  0.53100805023E+03  0.00000000000E+00 0. -1.
    9900018    1    4    4    0    0  0.21525802933E+03 -0.42092071567E+03 -0.42481088262E+01  0.48150129064E+03  0.91187600000E+02 0.  0.
<mgrwt>
<rscale>  0 0.10929175E+04</rscale>
<asrwt>0</asrwt>
<pdfrwt beam="1">  1        2 0.10945673E+00 0.22736570E+04</pdfrwt>
<pdfrwt beam="2">  1       -2 0.31014132E+00 0.22736570E+04</pdfrwt>
<totfact> 0.10011832E+00</totfact>
</mgrwt>
</event>
<event>
12    1  0.7324213E-010  0.2511261E+04  0.7818608E-02  0.8398985E-01
         -2   -1    0    0    0  501 -0.00000000000E+00  0.00000000000E+00  0.57675838680E+03  0.57675838680E+03  0.00000000000E+00 0.  1.
          2   -1    0    0  501    0  0.00000000000E+00 -0.00000000000E+00 -0.27335676039E+04  0.27335676039E+04  0.00000000000E+00 0. -1.
         23    2    1    2    0    0 -0.32034671059E+02  0.21003982585E+03 -0.59880746366E+03  0.64204825943E+03  0.92263970805E+02 0.  0.
    9900016    2    1    2    0    0 -0.12577553513E+02 -0.38415758316E+03 -0.16074537178E+04  0.24818568612E+04  0.18514779991E+04 0.  0.
         24    2    4    4    0    0  0.70747801125E+03  0.53958471551E+02 -0.73957941861E+02  0.71788462693E+03  0.80323765880E+02 0.  0.
        -15    1    5    5    0    0  0.48269168665E+03  0.74230965183E+02 -0.50698892739E+02  0.49099071099E+03  0.00000000000E+00 0.  1.
        -15    1    3    3    0    0  0.27493929628E+02  0.80245440364E+02 -0.28341046770E+03  0.29583228368E+03  0.00000000000E+00 0.  1.
         15    1    3    3    0    0 -0.59528600687E+02  0.12979438549E+03 -0.31539699596E+03  0.34621597575E+03  0.00000000000E+00 0. -1.
         15    1    4    4    0    0 -0.41883449954E+03 -0.24159718779E+03 -0.69076882493E+03  0.84318035357E+03  0.00000000000E+00 0. -1.
        -16    1    1    2    0    0  0.44612224573E+02  0.17411775731E+03  0.49451964430E+02  0.18642087002E+03  0.00000000000E+00 0.  1.
         16    1    5    5    0    0  0.22478632460E+03 -0.20272493632E+02 -0.23259049122E+02  0.22689391594E+03  0.00000000000E+00 0. -1.
    9900018    1    4    4    0    0 -0.30122106522E+03 -0.19651886693E+03 -0.84272695106E+03  0.92079188073E+03  0.91187600000E+02 0.  0.
<mgrwt>
<rscale>  0 0.25112611E+04</rscale>
<asrwt>0</asrwt>
<pdfrwt beam="1">  1        2 0.42054886E+00 0.25112611E+04</pdfrwt>
<pdfrwt beam="2">  1       -2 0.88732061E-01 0.25112611E+04</pdfrwt>
<totfact> 0.24668651E+00</totfact>
</mgrwt>
</event>
<event>
12    1  0.6358592E-010  0.2615348E+04  0.7818608E-02  0.8363006E-01
         -3   -1    0    0    0  501 -0.00000000000E+00  0.00000000000E+00  0.17592834449E+04  0.17592834449E+04  0.00000000000E+00 0.  1.
          3   -1    0    0  501    0  0.00000000000E+00 -0.00000000000E+00 -0.97199337286E+03  0.97199337286E+03  0.00000000000E+00 0. -1.
         23    2    1    2    0    0  0.25738300694E+03  0.14980177585E+03  0.53713973249E+03  0.62093269041E+03  0.91387797225E+02 0.  0.
    9900016    2    1    2    0    0 -0.30699111668E+03 -0.19940999462E+03  0.34553379166E+02  0.18836196486E+04  0.18473822434E+04 0.  0.
         24    2    4    4    0    0  0.64156377142E+02 -0.13433025440E+03  0.50334488179E+03  0.53079629144E+03  0.78917520304E+02 0.  0.
        -15    1    5    5    0    0  0.46728944077E+02 -0.20580513327E+02  0.19826143157E+03  0.20473091362E+03  0.00000000000E+00 0.  1.
        -15    1    3    3    0    0  0.58716555326E+02  0.83484525221E+02  0.17693934112E+03  0.20426656666E+03  0.00000000000E+00 0.  1.
         15    1    3    3    0    0  0.19866645162E+03  0.66317250630E+02  0.36020039137E+03  0.41666612374E+03  0.00000000000E+00 0. -1.
         15    1    4    4    0    0  0.24280535550E+03  0.16682522648E+03  0.24188824635E+03  0.38117583944E+03  0.00000000000E+00 0. -1.
        -16    1    1    2    0    0  0.49608109737E+02  0.49608218767E+02  0.21559696038E+03  0.22672447871E+03  0.00000000000E+00 0.  1.
         16    1    5    5    0    0  0.17427433065E+02 -0.11374974107E+03  0.30508345022E+03  0.32606537783E+03  0.00000000000E+00 0. -1.
    9900018    1    4    4    0    0 -0.61395284932E+03 -0.23190496670E+03 -0.71067974897E+03  0.97164751776E+03  0.91187600000E+02 0.  0.
<mgrwt>
<rscale>  0 0.26153484E+04</rscale>
<asrwt>0</asrwt>
<pdfrwt beam="1">  1        3 0.14953744E+00 0.26153484E+04</pdfrwt>
<pdfrwt beam="2">  1       -3 0.27065899E+00 0.26153484E+04</pdfrwt>
<totfact> 0.41707991E-02</totfact>
</mgrwt>
</event>
<event>
12    1  0.6358592E-010  0.2930419E+04  0.7818608E-02  0.9066976E-01
          2   -1    0    0  501    0  0.00000000000E+00  0.00000000000E+00  0.16074951233E+04  0.16074951233E+04  0.00000000000E+00 0. -1.
         -2   -1    0    0    0  501 -0.00000000000E+00 -0.00000000000E+00 -0.14282381923E+04  0.14282381923E+04  0.00000000000E+00 0.  1.
         23    2    1    2    0    0  0.33950016857E+01  0.39363714597E+02  0.24499321308E+02  0.10123121852E+03  0.89925050986E+02 0.  0.
    9900016    2    1    2    0    0  0.35179001923E+03 -0.62309069811E+03  0.66125818888E+03  0.20839514359E+04  0.18421707194E+04 0.  0.
         24    2    4    4    0    0  0.81534474841E+03 -0.35992258391E+03 -0.29539996932E+03  0.94232845336E+03  0.79940271344E+02 0.  0.
        -15    1    5    5    0    0  0.50365662511E+03 -0.21777770948E+03 -0.14086914985E+03  0.56651676422E+03  0.00000000000E+00 0.  1.
        -15    1    3    3    0    0  0.26277471427E+02  0.39315606560E+02 -0.19881875972E+02  0.51298259385E+02  0.00000000000E+00 0. -1.
         15    1    4    4    0    0 -0.13469029593E+03  0.60705935942E+02  0.17220775206E+03  0.22689688483E+03  0.00000000000E+00 0. -1.
         15    1    3    3    0    0 -0.22882469741E+02  0.48108037165E-01  0.44381197279E+02  0.49932959133E+02  0.00000000000E+00 0.  1.
        -16    1    1    2    0    0 -0.35518502092E+03  0.58372698351E+03 -0.50650057924E+03  0.85055066112E+03  0.00000000000E+00 0.  1.
         16    1    5    5    0    0  0.31168812330E+03 -0.14214487442E+03 -0.15453081947E+03  0.37581168915E+03  0.00000000000E+00 0. -1.
    9900018    1    4    4    0    0 -0.32886443325E+03 -0.32387405014E+03  0.78445040614E+03  0.91472609775E+03  0.91187600000E+02 0.  0.
<mgrwt>
<rscale>  0 0.12538608E+04</rscale>
<asrwt>0</asrwt>
<pdfrwt beam="1">  1        2 0.24730694E+00 0.29304185E+04</pdfrwt>
<pdfrwt beam="2">  1       -2 0.21972895E+00 0.29304185E+04</pdfrwt>
<totfact> 0.94010974E-01</totfact>
</mgrwt>
</event>
<event>
12    1  0.6358592E-010  0.2423353E+04  0.7818608E-02  0.8430812E-01
         -1   -1    0    0    0  501 -0.00000000000E+00  0.00000000000E+00  0.37459319366E+03  0.37459319366E+03  0.00000000000E+00 0.  1.
          1   -1    0    0  501    0  0.00000000000E+00 -0.00000000000E+00 -0.39193457049E+04  0.39193457049E+04  0.00000000000E+00 0. -1.
         23    2    1    2    0    0  0.23611552275E+02 -0.20090355350E+03 -0.10184139332E+04  0.10423360524E+04  0.91530124316E+02 0.  0.
    9900016    2    1    2    0    0  0.12335995255E+03  0.15565313483E+03 -0.21448660426E+04  0.28403006228E+04  0.18513270135E+04 0.  0.
        -24    2    4    4    0    0 -0.60823571882E+03  0.42656382181E+03 -0.14390859130E+04  0.16215295061E+04  0.80512673044E+02 0.  0.
        -15    1    3    3    0    0  0.19594983399E+02 -0.23430356545E+02 -0.56973522899E+02  0.64644623084E+02  0.00000000000E+00 0.  1.
        -15    1    4    4    0    0  0.32637187576E+03 -0.39454267622E+03 -0.56640826588E+03  0.76354492226E+03  0.00000000000E+00 0.  1.
         15    1    3    3    0    0  0.40165688756E+01 -0.17747319696E+03 -0.96144041028E+03  0.97769142933E+03  0.00000000000E+00 0. -1.
         15    1    5    5    0    0 -0.16424482101E+03  0.14901270601E+03 -0.48222574950E+03  0.53077567886E+03  0.00000000000E+00 0. -1.
        -16    1    5    5    0    0 -0.44399089781E+03  0.27755111579E+03 -0.95686016349E+03  0.10907538273E+04  0.00000000000E+00 0.  1.
         16    1    1    2    0    0 -0.14697150483E+03  0.45250418673E+02 -0.38147253552E+03  0.41130222341E+03  0.00000000000E+00 0. -1.
    9900018    1    4    4    0    0  0.40522379561E+03  0.12363198923E+03 -0.13937186371E+03  0.45522619441E+03  0.91187600000E+02 0.  0.
<mgrwt>
<rscale>  0 0.24233532E+04</rscale>
<asrwt>0</asrwt>
<pdfrwt beam="1">  1        1 0.60297626E+00 0.24233532E+04</pdfrwt>
<pdfrwt beam="2">  1       -1 0.57629723E-01 0.24233532E+04</pdfrwt>
<totfact> 0.30858837E-01</totfact>
</mgrwt>
</event>
<event>
12    1  0.6358592E-010  0.2531888E+04  0.7818608E-02  0.8391713E-01
         -1   -1    0    0    0  501 -0.00000000000E+00  0.00000000000E+00  0.99045384176E+03  0.99045384176E+03  0.00000000000E+00 0.  1.
          1   -1    0    0  501    0  0.00000000000E+00 -0.00000000000E+00 -0.16180603705E+04  0.16180603705E+04  0.00000000000E+00 0. -1.
         23    2    1    2    0    0 -0.31478354808E+03 -0.10122264026E+03  0.18045118426E+02  0.34340788350E+03  0.90932079646E+02 0.  0.
    9900016    2    1    2    0    0  0.39328572916E+03  0.10394343472E+03 -0.81545934091E+03  0.20780110375E+04  0.18675326056E+04 0.  0.
         24    2    4    4    0    0  0.87133918946E+03  0.77344026908E+02 -0.10372862362E+02  0.87849632558E+03  0.80212942835E+02 0.  0.
        -15    1    5    5    0    0  0.52367763293E+03  0.26679113351E+02  0.27809701951E+02  0.52509372291E+03  0.00000000000E+00 0.  1.
        -15    1    3    3    0    0 -0.17828088267E+03 -0.30446995674E+02 -0.27737191512E+02  0.18297662273E+03  0.00000000000E+00 0. -1.
         15    1    4    4    0    0 -0.49822943964E+03 -0.26404656725E+03 -0.39582510716E+03  0.68893445237E+03  0.00000000000E+00 0. -1.
         15    1    3    3    0    0 -0.13650266541E+03 -0.70775644587E+02  0.45782309938E+02  0.16043126077E+03  0.00000000000E+00 0.  1.
        -16    1    1    2    0    0 -0.78502181079E+02 -0.27207944621E+01  0.16980769374E+03  0.18709529125E+03  0.00000000000E+00 0.  1.
         16    1    5    5    0    0  0.34766155653E+03  0.50664913558E+02 -0.38182564313E+02  0.35340260267E+03  0.00000000000E+00 0. -1.
    9900018    1    4    4    0    0  0.20175979342E+02  0.29064597507E+03 -0.40926137139E+03  0.51058025957E+03  0.91187600000E+02 0.  0.
<mgrwt>
<rscale>  0 0.25318879E+04</rscale>
<asrwt>0</asrwt>
<pdfrwt beam="1">  1        1 0.24893236E+00 0.25318879E+04</pdfrwt>
<pdfrwt beam="2">  1       -1 0.15237751E+00 0.25318879E+04</pdfrwt>
<totfact> 0.16064025E+00</totfact>
</mgrwt>
</event>
<event>
12    1  0.6358592E-010  0.2260758E+04  0.7818608E-02  0.9170404E-01
         -1   -1    0    0    0  501 -0.00000000000E+00  0.00000000000E+00  0.84865824515E+03  0.84865824515E+03  0.00000000000E+00 0.  1.
          1   -1    0    0  501    0  0.00000000000E+00 -0.00000000000E+00 -0.17604078842E+04  0.17604078842E+04  0.00000000000E+00 0. -1.
         23    2    1    2    0    0 -0.69078489217E+02  0.83745537785E+02 -0.18441876714E+03  0.23418975261E+03  0.95128364764E+02 0.  0.
    9900016    2    1    2    0    0  0.25954729442E+03  0.23082783022E+02 -0.92514290817E+03  0.20802236021E+04  0.18448694321E+04 0.  0.
         24    2    4    4    0    0  0.64196372209E+03  0.40073336346E+03 -0.58299121133E+01  0.76078881362E+03  0.77852308798E+02 0.  0.
        -15    1    3    3    0    0 -0.17549311465E+02 -0.20262468122E+02 -0.22692503614E+02  0.35121156979E+02  0.00000000000E+00 0. -1.
        -15    1    5    5    0    0  0.57863842912E+03  0.38255853545E+03  0.68366596803E+01  0.69370037092E+03  0.00000000000E+00 0.  1.
         15    1    4    4    0    0 -0.18779191133E+03  0.86731692498E+02  0.59237220214E+02  0.21516792676E+03  0.00000000000E+00 0. -1.
         15    1    3    3    0    0 -0.51529177753E+02  0.10400800591E+03 -0.16172626352E+03  0.19906859563E+03  0.00000000000E+00 0.  1.
        -16    1    1    2    0    0 -0.19046880520E+03 -0.10682832081E+03  0.19781203628E+03  0.29465277460E+03  0.00000000000E+00 0.  1.
         16    1    5    5    0    0  0.63325292970E+02  0.18174828012E+02 -0.12666571794E+02  0.67088442700E+02  0.00000000000E+00 0. -1.
    9900018    1    4    4    0    0 -0.19462451634E+03 -0.46438227294E+03 -0.97855021627E+03  0.11042668617E+04  0.91187600000E+02 0.  0.
<mgrwt>
<rscale>  0 0.11364194E+04</rscale>
<asrwt>0</asrwt>
<pdfrwt beam="1">  1        1 0.27083198E+00 0.22607582E+04</pdfrwt>
<pdfrwt beam="2">  1       -1 0.13056281E+00 0.22607582E+04</pdfrwt>
<totfact> 0.19610199E+00</totfact>
</mgrwt>
</event>
<event>
12    1  0.6358592E-010  0.2231050E+04  0.7818608E-02  0.9199615E-01
         -2   -1    0    0    0  501 -0.00000000000E+00  0.00000000000E+00  0.59508337655E+03  0.59508337655E+03  0.00000000000E+00 0.  1.
          2   -1    0    0  501    0  0.00000000000E+00 -0.00000000000E+00 -0.23578001283E+04  0.23578001283E+04  0.00000000000E+00 0. -1.
         23    2    1    2    0    0  0.91833319710E+02 -0.38406792019E+02 -0.13923573307E+03  0.19366736284E+03  0.90620184196E+02 0.  0.
    9900016    2    1    2    0    0 -0.22327158938E+03  0.25753973613E+03 -0.10833413076E+04  0.21616827342E+04  0.18393115387E+04 0.  0.
        -24    2    4    4    0    0 -0.14421185158E+03 -0.21287628935E+03 -0.25718189431E+03  0.37154207904E+03  0.76076389477E+02 0.  0.
        -15    1    4    4    0    0  0.60376407680E+03  0.42065741167E+03 -0.81681707726E+03  0.10993970421E+04  0.00000000000E+00 0.  1.
        -15    1    3    3    0    0  0.83134370373E+02 -0.23503887764E+02 -0.15016360614E+03  0.17324221450E+03  0.00000000000E+00 0. -1.
         15    1    3    3    0    0  0.86989493372E+01 -0.14902904255E+02  0.10927873068E+02  0.20425148337E+02  0.00000000000E+00 0.  1.
         15    1    5    5    0    0 -0.13985042494E+03 -0.15491132503E+03 -0.21564882702E+03  0.30010011092E+03  0.00000000000E+00 0. -1.
        -16    1    5    5    0    0 -0.43614266330E+01 -0.57964964314E+02 -0.41533067293E+02  0.71441968121E+02  0.00000000000E+00 0.  1.
         16    1    1    2    0    0  0.13143826967E+03 -0.21913294411E+03 -0.54013971108E+03  0.59753340778E+03  0.00000000000E+00 0. -1.
    9900018    1    4    4    0    0 -0.68282381461E+03  0.49758613807E+02 -0.93423360572E+01  0.69074361313E+03  0.91187600000E+02 0.  0.
<mgrwt>
<rscale>  0 0.11057402E+04</rscale>
<asrwt>0</asrwt>
<pdfrwt beam="1">  1        2 0.36273849E+00 0.22310498E+04</pdfrwt>
<pdfrwt beam="2">  1       -2 0.91551287E-01 0.22310498E+04</pdfrwt>
<totfact> 0.38771226E+00</totfact>
</mgrwt>
</event>
<event>
12    1  0.6358592E-010  0.2985072E+04  0.7818608E-02  0.8248007E-01
         -2   -1    0    0    0  501 -0.00000000000E+00  0.00000000000E+00  0.19021315671E+04  0.19021315671E+04  0.00000000000E+00 0.  1.
          2   -1    0    0  501    0  0.00000000000E+00 -0.00000000000E+00 -0.11711405395E+04  0.11711405395E+04  0.00000000000E+00 0. -1.
         23    2    1    2    0    0 -0.23124101241E+03  0.12585153086E+03 -0.29904496512E+03  0.40862674074E+03  0.90757415360E+02 0.  0.
    9900016    2    1    2    0    0  0.24768006158E+03 -0.46446935113E+02  0.13736927530E+04  0.23115514675E+04  0.18419380220E+04 0.  0.
        -24    2    4    4    0    0  0.67410726525E+01  0.66734385503E+03  0.26693441297E+03  0.72322817008E+03  0.80073355456E+02 0.  0.
        -15    1    3    3    0    0 -0.54045647835E+02  0.66103395439E+02 -0.56585453322E+02  0.10243292667E+03  0.00000000000E+00 0.  1.
        -15    1    4    4    0    0  0.11518417587E+03 -0.79938545201E+03  0.48570220099E+03  0.94243892285E+03  0.00000000000E+00 0.  1.
         15    1    3    3    0    0 -0.17719536458E+03  0.59748135424E+02 -0.24245951179E+03  0.30619381407E+03  0.00000000000E+00 0. -1.
         15    1    5    5    0    0 -0.12293249016E+02  0.14696636097E+03  0.92384712610E+02  0.17402634959E+03  0.00000000000E+00 0. -1.
        -16    1    5    5    0    0  0.19034321668E+02  0.52037749406E+03  0.17454970036E+03  0.54920182048E+03  0.00000000000E+00 0.  1.
         16    1    1    2    0    0 -0.16439049165E+02 -0.79404595750E+02 -0.34365676030E+03  0.35309389836E+03  0.00000000000E+00 0. -1.
    9900018    1    4    4    0    0  0.12575481305E+03  0.85594661861E+02  0.62105613902E+03  0.64588437460E+03  0.91187600000E+02 0.  0.
<mgrwt>
<rscale>  0 0.29850718E+04</rscale>
<asrwt>0</asrwt>
<pdfrwt beam="1">  1        2 0.18017547E+00 0.29850718E+04</pdfrwt>
<pdfrwt beam="2">  1       -2 0.29263563E+00 0.29850718E+04</pdfrwt>
<totfact> 0.59564627E-01</totfact>
</mgrwt>
</event>
<event>
12    1  0.6358592E-010  0.2509707E+04  0.7818608E-02  0.9184371E-01
          1   -1    0    0  501    0  0.00000000000E+00  0.00000000000E+00  0.22285916993E+04  0.22285916993E+04  0.00000000000E+00 0. -1.
         -1   -1    0    0    0  501 -0.00000000000E+00 -0.00000000000E+00 -0.11483475221E+04  0.11483475221E+04  0.00000000000E+00 0.  1.
         23    2    1    2    0    0 -0.15041634204E+01  0.42841753853E+02 -0.43427060766E+03  0.44566213665E+03  0.90477074395E+02 0.  0.
    9900016    2    1    2    0    0  0.15505046954E+03  0.43061336785E+03  0.81425959899E+03  0.20721533767E+04  0.18496844059E+04 0.  0.
        -24    2    4    4    0    0  0.16395616808E+03  0.25262415473E+03  0.13588964949E+04  0.13942466837E+04  0.81385149981E+02 0.  0.
        -15    1    4    4    0    0  0.33158129589E+02 -0.94220724410E+02 -0.22527946920E+03  0.24643020454E+03  0.00000000000E+00 0.  1.
        -15    1    3    3    0    0 -0.11052369762E+02 -0.27094866017E+02 -0.11283275640E+03  0.11656550758E+03  0.00000000000E+00 0.  1.
         15    1    5    5    0    0  0.13461282949E+03  0.24686061327E+03  0.12562797465E+04  0.12873614790E+04  0.00000000000E+00 0. -1.
         15    1    3    3    0    0  0.95482063411E+01  0.69936619870E+02 -0.32143785126E+03  0.32909662907E+03  0.00000000000E+00 0. -1.
        -16    1    5    5    0    0  0.29343338588E+02  0.57635414540E+01  0.10261674844E+03  0.10688520472E+03  0.00000000000E+00 0.  1.
         16    1    1    2    0    0 -0.15354630612E+03 -0.47345512170E+03  0.70025518584E+03  0.85912370802E+03  0.00000000000E+00 0. -1.
    9900018    1    4    4    0    0 -0.42063828124E+02  0.27220993753E+03 -0.31935742671E+03  0.43147648848E+03  0.91187600000E+02 0.  0.
<mgrwt>
<rscale>  0 0.11216213E+04</rscale>
<asrwt>0</asrwt>
<pdfrwt beam="1">  1        1 0.34286026E+00 0.25097072E+04</pdfrwt>
<pdfrwt beam="2">  1       -1 0.17666885E+00 0.25097072E+04</pdfrwt>
<totfact> 0.39854317E-01</totfact>
</mgrwt>
</event>
