<event>
11    1  0.3785047E-008  0.3089440E+04  0.7818608E-02  0.8218642E-01
          1   -1    0    0  501    0  0.00000000000E+00  0.00000000000E+00  0.31616485318E+04  0.31616485318E+04  0.00000000000E+00 0. -1.
         -1   -1    0    0    0  501 -0.00000000000E+00 -0.00000000000E+00 -0.75472026952E+03  0.75472026952E+03  0.00000000000E+00 0.  1.
    9900016    2    1    2    0    0  0.61535665055E+03 -0.54364403255E+02  0.18492745730E+04  0.29208697163E+04  0.21748664689E+04 0.  0.
        -24    2    3    3    0    0  0.40731853344E+03 -0.34827650044E+03 -0.62646731619E+02  0.54554440968E+03  0.80555456061E+02 0.  0.
        -15    1    3    3    0    0  0.96023627835E+02  0.69290606474E+03  0.11992950361E+04  0.13883976143E+04  0.00000000000E+00 0.  1.
        -15    1    3    3    0    0  0.25586219048E+03 -0.25721545084E+02  0.41543646607E+03  0.48858419514E+03  0.00000000000E+00 0.  1.
         15    1    3    3    0    0 -0.14384770121E+03 -0.37327242247E+03  0.29718980240E+03  0.49834349717E+03  0.00000000000E+00 0. -1.
         15    1    4    4    0    0  0.31455479321E+03 -0.30703892097E+03 -0.38870784988E+02  0.44128058517E+03  0.00000000000E+00 0. -1.
        -16    1    4    4    0    0  0.92763740234E+02 -0.41237579471E+02 -0.23775946632E+02  0.10426382451E+03  0.00000000000E+00 0.  1.
         16    1    1    2    0    0 -0.52504061512E+03  0.21655775629E+03  0.54679427313E+03  0.78838371779E+03  0.00000000000E+00 0. -1.
    9900018    1    1    2    0    0 -0.90316035427E+02 -0.16219335304E+03  0.10859416118E+02  0.20711536721E+03  0.91187600000E+02 0.  0.
<mgrwt>
<rscale>  0 0.30894402E+04</rscale>
<asrwt>0</asrwt>
<pdfrwt beam="1">  1        1 0.48640746E+00 0.30894402E+04</pdfrwt>
<pdfrwt beam="2">  1       -1 0.11611081E+00 0.30894402E+04</pdfrwt>
<totfact> 0.25701529E-01</totfact>
</mgrwt>
</event>
<event>
11    1  0.3785047E-008  0.3013377E+04  0.7818608E-02  0.8239921E-01
          1   -1    0    0  501    0  0.00000000000E+00  0.00000000000E+00  0.13397679216E+04  0.13397679216E+04  0.00000000000E+00 0. -1.
         -1   -1    0    0    0  501 -0.00000000000E+00 -0.00000000000E+00 -0.16944059148E+04  0.16944059148E+04  0.00000000000E+00 0.  1.
    9900016    2    1    2    0    0  0.20092325573E+03  0.25636927564E+03 -0.35648667595E+03  0.22454968702E+04  0.21929610310E+04 0.  0.
         24    2    3    3    0    0 -0.78350378698E+03 -0.12953785863E+03 -0.34356851921E+03  0.86883430582E+03  0.78584238440E+02 0.  0.
        -15    1    4    4    0    0 -0.30255745225E+03 -0.49282695199E+02 -0.91344067438E+02  0.31986486931E+03  0.00000000000E+00 0.  1.
        -15    1    3    3    0    0  0.31830646730E+03 -0.16800538748E+03 -0.46091554870E+02  0.36286257561E+03  0.00000000000E+00 0.  1.
         15    1    3    3    0    0  0.18857438502E+03  0.28071199485E+03  0.25196734727E+03  0.42171918006E+03  0.00000000000E+00 0. -1.
         15    1    3    3    0    0  0.47754619039E+03  0.27320052690E+03 -0.21879394914E+03  0.59208080870E+03  0.00000000000E+00 0. -1.
        -16    1    1    2    0    0  0.15682222510E+01 -0.41897744225E+03 -0.18291700864E+03  0.45716866524E+03  0.00000000000E+00 0.  1.
         16    1    4    4    0    0 -0.48094633473E+03 -0.80255163434E+02 -0.25222445178E+03  0.54896943651E+03  0.00000000000E+00 0. -1.
    9900018    1    1    2    0    0 -0.20249147798E+03  0.16260816661E+03  0.18476569142E+03  0.33150830099E+03  0.91187600000E+02 0.  0.
<mgrwt>
<rscale>  0 0.30133773E+04</rscale>
<asrwt>0</asrwt>
<pdfrwt beam="1">  1        1 0.20611814E+00 0.30133773E+04</pdfrwt>
<pdfrwt beam="2">  1       -1 0.26067783E+00 0.30133773E+04</pdfrwt>
<totfact> 0.42784673E-01</totfact>
</mgrwt>
</event>
<event>
11    1  0.3785047E-008  0.2781191E+04  0.7818608E-02  0.8309132E-01
          2   -1    0    0  501    0  0.00000000000E+00  0.00000000000E+00  0.11359261353E+04  0.11359261353E+04  0.00000000000E+00 0. -1.
         -2   -1    0    0    0  501 -0.00000000000E+00 -0.00000000000E+00 -0.17023610400E+04  0.17023610400E+04  0.00000000000E+00 0.  1.
    9900016    2    1    2    0    0  0.17003534529E+03 -0.29908093583E+03 -0.10129962256E+03  0.22337895469E+04  0.22048112621E+04 0.  0.
         24    2    3    3    0    0 -0.40506178563E+03  0.84796671842E+02  0.37334290003E+03  0.56330093164E+03  0.81593460840E+02 0.  0.
        -15    1    3    3    0    0  0.17007316883E+03 -0.13576831409E+03 -0.15684998470E+03  0.26825330486E+03  0.00000000000E+00 0.  1.
        -15    1    4    4    0    0 -0.81919957990E+02  0.28862737225E+02  0.12369693870E+03  0.15114519430E+03  0.00000000000E+00 0.  1.
         15    1    3    3    0    0  0.84398318304E+03 -0.10334367625E+03 -0.16412143092E+02  0.85044511118E+03  0.00000000000E+00 0. -1.
         15    1    3    3    0    0 -0.43895922096E+03 -0.14476561733E+03 -0.30138039479E+03  0.55179019925E+03  0.00000000000E+00 0. -1.
        -16    1    1    2    0    0 -0.94295242831E+02  0.22569177126E+03 -0.32568515262E+03  0.40730723917E+03  0.00000000000E+00 0.  1.
         16    1    4    4    0    0 -0.32314182764E+03  0.55933934617E+02  0.24964596133E+03  0.41215573733E+03  0.00000000000E+00 0. -1.
    9900018    1    1    2    0    0 -0.75740102463E+02  0.73389164566E+02 -0.13945012953E+03  0.19719038926E+03  0.91187600000E+02 0.  0.
<mgrwt>
<rscale>  0 0.27811914E+04</rscale>
<asrwt>0</asrwt>
<pdfrwt beam="1">  1        2 0.17475787E+00 0.27811914E+04</pdfrwt>
<pdfrwt beam="2">  1       -2 0.26190170E+00 0.27811914E+04</pdfrwt>
<totfact> 0.98019493E-01</totfact>
</mgrwt>
</event>
<event>
11    1  0.3785047E-008  0.4016329E+04  0.7818608E-02  0.8001261E-01
         -1   -1    0    0    0  501 -0.00000000000E+00  0.00000000000E+00  0.22932048228E+04  0.22932048228E+04  0.00000000000E+00 0.  1.
          1   -1    0    0  501    0  0.00000000000E+00 -0.00000000000E+00 -0.17585538001E+04  0.17585538001E+04  0.00000000000E+00 0. -1.
    9900016    2    1    2    0    0 -0.13486445775E+03 -0.12504542437E+03  0.51446111574E+03  0.22624243675E+04  0.21954655541E+04 0.  0.
         24    2    3    3    0    0 -0.61085749312E+02 -0.29879582269E+03  0.10944371607E+04  0.11389845662E+04  0.80515407280E+02 0.  0.
        -15    1    4    4    0    0 -0.93288174576E+01 -0.10825006064E+03  0.52960436522E+03  0.54063470673E+03  0.00000000000E+00 0.  1.
        -15    1    3    3    0    0 -0.20414904211E+02  0.76159642745E+02 -0.11832267721E+02  0.79731186223E+02  0.00000000000E+00 0.  1.
         15    1    3    3    0    0 -0.21188424506E+03  0.78569323296E+02 -0.76070859717E+03  0.79356514646E+03  0.00000000000E+00 0. -1.
         15    1    3    3    0    0  0.15852044083E+03  0.19021432282E+02  0.19256481990E+03  0.25014346865E+03  0.00000000000E+00 0. -1.
        -16    1    1    2    0    0  0.62744078750E+03  0.72273195671E+03  0.22468791526E+03  0.98311142925E+03  0.00000000000E+00 0.  1.
         16    1    4    4    0    0 -0.51756931854E+02 -0.19054576206E+03  0.56483279551E+03  0.59834985946E+03  0.00000000000E+00 0. -1.
    9900018    1    1    2    0    0 -0.49257632975E+03 -0.59768653234E+03 -0.20449800822E+03  0.80622282610E+03  0.91187600000E+02 0.  0.
<mgrwt>
<rscale>  0 0.40163287E+04</rscale>
<asrwt>0</asrwt>
<pdfrwt beam="1">  1        1 0.27054674E+00 0.40163287E+04</pdfrwt>
<pdfrwt beam="2">  1       -1 0.35280074E+00 0.40163287E+04</pdfrwt>
<totfact> 0.50564837E-02</totfact>
</mgrwt>
</event>
<event>
11    1  0.3785047E-008  0.3519779E+04  0.7818608E-02  0.8109118E-01
         -2   -1    0    0    0  501 -0.00000000000E+00  0.00000000000E+00  0.13742409414E+04  0.13742409414E+04  0.00000000000E+00 0.  1.
          2   -1    0    0  501    0  0.00000000000E+00 -0.00000000000E+00 -0.22537619300E+04  0.22537619300E+04  0.00000000000E+00 0. -1.
    9900016    2    1    2    0    0 -0.40270639889E+03 -0.60155637060E+02 -0.38483872027E+03  0.22720632747E+04  0.22019036172E+04 0.  0.
         24    2    3    3    0    0  0.57126266675E+03 -0.32182462362E+03 -0.37546301583E+02  0.66139347117E+03  0.78227080676E+02 0.  0.
        -15    1    4    4    0    0  0.20337325722E+03 -0.10586789922E+03 -0.49807465391E+02  0.23462625055E+03  0.00000000000E+00 0.  1.
        -15    1    3    3    0    0 -0.10967304247E+02  0.46721861333E+02  0.12040625719E+03  0.12961821191E+03  0.00000000000E+00 0.  1.
         15    1    3    3    0    0 -0.91188636154E+03 -0.15349885055E+02  0.48707225091E+02  0.91331525176E+03  0.00000000000E+00 0. -1.
         15    1    3    3    0    0 -0.51115399851E+02  0.23029701029E+03 -0.51640590097E+03  0.56773633987E+03  0.00000000000E+00 0. -1.
        -16    1    1    2    0    0  0.15774707153E+03  0.53173789337E+03  0.88548688825E+02  0.56166733581E+03  0.00000000000E+00 0.  1.
         16    1    4    4    0    0  0.36788940953E+03 -0.21595672441E+03  0.12261163809E+02  0.42676722062E+03  0.00000000000E+00 0. -1.
    9900018    1    1    2    0    0  0.24495932735E+03 -0.47158225631E+03 -0.58323095719E+03  0.79427226085E+03  0.91187600000E+02 0.  0.
<mgrwt>
<rscale>  0 0.35197795E+04</rscale>
<asrwt>0</asrwt>
<pdfrwt beam="1">  1        2 0.34673260E+00 0.35197795E+04</pdfrwt>
<pdfrwt beam="2">  1       -2 0.21142168E+00 0.35197795E+04</pdfrwt>
<totfact> 0.44295004E-01</totfact>
</mgrwt>
</event>
<event>
11    1  0.3785047E-008  0.2743346E+04  0.7818608E-02  0.8321076E-01
         -2   -1    0    0    0  501 -0.00000000000E+00  0.00000000000E+00  0.89583159644E+03  0.89583159644E+03  0.00000000000E+00 0.  1.
          2   -1    0    0  501    0  0.00000000000E+00 -0.00000000000E+00 -0.21002681687E+04  0.21002681687E+04  0.00000000000E+00 0. -1.
    9900016    2    1    2    0    0  0.28585459150E+03  0.19199356844E+03 -0.10098010005E+04  0.24478556837E+04  0.22031171122E+04 0.  0.
         24    2    3    3    0    0  0.34572808836E+03 -0.13862334830E+03 -0.11208449577E+04  0.11838145147E+04  0.79868906073E+02 0.  0.
        -15    1    4    4    0    0  0.19326031404E+03 -0.34569525196E+02 -0.58540789130E+03  0.61745202264E+03  0.00000000000E+00 0.  1.
        -15    1    3    3    0    0  0.90938774187E+02  0.36582202004E+03  0.11171298705E+03  0.39316078451E+03  0.00000000000E+00 0.  1.
         15    1    3    3    0    0  0.64151214348E+02 -0.35304358427E+03 -0.22776365423E+03  0.42500756804E+03  0.00000000000E+00 0. -1.
         15    1    3    3    0    0 -0.21496348539E+03  0.31783848097E+03  0.22709462443E+03  0.44587281649E+03  0.00000000000E+00 0. -1.
        -16    1    1    2    0    0 -0.34919356445E+03 -0.13016061890E+03 -0.89380334731E+02  0.38323201380E+03  0.00000000000E+00 0.  1.
         16    1    4    4    0    0  0.15246777432E+03 -0.10405382310E+03 -0.53543706641E+03  0.56636249204E+03  0.00000000000E+00 0. -1.
    9900018    1    1    2    0    0  0.63338972947E+02 -0.61832949546E+02 -0.10525523709E+03  0.16501206766E+03  0.91187600000E+02 0.  0.
<mgrwt>
<rscale>  0 0.27433458E+04</rscale>
<asrwt>0</asrwt>
<pdfrwt beam="1">  1        2 0.32311818E+00 0.27433458E+04</pdfrwt>
<pdfrwt beam="2">  1       -2 0.13782025E+00 0.27433458E+04</pdfrwt>
<totfact> 0.19209126E+00</totfact>
</mgrwt>
</event>
<event>
11    1  0.3785047E-008  0.4023271E+04  0.7818608E-02  0.7999868E-01
         -1   -1    0    0    0  501 -0.00000000000E+00  0.00000000000E+00  0.21990928890E+04  0.21990928890E+04  0.00000000000E+00 0.  1.
          1   -1    0    0  501    0  0.00000000000E+00 -0.00000000000E+00 -0.18401575973E+04  0.18401575973E+04  0.00000000000E+00 0. -1.
    9900016    2    1    2    0    0  0.79524632435E+03 -0.26010644555E+03  0.10176932588E+04  0.25716443321E+04  0.22085250559E+04 0.  0.
        -24    2    3    3    0    0 -0.29759852864E+03  0.56093179851E+03  0.15646307506E+02  0.64024522371E+03  0.80372711220E+02 0.  0.
        -15    1    3    3    0    0  0.44359208695E+03 -0.95487730408E+02  0.77428602785E+02  0.46031188860E+03  0.00000000000E+00 0.  1.
        -15    1    3    3    0    0  0.17943257797E+03 -0.59285307958E+03  0.33034373096E+03  0.70199558730E+03  0.00000000000E+00 0.  1.
         15    1    4    4    0    0 -0.13843780903E+02  0.81612914432E+02 -0.41263600549E+01  0.82881511323E+02  0.00000000000E+00 0. -1.
         15    1    3    3    0    0  0.46982018807E+03 -0.13269743408E+03  0.59427461754E+03  0.76909163250E+03  0.00000000000E+00 0. -1.
        -16    1    4    4    0    0 -0.28375474774E+03  0.47931888408E+03  0.19772667561E+02  0.55736371238E+03  0.00000000000E+00 0.  1.
         16    1    1    2    0    0 -0.57799020196E+03  0.38974749893E+03 -0.87767272048E+03  0.11208412871E+04  0.00000000000E+00 0. -1.
    9900018    1    1    2    0    0 -0.21725612239E+03 -0.12964105338E+03  0.21891475333E+03  0.34676486710E+03  0.91187600000E+02 0.  0.
<mgrwt>
<rscale>  0 0.40232711E+04</rscale>
<asrwt>0</asrwt>
<pdfrwt beam="1">  1        1 0.28310117E+00 0.40232711E+04</pdfrwt>
<pdfrwt beam="2">  1       -1 0.33832198E+00 0.40232711E+04</pdfrwt>
<totfact> 0.55456274E-02</totfact>
</mgrwt>
</event>
<event>
11    1  0.3785047E-008  0.3154172E+04  0.7818608E-02  0.8201026E-01
         -2   -1    0    0    0  501 -0.00000000000E+00  0.00000000000E+00  0.21315906698E+04  0.21315906698E+04  0.00000000000E+00 0. -1.
          2   -1    0    0  501    0  0.00000000000E+00 -0.00000000000E+00 -0.11668283194E+04  0.11668283194E+04  0.00000000000E+00 0.  1.
    9900016    2    1    2    0    0 -0.12580335148E+03  0.30152564072E+03  0.46160430394E+03  0.22640295502E+04  0.21922607226E+04 0.  0.
        -24    2    3    3    0    0  0.51470983397E+03  0.11609324889E+03  0.44798450083E+03  0.69671828206E+03  0.79513495449E+02 0.  0.
        -15    1    3    3    0    0 -0.74498505713E+03 -0.36723009858E+03  0.10605683817E+03  0.83732235941E+03  0.00000000000E+00 0.  1.
        -15    1    3    3    0    0  0.26385678401E+03  0.21704897180E+03 -0.10742582313E+03  0.35814936284E+03  0.00000000000E+00 0.  1.
         15    1    4    4    0    0  0.18614635614E+03  0.60434505874E+02  0.12245989234E+03  0.23086623971E+03  0.00000000000E+00 0. -1.
         15    1    3    3    0    0 -0.15938491233E+03  0.33561351861E+03  0.14988788068E+02  0.37183954593E+03  0.00000000000E+00 0. -1.
        -16    1    4    4    0    0  0.32856347782E+03  0.55658743014E+02  0.32552460849E+03  0.46585204235E+03  0.00000000000E+00 0.  1.
         16    1    1    2    0    0  0.10648100020E+03 -0.53465560486E+03  0.55506600750E+03  0.77800584309E+03  0.00000000000E+00 0. -1.
    9900018    1    1    2    0    0  0.19322351285E+02  0.23312996414E+03 -0.51907961000E+02  0.25638359591E+03  0.91187600000E+02 0.  0.
<mgrwt>
<rscale>  0 0.31541721E+04</rscale>
<asrwt>0</asrwt>
<pdfrwt beam="1">  1        2 0.17951205E+00 0.31541721E+04</pdfrwt>
<pdfrwt beam="2">  1       -2 0.32793703E+00 0.31541721E+04</pdfrwt>
<totfact> 0.35830381E-01</totfact>
</mgrwt>
</event>
<event>
11    1  0.3785047E-008  0.3019495E+04  0.7818608E-02  0.8238186E-01
         -1   -1    0    0    0  501 -0.00000000000E+00  0.00000000000E+00  0.13259248965E+04  0.13259248965E+04  0.00000000000E+00 0.  1.
          1   -1    0    0  501    0  0.00000000000E+00 -0.00000000000E+00 -0.17190548915E+04  0.17190548915E+04  0.00000000000E+00 0. -1.
    9900016    2    1    2    0    0 -0.19162145590E+03  0.10129279264E+03 -0.79428268849E+03  0.23609901162E+04  0.22127833892E+04 0.  0.
         24    2    3    3    0    0 -0.50417665105E+03 -0.46978019551E+03 -0.67752922824E+03  0.96966939581E+03  0.79532097166E+02 0.  0.
        -15    1    3    3    0    0  0.21526091943E+02 -0.15246767589E+03  0.11332519782E+03  0.19118672885E+03  0.00000000000E+00 0.  1.
        -15    1    4    4    0    0 -0.44523711782E+02 -0.50896762456E+02 -0.37748216044E+02  0.77445265536E+02  0.00000000000E+00 0.  1.
         15    1    3    3    0    0 -0.87949348809E+02 -0.17832151952E+03 -0.22502322979E+02  0.20009999205E+03  0.00000000000E+00 0. -1.
         15    1    3    3    0    0  0.37897845202E+03  0.90186218356E+03 -0.20757633509E+03  0.10000339995E+04  0.00000000000E+00 0. -1.
        -16    1    1    2    0    0  0.31118345039E+03 -0.18722072923E+03  0.34761612471E+03  0.50271633294E+03  0.00000000000E+00 0.  1.
         16    1    4    4    0    0 -0.45965293927E+03 -0.41888343306E+03 -0.63978101220E+03  0.89222413027E+03  0.00000000000E+00 0. -1.
    9900018    1    1    2    0    0 -0.11956199449E+03  0.85927936594E+02  0.53536568765E+02  0.18127333892E+03  0.91187600000E+02 0.  0.
<mgrwt>
<rscale>  0 0.30194951E+04</rscale>
<asrwt>0</asrwt>
<pdfrwt beam="1">  1        1 0.26446998E+00 0.30194951E+04</pdfrwt>
<pdfrwt beam="2">  1       -1 0.20398845E+00 0.30194951E+04</pdfrwt>
<totfact> 0.55528918E-01</totfact>
</mgrwt>
</event>
<event>
11    1  0.3785047E-008  0.4355684E+04  0.7818608E-02  0.7936401E-01
          2   -1    0    0  501    0  0.00000000000E+00  0.00000000000E+00  0.27085018159E+04  0.27085018159E+04  0.00000000000E+00 0. -1.
         -2   -1    0    0    0  501 -0.00000000000E+00 -0.00000000000E+00 -0.17511512202E+04  0.17511512202E+04  0.00000000000E+00 0.  1.
    9900016    2    1    2    0    0  0.94533141522E+03 -0.33893417917E+03  0.55317851664E+03  0.24859588282E+04  0.22057780854E+04 0.  0.
         24    2    3    3    0    0 -0.25059846509E+03  0.11245788889E+03  0.65375438368E+03  0.71357152442E+03  0.79643950181E+02 0.  0.
        -15    1    3    3    0    0  0.13024801782E+03  0.45275568133E+02 -0.11782513968E+03  0.18137581635E+03  0.00000000000E+00 0.  1.
        -15    1    4    4    0    0 -0.91422442144E+02  0.80933065484E+02  0.24366045254E+03  0.27254107975E+03  0.00000000000E+00 0.  1.
         15    1    3    3    0    0  0.11205605277E+04 -0.66487558840E+02 -0.13671285823E+03  0.11308257591E+04  0.00000000000E+00 0. -1.
         15    1    3    3    0    0 -0.54878665258E+02 -0.43018007736E+03  0.15396213087E+03  0.46018572837E+03  0.00000000000E+00 0. -1.
        -16    1    1    2    0    0  0.63661222046E+02 -0.40914556265E+03 -0.31788194848E+03  0.52201702635E+03  0.00000000000E+00 0.  1.
         16    1    4    4    0    0 -0.15917602294E+03  0.31524823411E+02  0.41009393114E+03  0.44103044467E+03  0.00000000000E+00 0. -1.
    9900018    1    1    2    0    0 -0.10089926373E+04  0.74807974182E+03  0.72205402753E+03  0.14516771815E+04  0.91187600000E+02 0.  0.
<mgrwt>
<rscale>  0 0.43556842E+04</rscale>
<asrwt>0</asrwt>
<pdfrwt beam="1">  1        2 0.41669259E+00 0.43556842E+04</pdfrwt>
<pdfrwt beam="2">  1       -2 0.26940788E+00 0.43556842E+04</pdfrwt>
<totfact> 0.98319800E-02</totfact>
</mgrwt>
</event>
<event>
11    1  0.3785047E-008  0.4192460E+04  0.7818608E-02  0.7966808E-01
         -1   -1    0    0    0  501 -0.00000000000E+00  0.00000000000E+00  0.31821780052E+04  0.31821780052E+04  0.00000000000E+00 0.  1.
          1   -1    0    0  501    0  0.00000000000E+00 -0.00000000000E+00 -0.13808720817E+04  0.13808720817E+04  0.00000000000E+00 0. -1.
    9900016    2    1    2    0    0 -0.90670218349E+03  0.29709576552E+03  0.15982540022E+04  0.28637436779E+04  0.21762897909E+04 0.  0.
        -24    2    3    3    0    0  0.27473801712E+03  0.21230892418E+03 -0.14328245844E+03  0.38384540074E+03  0.79065614739E+02 0.  0.
        -15    1    3    3    0    0 -0.26759631877E+03 -0.14834101979E+03 -0.66563503265E+02  0.31311906352E+03  0.00000000000E+00 0.  1.
        -15    1    3    3    0    0  0.10840522661E+03  0.12507659033E+03  0.27450934556E+03  0.32054832304E+03  0.00000000000E+00 0.  1.
         15    1    4    4    0    0  0.19130107084E+03  0.99241662564E+02 -0.83030339156E+02  0.23095247242E+03  0.00000000000E+00 0. -1.
         15    1    3    3    0    0 -0.10222491085E+04  0.10805127080E+03  0.15335906183E+04  0.18462308906E+04  0.00000000000E+00 0. -1.
        -16    1    4    4    0    0  0.83436946277E+02  0.11306726161E+03 -0.60252119282E+02  0.15289292832E+03  0.00000000000E+00 0.  1.
         16    1    1    2    0    0  0.45050910365E+03 -0.58192397925E+03 -0.43891930720E+03  0.85688046326E+03  0.00000000000E+00 0. -1.
    9900018    1    1    2    0    0  0.45619307985E+03  0.28482821372E+03  0.64197122849E+03  0.84242594573E+03  0.91187600000E+02 0.  0.
<mgrwt>
<rscale>  0 0.41924603E+04</rscale>
<asrwt>0</asrwt>
<pdfrwt beam="1">  1        1 0.21244186E+00 0.41924603E+04</pdfrwt>
<pdfrwt beam="2">  1       -1 0.48956585E+00 0.41924603E+04</pdfrwt>
<totfact> 0.10663721E-02</totfact>
</mgrwt>
</event>
