<event>
10    1  0.1017770E-015  0.3204457E+04  0.7818608E-02  0.8458130E-01
         -2   -1    0    0    0  501 -0.00000000000E+00  0.00000000000E+00  0.17628877233E+04  0.17628877233E+04  0.00000000000E+00 0.  1.
          2   -1    0    0  501    0  0.00000000000E+00 -0.00000000000E+00 -0.28324502376E+04  0.28324502376E+04  0.00000000000E+00 0. -1.
    9900016    2    1    2    0    0 -0.36715809736E+03 -0.13939067708E+02 -0.10029212980E+04  0.24073979882E+04  0.21574787548E+04 0.  0.
        -15    1    3    3    0    0 -0.45794325850E+03  0.36233741603E+03  0.55244673460E+03  0.80386430797E+03  0.00000000000E+00 0.  1.
        -15    1    1    2    0    0 -0.15720313670E+03  0.48382029914E+03  0.30646703667E+03  0.59389978331E+03  0.00000000000E+00 0.  1.
         15    1    3    3    0    0  0.85945049609E+02 -0.29817571162E+03 -0.11821296057E+04  0.12221807195E+04  0.00000000000E+00 0. -1.
         15    1    1    2    0    0  0.14691236898E+03  0.38864412312E+03  0.16330788297E+03  0.44642688454E+03  0.00000000000E+00 0. -1.
        -16    1    3    3    0    0  0.48401115382E+01 -0.78100772110E+02 -0.37323842690E+03  0.38135296065E+03  0.00000000000E+00 0.  1.
         16    1    1    2    0    0  0.39709281235E+03 -0.82294344987E+03 -0.49804989365E+03  0.10406595600E+04  0.00000000000E+00 0. -1.
    9900018    1    1    2    0    0 -0.19643947265E+02 -0.35581904689E+02 -0.38366242246E+02  0.10695374488E+03  0.91187600000E+02 0.  0.
<mgrwt>
<rscale>  0 0.23508694E+04</rscale>
<asrwt>0</asrwt>
<pdfrwt beam="1">  1        2 0.43576158E+00 0.32044571E+04</pdfrwt>
<pdfrwt beam="2">  1       -2 0.27121350E+00 0.32044571E+04</pdfrwt>
<totfact> 0.85160182E-02</totfact>
</mgrwt>
</event>
<event>
11    1  0.1017770E-015  0.3148218E+04  0.7818608E-02  0.8519225E-01
         -2   -1    0    0    0  501 -0.00000000000E+00  0.00000000000E+00  0.19770139420E+04  0.19770139420E+04  0.00000000000E+00 0.  1.
          2   -1    0    0  501    0  0.00000000000E+00 -0.00000000000E+00 -0.21652649637E+04  0.21652649637E+04  0.00000000000E+00 0. -1.
    9900016    2    1    2    0    0  0.28676675729E+03  0.34508668900E+03  0.10926541010E+03  0.22973953590E+04  0.22505036124E+04 0.  0.
        -24    2    3    3    0    0  0.83423350959E+03  0.30044633627E+03  0.89141440468E+03  0.12583127160E+04  0.50176696977E+02 0.  0.
        -15    1    1    2    0    0 -0.39491164282E+03 -0.12998082537E+02  0.65100674083E+03  0.76153393384E+03  0.00000000000E+00 0.  1.
        -15    1    3    3    0    0 -0.50720265883E+03  0.14740833265E+02 -0.78529594918E+03  0.93496607269E+03  0.00000000000E+00 0.  1.
         15    1    4    4    0    0  0.53049201304E+03  0.17727604760E+03  0.53280192258E+03  0.77248071928E+03  0.00000000000E+00 0. -1.
         15    1    1    2    0    0 -0.11033829529E+02  0.86029019214E+02 -0.12562421166E+03  0.15265706697E+03  0.00000000000E+00 0. -1.
        -16    1    4    4    0    0  0.30374149654E+03  0.12317028867E+03  0.35861248210E+03  0.48583199673E+03  0.00000000000E+00 0.  1.
         16    1    1    2    0    0  0.11917871505E+03 -0.41811762567E+03 -0.82289896102E+03  0.93069254594E+03  0.00000000000E+00 0. -1.
    9900018    1    3    3    0    0 -0.40264093464E+02  0.29899519463E+02  0.31469546042E+01  0.10411657026E+03  0.91187600000E+02 0.  0.
<mgrwt>
<rscale>  0 0.21980868E+04</rscale>
<asrwt>0</asrwt>
<pdfrwt beam="1">  1        2 0.33311769E+00 0.31482183E+04</pdfrwt>
<pdfrwt beam="2">  1       -2 0.30415599E+00 0.31482183E+04</pdfrwt>
<totfact> 0.13255381E-01</totfact>
</mgrwt>
</event>
<event>
11    1  0.1017770E-015  0.4213591E+04  0.7818608E-02  0.8046440E-01
          2   -1    0    0  501    0  0.00000000000E+00  0.00000000000E+00  0.46515852538E+04  0.46515852538E+04  0.00000000000E+00 0.  1.
         -2   -1    0    0    0  501 -0.00000000000E+00 -0.00000000000E+00 -0.29360958202E+04  0.29360958202E+04  0.00000000000E+00 0. -1.
    9900016    2    1    2    0    0  0.12643495704E+04  0.71405739471E+03 -0.50337597592E+03  0.27260084022E+04  0.22515054156E+04 0.  0.
         24    2    3    3    0    0  0.20242857321E+03  0.49327249658E+03  0.81329165203E+03  0.97712482730E+03  0.95050164313E+02 0.  0.
        -15    1    4    4    0    0  0.63840753579E+02  0.16049255589E+03  0.34820832568E+03  0.38869337579E+03  0.00000000000E+00 0.  1.
        -15    1    1    2    0    0 -0.80538034525E+03  0.12143500561E+04  0.31882864718E+03  0.14916216898E+04  0.00000000000E+00 0.  1.
         15    1    3    3    0    0  0.10092112726E+04  0.15960584927E+03 -0.12318929851E+04  0.16004817233E+04  0.00000000000E+00 0. -1.
         15    1    1    2    0    0 -0.13891197321E+03 -0.11331970410E+04 -0.14669285056E+03  0.11510650992E+04  0.00000000000E+00 0. -1.
        -16    1    1    2    0    0 -0.32005725192E+03 -0.79521040977E+03  0.20467296129E+04  0.22189858829E+04  0.00000000000E+00 0.  1.
         16    1    4    4    0    0  0.13858781963E+03  0.33277994069E+03  0.46508332635E+03  0.58843145151E+03  0.00000000000E+00 0. -1.
    9900018    1    3    3    0    0  0.52709724567E+02  0.61179048863E+02 -0.84774642854E+02  0.14840185157E+03  0.91187600000E+02 0.  0.
<mgrwt>
<rscale>  0 0.37986714E+04</rscale>
<asrwt>0</asrwt>
<pdfrwt beam="1">  1        2 0.71562851E+00 0.42135906E+04</pdfrwt>
<pdfrwt beam="2">  1       -2 0.45170705E+00 0.42135906E+04</pdfrwt>
<totfact> 0.20591707E-04</totfact>
</mgrwt>
</event>
<event>
11    1  0.1017770E-015  0.4272704E+04  0.7818608E-02  0.8107088E-01
         -2   -1    0    0    0  501 -0.00000000000E+00  0.00000000000E+00  0.42874231469E+04  0.42874231469E+04  0.00000000000E+00 0.  1.
          2   -1    0    0  501    0  0.00000000000E+00 -0.00000000000E+00 -0.23103695732E+04  0.23103695732E+04  0.00000000000E+00 0. -1.
    9900016    2    1    2    0    0 -0.22470101935E+03  0.48657453498E+03  0.62400996174E+03  0.23874331717E+04  0.22412504078E+04 0.  0.
        -24    2    3    3    0    0 -0.81152110556E+03 -0.47183274816E+03 -0.14816360330E+03  0.95220126931E+03  0.59516022487E+02 0.  0.
        -15    1    3    3    0    0  0.57437730547E+03  0.92931954025E+03  0.77367585749E+03  0.13387002762E+04  0.00000000000E+00 0.  1.
        -15    1    1    2    0    0 -0.14206460465E+04  0.85989936929E+03  0.35304110207E+03  0.16977338232E+04  0.00000000000E+00 0.  1.
         15    1    1    2    0    0  0.30578750161E+03  0.50814821549E+02 -0.44438806995E+02  0.31315004359E+03  0.00000000000E+00 0. -1.
         15    1    4    4    0    0 -0.36913901889E+03 -0.18493470328E+03 -0.50279775542E+02  0.41592368960E+03  0.00000000000E+00 0. -1.
        -16    1    4    4    0    0 -0.44238208667E+03 -0.28689804489E+03 -0.97883827762E+02  0.53627757971E+03  0.00000000000E+00 0.  1.
         16    1    1    2    0    0  0.13395595643E+04 -0.13972887258E+04  0.10444413169E+04  0.21994756816E+04  0.00000000000E+00 0. -1.
    9900018    1    3    3    0    0  0.12442780737E+02  0.29087742890E+02 -0.15022924409E+01  0.96531626192E+02  0.91187600000E+02 0.  0.
<mgrwt>
<rscale>  0 0.35284181E+04</rscale>
<asrwt>0</asrwt>
<pdfrwt beam="1">  1        2 0.35544147E+00 0.42727044E+04</pdfrwt>
<pdfrwt beam="2">  1       -2 0.65960356E+00 0.42727044E+04</pdfrwt>
<totfact> 0.10174371E-03</totfact>
</mgrwt>
</event>
<event>
11    1  0.1017770E-015  0.4354466E+04  0.7818608E-02  0.7936623E-01
          2   -1    0    0  501    0  0.00000000000E+00  0.00000000000E+00  0.35072293493E+04  0.35072293493E+04  0.00000000000E+00 0. -1.
         -2   -1    0    0    0  501 -0.00000000000E+00 -0.00000000000E+00 -0.13515921766E+04  0.13515921766E+04  0.00000000000E+00 0.  1.
    9900016    2    1    2    0    0 -0.17422055704E+03 -0.16352957871E+03  0.79412895949E+03  0.23061524232E+04  0.21518837025E+04 0.  0.
         24    2    3    3    0    0 -0.16899905775E+03 -0.73588052236E+03 -0.48651924550E+03  0.90341485268E+03  0.96832820339E+02 0.  0.
        -15    1    4    4    0    0 -0.80873215398E+02 -0.50080565781E+03 -0.36178137824E+03  0.62308310000E+03  0.00000000000E+00 0.  1.
        -15    1    1    2    0    0  0.13977205931E+03  0.22822085650E+03 -0.12110583031E+02  0.26789485648E+03  0.00000000000E+00 0.  1.
         15    1    3    3    0    0 -0.52214992869E+01  0.57235094365E+03  0.12806482050E+04  0.14027375705E+04  0.00000000000E+00 0. -1.
         15    1    1    2    0    0 -0.43093661546E+03 -0.52451472942E+03  0.13636240520E+04  0.15232506763E+04  0.00000000000E+00 0. -1.
        -16    1    1    2    0    0  0.44895314645E+03  0.46797018110E+03 -0.50664280213E+02  0.65047819902E+03  0.00000000000E+00 0.  1.
         16    1    4    4    0    0 -0.88125842355E+02 -0.23507486455E+03 -0.12473786726E+03  0.28033175268E+03  0.00000000000E+00 0. -1.
    9900018    1    1    2    0    0  0.16431966738E+02 -0.81467294690E+01  0.60659024551E+02  0.11104537084E+03  0.91187600000E+02 0.  0.
<mgrwt>
<rscale>  0 0.43544661E+04</rscale>
<asrwt>0</asrwt>
<pdfrwt beam="1">  1        2 0.53957374E+00 0.43544661E+04</pdfrwt>
<pdfrwt beam="2">  1       -2 0.20793726E+00 0.43544661E+04</pdfrwt>
<totfact> 0.72597789E-02</totfact>
</mgrwt>
</event>
<event>
11    1  0.1017770E-015  0.3530836E+04  0.7818608E-02  0.8451719E-01
         -2   -1    0    0    0  501 -0.00000000000E+00  0.00000000000E+00  0.21004321992E+04  0.21004321992E+04  0.00000000000E+00 0.  1.
          2   -1    0    0  501    0  0.00000000000E+00 -0.00000000000E+00 -0.27104919135E+04  0.27104919135E+04  0.00000000000E+00 0. -1.
    9900016    2    1    2    0    0  0.72735326300E+03  0.17390935574E+03 -0.62612596891E+03  0.24545397094E+04  0.22524307366E+04 0.  0.
         24    2    3    3    0    0 -0.75522683566E+03 -0.19315605824E+03 -0.16161259510E+03  0.79818090469E+03  0.57422030331E+02 0.  0.
        -15    1    1    2    0    0  0.39233003875E+03  0.17795993577E+03  0.28589793874E+03  0.51703987218E+03  0.00000000000E+00 0.  1.
        -15    1    4    4    0    0 -0.11845142637E+03 -0.50229327597E+02 -0.17572712342E+02  0.12985578916E+03  0.00000000000E+00 0.  1.
         15    1    1    2    0    0 -0.16105307330E+02 -0.23329352644E+03  0.45648009722E+03  0.51289309759E+03  0.00000000000E+00 0. -1.
         15    1    3    3    0    0  0.14412179116E+04  0.30842479096E+03 -0.43137465724E+03  0.15356819382E+04  0.00000000000E+00 0. -1.
        -16    1    1    2    0    0 -0.11035779944E+04 -0.11857576508E+03 -0.72631178128E+03  0.13264514335E+04  0.00000000000E+00 0.  1.
         16    1    4    4    0    0 -0.63677540929E+03 -0.14292673064E+03 -0.14403988276E+03  0.66832511552E+03  0.00000000000E+00 0. -1.
    9900018    1    3    3    0    0  0.41362187048E+02  0.58640623020E+02 -0.33138716573E+02  0.12067686653E+03  0.91187600000E+02 0.  0.
<mgrwt>
<rscale>  0 0.23676407E+04</rscale>
<asrwt>0</asrwt>
<pdfrwt beam="1">  1        2 0.41699876E+00 0.35308365E+04</pdfrwt>
<pdfrwt beam="2">  1       -2 0.32314341E+00 0.35308365E+04</pdfrwt>
<totfact> 0.47165276E-02</totfact>
</mgrwt>
</event>
<event>
11    1  0.1017770E-015  0.2564940E+04  0.7818608E-02  0.8674692E-01
         -2   -1    0    0    0  501 -0.00000000000E+00  0.00000000000E+00  0.73647358117E+03  0.73647358117E+03  0.00000000000E+00 0.  1.
          2   -1    0    0  501    0  0.00000000000E+00 -0.00000000000E+00 -0.38615706207E+04  0.38615706207E+04  0.00000000000E+00 0. -1.
    9900016    2    1    2    0    0 -0.34700755860E+01  0.40058405325E+02 -0.24213838755E+04  0.32321311817E+04  0.21405502530E+04 0.  0.
         24    2    3    3    0    0 -0.10630711170E+04 -0.90703698188E+02 -0.11427670141E+04  0.15663838500E+04  0.96408279561E+02 0.  0.
        -15    1    1    2    0    0  0.26128982206E+03  0.14422355716E+03 -0.27278935899E+03  0.40433505900E+03  0.00000000000E+00 0.  1.
        -15    1    4    4    0    0 -0.47548610182E+03 -0.88632535292E+02 -0.52015993814E+03  0.71028805465E+03  0.00000000000E+00 0.  1.
         15    1    1    2    0    0 -0.42322752577E+03 -0.73286128311E+02 -0.40485270700E+02  0.43142954502E+03  0.00000000000E+00 0. -1.
         15    1    3    3    0    0  0.10596010414E+04  0.13076210351E+03 -0.12786168614E+04  0.16657473317E+04  0.00000000000E+00 0. -1.
        -16    1    1    2    0    0  0.14184121187E+03 -0.18750833645E+03 -0.22915786953E+03  0.32831636387E+03  0.00000000000E+00 0.  1.
         16    1    4    4    0    0 -0.58758501519E+03 -0.20711628958E+01 -0.62260707597E+03  0.85609579536E+03  0.00000000000E+00 0. -1.
    9900018    1    1    2    0    0  0.23566567424E+02  0.76512502270E+02 -0.16128066483E+03  0.20183205232E+03  0.91187600000E+02 0.  0.
<mgrwt>
<rscale>  0 0.18606566E+04</rscale>
<asrwt>0</asrwt>
<pdfrwt beam="1">  1        2 0.59408778E+00 0.25649399E+04</pdfrwt>
<pdfrwt beam="2">  1       -2 0.11330363E+00 0.25649399E+04</pdfrwt>
<totfact> 0.23469346E-01</totfact>
</mgrwt>
</event>
<event>
10    1  0.1017770E-015  0.6112321E+04  0.7818608E-02  0.7676629E-01
          2   -1    0    0  501    0  0.00000000000E+00  0.00000000000E+00  0.41772304757E+04  0.41772304757E+04  0.00000000000E+00 0.  1.
         -2   -1    0    0    0  501 -0.00000000000E+00 -0.00000000000E+00 -0.22359593289E+04  0.22359593289E+04  0.00000000000E+00 0. -1.
    9900016    2    1    2    0    0 -0.56090265158E+03 -0.62180393499E+03 -0.35860031246E+02  0.23043995999E+04  0.21465599586E+04 0.  0.
        -15    1    1    2    0    0  0.13420403088E+03 -0.46965617811E+03  0.85550364659E+03  0.98512645730E+03  0.00000000000E+00 0.  1.
        -15    1    3    3    0    0 -0.46043227220E+03  0.38990105305E+03 -0.10734901614E+03  0.61281687290E+03  0.00000000000E+00 0.  1.
         15    1    3    3    0    0  0.17525558295E+03 -0.12783651927E+04  0.15323754652E+03  0.12993897918E+04  0.00000000000E+00 0. -1.
         15    1    1    2    0    0  0.27092113372E+03  0.32171689890E+03 -0.78969001899E+03  0.89471243974E+03  0.00000000000E+00 0. -1.
        -16    1    1    2    0    0  0.17157147085E+03  0.87124385700E+03  0.18922951643E+04  0.20902831427E+04  0.00000000000E+00 0.  1.
         16    1    3    3    0    0 -0.27572596233E+03  0.26666020470E+03 -0.81748561633E+02  0.39219293518E+03  0.00000000000E+00 0. -1.
    9900018    1    1    2    0    0 -0.15793983878E+02 -0.10150064281E+03  0.19022386118E+02  0.13866816500E+03  0.91187600000E+02 0.  0.
<mgrwt>
<rscale>  0 0.61123211E+04</rscale>
<asrwt>0</asrwt>
<pdfrwt beam="1">  1        2 0.64265084E+00 0.61123211E+04</pdfrwt>
<pdfrwt beam="2">  1       -2 0.34399374E+00 0.61123211E+04</pdfrwt>
<totfact> 0.27359354E-03</totfact>
</mgrwt>
</event>
<event>
10    1  0.1017770E-015  0.2741375E+04  0.7818608E-02  0.8582371E-01
          2   -1    0    0  501    0  0.00000000000E+00  0.00000000000E+00  0.25975332709E+04  0.25975332709E+04  0.00000000000E+00 0. -1.
         -2   -1    0    0    0  501 -0.00000000000E+00 -0.00000000000E+00 -0.12590496838E+04  0.12590496838E+04  0.00000000000E+00 0.  1.
    9900016    2    1    2    0    0 -0.61010969324E+02 -0.22397390377E+03  0.58857005523E+03  0.22450248307E+04  0.21540276536E+04 0.  0.
        -15    1    1    2    0    0 -0.39067822365E+03  0.26112008349E+03 -0.11997291235E+03  0.48498110492E+03  0.00000000000E+00 0.  1.
        -15    1    3    3    0    0  0.16504923543E+03 -0.10036574206E+04 -0.27558660964E+03  0.10538109163E+04  0.00000000000E+00 0.  1.
         15    1    3    3    0    0 -0.20533827163E+02  0.72074298712E+02  0.13597753504E+03  0.15526181961E+03  0.00000000000E+00 0. -1.
         15    1    1    2    0    0  0.15783555405E+03 -0.20413634733E+03  0.29944961004E+03  0.39528948807E+03  0.00000000000E+00 0. -1.
        -16    1    3    3    0    0 -0.20552637759E+03  0.70760921810E+03  0.72817912984E+03  0.10359520947E+04  0.00000000000E+00 0.  1.
         16    1    1    2    0    0  0.26689872627E+03  0.18298216559E+03  0.54113292662E+03  0.63050951403E+03  0.00000000000E+00 0. -1.
    9900018    1    1    2    0    0  0.26954912659E+02 -0.15991997986E+02  0.29303907540E+02  0.10077801698E+03  0.91187600000E+02 0.  0.
<mgrwt>
<rscale>  0 0.20526998E+04</rscale>
<asrwt>0</asrwt>
<pdfrwt beam="1">  1        2 0.39962050E+00 0.27413753E+04</pdfrwt>
<pdfrwt beam="2">  1       -2 0.19369995E+00 0.27413753E+04</pdfrwt>
<totfact> 0.38040730E-01</totfact>
</mgrwt>
</event>
<event>
11    1  0.1017770E-015  0.2848225E+04  0.7818608E-02  0.8620917E-01
          2   -1    0    0  501    0  0.00000000000E+00  0.00000000000E+00  0.33999763384E+04  0.33999763384E+04  0.00000000000E+00 0.  1.
         -2   -1    0    0    0  501 -0.00000000000E+00 -0.00000000000E+00 -0.10266079656E+04  0.10266079656E+04  0.00000000000E+00 0. -1.
    9900016    2    1    2    0    0 -0.16085238079E+03 -0.29505227686E+02  0.10408054774E+04  0.24788552526E+04  0.22438144475E+04 0.  0.
        -24    2    3    3    0    0 -0.57803859554E+03 -0.72322589841E+03  0.12324048491E+04  0.15429412920E+04  0.68277378606E+02 0.  0.
        -15    1    3    3    0    0  0.44365877783E+03  0.68754593386E+03 -0.19314570925E+03  0.84074834957E+03  0.00000000000E+00 0.  1.
        -15    1    1    2    0    0  0.95386053115E+01  0.24395604615E+03  0.71257711073E+03  0.75324078234E+03  0.00000000000E+00 0.  1.
         15    1    4    4    0    0 -0.16596653244E+03 -0.20824673523E+03  0.40727474603E+03  0.48660488219E+03  0.00000000000E+00 0. -1.
         15    1    1    2    0    0 -0.35071635852E+03  0.99977987280E+02  0.44797890873E+03  0.57765271984E+03  0.00000000000E+00 0. -1.
        -16    1    4    4    0    0 -0.41207206309E+03 -0.51497916319E+03  0.82513010305E+03  0.10563364098E+04  0.00000000000E+00 0.  1.
         16    1    1    2    0    0  0.50203013400E+03 -0.31442880575E+03  0.17200687594E+03  0.61683554915E+03  0.00000000000E+00 0. -1.
    9900018    1    3    3    0    0 -0.26472563086E+02  0.61747368717E+01  0.15463375356E+01  0.95165611044E+02  0.91187600000E+02 0.  0.
<mgrwt>
<rscale>  0 0.19697044E+04</rscale>
<asrwt>0</asrwt>
<pdfrwt beam="1">  1        2 0.52307328E+00 0.28482254E+04</pdfrwt>
<pdfrwt beam="2">  1       -2 0.15793969E+00 0.28482254E+04</pdfrwt>
<totfact> 0.21017170E-01</totfact>
</mgrwt>
</event>
<event>
11    1  0.1017770E-015  0.6811752E+04  0.7818608E-02  0.7597167E-01
          2   -1    0    0  501    0  0.00000000000E+00  0.00000000000E+00  0.39028496820E+04  0.39028496820E+04  0.00000000000E+00 0. -1.
         -2   -1    0    0    0  501 -0.00000000000E+00 -0.00000000000E+00 -0.29721851492E+04  0.29721851492E+04  0.00000000000E+00 0.  1.
    9900016    2    1    2    0    0 -0.69905582828E+03 -0.11523024274E+04 -0.39997608048E+03  0.26483388630E+04  0.22443791865E+04 0.  0.
        -24    2    3    3    0    0 -0.88223526907E+03 -0.58385339934E+03  0.71387138684E+03  0.12794559717E+04  0.90395600235E+02 0.  0.
        -15    1    1    2    0    0  0.12923448033E+04 -0.31847989982E+02 -0.42381154885E+03  0.13604358177E+04  0.00000000000E+00 0.  1.
        -15    1    3    3    0    0  0.25455039334E+03 -0.54199141600E+03 -0.10958106039E+04  0.12487399558E+04  0.00000000000E+00 0.  1.
         15    1    1    2    0    0  0.19166600893E+03  0.14308675139E+04  0.11039559012E+04  0.18173707198E+04  0.00000000000E+00 0. -1.
         15    1    4    4    0    0 -0.51403199922E+03 -0.31274546269E+03  0.35898377994E+03  0.70064825334E+03  0.00000000000E+00 0. -1.
        -16    1    4    4    0    0 -0.36820326985E+03 -0.27110793665E+03  0.35488760691E+03  0.57880771831E+03  0.00000000000E+00 0.  1.
         16    1    1    2    0    0 -0.78495498394E+03 -0.24671709648E+03  0.65049626089E+03  0.10488894308E+04  0.00000000000E+00 0. -1.
    9900018    1    3    3    0    0 -0.71370952554E+02 -0.26457612057E+02 -0.18036863453E+02  0.12014293546E+03  0.91187600000E+02 0.  0.
<mgrwt>
<rscale>  0 0.68117522E+04</rscale>
<asrwt>0</asrwt>
<pdfrwt beam="1">  1        2 0.60043841E+00 0.68117522E+04</pdfrwt>
<pdfrwt beam="2">  1       -2 0.45725925E+00 0.68117522E+04</pdfrwt>
<totfact> 0.80558792E-04</totfact>
</mgrwt>
</event>
<event>
11    1  0.1017770E-015  0.5574413E+04  0.7818608E-02  0.7745532E-01
          2   -1    0    0  501    0  0.00000000000E+00  0.00000000000E+00  0.38043956100E+04  0.38043956100E+04  0.00000000000E+00 0. -1.
         -2   -1    0    0    0  501 -0.00000000000E+00 -0.00000000000E+00 -0.20419853943E+04  0.20419853943E+04  0.00000000000E+00 0.  1.
    9900016    2    1    2    0    0  0.73878123157E+02  0.69960749271E+03  0.45537981576E+03  0.22998103290E+04  0.21416928238E+04 0.  0.
        -24    2    3    3    0    0  0.72951285135E+03  0.84555818987E+03 -0.41985179663E+03  0.11965474962E+04  0.91064410405E+02 0.  0.
        -15    1    3    3    0    0 -0.65563472819E+03 -0.14595069716E+03  0.87523161239E+03  0.11032628328E+04  0.00000000000E+00 0.  1.
        -15    1    1    2    0    0  0.84396378487E+03 -0.31916503316E+03 -0.39337800079E+03  0.98432080140E+03  0.00000000000E+00 0.  1.
         15    1    1    2    0    0 -0.76689495666E+03  0.35187857693E+03  0.33521474873E+03  0.90791813244E+03  0.00000000000E+00 0. -1.
         15    1    4    4    0    0  0.23022913061E+03  0.20699424554E+03 -0.12813331071E+03  0.33506747914E+03  0.00000000000E+00 0. -1.
        -16    1    4    4    0    0  0.49928372074E+03  0.63856394433E+03 -0.29171848592E+03  0.86148001708E+03  0.00000000000E+00 0.  1.
         16    1    1    2    0    0 -0.79155675816E+02 -0.76169883133E+03  0.13206049124E+04  0.15265805139E+04  0.00000000000E+00 0. -1.
    9900018    1    1    2    0    0 -0.71791275548E+02  0.29377794843E+02  0.44588739578E+02  0.12775122765E+03  0.91187600000E+02 0.  0.
<mgrwt>
<rscale>  0 0.55744131E+04</rscale>
<asrwt>0</asrwt>
<pdfrwt beam="1">  1        2 0.58529163E+00 0.55744131E+04</pdfrwt>
<pdfrwt beam="2">  1       -2 0.31415160E+00 0.55744131E+04</pdfrwt>
<totfact> 0.87887037E-03</totfact>
</mgrwt>
</event>
<event>
11    1  0.1017770E-015  0.5062771E+04  0.7818608E-02  0.7818897E-01
          2   -1    0    0  501    0  0.00000000000E+00  0.00000000000E+00  0.26818137280E+04  0.26818137280E+04  0.00000000000E+00 0. -1.
         -2   -1    0    0    0  501 -0.00000000000E+00 -0.00000000000E+00 -0.23893946883E+04  0.23893946883E+04  0.00000000000E+00 0.  1.
    9900016    2    1    2    0    0  0.11711294608E+03 -0.20058872909E+03  0.59289748182E+03  0.23281824339E+04  0.22394094627E+04 0.  0.
         24    2    3    3    0    0  0.66559492144E+03  0.77885063047E+03  0.14767053147E+03  0.10370816777E+04  0.64085227308E+02 0.  0.
        -15    1    1    2    0    0  0.13040122084E+03 -0.26040305401E+03 -0.55358664357E+03  0.62551770629E+03  0.00000000000E+00 0.  1.
        -15    1    4    4    0    0  0.21028285309E+03  0.29312985082E+03  0.51015885469E+02  0.36434407957E+03  0.00000000000E+00 0.  1.
         15    1    3    3    0    0 -0.54467078946E+03 -0.97402601499E+03  0.43981705829E+03  0.11995132311E+04  0.00000000000E+00 0. -1.
         15    1    1    2    0    0 -0.81556950585E+03  0.40505155732E+03  0.88232725951E+03  0.12679596901E+04  0.00000000000E+00 0. -1.
        -16    1    1    2    0    0  0.56805533893E+03  0.55940225780E+02 -0.62921905801E+03  0.84954858596E+03  0.00000000000E+00 0.  1.
         16    1    4    4    0    0  0.45531206835E+03  0.48572077965E+03  0.96654645999E+02  0.67273759815E+03  0.00000000000E+00 0. -1.
    9900018    1    3    3    0    0 -0.38111859024E+01 -0.54133445789E+01  0.54098920622E+01  0.91587525152E+02  0.91187600000E+02 0.  0.
<mgrwt>
<rscale>  0 0.50627706E+04</rscale>
<asrwt>0</asrwt>
<pdfrwt beam="1">  1        2 0.41258673E+00 0.50627706E+04</pdfrwt>
<pdfrwt beam="2">  1       -2 0.36759918E+00 0.50627706E+04</pdfrwt>
<totfact> 0.23725788E-02</totfact>
</mgrwt>
</event>
<event>
10    1  0.1017770E-015  0.5336795E+04  0.7818608E-02  0.8073222E-01
         -2   -1    0    0    0  501 -0.00000000000E+00  0.00000000000E+00  0.30293462760E+04  0.30293462760E+04  0.00000000000E+00 0.  1.
          2   -1    0    0  501    0  0.00000000000E+00 -0.00000000000E+00 -0.35375796438E+04  0.35375796438E+04  0.00000000000E+00 0. -1.
    9900016    2    1    2    0    0 -0.63441624393E+03 -0.16695605440E+04 -0.58475082435E+03  0.28634491994E+04  0.21604377821E+04 0.  0.
        -15    1    1    2    0    0  0.58294949479E+03 -0.72181767978E+03 -0.41298401338E+03  0.10155819374E+04  0.00000000000E+00 0.  1.
        -15    1    3    3    0    0 -0.80792321444E+03 -0.10083130700E+04  0.63939999229E+03  0.14416197549E+04  0.00000000000E+00 0.  1.
         15    1    1    2    0    0 -0.70754536084E+01  0.85588922611E+02  0.18836416656E+03  0.20701832035E+03  0.00000000000E+00 0. -1.
         15    1    3    3    0    0 -0.35771115560E+02 -0.15656614863E+03 -0.41979664507E+03  0.44946830235E+03  0.00000000000E+00 0. -1.
        -16    1    3    3    0    0  0.20927808607E+03 -0.50468132537E+03 -0.80435417157E+03  0.97236114217E+03  0.00000000000E+00 0.  1.
         16    1    1    2    0    0  0.10276748130E+03  0.23486819708E+04  0.30576523370E+03  0.23707299579E+04  0.00000000000E+00 0. -1.
    9900018    1    1    2    0    0 -0.44225278556E+02 -0.42892669601E+02 -0.46279303971E+01  0.11014650472E+03  0.91187600000E+02 0.  0.
<mgrwt>
<rscale>  0 0.36763552E+04</rscale>
<asrwt>0</asrwt>
<pdfrwt beam="1">  1        2 0.54424302E+00 0.53367949E+04</pdfrwt>
<pdfrwt beam="2">  1       -2 0.46605328E+00 0.53367949E+04</pdfrwt>
<totfact> 0.14190286E-03</totfact>
</mgrwt>
</event>
<event>
11    1  0.1017770E-015  0.4188099E+04  0.7818608E-02  0.8214534E-01
          2   -1    0    0  501    0  0.00000000000E+00  0.00000000000E+00  0.24137904707E+04  0.24137904707E+04  0.00000000000E+00 0.  1.
         -2   -1    0    0    0  501 -0.00000000000E+00 -0.00000000000E+00 -0.31040312899E+04  0.31040312899E+04  0.00000000000E+00 0. -1.
    9900016    2    1    2    0    0 -0.91040571856E+03  0.17264780334E+03  0.61847614171E+03  0.24336268326E+04  0.21636499223E+04 0.  0.
        -24    2    3    3    0    0 -0.13277800216E+04  0.49171442129E+03  0.10401687153E+04  0.17599581884E+04  0.10353265605E+03 0.  0.
        -15    1    3    3    0    0  0.41737430303E+03 -0.31906661795E+03 -0.42169257362E+03  0.67366864419E+03  0.00000000000E+00 0.  1.
        -15    1    1    2    0    0 -0.10693174892E+03  0.32376091664E+03  0.58796914023E+03  0.67967877702E+03  0.00000000000E+00 0.  1.
         15    1    1    2    0    0  0.21791423994E+03 -0.58612470034E+02 -0.54030435040E+03  0.58553465199E+03  0.00000000000E+00 0. -1.
         15    1    4    4    0    0 -0.84018827778E+03  0.33182076263E+03  0.71953289862E+03  0.11548804929E+04  0.00000000000E+00 0. -1.
        -16    1    4    4    0    0 -0.48759174381E+03  0.15989365866E+03  0.32063581672E+03  0.60507769557E+03  0.00000000000E+00 0.  1.
         16    1    1    2    0    0  0.86324117757E+03 -0.44817564291E+03 -0.13950920365E+04  0.17006847232E+04  0.00000000000E+00 0. -1.
    9900018    1    1    2    0    0 -0.63817950031E+02  0.10379392965E+02  0.38710285683E+02  0.11829677576E+03  0.91187600000E+02 0.  0.
<mgrwt>
<rscale>  0 0.31043919E+04</rscale>
<asrwt>0</asrwt>
<pdfrwt beam="1">  1        2 0.37135238E+00 0.41880990E+04</pdfrwt>
<pdfrwt beam="2">  1       -2 0.47754328E+00 0.41880990E+04</pdfrwt>
<totfact> 0.66719082E-03</totfact>
</mgrwt>
</event>
<event>
11    1  0.1017770E-015  0.3234629E+04  0.7818608E-02  0.8396310E-01
          1   -1    0    0  501    0  0.00000000000E+00  0.00000000000E+00  0.35228401239E+04  0.35228401239E+04  0.00000000000E+00 0. -1.
         -1   -1    0    0    0  501 -0.00000000000E+00 -0.00000000000E+00 -0.13928027814E+04  0.13928027814E+04  0.00000000000E+00 0.  1.
    9900016    2    1    2    0    0 -0.17420343010E+03  0.12851547591E+04  0.96194835100E+03  0.27673087983E+04  0.22473726361E+04 0.  0.
        -24    2    3    3    0    0 -0.11295267618E+04  0.61749711926E+03  0.64634473597E+03  0.14436100011E+04  0.95472087678E+02 0.  0.
        -15    1    3    3    0    0  0.99061012641E+03  0.65317075130E+03  0.29599501749E+03  0.12229282494E+04  0.00000000000E+00 0.  1.
        -15    1    1    2    0    0 -0.22138405025E+03 -0.92782656959E+03  0.55901976527E+03  0.11056112060E+04  0.00000000000E+00 0.  1.
         15    1    4    4    0    0 -0.64296501360E+03  0.30606341190E+03  0.38562103279E+03  0.80980392797E+03  0.00000000000E+00 0. -1.
         15    1    1    2    0    0  0.11717701198E+03  0.69959177792E+02 -0.10008010747E+03  0.16923583133E+03  0.00000000000E+00 0. -1.
        -16    1    4    4    0    0 -0.48656174821E+03  0.31143370736E+03  0.26072370317E+03  0.63380607310E+03  0.00000000000E+00 0.  1.
         16    1    1    2    0    0  0.27841046837E+03 -0.42728736730E+03  0.70914933375E+03  0.87348706958E+03  0.00000000000E+00 0. -1.
    9900018    1    3    3    0    0 -0.35286794705E+02  0.14486888546E+02  0.19608597536E+02  0.10077054784E+03  0.91187600000E+02 0.  0.
<mgrwt>
<rscale>  0 0.25188248E+04</rscale>
<asrwt>0</asrwt>
<pdfrwt beam="1">  1        1 0.54197540E+00 0.32346294E+04</pdfrwt>
<pdfrwt beam="2">  1       -1 0.21427735E+00 0.32346294E+04</pdfrwt>
<totfact> 0.23216199E-02</totfact>
</mgrwt>
</event>
<event>
11    1  0.1017770E-015  0.5059834E+04  0.7818608E-02  0.7965523E-01
          2   -1    0    0  501    0  0.00000000000E+00  0.00000000000E+00  0.37055240673E+04  0.37055240673E+04  0.00000000000E+00 0.  1.
         -2   -1    0    0    0  501 -0.00000000000E+00 -0.00000000000E+00 -0.49992847164E+04  0.49992847164E+04  0.00000000000E+00 0. -1.
    9900016    2    1    2    0    0 -0.59764643859E+03 -0.61435447051E+03  0.63843906560E+03  0.24104809380E+04  0.21606020529E+04 0.  0.
         24    2    3    3    0    0 -0.93987498580E+03 -0.11196038723E+04  0.92907585789E+03  0.17345615038E+04  0.92972257752E+02 0.  0.
        -15    1    1    2    0    0 -0.39954084821E+00 -0.15912653352E+03 -0.36713419994E+03  0.40013614442E+03  0.00000000000E+00 0.  1.
        -15    1    4    4    0    0 -0.21944194235E+03 -0.25453981598E+03  0.26065684106E+03  0.42530844427E+03  0.00000000000E+00 0.  1.
         15    1    3    3    0    0  0.34222854721E+03  0.50524940184E+03 -0.29063679229E+03  0.67591943426E+03  0.00000000000E+00 0. -1.
         15    1    1    2    0    0 -0.20466713400E+04  0.81606142333E+03 -0.21718939194E+04  0.30938556879E+04  0.00000000000E+00 0. -1.
        -16    1    1    2    0    0  0.26418704376E+04 -0.37602764408E+02  0.59382587280E+03  0.27080477367E+04  0.00000000000E+00 0.  1.
         16    1    4    4    0    0 -0.72043304345E+03 -0.86506405637E+03  0.66841901683E+03  0.13092530595E+04  0.00000000000E+00 0. -1.
    9900018    1    1    2    0    0  0.28468818990E+01 -0.49776548801E+01  0.13002531814E+02  0.92288276677E+02  0.91187600000E+02 0.  0.
<mgrwt>
<rscale>  0 0.41992083E+04</rscale>
<asrwt>0</asrwt>
<pdfrwt beam="1">  1        2 0.57008063E+00 0.50598342E+04</pdfrwt>
<pdfrwt beam="2">  1       -2 0.76912072E+00 0.50598342E+04</pdfrwt>
<totfact> 0.44211180E-05</totfact>
</mgrwt>
</event>
