<event>
12    1  0.1008397E-009  0.2930871E+04  0.7818608E-02  0.8263751E-01
         -2   -1    0    0    0  501 -0.00000000000E+00  0.00000000000E+00  0.13098389148E+04  0.13098389148E+04  0.00000000000E+00 0.  1.
          2   -1    0    0  501    0  0.00000000000E+00 -0.00000000000E+00 -0.16395157803E+04  0.16395157803E+04  0.00000000000E+00 0. -1.
    9900016    2    1    2    0    0 -0.50464338857E+03  0.15869708961E+02  0.42447763565E+02  0.23221437762E+04  0.22661935282E+04 0.  0.
         23    2    3    3    0    0  0.25253524571E+03  0.25655195393E+03 -0.11957594866E+03  0.39023146560E+03  0.91592760918E+02 0.  0.
        -24    2    3    3    0    0 -0.43770366794E+03  0.62663709738E+03  0.31770444190E+03  0.83103807223E+03  0.73685903369E+02 0.  0.
        -15    1    3    3    0    0 -0.23449374263E+03 -0.86356391216E+03  0.82863633824E+01  0.89487351594E+03  0.00000000000E+00 0.  1.
        -15    1    4    4    0    0  0.13673867510E+03  0.11003596936E+03 -0.14901262590E+02  0.17614604012E+03  0.00000000000E+00 0. -1.
         15    1    5    5    0    0 -0.42712965704E+02  0.78074370241E+02  0.61333950608E+02  0.10808264535E+03  0.00000000000E+00 0. -1.
         15    1    4    4    0    0  0.11579657060E+03  0.14651598457E+03 -0.10467468607E+03  0.21408542548E+03  0.00000000000E+00 0.  1.
        -16    1    5    5    0    0 -0.39499070224E+03  0.54856272714E+03  0.25637049129E+03  0.72295542689E+03  0.00000000000E+00 0.  1.
         16    1    1    2    0    0  0.50464338857E+03 -0.15869708961E+02 -0.37212462909E+03  0.62721091896E+03  0.00000000000E+00 0. -1.
    9900018    1    3    3    0    0 -0.84981223703E+02 -0.37554301944E+01 -0.16396709306E+03  0.20600072242E+03  0.91187600000E+02 0.  0.
<mgrwt>
<rscale>  0 0.29308712E+04</rscale>
<asrwt>0</asrwt>
<pdfrwt beam="1">  1        2 0.25223320E+00 0.29308712E+04</pdfrwt>
<pdfrwt beam="2">  1       -2 0.20151368E+00 0.29308712E+04</pdfrwt>
<totfact> 0.11862249E+00</totfact>
</mgrwt>
</event>
<event>
12    1  0.1008397E-009  0.2895577E+04  0.7818608E-02  0.8274195E-01
          2   -1    0    0  501    0  0.00000000000E+00  0.00000000000E+00  0.32033918402E+04  0.32033918402E+04  0.00000000000E+00 0. -1.
         -2   -1    0    0    0  501 -0.00000000000E+00 -0.00000000000E+00 -0.65433484208E+03  0.65433484208E+03  0.00000000000E+00 0.  1.
    9900016    2    1    2    0    0  0.35480487347E+03 -0.40956045892E+03  0.22579172869E+04  0.32425936892E+04  0.22633155085E+04 0.  0.
         23    2    3    3    0    0 -0.36868733037E+03  0.10208445311E+03  0.52837195538E+03  0.65867591564E+03  0.91243933908E+02 0.  0.
         24    2    3    3    0    0  0.10675309232E+03  0.49468578322E+03  0.45671866561E+03  0.68639677912E+03  0.80239342109E+02 0.  0.
        -15    1    4    4    0    0 -0.28495139144E+03  0.43974078122E+02  0.42442480261E+03  0.51309592486E+03  0.00000000000E+00 0.  1.
        -15    1    5    5    0    0  0.42309687977E+02  0.13421941692E+03  0.17392399641E+03  0.22372867072E+03  0.00000000000E+00 0.  1.
         15    1    4    4    0    0 -0.83735938929E+02  0.58110374985E+02  0.10394715276E+03  0.14557999079E+03  0.00000000000E+00 0. -1.
         15    1    3    3    0    0  0.35440155613E+03 -0.98301379862E+03  0.69206419856E+03  0.12533433074E+04  0.00000000000E+00 0. -1.
        -16    1    1    2    0    0 -0.35480487347E+03  0.40956045892E+03  0.29113971129E+03  0.61513299313E+03  0.00000000000E+00 0.  1.
         16    1    5    5    0    0  0.64443404344E+02  0.36046636630E+03  0.28279466920E+03  0.46266810839E+03  0.00000000000E+00 0. -1.
    9900018    1    3    3    0    0  0.26233755539E+03 -0.23316896629E+02  0.58076246731E+03  0.64417768702E+03  0.91187600000E+02 0.  0.
<mgrwt>
<rscale>  0 0.28955766E+04</rscale>
<asrwt>0</asrwt>
<pdfrwt beam="1">  1        2 0.49282951E+00 0.28955766E+04</pdfrwt>
<pdfrwt beam="2">  1       -2 0.10066690E+00 0.28955766E+04</pdfrwt>
<totfact> 0.90516132E-01</totfact>
</mgrwt>
</event>
<event>
12    1  0.1008397E-009  0.3196190E+04  0.7818608E-02  0.8189824E-01
         -1   -1    0    0    0  501 -0.00000000000E+00  0.00000000000E+00  0.21946812036E+04  0.21946812036E+04  0.00000000000E+00 0.  1.
          1   -1    0    0  501    0  0.00000000000E+00 -0.00000000000E+00 -0.11636807520E+04  0.11636807520E+04  0.00000000000E+00 0. -1.
    9900016    2    1    2    0    0  0.54403220008E+03  0.94891841275E+02  0.81406484919E+03  0.23276518073E+04  0.21095700654E+04 0.  0.
         23    2    3    3    0    0 -0.18392852847E+03  0.12326311319E+03  0.50606210518E+03  0.56007240472E+03  0.92513488556E+02 0.  0.
         24    2    3    3    0    0 -0.23310540518E+03 -0.38657147900E+03  0.54773026218E+03  0.71428704774E+03  0.80136809030E+02 0.  0.
        -15    1    4    4    0    0 -0.14135052963E+03  0.56398416967E+02  0.39759788711E+03  0.42572859136E+03  0.00000000000E+00 0. -1.
        -15    1    5    5    0    0 -0.93940007061E+02 -0.14445128386E+03  0.15092472140E+03  0.22906149800E+03  0.00000000000E+00 0.  1.
         15    1    3    3    0    0  0.96106613373E+03  0.35820020708E+03 -0.23972751818E+03  0.10532923548E+04  0.00000000000E+00 0. -1.
         15    1    4    4    0    0 -0.42577998834E+02  0.66864696224E+02  0.10846421807E+03  0.13434381336E+03  0.00000000000E+00 0.  1.
        -16    1    1    2    0    0 -0.52150236036E+03  0.20691878240E+03  0.37744862999E+03  0.67620083012E+03  0.00000000000E+00 0.  1.
         16    1    5    5    0    0 -0.13916539812E+03 -0.24212019514E+03  0.39680554078E+03  0.48522554974E+03  0.00000000000E+00 0. -1.
    9900018    1    1    2    0    0 -0.22529839724E+02 -0.30181062367E+03 -0.16051302766E+03  0.35450931818E+03  0.91187600000E+02 0.  0.
<mgrwt>
<rscale>  0 0.31961904E+04</rscale>
<asrwt>0</asrwt>
<pdfrwt beam="1">  1        1 0.17902781E+00 0.31961904E+04</pdfrwt>
<pdfrwt beam="2">  1       -1 0.33764326E+00 0.31961904E+04</pdfrwt>
<totfact> 0.17829346E-01</totfact>
</mgrwt>
</event>
