<event>
12    1  0.5370151E-013  0.9656364E+03  0.7818608E-02  0.9347058E-01
          1   -1    0    0  501    0  0.00000000000E+00  0.00000000000E+00  0.28731037935E+04  0.28731037935E+04  0.00000000000E+00 0. -1.
         -1   -1    0    0    0  501 -0.00000000000E+00 -0.00000000000E+00 -0.81136438687E+02  0.81136438687E+02  0.00000000000E+00 0.  1.
         23    2    1    2    0    0  0.12206281278E+02  0.74223310373E+02  0.20514592197E+03  0.23840916437E+03  0.95372885289E+02 0.  0.
    9900016    2    1    2    0    0  0.20308576167E+02 -0.69654274301E+02  0.24936341708E+04  0.26170284471E+04  0.79079855790E+03 0.  0.
         23    2    4    4    0    0 -0.15594888147E+03 -0.18392092489E+03  0.25479280391E+03  0.35930095633E+03  0.77658509233E+02 0.  0.
        -15    1    3    3    0    0 -0.29032102921E+02 -0.73248596908E+01  0.55725771753E+02  0.63260399991E+02  0.00000000000E+00 0.  1.
        -15    1    5    5    0    0 -0.32952678355E+02 -0.90859094882E+02  0.74456521924E+02  0.12200421218E+03  0.00000000000E+00 0. -1.
         15    1    5    5    0    0 -0.12299620312E+03 -0.93061830007E+02  0.18033628198E+03  0.23729674415E+03  0.00000000000E+00 0.  1.
         15    1    3    3    0    0  0.41238384199E+02  0.81548170063E+02  0.14942015021E+03  0.17514876437E+03  0.00000000000E+00 0. -1.
        -16    1    1    2    0    0 -0.32514857445E+02 -0.45690360717E+01  0.93187262059E+02  0.98802620691E+02  0.00000000000E+00 0.  1.
         16    1    4    4    0    0  0.68449928100E+02  0.12022878958E+03  0.14256119200E+04  0.14323092197E+04  0.00000000000E+00 0. -1.
    9900018    1    4    4    0    0  0.10780752954E+03 -0.59621389915E+01  0.81322944685E+03  0.82541827103E+03  0.91187600000E+02 0.  0.
<mgrwt>
<rscale>  0 0.96563639E+03</rscale>
<asrwt>0</asrwt>
<pdfrwt beam="1">  1        1 0.44201589E+00 0.96563639E+03</pdfrwt>
<pdfrwt beam="2">  1       -1 0.12482531E-01 0.96563639E+03</pdfrwt>
<totfact> 0.33609972E+01</totfact>
</mgrwt>
</event>
<event>
12    1  0.5370150E-013  0.1327931E+04  0.7818608E-02  0.9432563E-01
          2   -1    0    0  501    0  0.00000000000E+00  0.00000000000E+00  0.11105270629E+04  0.11105270629E+04  0.00000000000E+00 0. -1.
         -2   -1    0    0    0  501 -0.00000000000E+00 -0.00000000000E+00 -0.65072221322E+03  0.65072221322E+03  0.00000000000E+00 0.  1.
         23    2    1    2    0    0  0.13799031201E+03 -0.21847402571E+03  0.32776286115E+03  0.42676931394E+03  0.89058003887E+02 0.  0.
    9900016    2    1    2    0    0 -0.43943569806E+03  0.25538329805E+03  0.30715709436E+03  0.98391339861E+03  0.78448437441E+03 0.  0.
         23    2    4    4    0    0 -0.14705250285E+02  0.12430553455E+03 -0.18375655627E+03  0.23119860051E+03  0.63389357155E+02 0.  0.
        -15    1    3    3    0    0  0.51209969537E+02 -0.15956705739E+03  0.18497723969E+03  0.24960105366E+03  0.00000000000E+00 0.  1.
        -15    1    5    5    0    0 -0.30787199147E+02  0.84190511990E+02 -0.85599787121E+02  0.12394844693E+03  0.00000000000E+00 0.  1.
         15    1    5    5    0    0  0.16081948862E+02  0.40115022562E+02 -0.98156769147E+02  0.10725015358E+03  0.00000000000E+00 0. -1.
         15    1    3    3    0    0  0.86780342476E+02 -0.58906968316E+02  0.14278562146E+03  0.17716826028E+03  0.00000000000E+00 0. -1.
        -16    1    1    2    0    0  0.30144538604E+03 -0.36909272342E+02 -0.17511510588E+03  0.35056656352E+03  0.00000000000E+00 0.  1.
         16    1    4    4    0    0 -0.20031029751E+03  0.20942603858E+03  0.14737279476E+03  0.32511878069E+03  0.00000000000E+00 0. -1.
    9900018    1    4    4    0    0 -0.22442015026E+03 -0.78348275082E+02  0.34354085587E+03  0.42759601740E+03  0.91187600000E+02 0.  0.
<mgrwt>
<rscale>  0 0.89443622E+03</rscale>
<asrwt>0</asrwt>
<pdfrwt beam="1">  1        2 0.17085032E+00 0.13279314E+04</pdfrwt>
<pdfrwt beam="2">  1       -2 0.10011111E+00 0.13279314E+04</pdfrwt>
<totfact> 0.17170907E+01</totfact>
</mgrwt>
</event>
<event>
12    1  0.5370150E-013  0.1465096E+04  0.7818608E-02  0.9467931E-01
          2   -1    0    0  501    0  0.00000000000E+00  0.00000000000E+00  0.30187929678E+04  0.30187929678E+04  0.00000000000E+00 0. -1.
         -2   -1    0    0    0  501 -0.00000000000E+00 -0.00000000000E+00 -0.24533372307E+03  0.24533372307E+03  0.00000000000E+00 0.  1.
         23    2    1    2    0    0 -0.15414905157E+03 -0.93204068438E+01  0.77105120531E+02  0.19544115428E+03  0.91669215602E+02 0.  0.
    9900016    2    1    2    0    0  0.52273024538E+03 -0.11988699860E+03  0.14420597001E+04  0.17549880248E+04  0.84429081885E+03 0.  0.
         23    2    4    4    0    0  0.14596641231E+03  0.11871585380E+03  0.21110529050E-02  0.21502222558E+03  0.10409087386E+03 0.  0.
        -15    1    5    5    0    0 -0.89936955884E+01  0.40180195896E+02 -0.28563314972E+01  0.41273397391E+02  0.00000000000E+00 0. -1.
        -15    1    3    3    0    0  0.93735902476E+01  0.10172616003E+02  0.12158074924E+02  0.18416435495E+02  0.00000000000E+00 0.  1.
         15    1    3    3    0    0 -0.16352264182E+03 -0.19493022847E+02  0.64947045607E+02  0.17702471878E+03  0.00000000000E+00 0. -1.
         15    1    5    5    0    0  0.15496010790E+03  0.78535657907E+02  0.28584425501E+01  0.17374882819E+03  0.00000000000E+00 0.  1.
        -16    1    1    2    0    0 -0.36858119381E+03  0.12920740544E+03  0.12542944242E+04  0.13136975118E+04  0.00000000000E+00 0.  1.
         16    1    4    4    0    0  0.98705507437E+02  0.50722725324E+02  0.49636365569E+03  0.50861817777E+03  0.00000000000E+00 0. -1.
    9900018    1    4    4    0    0  0.27805832563E+03 -0.28932557773E+03  0.94569393331E+03  0.10313476215E+04  0.91187600000E+02 0.  0.
<mgrwt>
<rscale>  0 0.86690029E+03</rscale>
<asrwt>0</asrwt>
<pdfrwt beam="1">  1        2 0.46442966E+00 0.14650957E+04</pdfrwt>
<pdfrwt beam="2">  1       -2 0.37743652E-01 0.14650957E+04</pdfrwt>
<totfact> 0.10933736E+01</totfact>
</mgrwt>
</event>
<event>
12    1  0.5370150E-013  0.1492937E+04  0.7818608E-02  0.8889163E-01
          2   -1    0    0  501    0  0.00000000000E+00  0.00000000000E+00  0.78110727287E+03  0.78110727287E+03  0.00000000000E+00 0. -1.
         -2   -1    0    0    0  501 -0.00000000000E+00 -0.00000000000E+00 -0.71336573834E+03  0.71336573834E+03  0.00000000000E+00 0.  1.
         23    2    1    2    0    0  0.16366289029E+02 -0.17801919617E+03 -0.13526450953E+03  0.24098960597E+03  0.88435360707E+02 0.  0.
    9900016    2    1    2    0    0  0.72465498336E+02  0.20794844231E+02  0.17538392476E+03  0.66153873045E+03  0.63339584529E+03 0.  0.
         23    2    4    4    0    0  0.22142670510E+03 -0.41895202703E+02  0.34585249259E+03  0.42663658972E+03  0.10779535849E+03 0.  0.
        -15    1    5    5    0    0  0.12017372690E+03 -0.50736857059E+02  0.26984836048E+03  0.29972335737E+03  0.00000000000E+00 0.  1.
        -15    1    3    3    0    0  0.28014832686E+02 -0.16970345020E+03 -0.91249983148E+02  0.19470657740E+03  0.00000000000E+00 0.  1.
         15    1    5    5    0    0  0.10125297820E+03  0.88416543560E+01  0.76004132112E+02  0.12691323234E+03  0.00000000000E+00 0. -1.
         15    1    3    3    0    0 -0.11648543658E+02 -0.83157459738E+01 -0.44014526380E+02  0.46283028562E+02  0.00000000000E+00 0. -1.
        -16    1    1    2    0    0  0.80995608098E+02 -0.11784480318E+03 -0.15395644635E+03  0.21011966481E+03  0.00000000000E+00 0.  1.
         16    1    4    4    0    0 -0.14896120676E+03  0.62690046934E+02 -0.17046856783E+03  0.23490214074E+03  0.00000000000E+00 0. -1.
    9900018    1    1    2    0    0 -0.16982739546E+03  0.27506915512E+03  0.18157856565E+03  0.38182500998E+03  0.91187600000E+02 0.  0.
<mgrwt>
<rscale>  0 0.14929369E+04</rscale>
<asrwt>0</asrwt>
<pdfrwt beam="1">  1        2 0.12017035E+00 0.14929369E+04</pdfrwt>
<pdfrwt beam="2">  1       -2 0.10974858E+00 0.14929369E+04</pdfrwt>
<totfact> 0.22710696E+01</totfact>
</mgrwt>
</event>
<event>
11    1  0.5370150E-013  0.1312869E+04  0.7818608E-02  0.9019422E-01
          1   -1    0    0  501    0  0.00000000000E+00  0.00000000000E+00  0.20281880811E+04  0.20281880811E+04  0.00000000000E+00 0. -1.
         -1   -1    0    0    0  501 -0.00000000000E+00 -0.00000000000E+00 -0.21245869352E+03  0.21245869352E+03  0.00000000000E+00 0.  1.
         23    2    1    2    0    0 -0.70261652266E+02  0.97589625232E+02  0.12472483086E+02  0.15004209598E+03  0.88863001294E+02 0.  0.
    9900016    2    1    2    0    0  0.50595755088E+02 -0.22401148425E+03  0.17656418447E+04  0.19572475391E+04  0.81276425245E+03 0.  0.
        -15    1    4    4    0    0 -0.19207228435E+03  0.12887639077E+03  0.53306859009E+03  0.58108778016E+03  0.00000000000E+00 0. -1.
        -15    1    3    3    0    0 -0.34822535205E+02  0.10537839184E+03  0.20548721729E+02  0.11286923580E+03  0.00000000000E+00 0. -1.
         15    1    4    4    0    0  0.19022389209E+02  0.50455341578E+02  0.19584168303E+02  0.57368392282E+02  0.00000000000E+00 0.  1.
         15    1    3    3    0    0 -0.35439117061E+02 -0.77887666077E+01 -0.80762386437E+01  0.37172860180E+02  0.00000000000E+00 0.  1.
        -16    1    1    2    0    0  0.19665897178E+02  0.12642185902E+03  0.37615059817E+02  0.13335713957E+03  0.00000000000E+00 0.  1.
         16    1    4    4    0    0  0.52899450869E+02 -0.22043215677E+03  0.76234533139E+03  0.79533583594E+03  0.00000000000E+00 0. -1.
    9900018    1    4    4    0    0  0.17074619936E+03 -0.18291105982E+03  0.45064375494E+03  0.52345553074E+03  0.91187600000E+02 0.  0.
<mgrwt>
<rscale>  0 0.13128689E+04</rscale>
<asrwt>0</asrwt>
<pdfrwt beam="1">  1        1 0.31202892E+00 0.13128689E+04</pdfrwt>
<pdfrwt beam="2">  1       -1 0.32685954E-01 0.13128689E+04</pdfrwt>
<totfact> 0.24576710E+01</totfact>
</mgrwt>
</event>
<event>
12    1  0.5370150E-013  0.1191669E+04  0.7818608E-02  0.9715206E-01
          1   -1    0    0  501    0  0.00000000000E+00  0.00000000000E+00  0.11160091063E+04  0.11160091063E+04  0.00000000000E+00 0. -1.
         -1   -1    0    0    0  501 -0.00000000000E+00 -0.00000000000E+00 -0.40776917992E+03  0.40776917992E+03  0.00000000000E+00 0.  1.
         23    2    1    2    0    0  0.81129635388E+01  0.10960433394E+03  0.15230893821E+03  0.20881297090E+03  0.91246446284E+02 0.  0.
    9900016    2    1    2    0    0 -0.28576425693E+03 -0.61232286562E+02  0.61045253304E+03  0.10279066201E+04  0.77364663837E+03 0.  0.
         23    2    4    4    0    0 -0.46797121168E+02 -0.25879177072E+03  0.37415110749E+03  0.46098342596E+03  0.57909555568E+02 0.  0.
        -15    1    3    3    0    0 -0.98541346806E+01  0.41218826005E+02  0.12671929704E+03  0.13361839630E+03  0.00000000000E+00 0. -1.
        -15    1    5    5    0    0 -0.19830110238E+02 -0.21921410174E+03  0.28883075946E+03  0.36314083120E+03  0.00000000000E+00 0. -1.
         15    1    3    3    0    0  0.17967098219E+02  0.68385507933E+02  0.25589641178E+02  0.75194574600E+02  0.00000000000E+00 0.  1.
         15    1    5    5    0    0 -0.26967010930E+02 -0.39577668980E+02  0.85320348026E+02  0.97842594752E+02  0.00000000000E+00 0.  1.
        -16    1    1    2    0    0  0.27765129339E+03 -0.48372047375E+02 -0.54521544830E+02  0.28705869528E+03  0.00000000000E+00 0.  1.
         16    1    4    4    0    0 -0.52716072788E+02  0.20154603299E+03 -0.49176690522E+02  0.21405171019E+03  0.00000000000E+00 0. -1.
    9900018    1    4    4    0    0 -0.18625106297E+03 -0.39865488228E+01  0.28547811607E+03  0.35287148394E+03  0.91187600000E+02 0.  0.
<mgrwt>
<rscale>  0 0.70118616E+03</rscale>
<asrwt>0</asrwt>
<pdfrwt beam="1">  1        1 0.17169371E+00 0.11916688E+04</pdfrwt>
<pdfrwt beam="2">  1       -1 0.62733721E-01 0.11916688E+04</pdfrwt>
<totfact> 0.31430293E+01</totfact>
</mgrwt>
</event>
