<event>
12    1  0.2808000E-009  0.9328352E+03  0.7818608E-02  0.9385442E-01
         -1   -1    0    0    0  501 -0.00000000000E+00  0.00000000000E+00  0.55806600179E+03  0.55806600179E+03  0.00000000000E+00 0.  1.
          1   -1    0    0  501    0  0.00000000000E+00 -0.00000000000E+00 -0.38982019248E+03  0.38982019248E+03  0.00000000000E+00 0. -1.
    9900016    2    1    2    0    0 -0.18642988002E+03 -0.20337827331E+02  0.21850222379E+03  0.75373307279E+03  0.69656341838E+03 0.  0.
         25    2    3    3    0    0 -0.19057039577E+01  0.45559507983E+02 -0.56614063177E+02  0.14459949554E+03  0.12499824593E+03 0.  0.
         23    2    4    4    0    0 -0.74318330359E+01  0.41814970536E+02 -0.26021743912E+02  0.10424184161E+03  0.91572411150E+02 0.  0.
        -15    1    4    4    0    0 -0.90705495457E+01  0.52726799645E+01 -0.71370224393E+01  0.12689094230E+02  0.00000000000E+00 0.  1.
        -15    1    5    5    0    0 -0.34601768990E+01  0.61443127473E+02  0.10653050191E+02  0.62455730051E+02  0.00000000000E+00 0. -1.
         15    1    5    5    0    0 -0.39716561369E+01 -0.19628156937E+02 -0.36674794102E+02  0.41786111564E+02  0.00000000000E+00 0.  1.
         15    1    4    4    0    0  0.14596678624E+02 -0.15281425172E+01 -0.23455296826E+02  0.27668559695E+02  0.00000000000E+00 0. -1.
        -16    1    1    2    0    0  0.18642988002E+03  0.20337827331E+02 -0.50256414486E+02  0.19415312149E+03  0.00000000000E+00 0.  1.
         16    1    3    3    0    0 -0.74715748412E+02  0.33104537581E+02 -0.13833685040E+03  0.16067183215E+03  0.00000000000E+00 0. -1.
    9900018    1    3    3    0    0 -0.10980842765E+03 -0.99001872896E+02  0.41345313736E+03  0.44846174509E+03  0.91187600000E+02 0.  0.
<mgrwt>
<rscale>  0 0.93283524E+03</rscale>
<asrwt>0</asrwt>
<pdfrwt beam="1">  1        1 0.59972337E-01 0.93283524E+03</pdfrwt>
<pdfrwt beam="2">  1       -1 0.85856308E-01 0.93283524E+03</pdfrwt>
<totfact> 0.83754369E+01</totfact>
</mgrwt>
</event>
<event>
12    1  0.2808000E-009  0.8911974E+03  0.7818608E-02  0.9436652E-01
          1   -1    0    0  501    0  0.00000000000E+00  0.00000000000E+00  0.42491953793E+03  0.42491953793E+03  0.00000000000E+00 0. -1.
         -1   -1    0    0    0  501 -0.00000000000E+00 -0.00000000000E+00 -0.46728423097E+03  0.46728423097E+03  0.00000000000E+00 0.  1.
    9900016    2    1    2    0    0 -0.79658642775E+02  0.12442809561E+01  0.66177983034E+02  0.75756142736E+03  0.75044836144E+03 0.  0.
         25    2    3    3    0    0 -0.59550721263E+02  0.41731672999E+02 -0.92896993252E+02  0.17187800530E+03  0.12499750564E+03 0.  0.
         23    2    4    4    0    0 -0.28077012313E+02  0.40565131206E+02 -0.80012380402E+02  0.13225768093E+03  0.93039049099E+02 0.  0.
        -15    1    4    4    0    0 -0.15355463826E+02 -0.77364985250E+01 -0.83996809160E-01  0.17194497207E+02  0.00000000000E+00 0. -1.
        -15    1    5    5    0    0 -0.22212595189E+02  0.68329449934E+02 -0.74211272738E+02  0.10329388227E+03  0.00000000000E+00 0. -1.
         15    1    5    5    0    0 -0.58644171237E+01 -0.27764318728E+02 -0.58011076636E+01  0.28963798659E+02  0.00000000000E+00 0.  1.
         15    1    4    4    0    0 -0.16118245124E+02  0.89030403179E+01 -0.12800616041E+02  0.22425827160E+02  0.00000000000E+00 0.  1.
        -16    1    1    2    0    0  0.79658642775E+02 -0.12442809561E+01 -0.10854267608E+03  0.13464234154E+03  0.00000000000E+00 0.  1.
         16    1    3    3    0    0 -0.12861203988E+03  0.20531088336E+03 -0.30888522955E+02  0.24422881992E+03  0.00000000000E+00 0. -1.
    9900018    1    3    3    0    0  0.10850411837E+03 -0.24579827540E+03  0.18996349924E+03  0.34145460215E+03  0.91187600000E+02 0.  0.
<mgrwt>
<rscale>  0 0.89119740E+03</rscale>
<asrwt>0</asrwt>
<pdfrwt beam="1">  1        1 0.65372236E-01 0.89119740E+03</pdfrwt>
<pdfrwt beam="2">  1       -1 0.71889882E-01 0.89119740E+03</pdfrwt>
<totfact> 0.10900264E+02</totfact>
</mgrwt>
</event>
<event>
12    1  0.2808000E-009  0.1378424E+04  0.7818608E-02  0.8969586E-01
          2   -1    0    0  501    0  0.00000000000E+00  0.00000000000E+00  0.14204100861E+04  0.14204100861E+04  0.00000000000E+00 0. -1.
         -2   -1    0    0    0  501 -0.00000000000E+00 -0.00000000000E+00 -0.33441989552E+03  0.33441989552E+03  0.00000000000E+00 0.  1.
    9900016    2    1    2    0    0 -0.56108235508E+02 -0.37319013676E+03  0.25381680314E+03  0.84108408749E+03  0.70751710962E+03 0.  0.
         25    2    3    3    0    0  0.88909158317E+02 -0.84013280632E+02  0.14276728074E+02  0.17547365840E+03  0.12499644024E+03 0.  0.
         23    2    4    4    0    0  0.48360671214E+02 -0.61598682428E+02 -0.76858019348E+01  0.12112167263E+03  0.92077336153E+02 0.  0.
        -15    1    4    4    0    0  0.23339978357E+02 -0.10928843443E+02  0.21652068047E+02  0.33660158339E+02  0.00000000000E+00 0.  1.
        -15    1    5    5    0    0  0.90824095258E+01 -0.18398404529E+02  0.40511744393E+02  0.45411373969E+02  0.00000000000E+00 0. -1.
         15    1    5    5    0    0  0.39278261689E+02 -0.43200277899E+02 -0.48197546328E+02  0.75710298665E+02  0.00000000000E+00 0.  1.
         15    1    4    4    0    0  0.17208508745E+02 -0.11485754761E+02  0.31046196181E+00  0.20691827428E+02  0.00000000000E+00 0. -1.
        -16    1    3    3    0    0 -0.18351582269E+03 -0.33051330744E+03 -0.26287648010E+02  0.37895665189E+03  0.00000000000E+00 0.  1.
         16    1    1    2    0    0  0.56108235508E+02  0.37319013676E+03  0.83217338745E+03  0.91374589413E+03  0.00000000000E+00 0. -1.
    9900018    1    3    3    0    0  0.38498428865E+02  0.41336451313E+02  0.26582772308E+03  0.28665377720E+03  0.91187600000E+02 0.  0.
<mgrwt>
<rscale>  0 0.13784243E+04</rscale>
<asrwt>0</asrwt>
<pdfrwt beam="1">  1        2 0.21852463E+00 0.13784243E+04</pdfrwt>
<pdfrwt beam="2">  1       -2 0.51449215E-01 0.13784243E+04</pdfrwt>
<totfact> 0.48999284E+01</totfact>
</mgrwt>
</event>
<event>
12    1  0.2808000E-009  0.7818644E+03  0.7818608E-02  0.9586645E-01
          1   -1    0    0  501    0  0.00000000000E+00  0.00000000000E+00  0.12519254904E+04  0.12519254904E+04  0.00000000000E+00 0. -1.
         -1   -1    0    0    0  501 -0.00000000000E+00 -0.00000000000E+00 -0.12207435159E+03  0.12207435159E+03  0.00000000000E+00 0.  1.
    9900016    2    1    2    0    0 -0.20194866058E+02  0.75355367820E+01  0.11447146977E+04  0.13478169790E+04  0.71117807393E+03 0.  0.
         25    2    3    3    0    0 -0.10024535582E+03  0.16022925446E+03  0.21560581155E+03  0.31278520879E+03  0.12500470197E+03 0.  0.
         23    2    4    4    0    0 -0.88405834508E+02  0.12959167486E+03  0.15121129685E+03  0.23451634251E+03  0.86737908903E+02 0.  0.
        -15    1    4    4    0    0 -0.20141439777E+02  0.17833063205E+02  0.52239441235E+02  0.58759296798E+02  0.00000000000E+00 0.  1.
        -15    1    5    5    0    0 -0.92207274065E+02  0.11723237563E+03  0.94995518505E+02  0.17683257568E+03  0.00000000000E+00 0. -1.
         15    1    5    5    0    0  0.38014395561E+01  0.12359299221E+02  0.56215778343E+02  0.57683766821E+02  0.00000000000E+00 0.  1.
         15    1    4    4    0    0  0.83019184678E+01  0.12804516401E+02  0.12155073463E+02  0.19509569483E+02  0.00000000000E+00 0. -1.
        -16    1    1    2    0    0  0.20194866058E+02 -0.75355367820E+01 -0.14863558914E+02  0.26182862969E+02  0.00000000000E+00 0.  1.
         16    1    3    3    0    0 -0.12818243685E+03 -0.18492632176E+03  0.50206305422E+03  0.55017796394E+03  0.00000000000E+00 0. -1.
    9900018    1    3    3    0    0  0.20823292661E+03  0.32232604085E+02  0.42704583195E+03  0.48485380629E+03  0.91187600000E+02 0.  0.
<mgrwt>
<rscale>  0 0.78186442E+03</rscale>
<asrwt>0</asrwt>
<pdfrwt beam="1">  1        1 0.19260391E+00 0.78186442E+03</pdfrwt>
<pdfrwt beam="2">  1       -1 0.18780670E-01 0.78186442E+03</pdfrwt>
<totfact> 0.22533572E+02</totfact>
</mgrwt>
</event>
<event>
12    1  0.2808000E-009  0.1073180E+04  0.7818608E-02  0.9231734E-01
          2   -1    0    0  501    0  0.00000000000E+00  0.00000000000E+00  0.24787509495E+03  0.24787509495E+03  0.00000000000E+00 0. -1.
         -2   -1    0    0    0  501 -0.00000000000E+00 -0.00000000000E+00 -0.11615876277E+04  0.11615876277E+04  0.00000000000E+00 0.  1.
    9900016    2    1    2    0    0 -0.13785880855E+03  0.85073971438E+01 -0.10051273929E+04  0.12438302875E+04  0.71955213938E+03 0.  0.
         25    2    3    3    0    0 -0.10806016920E+03 -0.11725253448E+02 -0.19540434728E+03  0.25617346787E+03  0.12501001947E+03 0.  0.
         23    2    4    4    0    0 -0.93131375529E+02 -0.25172185268E+00 -0.13551189611E+03  0.18842860091E+03  0.92023622953E+02 0.  0.
        -15    1    4    4    0    0 -0.95819938777E+01  0.58346974796E+01 -0.36335569656E+02  0.38028041280E+02  0.00000000000E+00 0.  1.
        -15    1    5    5    0    0 -0.10384486425E+03 -0.10797741781E+02 -0.81744305313E+02  0.13259893857E+03  0.00000000000E+00 0. -1.
         15    1    4    4    0    0 -0.53467997958E+01 -0.17308229075E+02 -0.23556881513E+02  0.29716825678E+02  0.00000000000E+00 0. -1.
         15    1    5    5    0    0  0.10713488719E+02  0.10546019928E+02 -0.53767590802E+02  0.55829662344E+02  0.00000000000E+00 0.  1.
        -16    1    3    3    0    0  0.37983629914E+02 -0.45346274253E+01 -0.86008215784E+03  0.86093242314E+03  0.00000000000E+00 0.  1.
         16    1    1    2    0    0  0.13785880855E+03 -0.85073971438E+01  0.91414860172E+02  0.16563243511E+03  0.00000000000E+00 0. -1.
    9900018    1    3    3    0    0 -0.67782269260E+02  0.24767278017E+02  0.50359112239E+02  0.12672439649E+03  0.91187600000E+02 0.  0.
<mgrwt>
<rscale>  0 0.10731797E+04</rscale>
<asrwt>0</asrwt>
<pdfrwt beam="1">  1        2 0.38134629E-01 0.10731797E+04</pdfrwt>
<pdfrwt beam="2">  1       -2 0.17870579E+00 0.10731797E+04</pdfrwt>
<totfact> 0.24994055E+01</totfact>
</mgrwt>
</event>
<event>
12    1  0.2808000E-009  0.8200077E+03  0.7818608E-02  0.9531500E-01
         -1   -1    0    0    0  501 -0.00000000000E+00  0.00000000000E+00  0.68887172429E+03  0.68887172429E+03  0.00000000000E+00 0.  1.
          1   -1    0    0  501    0  0.00000000000E+00 -0.00000000000E+00 -0.24402676860E+03  0.24402676860E+03  0.00000000000E+00 0. -1.
    9900016    2    1    2    0    0 -0.83907480914E+02 -0.64178455547E+02  0.42461027724E+03  0.82534022161E+03  0.69980944146E+03 0.  0.
         25    2    3    3    0    0 -0.43962932198E+02 -0.37825794729E+01  0.10043988211E+03  0.16631279502E+03  0.12499891421E+03 0.  0.
         23    2    4    4    0    0 -0.11209619201E+02 -0.18442302756E+02  0.73002612000E+02  0.11957533874E+03  0.92212288680E+02 0.  0.
        -15    1    4    4    0    0 -0.16104672534E+02  0.91319559432E+01  0.21135946822E+02  0.28097710669E+02  0.00000000000E+00 0. -1.
        -15    1    5    5    0    0 -0.32375393732E+02 -0.29922554747E+02  0.14821266311E+01  0.44110340072E+02  0.00000000000E+00 0. -1.
         15    1    4    4    0    0 -0.16648640464E+02  0.55277673395E+01  0.63013232846E+01  0.18639745604E+02  0.00000000000E+00 0.  1.
         15    1    5    5    0    0  0.21165774531E+02  0.11480251992E+02  0.71520485369E+02  0.75464998673E+02  0.00000000000E+00 0.  1.
        -16    1    3    3    0    0 -0.15175515280E+03 -0.20594752777E+03  0.36922502259E+03  0.44918941205E+03  0.00000000000E+00 0.  1.
         16    1    1    2    0    0  0.83907480914E+02  0.64178455547E+02  0.20234678453E+02  0.10755827128E+03  0.00000000000E+00 0. -1.
    9900018    1    3    3    0    0  0.11181060408E+03  0.14555165170E+03 -0.45054627456E+02  0.20983801454E+03  0.91187600000E+02 0.  0.
<mgrwt>
<rscale>  0 0.82000766E+03</rscale>
<asrwt>0</asrwt>
<pdfrwt beam="1">  1        1 0.37542580E-01 0.82000766E+03</pdfrwt>
<pdfrwt beam="2">  1       -1 0.10598026E+00 0.82000766E+03</pdfrwt>
<totfact> 0.96760801E+01</totfact>
</mgrwt>
</event>
<event>
12    1  0.2808000E-009  0.9588633E+03  0.7818608E-02  0.9354850E-01
         -2   -1    0    0    0  501 -0.00000000000E+00  0.00000000000E+00  0.26667362541E+03  0.26667362541E+03  0.00000000000E+00 0.  1.
          2   -1    0    0  501    0  0.00000000000E+00 -0.00000000000E+00 -0.86193269696E+03  0.86193269696E+03  0.00000000000E+00 0. -1.
    9900016    2    1    2    0    0 -0.87810354208E+02  0.17997493837E+03 -0.48325357295E+03  0.89915726818E+03  0.73133312547E+03 0.  0.
         25    2    3    3    0    0  0.16787556485E+02  0.44962813802E+02  0.41954932015E+02  0.14030159828E+03  0.12498338082E+03 0.  0.
         23    2    4    4    0    0  0.33086702486E+01  0.49272805687E+02  0.34599102974E+02  0.10881514612E+03  0.90580800495E+02 0.  0.
        -15    1    4    4    0    0 -0.46282708414E+01 -0.10473571362E+02  0.35069925731E+01  0.11975624617E+02  0.00000000000E+00 0. -1.
        -15    1    5    5    0    0 -0.30088897633E+02 -0.63465337971E+01  0.31265047330E+02  0.43853431297E+02  0.00000000000E+00 0.  1.
         15    1    5    5    0    0  0.33397567881E+02  0.55619339484E+02  0.33340556442E+01  0.64961714818E+02  0.00000000000E+00 0. -1.
         15    1    4    4    0    0  0.18107157078E+02  0.61635794768E+01  0.38488364677E+01  0.19510827547E+02  0.00000000000E+00 0.  1.
        -16    1    3    3    0    0  0.34072769921E+02  0.22764085081E+03 -0.34657844796E+02  0.23277129723E+03  0.00000000000E+00 0.  1.
         16    1    1    2    0    0  0.87810354208E+02 -0.17997493837E+03 -0.11200549860E+03  0.22944905418E+03  0.00000000000E+00 0. -1.
    9900018    1    3    3    0    0 -0.13867068061E+03 -0.92628726239E+02 -0.49055066017E+03  0.52608437268E+03  0.91187600000E+02 0.  0.
<mgrwt>
<rscale>  0 0.95886332E+03</rscale>
<asrwt>0</asrwt>
<pdfrwt beam="1">  1        2 0.13260503E+00 0.95886332E+03</pdfrwt>
<pdfrwt beam="2">  1       -2 0.41026711E-01 0.95886332E+03</pdfrwt>
<totfact> 0.17515406E+02</totfact>
</mgrwt>
</event>
<event>
12    1  0.2808000E-009  0.8024544E+03  0.7818608E-02  0.9556471E-01
          2   -1    0    0  501    0  0.00000000000E+00  0.00000000000E+00  0.52838733413E+03  0.52838733413E+03  0.00000000000E+00 0. -1.
         -2   -1    0    0    0  501 -0.00000000000E+00 -0.00000000000E+00 -0.30466901900E+03  0.30466901900E+03  0.00000000000E+00 0.  1.
    9900016    2    1    2    0    0 -0.18825708438E+02  0.87122208119E+02  0.19328941377E+03  0.73887246660E+03  0.70755002507E+03 0.  0.
         25    2    3    3    0    0 -0.41978053671E+02 -0.30579390887E+02 -0.10863653918E+02  0.13579443393E+03  0.12499941269E+03 0.  0.
         23    2    4    4    0    0 -0.35052441011E+02 -0.31897013521E+02 -0.30305688330E+01  0.10427392996E+03  0.92831972021E+02 0.  0.
        -15    1    4    4    0    0  0.79761904111E+01  0.10302920351E+02 -0.20899475961E+01  0.13196122999E+02  0.00000000000E+00 0.  1.
        -15    1    5    5    0    0  0.31408796901E+01  0.20350619656E+02  0.26147038583E+02  0.33281833968E+02  0.00000000000E+00 0. -1.
         15    1    5    5    0    0 -0.38193320701E+02 -0.52247633176E+02 -0.29177607416E+02  0.70992095991E+02  0.00000000000E+00 0.  1.
         15    1    4    4    0    0 -0.14901803071E+02 -0.89852977173E+01 -0.57431374892E+01  0.18324380973E+02  0.00000000000E+00 0. -1.
        -16    1    1    2    0    0  0.18825708438E+02 -0.87122208119E+02  0.30428901362E+02  0.94183886540E+02  0.00000000000E+00 0.  1.
         16    1    3    3    0    0  0.16981988010E+03 -0.18650988745E+02  0.31375404612E+03  0.35725096573E+03  0.00000000000E+00 0. -1.
    9900018    1    3    3    0    0 -0.14666753487E+03  0.13635258775E+03 -0.10960097843E+03  0.24582706694E+03  0.91187600000E+02 0.  0.
<mgrwt>
<rscale>  0 0.80245436E+03</rscale>
<asrwt>0</asrwt>
<pdfrwt beam="1">  1        2 0.81290359E-01 0.80245436E+03</pdfrwt>
<pdfrwt beam="2">  1       -2 0.46872157E-01 0.80245436E+03</pdfrwt>
<totfact> 0.25072976E+02</totfact>
</mgrwt>
</event>
<event>
12    1  0.2808000E-009  0.9571663E+03  0.7818608E-02  0.9356813E-01
         -4   -1    0    0    0  501 -0.00000000000E+00  0.00000000000E+00  0.99143211035E+03  0.99143211035E+03  0.00000000000E+00 0. -1.
          4   -1    0    0  501    0  0.00000000000E+00 -0.00000000000E+00 -0.23102120127E+03  0.23102120127E+03  0.00000000000E+00 0.  1.
    9900016    2    1    2    0    0 -0.15556872153E+03  0.13396325222E+03  0.50865769104E+03  0.89760340341E+03  0.71050083962E+03 0.  0.
         25    2    3    3    0    0  0.10829585343E+01 -0.48640585810E+02  0.11958197049E+03  0.17969856619E+03  0.12499859054E+03 0.  0.
         23    2    4    4    0    0 -0.15897041083E+01 -0.32624325177E+02  0.64319409501E+02  0.11664744283E+03  0.91666600934E+02 0.  0.
        -15    1    4    4    0    0  0.13856850247E+02 -0.62041667190E+01  0.23517712420E+02  0.27992620116E+02  0.00000000000E+00 0.  1.
        -15    1    5    5    0    0  0.40085157834E+02 -0.37984595948E+02  0.34325099779E+02  0.65022010756E+02  0.00000000000E+00 0. -1.
         15    1    5    5    0    0 -0.41674861942E+02  0.53602707707E+01  0.29994309722E+02  0.51625432070E+02  0.00000000000E+00 0.  1.
         15    1    4    4    0    0 -0.11184187605E+02 -0.98120939139E+01  0.31744848567E+02  0.35058503247E+02  0.00000000000E+00 0. -1.
        -16    1    3    3    0    0  0.78898995902E+02 -0.30449320711E+02 -0.97919754580E+02  0.12938504946E+03  0.00000000000E+00 0.  1.
         16    1    1    2    0    0  0.15556872153E+03 -0.13396325222E+03  0.25175321804E+03  0.32484990820E+03  0.00000000000E+00 0. -1.
    9900018    1    3    3    0    0 -0.23555067597E+03  0.21305315875E+03  0.48699547513E+03  0.58851978777E+03  0.91187600000E+02 0.  0.
<mgrwt>
<rscale>  0 0.95716631E+03</rscale>
<asrwt>0</asrwt>
<pdfrwt beam="1">  1        4 0.35541724E-01 0.95716631E+03</pdfrwt>
<pdfrwt beam="2">  1       -4 0.15252801E+00 0.95716631E+03</pdfrwt>
<totfact> 0.43747602E+00</totfact>
</mgrwt>
</event>
<event>
12    1  0.2808000E-009  0.1088452E+04  0.7818608E-02  0.9216521E-01
         -2   -1    0    0    0  501 -0.00000000000E+00  0.00000000000E+00  0.58877379451E+03  0.58877379451E+03  0.00000000000E+00 0.  1.
          2   -1    0    0  501    0  0.00000000000E+00 -0.00000000000E+00 -0.50304873475E+03  0.50304873475E+03  0.00000000000E+00 0. -1.
    9900016    2    1    2    0    0  0.96073734659E+02  0.26934561857E+03  0.17783526364E+03  0.79138698810E+03  0.71616391923E+03 0.  0.
         25    2    3    3    0    0  0.11390543228E+02 -0.30888055680E+02 -0.79974497324E+02  0.15200180903E+03  0.12499925307E+03 0.  0.
         23    2    4    4    0    0  0.15149977663E+02 -0.43186250569E+02 -0.64034404761E+02  0.12043598294E+03  0.91158361840E+02 0.  0.
        -15    1    4    4    0    0  0.78875102033E+01  0.13397344123E+02 -0.91042158397E+01  0.18016336831E+02  0.00000000000E+00 0.  1.
        -15    1    5    5    0    0 -0.36430155508E+02 -0.33276360926E+02 -0.27887235002E+02  0.56676011706E+02  0.00000000000E+00 0.  1.
         15    1    4    4    0    0 -0.11646944639E+02 -0.10991492347E+01 -0.68358767232E+01  0.13549489254E+02  0.00000000000E+00 0. -1.
         15    1    5    5    0    0  0.51580133172E+02 -0.99098896431E+01 -0.36147169759E+02  0.63759971239E+02  0.00000000000E+00 0. -1.
        -16    1    3    3    0    0 -0.11826171915E+03  0.32018647198E+03  0.23593371944E+03  0.41493364654E+03  0.00000000000E+00 0.  1.
         16    1    1    2    0    0 -0.96073734659E+02 -0.26934561857E+03 -0.92110203890E+02  0.30043554116E+03  0.00000000000E+00 0. -1.
    9900018    1    3    3    0    0  0.20294491058E+03 -0.19952797732E+02  0.21876041526E+02  0.22445153253E+03  0.91187600000E+02 0.  0.
<mgrwt>
<rscale>  0 0.10884520E+04</rscale>
<asrwt>0</asrwt>
<pdfrwt beam="1">  1        2 0.77392113E-01 0.10884520E+04</pdfrwt>
<pdfrwt beam="2">  1       -2 0.90580584E-01 0.10884520E+04</pdfrwt>
<totfact> 0.63284447E+01</totfact>
</mgrwt>
</event>
<event>
12    1  0.2808000E-009  0.9778286E+03  0.7818608E-02  0.9333202E-01
          2   -1    0    0  501    0  0.00000000000E+00  0.00000000000E+00  0.11282138612E+04  0.11282138612E+04  0.00000000000E+00 0. -1.
         -2   -1    0    0    0  501 -0.00000000000E+00 -0.00000000000E+00 -0.21187225254E+03  0.21187225254E+03  0.00000000000E+00 0.  1.
    9900016    2    1    2    0    0  0.22459134944E+03 -0.14812700194E+02  0.56124246109E+03  0.91966240492E+03  0.69291063534E+03 0.  0.
         25    2    3    3    0    0 -0.85854629957E+02  0.54799505037E+02  0.36411075941E+03  0.39821604616E+03  0.12500148423E+03 0.  0.
         23    2    4    4    0    0 -0.29120873709E+02  0.23615210868E+02  0.22686646966E+03  0.24511070294E+03  0.84883203103E+02 0.  0.
        -15    1    4    4    0    0 -0.15519100788E+02  0.71200772026E+01  0.59310341428E+02  0.61719159011E+02  0.00000000000E+00 0. -1.
        -15    1    5    5    0    0  0.19746723249E+02  0.31584100483E+02  0.56330024754E+02  0.67531919647E+02  0.00000000000E+00 0. -1.
         15    1    5    5    0    0 -0.48867596958E+02 -0.79688896150E+01  0.17053644490E+03  0.17757878329E+03  0.00000000000E+00 0.  1.
         15    1    4    4    0    0 -0.41214655459E+02  0.24064216967E+02  0.77933948328E+02  0.91386184212E+02  0.00000000000E+00 0.  1.
        -16    1    3    3    0    0  0.84122235726E+01 -0.97600837835E+02 -0.58779703589E+02  0.11424422351E+03  0.00000000000E+00 0.  1.
         16    1    1    2    0    0 -0.22459134944E+03  0.14812700194E+02  0.35509914753E+03  0.42042370878E+03  0.00000000000E+00 0. -1.
    9900018    1    3    3    0    0  0.30203375583E+03  0.27988632604E+02  0.25591140526E+03  0.40720213525E+03  0.91187600000E+02 0.  0.
<mgrwt>
<rscale>  0 0.97782864E+03</rscale>
<asrwt>0</asrwt>
<pdfrwt beam="1">  1        2 0.17357136E+00 0.97782864E+03</pdfrwt>
<pdfrwt beam="2">  1       -2 0.32595732E-01 0.97782864E+03</pdfrwt>
<totfact> 0.18327632E+02</totfact>
</mgrwt>
</event>
<event>
12    1  0.2808000E-009  0.1564472E+04  0.7818608E-02  0.8842676E-01
         -2   -1    0    0    0  501 -0.00000000000E+00  0.00000000000E+00  0.32667394382E+03  0.32667394382E+03  0.00000000000E+00 0. -1.
          2   -1    0    0  501    0  0.00000000000E+00 -0.00000000000E+00 -0.18731011509E+04  0.18731011509E+04  0.00000000000E+00 0.  1.
    9900016    2    1    2    0    0  0.61540910035E+03  0.82258960013E+02 -0.96666140311E+03  0.13502909661E+04  0.70947623467E+03 0.  0.
         25    2    3    3    0    0  0.25621512167E+02  0.61430375026E+01 -0.79411450177E+01  0.12799342675E+03  0.12500022684E+03 0.  0.
         23    2    4    4    0    0  0.24792805589E+02  0.76163160650E+01  0.13534001475E+01  0.91805794459E+02  0.88055554765E+02 0.  0.
        -15    1    4    4    0    0  0.14417579305E+02 -0.85411153603E+01 -0.12029565698E+02  0.20628322654E+02  0.00000000000E+00 0.  1.
        -15    1    5    5    0    0  0.52897675726E+02 -0.31503129964E+01  0.19726820708E+02  0.56544106895E+02  0.00000000000E+00 0. -1.
         15    1    5    5    0    0 -0.28104870138E+02  0.10766629061E+02 -0.18373420561E+02  0.35261687565E+02  0.00000000000E+00 0.  1.
         15    1    4    4    0    0 -0.13588872727E+02  0.70678367980E+01  0.27350205332E+01  0.15559309634E+02  0.00000000000E+00 0. -1.
        -16    1    3    3    0    0  0.62133001194E+03  0.58397316826E+02 -0.93017259219E+03  0.11201260115E+04  0.00000000000E+00 0.  1.
         16    1    1    2    0    0 -0.61540910035E+03 -0.82258960013E+02 -0.57976580393E+03  0.84948412858E+03  0.00000000000E+00 0. -1.
    9900018    1    3    3    0    0 -0.31542423754E+02  0.17718605684E+02 -0.28547665902E+02  0.10217152786E+03  0.91187600000E+02 0.  0.
<mgrwt>
<rscale>  0 0.15644722E+04</rscale>
<asrwt>0</asrwt>
<pdfrwt beam="1">  1        2 0.28816942E+00 0.15644722E+04</pdfrwt>
<pdfrwt beam="2">  1       -2 0.50257528E-01 0.15644722E+04</pdfrwt>
<totfact> 0.28298779E+01</totfact>
</mgrwt>
</event>
<event>
12    1  0.2808000E-009  0.7942292E+03  0.7818608E-02  0.9568408E-01
          2   -1    0    0  501    0  0.00000000000E+00  0.00000000000E+00  0.14129302096E+04  0.14129302096E+04  0.00000000000E+00 0. -1.
         -2   -1    0    0    0  501 -0.00000000000E+00 -0.00000000000E+00 -0.11161201752E+03  0.11161201752E+03  0.00000000000E+00 0.  1.
    9900016    2    1    2    0    0  0.59140441983E+02  0.52485418809E+02  0.11890554607E+04  0.13872278727E+04  0.71013799449E+03 0.  0.
         25    2    3    3    0    0 -0.14937465448E+03  0.15919918885E+03  0.44128396842E+03  0.50795082147E+03  0.12500130846E+03 0.  0.
         23    2    4    4    0    0 -0.11717564465E+03  0.10208861586E+03  0.28810510964E+03  0.34006515743E+03  0.92127845484E+02 0.  0.
        -15    1    4    4    0    0  0.12232765275E+01  0.11968610684E+02  0.19890352148E+02  0.23245863196E+02  0.00000000000E+00 0. -1.
        -15    1    5    5    0    0 -0.93677562679E+02  0.65798351259E+02  0.11741672361E+03  0.16398657189E+03  0.00000000000E+00 0.  1.
         15    1    5    5    0    0 -0.23498081975E+02  0.36290264597E+02  0.17068838603E+03  0.17607858554E+03  0.00000000000E+00 0. -1.
         15    1    4    4    0    0 -0.33422286355E+02  0.45141962312E+02  0.13328850663E+03  0.14463980084E+03  0.00000000000E+00 0.  1.
        -16    1    1    2    0    0 -0.59140441983E+02 -0.52485418809E+02  0.11226273143E+03  0.13731435443E+03  0.00000000000E+00 0.  1.
         16    1    3    3    0    0 -0.81634804215E+02 -0.13396938657E+03  0.26948467000E+03  0.31182370847E+03  0.00000000000E+00 0. -1.
    9900018    1    3    3    0    0  0.29014990068E+03  0.27255616527E+02  0.47828682228E+03  0.56745334280E+03  0.91187600000E+02 0.  0.
<mgrwt>
<rscale>  0 0.79422916E+03</rscale>
<asrwt>0</asrwt>
<pdfrwt beam="1">  1        2 0.21737387E+00 0.79422916E+03</pdfrwt>
<pdfrwt beam="2">  1       -2 0.17171081E-01 0.79422916E+03</pdfrwt>
<totfact> 0.39917551E+02</totfact>
</mgrwt>
</event>
<event>
12    1  0.2808000E-009  0.1014100E+04  0.7818608E-02  0.9293214E-01
         -1   -1    0    0    0  501 -0.00000000000E+00  0.00000000000E+00  0.20456948828E+03  0.20456948828E+03  0.00000000000E+00 0.  1.
          1   -1    0    0  501    0  0.00000000000E+00 -0.00000000000E+00 -0.12567839960E+04  0.12567839960E+04  0.00000000000E+00 0. -1.
    9900016    2    1    2    0    0 -0.83571317392E+02 -0.23312855234E+03 -0.88662674142E+03  0.11634400818E+04  0.71144413585E+03 0.  0.
         25    2    3    3    0    0 -0.13074962520E+03 -0.52323237813E+02 -0.14872886037E+03  0.23995607562E+03  0.12500183444E+03 0.  0.
         23    2    4    4    0    0 -0.81449404753E+02 -0.30776937281E+02 -0.83317902326E+02  0.15065748152E+03  0.90413375598E+02 0.  0.
        -15    1    4    4    0    0 -0.20021166956E+02 -0.73803838010E+01 -0.47718562914E+02  0.52272157387E+02  0.00000000000E+00 0. -1.
        -15    1    5    5    0    0 -0.40252653156E+02 -0.58705158557E+02 -0.28656834132E+02  0.76731909072E+02  0.00000000000E+00 0. -1.
         15    1    4    4    0    0 -0.29279053494E+02 -0.14165916731E+02 -0.17692395134E+02  0.37026436716E+02  0.00000000000E+00 0.  1.
         15    1    5    5    0    0 -0.41196751597E+02  0.27928221276E+02 -0.54661068194E+02  0.73925572449E+02  0.00000000000E+00 0.  1.
        -16    1    1    2    0    0  0.83571317392E+02  0.23312855234E+03 -0.16558776634E+03  0.29791340247E+03  0.00000000000E+00 0.  1.
         16    1    3    3    0    0  0.16715655391E+03 -0.15594673337E+03 -0.73605472643E+03  0.77073812508E+03  0.00000000000E+00 0. -1.
    9900018    1    3    3    0    0 -0.11997824609E+03 -0.24858581154E+02 -0.18431546200E+01  0.15274588114E+03  0.91187600000E+02 0.  0.
<mgrwt>
<rscale>  0 0.10140999E+04</rscale>
<asrwt>0</asrwt>
<pdfrwt beam="1">  1        1 0.19335138E+00 0.10140999E+04</pdfrwt>
<pdfrwt beam="2">  1       -1 0.31472229E-01 0.10140999E+04</pdfrwt>
<totfact> 0.91190143E+01</totfact>
</mgrwt>
</event>
<event>
12    1  0.2808000E-009  0.8514290E+03  0.7818608E-02  0.9488421E-01
         -1   -1    0    0    0  501 -0.00000000000E+00  0.00000000000E+00  0.95967318148E+02  0.95967318148E+02  0.00000000000E+00 0.  1.
          1   -1    0    0  501    0  0.00000000000E+00 -0.00000000000E+00 -0.18884847792E+04  0.18884847792E+04  0.00000000000E+00 0. -1.
    9900016    2    1    2    0    0  0.11949433906E+03 -0.66094691565E+02 -0.13939853374E+04  0.15631739720E+04  0.69402474056E+03 0.  0.
         25    2    3    3    0    0  0.25787814595E+03  0.29909188864E+02 -0.60369698401E+03  0.66893268051E+03  0.12500073924E+03 0.  0.
         23    2    4    4    0    0  0.21850246303E+03  0.20758618951E+01 -0.51991441485E+03  0.57100260874E+03  0.89360756868E+02 0.  0.
        -15    1    4    4    0    0  0.30173706995E+02  0.14045847341E+02 -0.47064813694E+02  0.57644037934E+02  0.00000000000E+00 0. -1.
        -15    1    5    5    0    0  0.12700041170E+03  0.44007650159E+02 -0.32316771502E+03  0.35000449979E+03  0.00000000000E+00 0.  1.
         15    1    4    4    0    0  0.92019759254E+01  0.13787479628E+02 -0.36717755472E+02  0.40286033837E+02  0.00000000000E+00 0.  1.
         15    1    5    5    0    0  0.91502051330E+02 -0.41931788263E+02 -0.19674669983E+03  0.22099810895E+03  0.00000000000E+00 0. -1.
        -16    1    3    3    0    0 -0.88445411404E+02 -0.15996110861E+02  0.32431597756E+01  0.89938781659E+02  0.00000000000E+00 0.  1.
         16    1    1    2    0    0 -0.11949433906E+03  0.66094691565E+02 -0.39853212368E+03  0.42127812538E+03  0.00000000000E+00 0. -1.
    9900018    1    3    3    0    0 -0.49938395481E+02 -0.80007769568E+02 -0.79353151318E+03  0.80430250984E+03  0.91187600000E+02 0.  0.
<mgrwt>
<rscale>  0 0.85142896E+03</rscale>
<asrwt>0</asrwt>
<pdfrwt beam="1">  1        1 0.29053613E+00 0.85142896E+03</pdfrwt>
<pdfrwt beam="2">  1       -1 0.14764202E-01 0.85142896E+03</pdfrwt>
<totfact> 0.12193750E+02</totfact>
</mgrwt>
</event>
<event>
12    1  0.2808000E-009  0.9271287E+03  0.7818608E-02  0.9392290E-01
          1   -1    0    0  501    0  0.00000000000E+00  0.00000000000E+00  0.33646836118E+03  0.33646836118E+03  0.00000000000E+00 0. -1.
         -1   -1    0    0    0  501 -0.00000000000E+00 -0.00000000000E+00 -0.63866904989E+03  0.63866904989E+03  0.00000000000E+00 0.  1.
    9900016    2    1    2    0    0 -0.44510328334E+02  0.99469503574E+02 -0.40175023350E+03  0.82753841603E+03  0.71522110456E+03 0.  0.
         25    2    3    3    0    0 -0.15244172763E+02 -0.62392211651E+02  0.14745067301E+02  0.14130603288E+03  0.12499922015E+03 0.  0.
         23    2    4    4    0    0 -0.67258904945E+01 -0.32585476974E+02  0.27181503979E+02  0.92119867642E+02  0.81487329955E+02 0.  0.
        -15    1    4    4    0    0 -0.98070744898E+01  0.61441070702E+01 -0.21534444776E+01  0.11771409638E+02  0.00000000000E+00 0.  1.
        -15    1    5    5    0    0 -0.29655106469E+02 -0.23601323699E+02  0.47093571948E+02  0.60450412231E+02  0.00000000000E+00 0. -1.
         15    1    5    5    0    0  0.22929215974E+02 -0.89841532745E+01 -0.19912067969E+02  0.31669455411E+02  0.00000000000E+00 0. -1.
         15    1    4    4    0    0  0.12887922216E+01 -0.35950841747E+02 -0.10282992201E+02  0.37414755596E+02  0.00000000000E+00 0.  1.
        -16    1    3    3    0    0  0.13881364180E+03 -0.11095787975E+03 -0.26778751270E+03  0.32138921915E+03  0.00000000000E+00 0.  1.
         16    1    1    2    0    0  0.44510328334E+02 -0.99469503574E+02  0.99549544793E+02  0.14759899504E+03  0.00000000000E+00 0. -1.
    9900018    1    3    3    0    0 -0.16807979737E+03  0.27281959497E+03 -0.14870778810E+03  0.36484316400E+03  0.91187600000E+02 0.  0.
<mgrwt>
<rscale>  0 0.92712875E+03</rscale>
<asrwt>0</asrwt>
<pdfrwt beam="1">  1        1 0.51764364E-01 0.92712875E+03</pdfrwt>
<pdfrwt beam="2">  1       -1 0.98256776E-01 0.92712875E+03</pdfrwt>
<totfact> 0.75379989E+01</totfact>
</mgrwt>
</event>
<event>
12    1  0.2808000E-009  0.1738662E+04  0.7818608E-02  0.8739616E-01
          1   -1    0    0  501    0  0.00000000000E+00  0.00000000000E+00  0.13791476574E+04  0.13791476574E+04  0.00000000000E+00 0. -1.
         -1   -1    0    0    0  501 -0.00000000000E+00 -0.00000000000E+00 -0.54797347958E+03  0.54797347958E+03  0.00000000000E+00 0.  1.
    9900016    2    1    2    0    0  0.35502465215E+03  0.33306872788E+03  0.10803756852E+04  0.13802402794E+04  0.70772475342E+03 0.  0.
         25    2    3    3    0    0  0.20561336601E+03  0.55094559702E+02  0.58215029018E+03  0.63232613194E+03  0.12500043994E+03 0.  0.
         23    2    4    4    0    0  0.13692600483E+03  0.34283385822E+02  0.40246285098E+03  0.43604554988E+03  0.90748519563E+02 0.  0.
        -15    1    4    4    0    0  0.37221725937E+02  0.25094588144E+02  0.12771090103E+03  0.13537085904E+03  0.00000000000E+00 0. -1.
        -15    1    5    5    0    0  0.26872937975E+02  0.11586860295E+02  0.15537143553E+02  0.33133260580E+02  0.00000000000E+00 0. -1.
         15    1    4    4    0    0  0.31465635235E+02 -0.42834142648E+01  0.51976538170E+02  0.60909723023E+02  0.00000000000E+00 0.  1.
         15    1    5    5    0    0  0.11005306686E+03  0.22696525527E+02  0.38692570743E+03  0.40291228930E+03  0.00000000000E+00 0.  1.
        -16    1    1    2    0    0 -0.35502465215E+03 -0.33306872788E+03 -0.24920150736E+03  0.54688085759E+03  0.00000000000E+00 0.  1.
         16    1    3    3    0    0  0.89239372596E+02  0.37549602100E+03  0.45196775548E+03  0.59433641938E+03  0.00000000000E+00 0. -1.
    9900018    1    3    3    0    0  0.60171913551E+02 -0.97521852824E+02  0.46257639558E+02  0.15357772811E+03  0.91187600000E+02 0.  0.
<mgrwt>
<rscale>  0 0.17386619E+04</rscale>
<asrwt>0</asrwt>
<pdfrwt beam="1">  1        1 0.21217656E+00 0.17386619E+04</pdfrwt>
<pdfrwt beam="2">  1       -1 0.84303612E-01 0.17386619E+04</pdfrwt>
<totfact> 0.10506160E+01</totfact>
</mgrwt>
</event>
<event>
12    1  0.2808000E-009  0.8200385E+03  0.7818608E-02  0.9531457E-01
         -1   -1    0    0    0  501 -0.00000000000E+00  0.00000000000E+00  0.21348140601E+03  0.21348140601E+03  0.00000000000E+00 0.  1.
          1   -1    0    0  501    0  0.00000000000E+00 -0.00000000000E+00 -0.78749611681E+03  0.78749611681E+03  0.00000000000E+00 0. -1.
    9900016    2    1    2    0    0 -0.44280862177E+02 -0.44613513815E+02 -0.60081460054E+03  0.93264455522E+03  0.71056070944E+03 0.  0.
         25    2    3    3    0    0 -0.20802660102E+02 -0.62663029050E+02 -0.15110984614E+03  0.20692687790E+03  0.12500056528E+03 0.  0.
         23    2    4    4    0    0 -0.21856167569E+02 -0.64667332905E+02 -0.11845540162E+03  0.16288818503E+03  0.88551243036E+02 0.  0.
        -15    1    4    4    0    0 -0.11206136762E+02 -0.28114761998E+01 -0.35403499755E+01  0.12083707109E+02  0.00000000000E+00 0.  1.
        -15    1    5    5    0    0 -0.26873917886E+02 -0.36251818327E+02 -0.12534600956E+03  0.13322170960E+03  0.00000000000E+00 0.  1.
         15    1    4    4    0    0  0.12259644229E+02  0.48157800548E+01 -0.29114094538E+02  0.31954985760E+02  0.00000000000E+00 0. -1.
         15    1    5    5    0    0  0.50177503165E+01 -0.28415514578E+02  0.68906079392E+01  0.29666475435E+02  0.00000000000E+00 0. -1.
        -16    1    1    2    0    0  0.44280862177E+02  0.44613513815E+02  0.26799889740E+02  0.68332967594E+02  0.00000000000E+00 0.  1.
         16    1    3    3    0    0 -0.75295611645E+02  0.16482097562E+03 -0.50541507813E+03  0.53691692499E+03  0.00000000000E+00 0. -1.
    9900018    1    3    3    0    0  0.51817409571E+02 -0.14677146038E+03  0.55710323732E+02  0.18880075233E+03  0.91187600000E+02 0.  0.
<mgrwt>
<rscale>  0 0.82003848E+03</rscale>
<asrwt>0</asrwt>
<pdfrwt beam="1">  1        1 0.12115325E+00 0.82003848E+03</pdfrwt>
<pdfrwt beam="2">  1       -1 0.32843293E-01 0.82003848E+03</pdfrwt>
<totfact> 0.19896396E+02</totfact>
</mgrwt>
</event>
<event>
12    1  0.2808000E-009  0.1129243E+04  0.7818608E-02  0.9177150E-01
         -1   -1    0    0    0  501 -0.00000000000E+00  0.00000000000E+00  0.64404823265E+03  0.64404823265E+03  0.00000000000E+00 0.  1.
          1   -1    0    0  501    0  0.00000000000E+00 -0.00000000000E+00 -0.49498962497E+03  0.49498962497E+03  0.00000000000E+00 0. -1.
    9900016    2    1    2    0    0  0.19689876365E+03  0.26612002301E+03  0.20083062862E+03  0.80397169710E+03  0.70459105769E+03 0.  0.
         25    2    3    3    0    0  0.43762743431E+02  0.13049039198E+03  0.33208249161E+03  0.38058769724E+03  0.12500117578E+03 0.  0.
         23    2    4    4    0    0  0.40179275616E+02  0.67095036116E+02  0.25038901270E+03  0.27611939855E+03  0.86204098003E+02 0.  0.
        -15    1    4    4    0    0  0.35373827198E+01  0.36981552743E+02  0.36249047309E+02  0.51905122585E+02  0.00000000000E+00 0.  1.
        -15    1    5    5    0    0  0.61318464423E+02  0.29148267737E+02  0.11098579225E+03  0.13010542522E+03  0.00000000000E+00 0. -1.
         15    1    5    5    0    0 -0.21139188806E+02  0.37946768379E+02  0.13940322045E+03  0.14601397333E+03  0.00000000000E+00 0.  1.
         15    1    4    4    0    0  0.46085094282E-01  0.26413803124E+02  0.45444431596E+02  0.52563176106E+02  0.00000000000E+00 0. -1.
        -16    1    1    2    0    0 -0.19689876365E+03 -0.26612002301E+03 -0.51772020936E+02  0.33506616052E+03  0.00000000000E+00 0.  1.
         16    1    3    3    0    0  0.12439271408E+03 -0.91541250561E+02 -0.69092923251E+02  0.16919568527E+03  0.00000000000E+00 0. -1.
    9900018    1    3    3    0    0  0.28743306140E+02  0.22717088159E+03 -0.62158939737E+02  0.25418831459E+03  0.91187600000E+02 0.  0.
<mgrwt>
<rscale>  0 0.11292426E+04</rscale>
<asrwt>0</asrwt>
<pdfrwt beam="1">  1        1 0.76152250E-01 0.11292426E+04</pdfrwt>
<pdfrwt beam="2">  1       -1 0.99084344E-01 0.11292426E+04</pdfrwt>
<totfact> 0.43534116E+01</totfact>
</mgrwt>
</event>
<event>
12    1  0.2808000E-009  0.9191069E+03  0.7818608E-02  0.9402007E-01
         -1   -1    0    0    0  501 -0.00000000000E+00  0.00000000000E+00  0.24421479547E+03  0.24421479547E+03  0.00000000000E+00 0.  1.
          1   -1    0    0  501    0  0.00000000000E+00 -0.00000000000E+00 -0.86476893846E+03  0.86476893846E+03  0.00000000000E+00 0. -1.
    9900016    2    1    2    0    0 -0.20159152867E+01 -0.97617059285E+02 -0.68560171364E+03  0.99166220724E+03  0.70979649854E+03 0.  0.
         25    2    3    3    0    0 -0.25094405044E+03  0.51994524546E+02 -0.46167154964E+03  0.54262557366E+03  0.12500218564E+03 0.  0.
         23    2    4    4    0    0 -0.16622484644E+03  0.50303465916E+02 -0.34718361837E+03  0.39860406482E+03  0.90485343401E+02 0.  0.
        -15    1    4    4    0    0 -0.44025942446E+02  0.11322197680E+02 -0.63082383966E+02  0.77755147324E+02  0.00000000000E+00 0. -1.
        -15    1    5    5    0    0 -0.42854829732E+02  0.54133594122E+02 -0.90915751598E+02  0.11416066018E+03  0.00000000000E+00 0.  1.
         15    1    5    5    0    0 -0.12337001671E+03 -0.38301282055E+01 -0.25626786677E+03  0.28444340464E+03  0.00000000000E+00 0. -1.
         15    1    4    4    0    0 -0.40693261557E+02 -0.96311390503E+01 -0.51405547301E+02  0.66266361518E+02  0.00000000000E+00 0.  1.
        -16    1    1    2    0    0  0.20159152867E+01  0.97617059285E+02  0.65047570650E+02  0.11732152669E+03  0.00000000000E+00 0.  1.
         16    1    3    3    0    0  0.97698859767E+02 -0.45510040808E+02 -0.21888397492E+03  0.24398037932E+03  0.00000000000E+00 0. -1.
    9900018    1    3    3    0    0  0.15122927539E+03 -0.10410154302E+03 -0.50461890885E+01  0.20505625426E+03  0.91187600000E+02 0.  0.
<mgrwt>
<rscale>  0 0.91910689E+03</rscale>
<asrwt>0</asrwt>
<pdfrwt beam="1">  1        1 0.13304137E+00 0.91910689E+03</pdfrwt>
<pdfrwt beam="2">  1       -1 0.37571507E-01 0.91910689E+03</pdfrwt>
<totfact> 0.13364389E+02</totfact>
</mgrwt>
</event>
<event>
12    1  0.2808000E-009  0.8386421E+03  0.7818608E-02  0.9505709E-01
          2   -1    0    0  501    0  0.00000000000E+00  0.00000000000E+00  0.30352873002E+03  0.30352873002E+03  0.00000000000E+00 0. -1.
         -2   -1    0    0    0  501 -0.00000000000E+00 -0.00000000000E+00 -0.57928666700E+03  0.57928666700E+03  0.00000000000E+00 0.  1.
    9900016    2    1    2    0    0  0.45312898985E+02 -0.55333335235E+02 -0.34678054528E+03  0.78202230355E+03  0.69727118101E+03 0.  0.
         25    2    3    3    0    0 -0.11911660738E+03 -0.95723770076E+02 -0.11708175159E+02  0.19776934939E+03  0.12499531143E+03 0.  0.
         23    2    4    4    0    0 -0.94694104267E+02 -0.80698150084E+02  0.42026224942E+00  0.15398673891E+03  0.90733534767E+02 0.  0.
        -15    1    4    4    0    0  0.29441763127E+01 -0.14397128666E+02 -0.41682341394E+01  0.15274804870E+02  0.00000000000E+00 0. -1.
        -15    1    5    5    0    0 -0.79021385475E+02 -0.92090499038E+02  0.23761580540E+02  0.12365133273E+03  0.00000000000E+00 0. -1.
         15    1    4    4    0    0 -0.27366679426E+02 -0.62849132615E+00 -0.79602032687E+01  0.28507805601E+02  0.00000000000E+00 0.  1.
         15    1    5    5    0    0 -0.15672718793E+02  0.11392348954E+02 -0.23341318291E+02  0.30335406188E+02  0.00000000000E+00 0.  1.
        -16    1    1    2    0    0 -0.45312898985E+02  0.55333335235E+02  0.71022608301E+02  0.10079309348E+03  0.00000000000E+00 0.  1.
         16    1    3    3    0    0  0.62091866414E+02 -0.17872082842E+03 -0.42578055801E+02  0.19393149621E+03  0.00000000000E+00 0. -1.
    9900018    1    3    3    0    0  0.10233763995E+03  0.21911126326E+03 -0.29249431432E+03  0.39032145795E+03  0.91187600000E+02 0.  0.
<mgrwt>
<rscale>  0 0.83864211E+03</rscale>
<asrwt>0</asrwt>
<pdfrwt beam="1">  1        2 0.46696728E-01 0.83864211E+03</pdfrwt>
<pdfrwt beam="2">  1       -2 0.89121026E-01 0.83864211E+03</pdfrwt>
<totfact> 0.11786277E+02</totfact>
</mgrwt>
</event>
<event>
12    1  0.2808000E-009  0.1442215E+04  0.7818608E-02  0.8923815E-01
         -1   -1    0    0    0  501 -0.00000000000E+00  0.00000000000E+00  0.53902233184E+03  0.53902233184E+03  0.00000000000E+00 0.  1.
          1   -1    0    0  501    0  0.00000000000E+00 -0.00000000000E+00 -0.96470254919E+03  0.96470254919E+03  0.00000000000E+00 0. -1.
    9900016    2    1    2    0    0 -0.40672684606E+03  0.26386484171E+03 -0.53716162701E+03  0.10062517796E+04  0.69924863126E+03 0.  0.
         25    2    3    3    0    0 -0.12237993309E+03  0.86940203415E+02 -0.13687790354E+03  0.23853214973E+03  0.12500631578E+03 0.  0.
         23    2    4    4    0    0 -0.89973876965E+02  0.53630076853E+02 -0.85413952767E+02  0.16402513121E+03  0.92936627124E+02 0.  0.
        -15    1    4    4    0    0 -0.49789197391E+01  0.23885291780E+02 -0.28482634590E+02  0.37504096821E+02  0.00000000000E+00 0. -1.
        -15    1    5    5    0    0 -0.53067799467E+02  0.58860226075E+02 -0.99705141329E+01  0.79875707858E+02  0.00000000000E+00 0.  1.
         15    1    5    5    0    0 -0.36906077498E+02 -0.52301492219E+01 -0.75443438634E+02  0.84149423350E+02  0.00000000000E+00 0. -1.
         15    1    4    4    0    0 -0.27427136387E+02  0.94248347823E+01 -0.22981316181E+02  0.37002921702E+02  0.00000000000E+00 0.  1.
        -16    1    1    2    0    0  0.40672684606E+03 -0.26386484171E+03  0.11148140966E+03  0.49747310148E+03  0.00000000000E+00 0.  1.
         16    1    3    3    0    0 -0.23675918558E+03 -0.17098338440E+03 -0.18946319355E+03  0.34811855941E+03  0.00000000000E+00 0. -1.
    9900018    1    3    3    0    0 -0.47587727393E+02  0.34790802270E+03 -0.21082052993E+03  0.41960107041E+03  0.91187600000E+02 0.  0.
<mgrwt>
<rscale>  0 0.14422153E+04</rscale>
<asrwt>0</asrwt>
<pdfrwt beam="1">  1        1 0.14841578E+00 0.14422153E+04</pdfrwt>
<pdfrwt beam="2">  1       -1 0.82926514E-01 0.14422153E+04</pdfrwt>
<totfact> 0.22649769E+01</totfact>
</mgrwt>
</event>
<event>
12    1  0.2808000E-009  0.1394209E+04  0.7818608E-02  0.8958021E-01
         -1   -1    0    0    0  501 -0.00000000000E+00  0.00000000000E+00  0.35058376312E+03  0.35058376312E+03  0.00000000000E+00 0.  1.
          1   -1    0    0  501    0  0.00000000000E+00 -0.00000000000E+00 -0.13861306745E+04  0.13861306745E+04  0.00000000000E+00 0. -1.
    9900016    2    1    2    0    0 -0.16760866876E+02  0.10408132933E+03 -0.12817368003E+04  0.14689023558E+04  0.70972604278E+03 0.  0.
         25    2    3    3    0    0  0.29005919711E+02 -0.40970618907E+02 -0.21472598624E+03  0.25347451862E+03  0.12498858920E+03 0.  0.
         23    2    4    4    0    0  0.12487414767E+02 -0.25410290983E+02 -0.17819227724E+03  0.20245787133E+03  0.91842711079E+02 0.  0.
        -15    1    4    4    0    0 -0.14717318914E+00 -0.12337328458E+02 -0.19494220740E+01  0.12491260138E+02  0.00000000000E+00 0.  1.
        -15    1    5    5    0    0 -0.34810062431E+02  0.12090864740E+01 -0.10953426176E+03  0.11493892655E+03  0.00000000000E+00 0. -1.
         15    1    5    5    0    0  0.47297477198E+02 -0.26619377457E+02 -0.68658015481E+02  0.87518944779E+02  0.00000000000E+00 0.  1.
         15    1    4    4    0    0  0.16665678133E+02 -0.32229994659E+01 -0.34584286923E+02  0.38525387151E+02  0.00000000000E+00 0. -1.
        -16    1    1    2    0    0  0.16760866876E+02 -0.10408132933E+03  0.24618988892E+03  0.26781208184E+03  0.00000000000E+00 0.  1.
         16    1    3    3    0    0 -0.28534545746E+03  0.52596534145E+02 -0.70451873015E+03  0.76192851806E+03  0.00000000000E+00 0. -1.
    9900018    1    3    3    0    0  0.23957867088E+03  0.92455414094E+02 -0.36249208391E+03  0.45349931910E+03  0.91187600000E+02 0.  0.
<mgrwt>
<rscale>  0 0.13942093E+04</rscale>
<asrwt>0</asrwt>
<pdfrwt beam="1">  1        1 0.21325087E+00 0.13942093E+04</pdfrwt>
<pdfrwt beam="2">  1       -1 0.53935964E-01 0.13942093E+04</pdfrwt>
<totfact> 0.26595648E+01</totfact>
</mgrwt>
</event>
<event>
12    1  0.2808000E-009  0.7913974E+03  0.7818608E-02  0.9572553E-01
          2   -1    0    0  501    0  0.00000000000E+00  0.00000000000E+00  0.72862525117E+03  0.72862525117E+03  0.00000000000E+00 0. -1.
         -2   -1    0    0    0  501 -0.00000000000E+00 -0.00000000000E+00 -0.21489438968E+03  0.21489438968E+03  0.00000000000E+00 0.  1.
    9900016    2    1    2    0    0  0.28487991861E+02 -0.26463076211E+02  0.54268875050E+03  0.89503851649E+03  0.71068347807E+03 0.  0.
         25    2    3    3    0    0  0.16061966839E+02 -0.35933504455E+02  0.53053496246E+02  0.14138283176E+03  0.12500091252E+03 0.  0.
         23    2    4    4    0    0  0.26306010555E+02 -0.25035371234E+02  0.48796849124E+02  0.10920947684E+03  0.90701716319E+02 0.  0.
        -15    1    4    4    0    0 -0.36411278030E+01 -0.20155212171E+02  0.34919190328E+01  0.20777003823E+02  0.00000000000E+00 0. -1.
        -15    1    5    5    0    0  0.82253073547E-01  0.33289858049E+02  0.11741255143E+02  0.35299836924E+02  0.00000000000E+00 0. -1.
         15    1    5    5    0    0  0.26223757482E+02 -0.58325229283E+02  0.37055593981E+02  0.73909639917E+02  0.00000000000E+00 0.  1.
         15    1    4    4    0    0 -0.66029159133E+01  0.92570789501E+01  0.76472808939E+00  0.11396351096E+02  0.00000000000E+00 0.  1.
        -16    1    1    2    0    0 -0.28487991861E+02  0.26463076211E+02 -0.28957889013E+02  0.48481124357E+02  0.00000000000E+00 0.  1.
         16    1    3    3    0    0  0.92713561195E+02  0.22317860404E+03  0.44126848847E+03  0.50311268385E+03  0.00000000000E+00 0. -1.
    9900018    1    3    3    0    0 -0.80287536172E+02 -0.21370817580E+03  0.48366765779E+02  0.25054300089E+03  0.91187600000E+02 0.  0.
<mgrwt>
<rscale>  0 0.79139744E+03</rscale>
<asrwt>0</asrwt>
<pdfrwt beam="1">  1        2 0.11209619E+00 0.79139744E+03</pdfrwt>
<pdfrwt beam="2">  1       -2 0.33060676E-01 0.79139744E+03</pdfrwt>
<totfact> 0.33413292E+02</totfact>
</mgrwt>
</event>
<event>
12    1  0.2808000E-009  0.1220633E+04  0.7818608E-02  0.9094986E-01
         -3   -1    0    0    0  501 -0.00000000000E+00  0.00000000000E+00  0.11184243880E+04  0.11184243880E+04  0.00000000000E+00 0.  1.
          3   -1    0    0  501    0  0.00000000000E+00 -0.00000000000E+00 -0.33304559498E+03  0.33304559498E+03  0.00000000000E+00 0. -1.
    9900016    2    1    2    0    0 -0.23804607936E+03  0.25281602494E+03  0.76725527146E+03  0.11037483409E+04  0.71344086649E+03 0.  0.
         25    2    3    3    0    0 -0.17212544914E+03  0.14938212742E+03  0.40651390093E+03  0.48251684104E+03  0.12500703981E+03 0.  0.
         23    2    4    4    0    0 -0.92552342936E+02  0.86608270373E+02  0.23668754599E+03  0.28362381978E+03  0.91403216788E+02 0.  0.
        -15    1    4    4    0    0 -0.54875138783E+01  0.12356157397E+02  0.28593954301E+02  0.31629126715E+02  0.00000000000E+00 0.  1.
        -15    1    5    5    0    0 -0.41320442817E+02  0.42037609013E+02  0.30148032666E+02  0.66207578417E+02  0.00000000000E+00 0. -1.
         15    1    5    5    0    0 -0.51231900119E+02  0.44570661360E+02  0.20653951333E+03  0.21741624136E+03  0.00000000000E+00 0.  1.
         15    1    4    4    0    0 -0.74085592329E+02  0.50417699655E+02  0.14123240063E+03  0.16726389454E+03  0.00000000000E+00 0. -1.
        -16    1    3    3    0    0  0.95661605945E+02  0.12593804357E+03  0.40011114834E+03  0.43023303534E+03  0.00000000000E+00 0.  1.
         16    1    1    2    0    0  0.23804607936E+03 -0.25281602494E+03  0.18123521540E+02  0.34772164212E+03  0.00000000000E+00 0. -1.
    9900018    1    3    3    0    0 -0.16158223616E+03 -0.22504146057E+02 -0.39369777807E+02  0.19099846447E+03  0.91187600000E+02 0.  0.
<mgrwt>
<rscale>  0 0.12206331E+04</rscale>
<asrwt>0</asrwt>
<pdfrwt beam="1">  1        3 0.51237784E-01 0.12206331E+04</pdfrwt>
<pdfrwt beam="2">  1       -3 0.17206529E+00 0.12206331E+04</pdfrwt>
<totfact> 0.21816987E+00</totfact>
</mgrwt>
</event>
<event>
12    1  0.2808000E-009  0.1048135E+04  0.7818608E-02  0.9257272E-01
         -2   -1    0    0    0  501 -0.00000000000E+00  0.00000000000E+00  0.42248657059E+03  0.42248657059E+03  0.00000000000E+00 0.  1.
          2   -1    0    0  501    0  0.00000000000E+00 -0.00000000000E+00 -0.65007222611E+03  0.65007222611E+03  0.00000000000E+00 0. -1.
    9900016    2    1    2    0    0  0.10013336539E+03 -0.19151559384E+03  0.11629821702E+02  0.75017865139E+03  0.71828117245E+03 0.  0.
         25    2    3    3    0    0  0.34785220917E+01 -0.27105602769E+03 -0.28082545768E+02  0.29982582491E+03  0.12499370242E+03 0.  0.
         23    2    4    4    0    0 -0.89158692226E+01 -0.20951046322E+03 -0.18806575303E+02  0.22903179095E+03  0.90154018604E+02 0.  0.
        -15    1    4    4    0    0  0.23593990850E+01 -0.35062877760E+02 -0.20090023273E+02  0.40479392238E+02  0.00000000000E+00 0.  1.
        -15    1    5    5    0    0  0.39033338676E+02 -0.63191643945E+02 -0.52099991031E+01  0.74457568341E+02  0.00000000000E+00 0.  1.
         15    1    4    4    0    0  0.10034992229E+02 -0.26482686709E+02  0.10814052808E+02  0.30314641719E+02  0.00000000000E+00 0. -1.
         15    1    5    5    0    0 -0.47949207898E+02 -0.14631881927E+03 -0.13596576200E+02  0.15457422261E+03  0.00000000000E+00 0. -1.
        -16    1    3    3    0    0  0.95584128558E+02 -0.12759852095E+03 -0.96345406616E+02  0.18627975079E+03  0.00000000000E+00 0.  1.
         16    1    1    2    0    0 -0.10013336539E+03  0.19151559384E+03 -0.23921547722E+03  0.32238014531E+03  0.00000000000E+00 0. -1.
    9900018    1    3    3    0    0  0.10707147456E+01  0.20713895479E+03  0.13605777409E+03  0.26407307569E+03  0.91187600000E+02 0.  0.
<mgrwt>
<rscale>  0 0.10481351E+04</rscale>
<asrwt>0</asrwt>
<pdfrwt beam="1">  1        2 0.10001111E+00 0.10481351E+04</pdfrwt>
<pdfrwt beam="2">  1       -2 0.64997934E-01 0.10481351E+04</pdfrwt>
<totfact> 0.97803882E+01</totfact>
</mgrwt>
</event>
<event>
12    1  0.2808000E-009  0.1422434E+04  0.7818608E-02  0.8937738E-01
         -2   -1    0    0    0  501 -0.00000000000E+00  0.00000000000E+00  0.50520609876E+03  0.50520609876E+03  0.00000000000E+00 0.  1.
          2   -1    0    0  501    0  0.00000000000E+00 -0.00000000000E+00 -0.10012339013E+04  0.10012339013E+04  0.00000000000E+00 0. -1.
    9900016    2    1    2    0    0  0.68812052462E+02  0.44747570305E+03 -0.30096684381E+01  0.83708472524E+03  0.70408250635E+03 0.  0.
         25    2    3    3    0    0  0.15649702383E+03  0.37609627202E+02  0.13349272137E+03  0.24362091891E+03  0.12500017178E+03 0.  0.
         23    2    4    4    0    0  0.98522119197E+02  0.45257472022E+02  0.85431710847E+02  0.16647777831E+03  0.93066786283E+02 0.  0.
        -15    1    4    4    0    0  0.36814038605E+02  0.14697507732E+01  0.24870324626E+02  0.44451846450E+02  0.00000000000E+00 0. -1.
        -15    1    5    5    0    0  0.80321255710E+02  0.34032446492E+02  0.96840064561E+01  0.87769536367E+02  0.00000000000E+00 0.  1.
         15    1    4    4    0    0  0.21160866029E+02 -0.91175955926E+01  0.23190685902E+02  0.32691294148E+02  0.00000000000E+00 0.  1.
         15    1    5    5    0    0  0.18200863487E+02  0.11225025530E+02  0.75747704391E+02  0.78708241946E+02  0.00000000000E+00 0. -1.
        -16    1    3    3    0    0 -0.12941389253E+03  0.42550077491E+03 -0.18412475261E+03  0.48135308200E+03  0.00000000000E+00 0.  1.
         16    1    1    2    0    0 -0.68812052462E+02 -0.44747570305E+03 -0.49301813410E+03  0.66935527482E+03  0.00000000000E+00 0. -1.
    9900018    1    3    3    0    0  0.41728921165E+02 -0.15634699068E+02  0.47622362798E+02  0.11211072433E+03  0.91187600000E+02 0.  0.
<mgrwt>
<rscale>  0 0.14224338E+04</rscale>
<asrwt>0</asrwt>
<pdfrwt beam="1">  1        2 0.15403598E+00 0.14224338E+04</pdfrwt>
<pdfrwt beam="2">  1       -2 0.77724016E-01 0.14224338E+04</pdfrwt>
<totfact> 0.36040770E+01</totfact>
</mgrwt>
</event>
<event>
12    1  0.2808000E-009  0.8209088E+03  0.7818608E-02  0.9530236E-01
         -1   -1    0    0    0  501 -0.00000000000E+00  0.00000000000E+00  0.16508588009E+03  0.16508588009E+03  0.00000000000E+00 0.  1.
          1   -1    0    0  501    0  0.00000000000E+00 -0.00000000000E+00 -0.10205161339E+04  0.10205161339E+04  0.00000000000E+00 0. -1.
    9900016    2    1    2    0    0 -0.62114659125E+01  0.70232771010E+02 -0.62341350951E+03  0.94310872735E+03  0.70415796760E+03 0.  0.
         25    2    3    3    0    0  0.34702738823E+02 -0.20502659870E+03 -0.22889683728E+03  0.33355470581E+03  0.12499917359E+03 0.  0.
         23    2    4    4    0    0  0.35703310729E+02 -0.12410761081E+03 -0.13965753703E+03  0.21090186887E+03  0.91093057826E+02 0.  0.
        -15    1    4    4    0    0  0.98477209106E+01 -0.27088508337E+02 -0.25121116439E+02  0.38233955880E+02  0.00000000000E+00 0. -1.
        -15    1    5    5    0    0  0.22260192334E+02 -0.49468207862E+02 -0.12129163655E+03  0.13286941277E+03  0.00000000000E+00 0. -1.
         15    1    4    4    0    0 -0.10848292817E+02 -0.53830479555E+02 -0.64118183801E+02  0.84418881064E+02  0.00000000000E+00 0.  1.
         15    1    5    5    0    0  0.13443118395E+02 -0.74639402946E+02 -0.18365900481E+02  0.78032456099E+02  0.00000000000E+00 0.  1.
        -16    1    3    3    0    0  0.15184614756E+03  0.14613938360E+03 -0.22383666273E+03  0.30743588526E+03  0.00000000000E+00 0.  1.
         16    1    1    2    0    0  0.62114659125E+01 -0.70232771010E+02 -0.23201674430E+03  0.24249328664E+03  0.00000000000E+00 0. -1.
    9900018    1    3    3    0    0 -0.19276035229E+03  0.12911998611E+03 -0.17068000951E+03  0.30211813628E+03  0.91187600000E+02 0.  0.
<mgrwt>
<rscale>  0 0.82090877E+03</rscale>
<asrwt>0</asrwt>
<pdfrwt beam="1">  1        1 0.15700248E+00 0.82090877E+03</pdfrwt>
<pdfrwt beam="2">  1       -1 0.25397828E-01 0.82090877E+03</pdfrwt>
<totfact> 0.20063479E+02</totfact>
</mgrwt>
</event>
<event>
12    1  0.2808000E-009  0.1189591E+04  0.7818608E-02  0.9122016E-01
         -2   -1    0    0    0  501 -0.00000000000E+00  0.00000000000E+00  0.30093036612E+03  0.30093036612E+03  0.00000000000E+00 0.  1.
          2   -1    0    0  501    0  0.00000000000E+00 -0.00000000000E+00 -0.11756269894E+04  0.11756269894E+04  0.00000000000E+00 0. -1.
    9900016    2    1    2    0    0 -0.54519736172E+02 -0.16617131959E+03 -0.12831670285E+03  0.70996209418E+03  0.67601456334E+03 0.  0.
         25    2    3    3    0    0 -0.27506576159E+02  0.10592304195E+03 -0.59505039813E+02  0.17647479955E+03  0.12500481017E+03 0.  0.
         23    2    4    4    0    0 -0.15423313462E+02  0.90200548381E+02 -0.45366135024E+02  0.13429327027E+03  0.87192767515E+02 0.  0.
        -15    1    4    4    0    0 -0.15373601645E+02 -0.40542226351E+01 -0.15345351817E+02  0.22096700457E+02  0.00000000000E+00 0. -1.
        -15    1    5    5    0    0  0.19299894774E+02  0.16815895424E+02 -0.46522581251E+02  0.53100007943E+02  0.00000000000E+00 0.  1.
         15    1    4    4    0    0  0.32903389487E+01  0.19776716208E+02  0.12064470277E+01  0.20084828821E+02  0.00000000000E+00 0.  1.
         15    1    5    5    0    0 -0.34723208236E+02  0.73384652957E+02  0.11564462276E+01  0.81193262330E+02  0.00000000000E+00 0. -1.
        -16    1    3    3    0    0 -0.12609842675E+03 -0.51087782908E+02  0.14423372123E+03  0.19827793909E+03  0.00000000000E+00 0.  1.
         16    1    1    2    0    0  0.54519736172E+02  0.16617131959E+03 -0.74637992047E+03  0.76659526138E+03  0.00000000000E+00 0. -1.
    9900018    1    3    3    0    0  0.99085266734E+02 -0.22100657864E+03 -0.21304538427E+03  0.33520935553E+03  0.91187600000E+02 0.  0.
<mgrwt>
<rscale>  0 0.11895913E+04</rscale>
<asrwt>0</asrwt>
<pdfrwt beam="1">  1        2 0.18086569E+00 0.11895913E+04</pdfrwt>
<pdfrwt beam="2">  1       -2 0.46296980E-01 0.11895913E+04</pdfrwt>
<totfact> 0.85528917E+01</totfact>
</mgrwt>
</event>
<event>
12    1  0.2808000E-009  0.1095439E+04  0.7818608E-02  0.9209648E-01
          1   -1    0    0  501    0  0.00000000000E+00  0.00000000000E+00  0.10007182763E+04  0.10007182763E+04  0.00000000000E+00 0. -1.
         -1   -1    0    0    0  501 -0.00000000000E+00 -0.00000000000E+00 -0.29978147606E+03  0.29978147606E+03  0.00000000000E+00 0.  1.
    9900016    2    1    2    0    0 -0.61350004844E+02  0.20711516085E+02  0.10724904434E+03  0.70329129504E+03  0.69204298867E+03 0.  0.
         25    2    3    3    0    0 -0.12357689987E+03  0.19422518658E+03 -0.45786798433E+02  0.26592457865E+03  0.12499910934E+03 0.  0.
         23    2    4    4    0    0 -0.12818487641E+03  0.15789868455E+03 -0.37162994846E+02  0.22570921731E+03  0.90554985887E+02 0.  0.
        -15    1    4    4    0    0  0.16689760359E+01  0.24767697635E+02 -0.12341858889E+02  0.27722658747E+02  0.00000000000E+00 0. -1.
        -15    1    5    5    0    0 -0.48550103724E+02  0.99289770525E+02 -0.57764063773E+02  0.12470869323E+03  0.00000000000E+00 0.  1.
         15    1    4    4    0    0  0.29390005002E+01  0.11558804394E+02  0.37180553027E+01  0.12492702598E+02  0.00000000000E+00 0.  1.
         15    1    5    5    0    0 -0.79634772685E+02  0.58608914025E+02  0.20601068927E+02  0.10100052408E+03  0.00000000000E+00 0. -1.
        -16    1    3    3    0    0  0.12541542463E+03  0.43579136780E+02 -0.25486853167E+02  0.13519522766E+03  0.00000000000E+00 0.  1.
         16    1    1    2    0    0  0.61350004844E+02 -0.20711516085E+02  0.59368775587E+03  0.59720845730E+03  0.00000000000E+00 0. -1.
    9900018    1    3    3    0    0 -0.63188529597E+02 -0.21709280727E+03  0.17852269594E+03  0.30217148873E+03  0.91187600000E+02 0.  0.
<mgrwt>
<rscale>  0 0.10954393E+04</rscale>
<asrwt>0</asrwt>
<pdfrwt beam="1">  1        1 0.15395666E+00 0.10954393E+04</pdfrwt>
<pdfrwt beam="2">  1       -1 0.46120228E-01 0.10954393E+04</pdfrwt>
<totfact> 0.70408966E+01</totfact>
</mgrwt>
</event>
