<event>
12    1  0.9599717E-013  0.1450610E+04  0.7818608E-02  0.9299348E-01
          1   -1    0    0  501    0  0.00000000000E+00  0.00000000000E+00  0.22407343216E+04  0.22407343216E+04  0.00000000000E+00 0. -1.
         -1   -1    0    0    0  501 -0.00000000000E+00 -0.00000000000E+00 -0.43687701309E+03  0.43687701309E+03  0.00000000000E+00 0.  1.
         23    2    1    2    0    0  0.28195914253E+03  0.16480977694E+03 -0.29161950045E+02  0.34004215942E+03  0.90083462524E+02 0.  0.
    9900016    2    1    2    0    0 -0.15486495771E+02 -0.20187809332E+03  0.99266175944E+03  0.12384151778E+04  0.71225008806E+03 0.  0.
         23    2    4    4    0    0  0.22566145587E+03  0.81931287668E+02  0.10795446915E+03  0.27851565768E+03  0.90999865914E+02 0.  0.
        -15    1    3    3    0    0  0.19964469840E+03  0.70621367773E+02 -0.75465891183E+00  0.21176863010E+03  0.00000000000E+00 0. -1.
        -15    1    5    5    0    0  0.11116610725E+03  0.86381802701E+02  0.45120748952E+02  0.14783640021E+03  0.00000000000E+00 0.  1.
         15    1    3    3    0    0  0.82314444132E+02  0.94188409168E+02 -0.28407291133E+02  0.12827352932E+03  0.00000000000E+00 0.  1.
         15    1    5    5    0    0  0.11449534862E+03 -0.44505150323E+01  0.62833720199E+02  0.13067925747E+03  0.00000000000E+00 0. -1.
        -16    1    4    4    0    0 -0.24114795165E+03 -0.28380938098E+03  0.88470729028E+03  0.95989952016E+03  0.00000000000E+00 0.  1.
         16    1    1    2    0    0 -0.43147676575E+03  0.11241221678E+03  0.34487636389E+03  0.56369177059E+03  0.00000000000E+00 0. -1.
    9900018    1    1    2    0    0  0.16500411900E+03 -0.75343900403E+02  0.49548113527E+03  0.53546222688E+03  0.91187600000E+02 0.  0.
<mgrwt>
<rscale>  0 0.10084294E+04</rscale>
<asrwt>0</asrwt>
<pdfrwt beam="1">  1        1 0.34472835E+00 0.14506102E+04</pdfrwt>
<pdfrwt beam="2">  1       -1 0.67211849E-01 0.14506102E+04</pdfrwt>
<totfact> 0.44299559E+00</totfact>
</mgrwt>
</event>
<event>
12    1  0.9599717E-013  0.1314851E+04  0.7818608E-02  0.9286724E-01
          1   -1    0    0  501    0  0.00000000000E+00  0.00000000000E+00  0.10524697010E+04  0.10524697010E+04  0.00000000000E+00 0. -1.
         -1   -1    0    0    0  501 -0.00000000000E+00 -0.00000000000E+00 -0.86029175043E+03  0.86029175043E+03  0.00000000000E+00 0.  1.
         23    2    1    2    0    0  0.23443684772E+03  0.40497278646E+03  0.34616388678E+03  0.58892384499E+03  0.89656373689E+02 0.  0.
    9900016    2    1    2    0    0 -0.28293405098E+03 -0.49619086263E+02 -0.69415962383E+01  0.76980085219E+03  0.71416485166E+03 0.  0.
         23    2    4    4    0    0 -0.23151935274E+03 -0.34951876322E+03  0.11165679538E+03  0.44322947266E+03  0.90667242976E+02 0.  0.
        -15    1    3    3    0    0  0.33291957038E+02  0.13332334725E+03  0.11780902405E+03  0.18100396535E+03  0.00000000000E+00 0. -1.
        -15    1    5    5    0    0 -0.13223804022E+03 -0.27207781914E+03  0.88642966982E+02  0.31523136669E+03  0.00000000000E+00 0. -1.
         15    1    3    3    0    0  0.20114489068E+03  0.27164943921E+03  0.22835486273E+03  0.40791987964E+03  0.00000000000E+00 0.  1.
         15    1    5    5    0    0 -0.99281312518E+02 -0.77440944072E+02  0.23013828396E+02  0.12799810597E+03  0.00000000000E+00 0.  1.
        -16    1    1    2    0    0  0.15789944119E+03 -0.35480982644E+03 -0.13480171133E+03  0.41108849150E+03  0.00000000000E+00 0.  1.
         16    1    4    4    0    0 -0.51414698238E+02  0.29989967695E+03 -0.11859839162E+03  0.32657137953E+03  0.00000000000E+00 0. -1.
    9900018    1    1    2    0    0 -0.10940223793E+03 -0.54387375401E+00 -0.12242628678E+02  0.14294826271E+03  0.91187600000E+02 0.  0.
<mgrwt>
<rscale>  0 0.10201433E+04</rscale>
<asrwt>0</asrwt>
<pdfrwt beam="1">  1        1 0.16191842E+00 0.13148515E+04</pdfrwt>
<pdfrwt beam="2">  1       -1 0.13235258E+00 0.13148515E+04</pdfrwt>
<totfact> 0.64980751E+00</totfact>
</mgrwt>
</event>
<event>
12    1  0.9599717E-013  0.1564815E+04  0.7818608E-02  0.8842460E-01
          2   -1    0    0  501    0  0.00000000000E+00  0.00000000000E+00  0.47710306476E+03  0.47710306476E+03  0.00000000000E+00 0. -1.
         -2   -1    0    0    0  501 -0.00000000000E+00 -0.00000000000E+00 -0.12830805373E+04  0.12830805373E+04  0.00000000000E+00 0.  1.
         23    2    1    2    0    0 -0.78714055121E+02 -0.40295332384E+03 -0.23031068147E+03  0.47933824773E+03  0.90304274909E+02 0.  0.
    9900016    2    1    2    0    0 -0.49372269493E+02  0.38618388962E+03 -0.34867306636E+03  0.88193723040E+03  0.71039760244E+03 0.  0.
         23    2    4    4    0    0 -0.83579533525E+02  0.21405656661E+03 -0.55669921134E+03  0.60977399035E+03  0.95417793270E+02 0.  0.
        -15    1    3    3    0    0  0.15334155112E+02 -0.14498456219E+03 -0.81628046442E+02  0.16708919041E+03  0.00000000000E+00 0. -1.
        -15    1    5    5    0    0 -0.19278851820E+02  0.38424204015E+02 -0.22416838346E+03  0.22825327539E+03  0.00000000000E+00 0.  1.
         15    1    3    3    0    0 -0.94048210233E+02 -0.25796876166E+03 -0.14868263503E+03  0.31224905732E+03  0.00000000000E+00 0.  1.
         15    1    5    5    0    0 -0.64300681705E+02  0.17563236260E+03 -0.33253082788E+03  0.38152071497E+03  0.00000000000E+00 0. -1.
        -16    1    1    2    0    0 -0.17848205629E+02 -0.90065702337E+02  0.37281673349E+01  0.91892809366E+02  0.00000000000E+00 0.  1.
         16    1    4    4    0    0  0.34207264032E+02  0.17212732300E+03  0.20802614498E+03  0.27216324004E+03  0.00000000000E+00 0. -1.
    9900018    1    1    2    0    0  0.14593453024E+03  0.10683513656E+03 -0.23072189205E+03  0.30701531458E+03  0.91187600000E+02 0.  0.
<mgrwt>
<rscale>  0 0.15648152E+04</rscale>
<asrwt>0</asrwt>
<pdfrwt beam="1">  1        2 0.73400472E-01 0.15648152E+04</pdfrwt>
<pdfrwt beam="2">  1       -2 0.19739701E+00 0.15648152E+04</pdfrwt>
<totfact> 0.86412077E+00</totfact>
</mgrwt>
</event>
<event>
12    1  0.9599717E-013  0.1951364E+04  0.7818608E-02  0.8986172E-01
          2   -1    0    0  501    0  0.00000000000E+00  0.00000000000E+00  0.22095785693E+04  0.22095785693E+04  0.00000000000E+00 0. -1.
         -2   -1    0    0    0  501 -0.00000000000E+00 -0.00000000000E+00 -0.67008182873E+03  0.67008182873E+03  0.00000000000E+00 0.  1.
         23    2    1    2    0    0 -0.59455060956E+02 -0.44174472935E+03  0.47044290829E+03  0.65464411566E+03  0.92569314702E+02 0.  0.
    9900016    2    1    2    0    0 -0.28086523011E+03  0.14355541935E+03  0.18739621423E+03  0.80110401513E+03  0.71214946889E+03 0.  0.
         23    2    4    4    0    0 -0.39883751940E+03  0.61726515406E+02 -0.14646446472E+03  0.43768086850E+03  0.85036307758E+02 0.  0.
        -15    1    3    3    0    0 -0.38892205577E+02 -0.42923974636E+03  0.44134509815E+03  0.61688318114E+03  0.00000000000E+00 0.  1.
        -15    1    5    5    0    0 -0.12824663956E+03  0.56356970534E+02 -0.31209663280E+02  0.14351777510E+03  0.00000000000E+00 0. -1.
         15    1    3    3    0    0 -0.20562855379E+02 -0.12504982989E+02  0.29097810139E+02  0.37760934519E+02  0.00000000000E+00 0. -1.
         15    1    5    5    0    0 -0.27059087984E+03  0.53695448717E+01 -0.11525480144E+03  0.29416309340E+03  0.00000000000E+00 0.  1.
        -16    1    4    4    0    0  0.11797228929E+03  0.81828903944E+02  0.33386067895E+03  0.36342314663E+03  0.00000000000E+00 0.  1.
         16    1    1    2    0    0  0.78417290423E+02  0.12117457808E+03  0.10461642691E+04  0.10560739689E+04  0.00000000000E+00 0. -1.
    9900018    1    1    2    0    0  0.26190300065E+03  0.17701473192E+03 -0.16450665109E+03  0.36783829832E+03  0.91187600000E+02 0.  0.
<mgrwt>
<rscale>  0 0.13561681E+04</rscale>
<asrwt>0</asrwt>
<pdfrwt beam="1">  1        2 0.33993516E+00 0.19513640E+04</pdfrwt>
<pdfrwt beam="2">  1       -2 0.10308951E+00 0.19513640E+04</pdfrwt>
<totfact> 0.36103897E+00</totfact>
</mgrwt>
</event>
<event>
12    1  0.9599717E-013  0.1753708E+04  0.7818608E-02  0.8731312E-01
          2   -1    0    0  501    0  0.00000000000E+00  0.00000000000E+00  0.13541819148E+04  0.13541819148E+04  0.00000000000E+00 0.  1.
         -2   -1    0    0    0  501 -0.00000000000E+00 -0.00000000000E+00 -0.56777666839E+03  0.56777666839E+03  0.00000000000E+00 0. -1.
         23    2    1    2    0    0  0.16720249741E+03 -0.20309580694E+03 -0.33707669758E+02  0.27876825537E+03  0.85854244292E+02 0.  0.
    9900016    2    1    2    0    0 -0.17279084046E+03  0.41490633851E+03  0.31108592390E+03  0.89744602142E+03  0.71178013812E+03 0.  0.
         23    2    4    4    0    0 -0.28684977028E+02 -0.72483777624E+02  0.36710925593E+03  0.38612005991E+03  0.90789696247E+02 0.  0.
        -15    1    3    3    0    0  0.80157853582E+02 -0.13503500387E+03 -0.54717261897E+02  0.16629405434E+03  0.00000000000E+00 0. -1.
        -15    1    5    5    0    0 -0.61115633502E+02 -0.52531623806E+02  0.22496664491E+03  0.23896586258E+03  0.00000000000E+00 0.  1.
         15    1    5    5    0    0  0.32430656474E+02 -0.19952153818E+02  0.14214261102E+03  0.14715419732E+03  0.00000000000E+00 0. -1.
         15    1    3    3    0    0  0.87044643827E+02 -0.68060803071E+02  0.21009592139E+02  0.11247420102E+03  0.00000000000E+00 0.  1.
        -16    1    1    2    0    0 -0.52916600554E+01 -0.24271361241E+02 -0.99412377469E+02  0.10246912431E+03  0.00000000000E+00 0.  1.
         16    1    4    4    0    0 -0.14410586344E+03  0.48739011613E+03 -0.56023332033E+02  0.51132596151E+03  0.00000000000E+00 0. -1.
    9900018    1    1    2    0    0  0.10880003109E+02 -0.18753917033E+03  0.60843936978E+03  0.64327518214E+03  0.91187600000E+02 0.  0.
<mgrwt>
<rscale>  0 0.17537080E+04</rscale>
<asrwt>0</asrwt>
<pdfrwt beam="1">  1        2 0.20833568E+00 0.17537080E+04</pdfrwt>
<pdfrwt beam="2">  1       -2 0.87350257E-01 0.17537080E+04</pdfrwt>
<totfact> 0.16495009E+01</totfact>
</mgrwt>
</event>
<event>
12    1  0.9599717E-013  0.1608170E+04  0.7818608E-02  0.9246612E-01
          2   -1    0    0  501    0  0.00000000000E+00  0.00000000000E+00  0.18809220407E+04  0.18809220407E+04  0.00000000000E+00 0. -1.
         -2   -1    0    0    0  501 -0.00000000000E+00 -0.00000000000E+00 -0.52080291306E+03  0.52080291306E+03  0.00000000000E+00 0.  1.
         23    2    1    2    0    0  0.23695669153E+03  0.16345775245E+03  0.10071528413E+02  0.30200158454E+03  0.90755776026E+02 0.  0.
    9900016    2    1    2    0    0 -0.56038307792E+01  0.99808014552E+02  0.14226853388E+04  0.15948882502E+04  0.71389208891E+03 0.  0.
         23    2    4    4    0    0 -0.11913464409E+03 -0.21616129239E+03  0.21094834499E+03  0.33749714528E+03  0.92121393113E+02 0.  0.
        -15    1    5    5    0    0 -0.96164494796E+02 -0.14172287389E+03  0.19207088535E+03  0.25734064592E+03  0.00000000000E+00 0. -1.
        -15    1    3    3    0    0  0.45070677161E+02 -0.60418066944E+01 -0.35445257026E+01  0.45611764166E+02  0.00000000000E+00 0.  1.
         15    1    5    5    0    0 -0.22970149292E+02 -0.74438418500E+02  0.18877459639E+02  0.80156499361E+02  0.00000000000E+00 0.  1.
         15    1    3    3    0    0  0.19188601437E+03  0.16949955915E+03  0.13616054116E+02  0.25638982038E+03  0.00000000000E+00 0. -1.
        -16    1    1    2    0    0 -0.26327566612E+03 -0.65711448167E+02 -0.85617279359E+02  0.28453890651E+03  0.00000000000E+00 0.  1.
         16    1    4    4    0    0  0.11353081331E+03  0.31596930694E+03  0.12117369938E+04  0.12573911049E+04  0.00000000000E+00 0. -1.
    9900018    1    1    2    0    0  0.31922805364E+02 -0.19755431884E+03  0.12979539750E+02  0.22029621249E+03  0.91187600000E+02 0.  0.
<mgrwt>
<rscale>  0 0.10584998E+04</rscale>
<asrwt>0</asrwt>
<pdfrwt beam="1">  1        2 0.28937262E+00 0.16081697E+04</pdfrwt>
<pdfrwt beam="2">  1       -2 0.80123526E-01 0.16081697E+04</pdfrwt>
<totfact> 0.10193993E+01</totfact>
</mgrwt>
</event>
<event>
12    1  0.9599717E-013  0.2524415E+04  0.7818608E-02  0.9084387E-01
          1   -1    0    0  501    0  0.00000000000E+00  0.00000000000E+00  0.13644786805E+04  0.13644786805E+04  0.00000000000E+00 0. -1.
         -1   -1    0    0    0  501 -0.00000000000E+00 -0.00000000000E+00 -0.13083002005E+04  0.13083002005E+04  0.00000000000E+00 0.  1.
         23    2    1    2    0    0  0.10211872543E+03  0.43646215000E+02  0.36573554869E+02  0.14828803387E+03  0.91205755878E+02 0.  0.
    9900016    2    1    2    0    0  0.26047612110E+03  0.15440698490E+03  0.56759974586E+03  0.96263783331E+03  0.71610948882E+03 0.  0.
         23    2    4    4    0    0 -0.64314718392E+02  0.28877865173E+03  0.52385190780E+03  0.60843632626E+03  0.90798948792E+02 0.  0.
        -15    1    5    5    0    0 -0.46575661671E+02  0.26685826175E+03  0.50892496834E+03  0.57653035265E+03  0.00000000000E+00 0. -1.
        -15    1    3    3    0    0  0.28359352796E+02 -0.24360298299E+02 -0.84401194140E+01  0.38326396125E+02  0.00000000000E+00 0.  1.
         15    1    3    3    0    0  0.73759372634E+02  0.68006513299E+02  0.45013674283E+02  0.10996163774E+03  0.00000000000E+00 0. -1.
         15    1    5    5    0    0 -0.17739056721E+02  0.21920389982E+02  0.14926939467E+02  0.31905973612E+02  0.00000000000E+00 0.  1.
        -16    1    1    2    0    0 -0.61023207881E+03  0.27466547327E+03 -0.73035397231E+03  0.99057621468E+03  0.00000000000E+00 0.  1.
         16    1    4    4    0    0  0.32479083950E+03 -0.13437166683E+03  0.43747838054E+02  0.35420150706E+03  0.00000000000E+00 0. -1.
    9900018    1    1    2    0    0  0.24763723227E+03 -0.47271867318E+03  0.18235915158E+03  0.57127679923E+03  0.91187600000E+02 0.  0.
<mgrwt>
<rscale>  0 0.12330766E+04</rscale>
<asrwt>0</asrwt>
<pdfrwt beam="1">  1        1 0.20991980E+00 0.25244147E+04</pdfrwt>
<pdfrwt beam="2">  1       -1 0.20127695E+00 0.25244147E+04</pdfrwt>
<totfact> 0.10589740E+00</totfact>
</mgrwt>
</event>
<event>
12    1  0.9599717E-013  0.2356700E+04  0.7818608E-02  0.8861382E-01
         -2   -1    0    0    0  501 -0.00000000000E+00  0.00000000000E+00  0.13979799660E+04  0.13979799660E+04  0.00000000000E+00 0.  1.
          2   -1    0    0  501    0  0.00000000000E+00 -0.00000000000E+00 -0.13890094215E+04  0.13890094215E+04  0.00000000000E+00 0. -1.
         23    2    1    2    0    0 -0.16219532267E+03 -0.38253314218E+03 -0.63987198119E+02  0.42916056178E+03  0.86287303256E+02 0.  0.
    9900016    2    1    2    0    0 -0.27309741457E+03 -0.24532662338E+03 -0.24200687583E+03  0.82622483250E+03  0.69950896771E+03 0.  0.
         23    2    4    4    0    0 -0.28051489845E+03 -0.86237679186E+02  0.19168276811E+03  0.36421723680E+03  0.98926065460E+02 0.  0.
        -15    1    5    5    0    0 -0.21663144912E+03 -0.39959630568E+02  0.17999488885E+03  0.28447164505E+03  0.00000000000E+00 0. -1.
        -15    1    3    3    0    0 -0.10086958408E+03 -0.22095372946E+03  0.53406705215E+01  0.24294803213E+03  0.00000000000E+00 0. -1.
         15    1    5    5    0    0 -0.63883449327E+02 -0.46278048619E+02  0.11687879256E+02  0.79745591749E+02  0.00000000000E+00 0.  1.
         15    1    3    3    0    0 -0.61325738594E+02 -0.16157941272E+03 -0.69327868641E+02  0.18621252965E+03  0.00000000000E+00 0.  1.
        -16    1    1    2    0    0  0.67367755889E+03  0.79223153331E+03  0.52254437257E+03  0.11638405720E+04  0.00000000000E+00 0.  1.
         16    1    4    4    0    0  0.74174838794E+01 -0.15908894419E+03 -0.43368964394E+03  0.46200759570E+03  0.00000000000E+00 0. -1.
    9900018    1    1    2    0    0 -0.23838482165E+03 -0.16437176776E+03 -0.20757975421E+03  0.36776342121E+03  0.91187600000E+02 0.  0.
<mgrwt>
<rscale>  0 0.15351921E+04</rscale>
<asrwt>0</asrwt>
<pdfrwt beam="1">  1        2 0.21369376E+00 0.23566998E+04</pdfrwt>
<pdfrwt beam="2">  1       -2 0.21507384E+00 0.23566998E+04</pdfrwt>
<totfact> 0.13877448E+00</totfact>
</mgrwt>
</event>
<event>
12    1  0.9599717E-013  0.1636468E+04  0.7818608E-02  0.9504319E-01
          2   -1    0    0  501    0  0.00000000000E+00  0.00000000000E+00  0.23752265775E+04  0.23752265775E+04  0.00000000000E+00 0.  1.
         -2   -1    0    0    0  501 -0.00000000000E+00 -0.00000000000E+00 -0.32276080644E+03  0.32276080644E+03  0.00000000000E+00 0. -1.
         23    2    1    2    0    0 -0.63687891673E+02  0.21309246955E+02  0.10907732230E+03  0.15736012408E+03  0.91400847148E+02 0.  0.
    9900016    2    1    2    0    0 -0.80042374092E+02 -0.10832734704E+03  0.91191996994E+03  0.11625234135E+04  0.70832270860E+03 0.  0.
         23    2    4    4    0    0  0.15820065715E+03 -0.22802701795E+03  0.10181652621E+03  0.30967211184E+03  0.92230380038E+02 0.  0.
        -15    1    3    3    0    0 -0.63947676627E+01 -0.32217962786E+02  0.19030221964E+02  0.37961026429E+02  0.00000000000E+00 0. -1.
        -15    1    5    5    0    0  0.68666795361E+02 -0.35754228426E+02  0.82581272072E+01  0.77856857761E+02  0.00000000000E+00 0. -1.
         15    1    5    5    0    0  0.89533861794E+02 -0.19227278952E+03  0.93558399005E+02  0.23181525408E+03  0.00000000000E+00 0.  1.
         15    1    3    3    0    0 -0.57293124010E+02  0.53527209741E+02  0.90047100333E+02  0.11939909765E+03  0.00000000000E+00 0.  1.
        -16    1    1    2    0    0  0.39148104729E+03  0.53324484495E+02  0.10392815229E+04  0.11118484586E+04  0.00000000000E+00 0.  1.
         16    1    4    4    0    0 -0.23824303125E+03  0.11969967091E+03  0.81010344372E+03  0.85285130163E+03  0.00000000000E+00 0. -1.
    9900018    1    1    2    0    0 -0.24775078153E+03  0.33693615594E+02 -0.78130440695E+01  0.26625538780E+03  0.91187600000E+02 0.  0.
<mgrwt>
<rscale>  0 0.83966132E+03</rscale>
<asrwt>0</asrwt>
<pdfrwt beam="1">  1        2 0.36541946E+00 0.16364682E+04</pdfrwt>
<pdfrwt beam="2">  1       -2 0.49655510E-01 0.16364682E+04</pdfrwt>
<totfact> 0.15066865E+01</totfact>
</mgrwt>
</event>
<event>
12    1  0.9599717E-013  0.1171079E+04  0.7818608E-02  0.9489456E-01
         -1   -1    0    0    0  501 -0.00000000000E+00  0.00000000000E+00  0.27101097449E+03  0.27101097449E+03  0.00000000000E+00 0.  1.
          1   -1    0    0  501    0  0.00000000000E+00 -0.00000000000E+00 -0.30256038924E+04  0.30256038924E+04  0.00000000000E+00 0. -1.
         23    2    1    2    0    0 -0.14577517814E+03  0.28046212054E+03 -0.25683923146E+02  0.32704087420E+03  0.79916618237E+02 0.  0.
    9900016    2    1    2    0    0  0.19839086574E+03 -0.19298421022E+03 -0.22364085277E+04  0.23621679563E+04  0.70831667357E+03 0.  0.
         23    2    4    4    0    0  0.81930173061E+02 -0.12000893604E+03 -0.61780848090E+02  0.18320168110E+03  0.92904708062E+02 0.  0.
        -15    1    5    5    0    0  0.96644696368E+02 -0.10258448792E+03 -0.30019647256E+02  0.14410049868E+03  0.00000000000E+00 0. -1.
        -15    1    3    3    0    0 -0.13190176472E+03  0.23348117043E+03  0.68227125882E+01  0.26825003614E+03  0.00000000000E+00 0.  1.
         15    1    3    3    0    0 -0.13873413414E+02  0.46980950117E+02 -0.32506635734E+02  0.58790838065E+02  0.00000000000E+00 0. -1.
         15    1    5    5    0    0 -0.14714523307E+02 -0.17424448124E+02 -0.31761200834E+02  0.39101182425E+02  0.00000000000E+00 0.  1.
        -16    1    1    2    0    0 -0.16951649851E+02 -0.13069220702E+03 -0.48220093161E+03  0.49988553675E+03  0.00000000000E+00 0.  1.
         16    1    4    4    0    0  0.11646069268E+03 -0.72975274174E+02 -0.21746276796E+04  0.21789662752E+04  0.00000000000E+00 0. -1.
    9900018    1    1    2    0    0 -0.35664037747E+02  0.43214296698E+02 -0.10299535526E+02  0.10752049969E+03  0.91187600000E+02 0.  0.
<mgrwt>
<rscale>  0 0.85065649E+03</rscale>
<asrwt>0</asrwt>
<pdfrwt beam="1">  1        1 0.46547752E+00 0.11710787E+04</pdfrwt>
<pdfrwt beam="2">  1       -1 0.41693996E-01 0.11710787E+04</pdfrwt>
<totfact> 0.32469877E+00</totfact>
</mgrwt>
</event>
<event>
12    1  0.9599717E-013  0.1774965E+04  0.7818608E-02  0.9080025E-01
         -2   -1    0    0    0  501 -0.00000000000E+00  0.00000000000E+00  0.13923906015E+04  0.13923906015E+04  0.00000000000E+00 0.  1.
          2   -1    0    0  501    0  0.00000000000E+00 -0.00000000000E+00 -0.94859926789E+03  0.94859926789E+03  0.00000000000E+00 0. -1.
         23    2    1    2    0    0 -0.39369307582E+03  0.10506633011E+03 -0.18315054893E+03  0.45855631920E+03  0.10342438123E+03 0.  0.
    9900016    2    1    2    0    0  0.58788139684E+02  0.58934969944E+03  0.19532680919E+03  0.94713114336E+03  0.71282236689E+03 0.  0.
         23    2    4    4    0    0 -0.17784457421E+03 -0.71726788134E+02 -0.18538742760E+02  0.21313138994E+03  0.91147570913E+02 0.  0.
        -15    1    5    5    0    0 -0.14840775631E+03 -0.26690787424E+02 -0.38698585396E+02  0.15567543409E+03  0.00000000000E+00 0.  1.
        -15    1    3    3    0    0 -0.18699213487E+03  0.69196399093E+02 -0.36773229206E+02  0.20274730710E+03  0.00000000000E+00 0. -1.
         15    1    3    3    0    0 -0.20670094095E+03  0.35869931016E+02 -0.14637731973E+03  0.25580901210E+03  0.00000000000E+00 0.  1.
         15    1    5    5    0    0 -0.29436817898E+02 -0.45036000711E+02  0.20159842636E+02  0.57455955854E+02  0.00000000000E+00 0. -1.
        -16    1    4    4    0    0  0.23663271390E+03  0.66107648757E+03  0.21386555195E+03  0.73399975342E+03  0.00000000000E+00 0.  1.
         16    1    1    2    0    0  0.24574825047E+03 -0.35885183744E+03  0.99313412766E+02  0.44612778192E+03  0.00000000000E+00 0. -1.
    9900018    1    1    2    0    0  0.89156685667E+02 -0.33556419211E+03  0.33230166057E+03  0.48917462489E+03  0.91187600000E+02 0.  0.
<mgrwt>
<rscale>  0 0.12382434E+04</rscale>
<asrwt>0</asrwt>
<pdfrwt beam="1">  1        2 0.14593835E+00 0.17749648E+04</pdfrwt>
<pdfrwt beam="2">  1       -2 0.21421394E+00 0.17749648E+04</pdfrwt>
<totfact> 0.27289248E+00</totfact>
</mgrwt>
</event>
<event>
12    1  0.9599717E-013  0.1193524E+04  0.7818608E-02  0.9549598E-01
          1   -1    0    0  501    0  0.00000000000E+00  0.00000000000E+00  0.14274817530E+04  0.14274817530E+04  0.00000000000E+00 0. -1.
         -1   -1    0    0    0  501 -0.00000000000E+00 -0.00000000000E+00 -0.39148638105E+03  0.39148638105E+03  0.00000000000E+00 0.  1.
         23    2    1    2    0    0 -0.20073487751E+03  0.11622283448E+03  0.18231332460E+02  0.25041975561E+03  0.92603640392E+02 0.  0.
    9900016    2    1    2    0    0  0.17958826223E+03  0.15689720561E+03  0.78425761506E+03  0.10940478427E+04  0.72457711682E+03 0.  0.
         23    2    4    4    0    0  0.13758687576E+03 -0.26302464110E+03  0.18584487313E+03  0.36179359481E+03  0.90797456850E+02 0.  0.
        -15    1    3    3    0    0 -0.71926030631E+02  0.74220298049E+01  0.36184921232E+02  0.80856594866E+02  0.00000000000E+00 0.  1.
        -15    1    5    5    0    0  0.94577592082E+02 -0.21173316566E+03  0.18192502962E+03  0.29474153213E+03  0.00000000000E+00 0.  1.
         15    1    3    3    0    0 -0.12880884687E+03  0.10880080468E+03 -0.17953588772E+02  0.16956316074E+03  0.00000000000E+00 0. -1.
         15    1    5    5    0    0  0.43009283678E+02 -0.51291475441E+02  0.39198435042E+01  0.67052062671E+02  0.00000000000E+00 0. -1.
        -16    1    1    2    0    0 -0.32729161458E+02 -0.94992288773E+02  0.24717306410E+03  0.26681314914E+03  0.00000000000E+00 0.  1.
         16    1    4    4    0    0  0.42001386467E+02  0.41992184671E+03  0.59841274194E+03  0.73225424787E+03  0.00000000000E+00 0. -1.
    9900018    1    1    2    0    0  0.53875776737E+02 -0.17812775132E+03 -0.13666639716E+02  0.20768738658E+03  0.91187600000E+02 0.  0.
<mgrwt>
<rscale>  0 0.80723895E+03</rscale>
<asrwt>0</asrwt>
<pdfrwt beam="1">  1        1 0.21961257E+00 0.11935244E+04</pdfrwt>
<pdfrwt beam="2">  1       -1 0.60228675E-01 0.11935244E+04</pdfrwt>
<totfact> 0.20305896E+01</totfact>
</mgrwt>
</event>
<event>
12    1  0.9599717E-013  0.1328962E+04  0.7818608E-02  0.9444289E-01
          2   -1    0    0  501    0  0.00000000000E+00  0.00000000000E+00  0.16928668858E+04  0.16928668858E+04  0.00000000000E+00 0. -1.
         -2   -1    0    0    0  501 -0.00000000000E+00 -0.00000000000E+00 -0.40557669501E+03  0.40557669501E+03  0.00000000000E+00 0.  1.
         23    2    1    2    0    0 -0.23803887235E+03  0.61765566645E+02  0.47112375981E+03  0.53887096682E+03  0.89145004658E+02 0.  0.
    9900016    2    1    2    0    0  0.28612382102E+03  0.27026348332E+03  0.61853675452E+03  0.10219428289E+04  0.71194819854E+03 0.  0.
         23    2    4    4    0    0 -0.18246462947E+02  0.44206646921E+03  0.43376600397E+03  0.62659770624E+03  0.93359748582E+02 0.  0.
        -15    1    3    3    0    0 -0.69029065023E+02 -0.19097495930E+02  0.98390425329E+02  0.12169799491E+03  0.00000000000E+00 0. -1.
        -15    1    5    5    0    0 -0.53953840800E+02  0.18686964004E+03  0.18671486525E+03  0.26961772978E+03  0.00000000000E+00 0.  1.
         15    1    3    3    0    0 -0.16900980732E+03  0.80863062575E+02  0.37273333448E+03  0.41717297191E+03  0.00000000000E+00 0.  1.
         15    1    5    5    0    0  0.35707377852E+02  0.25519682917E+03  0.24705113871E+03  0.35697997646E+03  0.00000000000E+00 0. -1.
        -16    1    4    4    0    0  0.30437028396E+03 -0.17180298589E+03  0.18477075055E+03  0.39534512262E+03  0.00000000000E+00 0.  1.
         16    1    1    2    0    0 -0.64803287677E+02 -0.38510728920E+03  0.17730289149E+03  0.42888623855E+03  0.00000000000E+00 0. -1.
    9900018    1    1    2    0    0  0.16718339006E+02  0.53078239236E+02  0.20326784975E+02  0.10874354657E+03  0.91187600000E+02 0.  0.
<mgrwt>
<rscale>  0 0.88518827E+03</rscale>
<asrwt>0</asrwt>
<pdfrwt beam="1">  1        2 0.26044106E+00 0.13289617E+04</pdfrwt>
<pdfrwt beam="2">  1       -2 0.62396415E-01 0.13289617E+04</pdfrwt>
<totfact> 0.22973943E+01</totfact>
</mgrwt>
</event>
<event>
12    1  0.9599717E-013  0.1166294E+04  0.7818608E-02  0.9468884E-01
          1   -1    0    0  501    0  0.00000000000E+00  0.00000000000E+00  0.30042697965E+04  0.30042697965E+04  0.00000000000E+00 0. -1.
         -1   -1    0    0    0  501 -0.00000000000E+00 -0.00000000000E+00 -0.20348944914E+03  0.20348944914E+03  0.00000000000E+00 0.  1.
         23    2    1    2    0    0  0.34219063481E+03 -0.23189914611E+02  0.37545568385E+03  0.51658097305E+03  0.90866542196E+02 0.  0.
    9900016    2    1    2    0    0 -0.29258701020E+03 -0.17528076126E+02  0.16599209142E+04  0.18296269455E+04  0.71153561140E+03 0.  0.
         23    2    4    4    0    0  0.14882756618E+03 -0.22156495410E+02  0.85506943842E+02  0.19449771495E+03  0.88754543173E+02 0.  0.
        -15    1    3    3    0    0  0.15249049867E+03 -0.52095685945E+02  0.14583668053E+03  0.21733764070E+03  0.00000000000E+00 0.  1.
        -15    1    5    5    0    0  0.37734821856E+02 -0.40441275711E+02  0.54654738146E+02  0.77759590813E+02  0.00000000000E+00 0.  1.
         15    1    5    5    0    0  0.11109274432E+03  0.18284780301E+02  0.30852205696E+02  0.11673812414E+03  0.00000000000E+00 0. -1.
         15    1    3    3    0    0  0.18970013615E+03  0.28905771334E+02  0.22961900332E+03  0.29924333235E+03  0.00000000000E+00 0. -1.
        -16    1    1    2    0    0 -0.15637668215E+03  0.14953928489E+03  0.45727361098E+03  0.50588024249E+03  0.00000000000E+00 0.  1.
         16    1    4    4    0    0 -0.44141457638E+03  0.46284192834E+01  0.15744139704E+04  0.16351292306E+04  0.00000000000E+00 0. -1.
    9900018    1    1    2    0    0  0.10677305754E+03 -0.10882129415E+03  0.30813013835E+03  0.35567108462E+03  0.91187600000E+02 0.  0.
<mgrwt>
<rscale>  0 0.86617245E+03</rscale>
<asrwt>0</asrwt>
<pdfrwt beam="1">  1        1 0.46219532E+00 0.11662936E+04</pdfrwt>
<pdfrwt beam="2">  1       -1 0.31306071E-01 0.11662936E+04</pdfrwt>
<totfact> 0.56473688E+00</totfact>
</mgrwt>
</event>
<event>
12    1  0.9599717E-013  0.1766771E+04  0.7818608E-02  0.9299133E-01
         -2   -1    0    0    0  501 -0.00000000000E+00  0.00000000000E+00  0.65665378746E+03  0.65665378746E+03  0.00000000000E+00 0. -1.
          2   -1    0    0  501    0  0.00000000000E+00 -0.00000000000E+00 -0.15390012429E+04  0.15390012429E+04  0.00000000000E+00 0.  1.
         23    2    1    2    0    0 -0.23842854279E+02  0.16323887515E+03 -0.26378953860E+03  0.32373251166E+03  0.89456170103E+02 0.  0.
    9900016    2    1    2    0    0  0.44532623494E+03 -0.18125576168E+03 -0.43445096829E+03  0.95166563163E+03  0.69695819381E+03 0.  0.
         23    2    4    4    0    0 -0.95906744714E+02  0.15691096891E+03 -0.72385342843E+02  0.21792085784E+03  0.91818879205E+02 0.  0.
        -15    1    5    5    0    0 -0.14115834425E+02  0.11049562126E+03 -0.42810718173E+02  0.11933690414E+03  0.00000000000E+00 0. -1.
        -15    1    3    3    0    0 -0.52752864728E+02  0.74031228897E+02 -0.15866147783E+03  0.18285773743E+03  0.00000000000E+00 0.  1.
         15    1    3    3    0    0  0.28910010449E+02  0.89207646249E+02 -0.10512806077E+03  0.14087477423E+03  0.00000000000E+00 0. -1.
         15    1    5    5    0    0 -0.81790910290E+02  0.46415347650E+02 -0.29574624670E+02  0.98583953704E+02  0.00000000000E+00 0.  1.
        -16    1    4    4    0    0  0.54123297965E+03 -0.33816673059E+03 -0.36206562545E+03  0.73374477379E+03  0.00000000000E+00 0.  1.
         16    1    1    2    0    0 -0.58512283246E+03 -0.19273081651E+03 -0.87687930667E+02  0.62225643418E+03  0.00000000000E+00 0. -1.
    9900018    1    1    2    0    0  0.16363945180E+03  0.21074770304E+03 -0.96419017902E+02  0.29800045290E+03  0.91187600000E+02 0.  0.
<mgrwt>
<rscale>  0 0.10086268E+04</rscale>
<asrwt>0</asrwt>
<pdfrwt beam="1">  1        2 0.23676942E+00 0.17667711E+04</pdfrwt>
<pdfrwt beam="2">  1       -2 0.10102366E+00 0.17667711E+04</pdfrwt>
<totfact> 0.91479781E+00</totfact>
</mgrwt>
</event>
<event>
12    1  0.9599717E-013  0.1976515E+04  0.7818608E-02  0.9177680E-01
         -1   -1    0    0    0  501 -0.00000000000E+00  0.00000000000E+00  0.36780257864E+03  0.36780257864E+03  0.00000000000E+00 0.  1.
          1   -1    0    0  501    0  0.00000000000E+00 -0.00000000000E+00 -0.35116951044E+04  0.35116951044E+04  0.00000000000E+00 0. -1.
         23    2    1    2    0    0 -0.50237793180E+02  0.18359655821E+03 -0.72994527721E+03  0.75960133088E+03  0.89120940885E+02 0.  0.
    9900016    2    1    2    0    0  0.15608604884E+03 -0.52877770834E+03 -0.15277221116E+04  0.17685474255E+04  0.69989743991E+03 0.  0.
         23    2    4    4    0    0 -0.26888041322E+03 -0.27918533814E+03 -0.68242076783E+03  0.79006533217E+03  0.90906518388E+02 0.  0.
        -15    1    5    5    0    0 -0.11756967519E+03 -0.64561374108E+02 -0.26279941218E+03  0.29504970868E+03  0.00000000000E+00 0.  1.
        -15    1    3    3    0    0  0.97962013028E+01 -0.56989937764E+01 -0.31694464060E+02  0.33659814944E+02  0.00000000000E+00 0.  1.
         15    1    5    5    0    0 -0.15131073802E+03 -0.21462396403E+03 -0.41962135566E+03  0.49501562349E+03  0.00000000000E+00 0. -1.
         15    1    3    3    0    0 -0.60033994482E+02  0.18929555198E+03 -0.69825081315E+03  0.72594151593E+03  0.00000000000E+00 0. -1.
        -16    1    4    4    0    0  0.42496646206E+03 -0.24959237021E+03 -0.84530134378E+03  0.97848209332E+03  0.00000000000E+00 0.  1.
         16    1    1    2    0    0  0.21757185353E+03  0.21627466744E+03  0.82708968008E+02  0.31773104446E+03  0.00000000000E+00 0. -1.
    9900018    1    1    2    0    0 -0.32342010919E+03  0.12890648270E+03 -0.96893410498E+03  0.10336178822E+04  0.91187600000E+02 0.  0.
<mgrwt>
<rscale>  0 0.11286805E+04</rscale>
<asrwt>0</asrwt>
<pdfrwt beam="1">  1        1 0.54026079E+00 0.19765151E+04</pdfrwt>
<pdfrwt beam="2">  1       -1 0.56585012E-01 0.19765151E+04</pdfrwt>
<totfact> 0.71825235E-01</totfact>
</mgrwt>
</event>
<event>
12    1  0.9599717E-013  0.2020972E+04  0.7818608E-02  0.9231701E-01
         -2   -1    0    0    0  501 -0.00000000000E+00  0.00000000000E+00  0.62405710410E+03  0.62405710410E+03  0.00000000000E+00 0.  1.
          2   -1    0    0  501    0  0.00000000000E+00 -0.00000000000E+00 -0.19478343226E+04  0.19478343226E+04  0.00000000000E+00 0. -1.
         23    2    1    2    0    0 -0.13145779764E+03 -0.15940841464E+02 -0.91783557789E+01  0.16097932782E+03  0.91076005539E+02 0.  0.
    9900016    2    1    2    0    0  0.32681790730E+03 -0.41869685219E+02 -0.32912303030E+03  0.83834847298E+03  0.69709624730E+03 0.  0.
         23    2    4    4    0    0  0.31564119950E+03  0.20731666515E+03  0.43979126172E+02  0.38954564860E+03  0.84865083144E+02 0.  0.
        -15    1    3    3    0    0 -0.57129917355E+02  0.12056886653E+02  0.36980923940E+02  0.69114287295E+02  0.00000000000E+00 0.  1.
        -15    1    5    5    0    0  0.15346880019E+03  0.57534705192E+02  0.40187539740E+02  0.16875412079E+03  0.00000000000E+00 0. -1.
         15    1    3    3    0    0 -0.74327880283E+02 -0.27997728117E+02 -0.46159279719E+02  0.91865040528E+02  0.00000000000E+00 0. -1.
         15    1    5    5    0    0  0.16217239930E+03  0.14978195995E+03  0.37915864323E+01  0.22079152781E+03  0.00000000000E+00 0.  1.
        -16    1    4    4    0    0  0.11176707805E+02 -0.24918635037E+03 -0.37310215647E+03  0.44880282438E+03  0.00000000000E+00 0.  1.
         16    1    1    2    0    0 -0.67846491758E+03  0.17870498691E+03 -0.70119203210E+03  0.99192760957E+03  0.00000000000E+00 0. -1.
    9900018    1    1    2    0    0  0.48310480792E+03 -0.12089446023E+03 -0.28428380033E+03  0.58063601634E+03  0.91187600000E+02 0.  0.
<mgrwt>
<rscale>  0 0.10732131E+04</rscale>
<asrwt>0</asrwt>
<pdfrwt beam="1">  1        2 0.29966682E+00 0.20209718E+04</pdfrwt>
<pdfrwt beam="2">  1       -2 0.96008784E-01 0.20209718E+04</pdfrwt>
<totfact> 0.59920982E+00</totfact>
</mgrwt>
</event>
<event>
12    1  0.9599717E-013  0.1287488E+04  0.7818608E-02  0.9282980E-01
          1   -1    0    0  501    0  0.00000000000E+00  0.00000000000E+00  0.17108965718E+04  0.17108965718E+04  0.00000000000E+00 0. -1.
         -1   -1    0    0    0  501 -0.00000000000E+00 -0.00000000000E+00 -0.48314889023E+03  0.48314889023E+03  0.00000000000E+00 0.  1.
         23    2    1    2    0    0  0.10739364447E+02 -0.50702376120E+03  0.48830029385E+03  0.70932087696E+03  0.86663147534E+02 0.  0.
    9900016    2    1    2    0    0  0.17115966138E+03  0.37976182944E+03  0.49232797432E+03  0.95788324063E+03  0.70826463387E+03 0.  0.
         23    2    4    4    0    0 -0.12143649090E+02  0.35647859432E+03  0.62834451673E+03  0.72844324307E+03  0.92672920740E+02 0.  0.
        -15    1    5    5    0    0 -0.31130026081E+02  0.26726472080E+03  0.39531004114E+03  0.47819403817E+03  0.00000000000E+00 0.  1.
        -15    1    3    3    0    0  0.22549222449E+02 -0.50640750790E+02  0.32787632014E+02  0.64404828132E+02  0.00000000000E+00 0. -1.
         15    1    5    5    0    0  0.18986376991E+02  0.89213873519E+02  0.23303447559E+03  0.25024920490E+03  0.00000000000E+00 0. -1.
         15    1    3    3    0    0 -0.11809858002E+02 -0.45638301041E+03  0.45551266184E+03  0.64491604882E+03  0.00000000000E+00 0.  1.
        -16    1    1    2    0    0 -0.23195934871E+03  0.31486860374E+02 -0.90240150060E+01  0.23426052735E+03  0.00000000000E+00 0.  1.
         16    1    4    4    0    0  0.18330331047E+03  0.23283235117E+02 -0.13601654241E+03  0.22943999756E+03  0.00000000000E+00 0. -1.
    9900018    1    1    2    0    0  0.50060322874E+02  0.95775071386E+02  0.25614342836E+03  0.29258081706E+03  0.91187600000E+02 0.  0.
<mgrwt>
<rscale>  0 0.10236497E+04</rscale>
<asrwt>0</asrwt>
<pdfrwt beam="1">  1        1 0.26321485E+00 0.12874877E+04</pdfrwt>
<pdfrwt beam="2">  1       -1 0.74330600E-01 0.12874877E+04</pdfrwt>
<totfact> 0.83580252E+00</totfact>
</mgrwt>
</event>
<event>
12    1  0.9599717E-013  0.1781626E+04  0.7818608E-02  0.8716132E-01
         -2   -1    0    0    0  501 -0.00000000000E+00  0.00000000000E+00  0.36880698299E+03  0.36880698299E+03  0.00000000000E+00 0.  1.
          2   -1    0    0  501    0  0.00000000000E+00 -0.00000000000E+00 -0.21516606236E+04  0.21516606236E+04  0.00000000000E+00 0. -1.
         23    2    1    2    0    0 -0.42893062453E+03  0.41300170867E+02 -0.88072440420E+03  0.98486199301E+03  0.92684865802E+02 0.  0.
    9900016    2    1    2    0    0  0.37696027434E+03 -0.17771820710E+03 -0.66333188200E+03  0.10580892486E+04  0.71123896319E+03 0.  0.
         23    2    4    4    0    0  0.10077299755E+03 -0.59586190045E+02  0.13720184620E+03  0.20305191883E+03  0.93273919501E+02 0.  0.
        -15    1    5    5    0    0 -0.11419532183E+02 -0.29884171439E+02  0.42880646475E+02  0.53499712709E+02  0.00000000000E+00 0.  1.
        -15    1    3    3    0    0 -0.15716915564E+03  0.56974900898E+02 -0.37355082476E+03  0.40925359069E+03  0.00000000000E+00 0.  1.
         15    1    5    5    0    0  0.11219252973E+03 -0.29702018606E+02  0.94321199729E+02  0.14955220612E+03  0.00000000000E+00 0. -1.
         15    1    3    3    0    0 -0.27176146889E+03 -0.15674730031E+02 -0.50717357944E+03  0.57560840232E+03  0.00000000000E+00 0. -1.
        -16    1    4    4    0    0  0.27618727679E+03 -0.11813201705E+03 -0.80053372821E+03  0.85503732978E+03  0.00000000000E+00 0.  1.
         16    1    1    2    0    0 -0.19067992683E+02 -0.65397829162E+02 -0.23524967458E+03  0.24491401306E+03  0.00000000000E+00 0. -1.
    9900018    1    1    2    0    0  0.71038342876E+02  0.20181586539E+03 -0.35476798063E+01  0.23260235190E+03  0.91187600000E+02 0.  0.
<mgrwt>
<rscale>  0 0.17816256E+04</rscale>
<asrwt>0</asrwt>
<pdfrwt beam="1">  1        2 0.33102471E+00 0.17816256E+04</pdfrwt>
<pdfrwt beam="2">  1       -2 0.56739535E-01 0.17816256E+04</pdfrwt>
<totfact> 0.15144563E+01</totfact>
</mgrwt>
</event>
<event>
12    1  0.9599717E-013  0.1153119E+04  0.7818608E-02  0.9590892E-01
          1   -1    0    0  501    0  0.00000000000E+00  0.00000000000E+00  0.49595378867E+03  0.49595378867E+03  0.00000000000E+00 0. -1.
         -1   -1    0    0    0  501 -0.00000000000E+00 -0.00000000000E+00 -0.15642001685E+04  0.15642001685E+04  0.00000000000E+00 0.  1.
         23    2    1    2    0    0  0.19964027317E+03  0.96391002742E+02 -0.85421066218E+03  0.88733954052E+03  0.92456155604E+02 0.  0.
    9900016    2    1    2    0    0 -0.13987639744E+03 -0.15989569932E+03 -0.19594108445E+03  0.76357407193E+03  0.70676758098E+03 0.  0.
         23    2    4    4    0    0 -0.28638039013E+03 -0.24992542009E+03 -0.35497838063E+03  0.52934847112E+03  0.98608872297E+02 0.  0.
        -15    1    5    5    0    0 -0.41269697825E+02 -0.24027098306E+02 -0.83975696254E+01  0.48487200241E+02  0.00000000000E+00 0.  1.
        -15    1    3    3    0    0  0.18089914882E+03  0.11413559794E+03 -0.74316584850E+03  0.77333493076E+03  0.00000000000E+00 0. -1.
         15    1    3    3    0    0  0.18741124344E+02 -0.17744595201E+02 -0.11104481369E+03  0.11400460976E+03  0.00000000000E+00 0.  1.
         15    1    5    5    0    0 -0.24511069231E+03 -0.22589832179E+03 -0.34658081101E+03  0.48086127088E+03  0.00000000000E+00 0. -1.
        -16    1    4    4    0    0  0.14650399270E+03  0.90029720771E+02  0.15903729619E+03  0.23422560081E+03  0.00000000000E+00 0.  1.
         16    1    1    2    0    0 -0.12063974054E+03  0.18102790053E+03  0.66672988865E+02  0.22753095440E+03  0.00000000000E+00 0. -1.
    9900018    1    1    2    0    0  0.60875864811E+02 -0.11752320395E+03 -0.84767622071E+02  0.18170939031E+03  0.91187600000E+02 0.  0.
<mgrwt>
<rscale>  0 0.77901946E+03</rscale>
<asrwt>0</asrwt>
<pdfrwt beam="1">  1        1 0.76300584E-01 0.11531185E+04</pdfrwt>
<pdfrwt beam="2">  1       -1 0.24064617E+00 0.11531185E+04</pdfrwt>
<totfact> 0.35690365E+00</totfact>
</mgrwt>
</event>
<event>
12    1  0.9599717E-013  0.2333850E+04  0.7818608E-02  0.8992269E-01
          2   -1    0    0  501    0  0.00000000000E+00  0.00000000000E+00  0.12244459088E+04  0.12244459088E+04  0.00000000000E+00 0.  1.
         -2   -1    0    0    0  501 -0.00000000000E+00 -0.00000000000E+00 -0.16606384855E+04  0.16606384855E+04  0.00000000000E+00 0. -1.
         23    2    1    2    0    0 -0.24229626031E+03 -0.21432552830E+02  0.33786995772E+03  0.42621710840E+03  0.91313104659E+02 0.  0.
    9900016    2    1    2    0    0  0.12878096530E+03  0.44807444467E+02 -0.53585245197E+03  0.89964682449E+03  0.70967197664E+03 0.  0.
         23    2    4    4    0    0  0.30208943396E+03  0.26965378251E+03 -0.42560923631E+03  0.59510574740E+03  0.95060191563E+02 0.  0.
        -15    1    5    5    0    0  0.81624696116E+02  0.49594271580E+02 -0.15709536092E+03  0.18385085046E+03  0.00000000000E+00 0.  1.
        -15    1    3    3    0    0 -0.24071699014E+03 -0.37406844322E+02  0.31320640604E+03  0.39678986143E+03  0.00000000000E+00 0.  1.
         15    1    5    5    0    0  0.22046473784E+03  0.22005951093E+03 -0.26851387539E+03  0.41125489694E+03  0.00000000000E+00 0. -1.
         15    1    3    3    0    0 -0.15792701640E+01  0.15974291493E+02  0.24663551679E+02  0.29427246972E+02  0.00000000000E+00 0. -1.
        -16    1    4    4    0    0 -0.17330846866E+03 -0.22484633804E+03 -0.11024321566E+03  0.30454107709E+03  0.00000000000E+00 0.  1.
         16    1    1    2    0    0  0.39799179490E+03 -0.63705687834E+03 -0.40949445194E+03  0.85552594421E+03  0.00000000000E+00 0. -1.
    9900018    1    1    2    0    0 -0.28447649990E+03  0.61368198671E+03  0.17128436951E+03  0.70369451713E+03  0.91187600000E+02 0.  0.
<mgrwt>
<rscale>  0 0.13480985E+04</rscale>
<asrwt>0</asrwt>
<pdfrwt beam="1">  1        2 0.18837629E+00 0.23338499E+04</pdfrwt>
<pdfrwt beam="2">  1       -2 0.25548284E+00 0.23338499E+04</pdfrwt>
<totfact> 0.96883361E-01</totfact>
</mgrwt>
</event>
<event>
12    1  0.9599717E-013  0.1636157E+04  0.7818608E-02  0.8798638E-01
          2   -1    0    0  501    0  0.00000000000E+00  0.00000000000E+00  0.81324506376E+03  0.81324506376E+03  0.00000000000E+00 0.  1.
         -2   -1    0    0    0  501 -0.00000000000E+00 -0.00000000000E+00 -0.82294046807E+03  0.82294046807E+03  0.00000000000E+00 0. -1.
         23    2    1    2    0    0  0.30521446313E+03  0.17037591725E+03  0.20939682099E+03  0.41750464139E+03  0.90990522918E+02 0.  0.
    9900016    2    1    2    0    0 -0.13876646306E+03 -0.92159071920E+02 -0.22698046461E+03  0.76380987747E+03  0.71002533180E+03 0.  0.
         23    2    4    4    0    0 -0.28989799303E+03  0.13687880167E+03  0.89535942116E+02  0.34490449123E+03  0.90364652546E+02 0.  0.
        -15    1    3    3    0    0  0.14242670820E+03  0.98212766564E+02  0.54197491093E+02  0.18129667059E+03  0.00000000000E+00 0.  1.
        -15    1    5    5    0    0 -0.15974290661E+03  0.85144005056E+02  0.45450746715E+01  0.18107444743E+03  0.00000000000E+00 0. -1.
         15    1    3    3    0    0  0.16278775493E+03  0.72163150682E+02  0.15519932989E+03  0.23620797080E+03  0.00000000000E+00 0. -1.
         15    1    5    5    0    0 -0.13015508643E+03  0.51734796619E+02  0.84990867444E+02  0.16383004381E+03  0.00000000000E+00 0.  1.
        -16    1    4    4    0    0  0.15113152997E+03 -0.22903787360E+03 -0.31651640672E+03  0.41890538624E+03  0.00000000000E+00 0.  1.
         16    1    1    2    0    0  0.12079750355E+03 -0.57359881718E+02 -0.57861506153E+02  0.14570568551E+03  0.00000000000E+00 0. -1.
    9900018    1    1    2    0    0 -0.28724550362E+03 -0.20856963608E+02  0.65749745462E+02  0.30916532746E+03  0.91187600000E+02 0.  0.
<mgrwt>
<rscale>  0 0.16361568E+04</rscale>
<asrwt>0</asrwt>
<pdfrwt beam="1">  1        2 0.12511463E+00 0.16361568E+04</pdfrwt>
<pdfrwt beam="2">  1       -2 0.12660623E+00 0.16361568E+04</pdfrwt>
<totfact> 0.14960589E+01</totfact>
</mgrwt>
</event>
<event>
12    1  0.9599717E-013  0.1522325E+04  0.7818608E-02  0.9477868E-01
         -2   -1    0    0    0  501 -0.00000000000E+00  0.00000000000E+00  0.33860557334E+03  0.33860557334E+03  0.00000000000E+00 0. -1.
          2   -1    0    0  501    0  0.00000000000E+00 -0.00000000000E+00 -0.21012086096E+04  0.21012086096E+04  0.00000000000E+00 0.  1.
         23    2    1    2    0    0 -0.60336526552E+02  0.10971986644E+03 -0.24898270990E+03  0.29306764881E+03  0.90649387331E+02 0.  0.
    9900016    2    1    2    0    0  0.93746479243E+02 -0.19672206022E+03 -0.97486372040E+03  0.12248124810E+04  0.70874421969E+03 0.  0.
         23    2    4    4    0    0  0.28598702449E+03 -0.29100730484E+03 -0.29509486345E+03  0.51211911535E+03  0.93333703558E+02 0.  0.
        -15    1    3    3    0    0 -0.67753343030E+02  0.53521559961E+02 -0.92032247325E+02  0.12619432404E+03  0.00000000000E+00 0. -1.
        -15    1    5    5    0    0  0.19931926750E+03 -0.25383002223E+03 -0.24599814580E+03  0.40579913543E+03  0.00000000000E+00 0. -1.
         15    1    5    5    0    0  0.86667756996E+02 -0.37177282611E+02 -0.49096717652E+02  0.10631997992E+03  0.00000000000E+00 0.  1.
         15    1    3    3    0    0  0.74168164786E+01  0.56198306476E+02 -0.15695046258E+03  0.16687332477E+03  0.00000000000E+00 0.  1.
        -16    1    4    4    0    0 -0.19224054525E+03  0.94285244614E+02 -0.67976885695E+03  0.71269336567E+03  0.00000000000E+00 0.  1.
         16    1    1    2    0    0 -0.19343173165E+03  0.28174260023E+03 -0.25254595495E+02  0.34268428938E+03  0.00000000000E+00 0. -1.
    9900018    1    1    2    0    0  0.16002177896E+03 -0.19474040644E+03 -0.51350201041E+03  0.57924976369E+03  0.91187600000E+02 0.  0.
<mgrwt>
<rscale>  0 0.85935345E+03</rscale>
<asrwt>0</asrwt>
<pdfrwt beam="1">  1        2 0.32326287E+00 0.15223253E+04</pdfrwt>
<pdfrwt beam="2">  1       -2 0.52093164E-01 0.15223253E+04</pdfrwt>
<totfact> 0.19650032E+01</totfact>
</mgrwt>
</event>
<event>
12    1  0.9599717E-013  0.1325239E+04  0.7818608E-02  0.9376252E-01
         -2   -1    0    0    0  501 -0.00000000000E+00  0.00000000000E+00  0.38501010230E+03  0.38501010230E+03  0.00000000000E+00 0.  1.
          2   -1    0    0  501    0  0.00000000000E+00 -0.00000000000E+00 -0.19239391881E+04  0.19239391881E+04  0.00000000000E+00 0. -1.
         23    2    1    2    0    0  0.68935206246E+02 -0.31356868611E+03 -0.58969204372E+03  0.67882409941E+03  0.99940321895E+02 0.  0.
    9900016    2    1    2    0    0 -0.12811244399E+03  0.69619684113E+02 -0.14052677699E+03  0.74193268461E+03  0.71376230969E+03 0.  0.
         23    2    4    4    0    0  0.28961035094E+03  0.62131205805E+02 -0.75351925458E+02  0.31908972088E+03  0.91683669201E+02 0.  0.
        -15    1    5    5    0    0  0.79732756661E+02  0.39627260291E+02 -0.60173916226E+02  0.10746409836E+03  0.00000000000E+00 0. -1.
        -15    1    3    3    0    0  0.58712804190E+02 -0.12072704575E+03 -0.16824932912E+03  0.21524416299E+03  0.00000000000E+00 0.  1.
         15    1    5    5    0    0  0.20987759428E+03  0.22503945514E+02 -0.15178009232E+02  0.21162562252E+03  0.00000000000E+00 0.  1.
         15    1    3    3    0    0  0.10222402056E+02 -0.19284164036E+03 -0.42144271460E+03  0.46357993642E+03  0.00000000000E+00 0. -1.
        -16    1    1    2    0    0 -0.19512823648E+01  0.16135129665E+03 -0.68357291991E+03  0.70236029591E+03  0.00000000000E+00 0.  1.
         16    1    4    4    0    0 -0.41772279492E+03  0.74884783073E+01 -0.65174851535E+02  0.42284296373E+03  0.00000000000E+00 0. -1.
    9900018    1    1    2    0    0  0.61128520105E+02  0.82597705355E+02 -0.12513734520E+03  0.18583221050E+03  0.91187600000E+02 0.  0.
<mgrwt>
<rscale>  0 0.94056060E+03</rscale>
<asrwt>0</asrwt>
<pdfrwt beam="1">  1        2 0.29599064E+00 0.13252385E+04</pdfrwt>
<pdfrwt beam="2">  1       -2 0.59232325E-01 0.13252385E+04</pdfrwt>
<totfact> 0.19107049E+01</totfact>
</mgrwt>
</event>
<event>
12    1  0.9599717E-013  0.1329147E+04  0.7818608E-02  0.9303919E-01
          1   -1    0    0  501    0  0.00000000000E+00  0.00000000000E+00  0.10545716880E+04  0.10545716880E+04  0.00000000000E+00 0. -1.
         -1   -1    0    0    0  501 -0.00000000000E+00 -0.00000000000E+00 -0.76184313024E+03  0.76184313024E+03  0.00000000000E+00 0.  1.
         23    2    1    2    0    0 -0.32701744901E+03  0.26940243982E+03  0.21870450704E+03  0.48520780910E+03  0.89871408576E+02 0.  0.
    9900016    2    1    2    0    0  0.13223816267E+03 -0.43608522584E+03 -0.17614764357E+03  0.86535533927E+03  0.71425108681E+03 0.  0.
         23    2    4    4    0    0  0.36923982148E+03 -0.64803852637E+02  0.10168837458E+02  0.38709445286E+03  0.95922495281E+02 0.  0.
        -15    1    5    5    0    0  0.47412609530E+02  0.22147467092E+02  0.12148471187E+02  0.53721980540E+02  0.00000000000E+00 0. -1.
        -15    1    3    3    0    0 -0.96145329001E+02  0.70017503721E+02  0.18606172934E+02  0.12038506879E+03  0.00000000000E+00 0. -1.
         15    1    3    3    0    0 -0.23087212001E+03  0.19938493610E+03  0.20009833410E+03  0.36482274032E+03  0.00000000000E+00 0.  1.
         15    1    5    5    0    0  0.32182721195E+03 -0.86951319729E+02 -0.19796337295E+01  0.33337247232E+03  0.00000000000E+00 0.  1.
        -16    1    1    2    0    0  0.18395788585E+03  0.17633916463E+03  0.71393702023E+02  0.26463761153E+03  0.00000000000E+00 0.  1.
         16    1    4    4    0    0 -0.23700165880E+03 -0.37128137320E+03 -0.18631648103E+03  0.47826088641E+03  0.00000000000E+00 0. -1.
    9900018    1    1    2    0    0  0.10821400488E+02 -0.96563786048E+01  0.17877799230E+03  0.20121405836E+03  0.91187600000E+02 0.  0.
<mgrwt>
<rscale>  0 0.10042284E+04</rscale>
<asrwt>0</asrwt>
<pdfrwt beam="1">  1        1 0.16224180E+00 0.13291473E+04</pdfrwt>
<pdfrwt beam="2">  1       -1 0.11720663E+00 0.13291473E+04</pdfrwt>
<totfact> 0.87632726E+00</totfact>
</mgrwt>
</event>
<event>
12    1  0.9599717E-013  0.1554302E+04  0.7818608E-02  0.9587852E-01
          2   -1    0    0  501    0  0.00000000000E+00  0.00000000000E+00  0.49879804177E+03  0.49879804177E+03  0.00000000000E+00 0. -1.
         -2   -1    0    0    0  501 -0.00000000000E+00 -0.00000000000E+00 -0.16629068436E+04  0.16629068436E+04  0.00000000000E+00 0.  1.
         23    2    1    2    0    0  0.31277301518E+02 -0.27367701400E+02 -0.43271124939E+03  0.44391654287E+03  0.89975613450E+02 0.  0.
    9900016    2    1    2    0    0  0.40092457794E+03  0.45027331654E+02 -0.12906948663E+03  0.81853705439E+03  0.70041130718E+03 0.  0.
         23    2    4    4    0    0  0.18910999576E+03  0.18946858062E+03 -0.37083640129E+03  0.46614532256E+03  0.90060489021E+02 0.  0.
        -15    1    5    5    0    0  0.29748502843E+02 -0.40133980160E+01 -0.57684409656E+02  0.65027470367E+02  0.00000000000E+00 0.  1.
        -15    1    3    3    0    0  0.23126286444E+01  0.30726449522E+02 -0.90471731417E+02  0.95575086383E+02  0.00000000000E+00 0.  1.
         15    1    3    3    0    0  0.28964672873E+02 -0.58094150922E+02 -0.34223951797E+03  0.34834145649E+03  0.00000000000E+00 0. -1.
         15    1    5    5    0    0  0.15936149291E+03  0.19348197864E+03 -0.31315199164E+03  0.40111785219E+03  0.00000000000E+00 0. -1.
        -16    1    1    2    0    0  0.22716343168E+02  0.38090059216E+02  0.68560333711E+02  0.81654174521E+02  0.00000000000E+00 0.  1.
         16    1    4    4    0    0  0.21181458218E+03 -0.14444124897E+03  0.24176691467E+03  0.35239173182E+03  0.00000000000E+00 0. -1.
    9900018    1    1    2    0    0 -0.45491822263E+03 -0.55749689471E+02 -0.67088839957E+03  0.81759711363E+03  0.91187600000E+02 0.  0.
<mgrwt>
<rscale>  0 0.78105451E+03</rscale>
<asrwt>0</asrwt>
<pdfrwt beam="1">  1        2 0.76738160E-01 0.15543019E+04</pdfrwt>
<pdfrwt beam="2">  1       -2 0.25583182E+00 0.15543019E+04</pdfrwt>
<totfact> 0.34985894E+00</totfact>
</mgrwt>
</event>
<event>
12    1  0.9599717E-013  0.1408273E+04  0.7818608E-02  0.9406162E-01
          1   -1    0    0  501    0  0.00000000000E+00  0.00000000000E+00  0.14500130861E+04  0.14500130861E+04  0.00000000000E+00 0. -1.
         -1   -1    0    0    0  501 -0.00000000000E+00 -0.00000000000E+00 -0.78695382934E+03  0.78695382934E+03  0.00000000000E+00 0.  1.
         23    2    1    2    0    0 -0.15823961854E+03 -0.17708661975E+03 -0.39991638326E+03  0.47255465549E+03  0.83518507254E+02 0.  0.
    9900016    2    1    2    0    0  0.82687240904E+02 -0.10450142438E+03  0.23881033054E+03  0.75745071195E+03  0.70635931335E+03 0.  0.
         23    2    4    4    0    0  0.89766234060E+02  0.23353283293E+03  0.31335762724E+03  0.41122163936E+03  0.91184830429E+02 0.  0.
        -15    1    3    3    0    0 -0.85331359666E+02 -0.12039299105E+03 -0.17194398311E+03  0.22658474477E+03  0.00000000000E+00 0. -1.
        -15    1    5    5    0    0  0.48408474534E+01  0.13279949128E+03  0.13451170900E+03  0.18908341690E+03  0.00000000000E+00 0.  1.
         15    1    5    5    0    0  0.84925386607E+02  0.10073334165E+03  0.17884591824E+03  0.22213822247E+03  0.00000000000E+00 0. -1.
         15    1    3    3    0    0 -0.72908258872E+02 -0.56693628699E+02 -0.22797240015E+03  0.24596991071E+03  0.00000000000E+00 0.  1.
        -16    1    4    4    0    0 -0.70789931562E+01 -0.33803425731E+03 -0.74547296701E+02  0.34622907259E+03  0.00000000000E+00 0.  1.
         16    1    1    2    0    0  0.24475912306E+03  0.16876695436E+03  0.67830010218E+03  0.74059458669E+03  0.00000000000E+00 0. -1.
    9900018    1    1    2    0    0 -0.16920674542E+03  0.11282108976E+03  0.14586520733E+03  0.26636696134E+03  0.91187600000E+02 0.  0.
<mgrwt>
<rscale>  0 0.91570324E+03</rscale>
<asrwt>0</asrwt>
<pdfrwt beam="1">  1        1 0.22307894E+00 0.14082732E+04</pdfrwt>
<pdfrwt beam="2">  1       -1 0.12106982E+00 0.14082732E+04</pdfrwt>
<totfact> 0.41371913E+00</totfact>
</mgrwt>
</event>
<event>
12    1  0.9599717E-013  0.1036089E+04  0.7818608E-02  0.9740640E-01
          2   -1    0    0  501    0  0.00000000000E+00  0.00000000000E+00  0.11344825827E+04  0.11344825827E+04  0.00000000000E+00 0. -1.
         -2   -1    0    0    0  501 -0.00000000000E+00 -0.00000000000E+00 -0.51138023769E+03  0.51138023769E+03  0.00000000000E+00 0.  1.
         23    2    1    2    0    0  0.46083289684E+01 -0.17705579500E+03 -0.22940414166E+03  0.30413006437E+03  0.92189178323E+02 0.  0.
    9900016    2    1    2    0    0 -0.28657506256E+02  0.30282084787E+03  0.58202889010E+03  0.94530274769E+03  0.67993965711E+03 0.  0.
         23    2    4    4    0    0 -0.96721984588E+02  0.10273685588E+03 -0.12375575102E+03  0.20855425824E+03  0.90936180157E+02 0.  0.
        -15    1    5    5    0    0 -0.10716305152E+03  0.79341105687E+02 -0.73767292289E+02  0.15238288642E+03  0.00000000000E+00 0. -1.
        -15    1    3    3    0    0  0.27932452662E+01 -0.91502049186E+02 -0.18791977880E+03  0.20903174517E+03  0.00000000000E+00 0.  1.
         15    1    5    5    0    0  0.10441066931E+02  0.23395750189E+02 -0.49988458733E+02  0.56171371820E+02  0.00000000000E+00 0.  1.
         15    1    3    3    0    0  0.18150837022E+01 -0.85553745817E+02 -0.41484362864E+02  0.95098319199E+02  0.00000000000E+00 0. -1.
        -16    1    4    4    0    0  0.68064478332E+02  0.20008399199E+03  0.70578464112E+03  0.73674848945E+03  0.00000000000E+00 0.  1.
         16    1    1    2    0    0  0.79743162685E+01  0.71008217188E+02  0.80802056274E+02  0.10786440064E+03  0.00000000000E+00 0. -1.
    9900018    1    1    2    0    0  0.16074861019E+02 -0.19677327005E+03  0.18967554035E+03  0.28856560773E+03  0.91187600000E+02 0.  0.
<mgrwt>
<rscale>  0 0.68647836E+03</rscale>
<asrwt>0</asrwt>
<pdfrwt beam="1">  1        2 0.17453578E+00 0.10360885E+04</pdfrwt>
<pdfrwt beam="2">  1       -2 0.78673883E-01 0.10360885E+04</pdfrwt>
<totfact> 0.29573958E+01</totfact>
</mgrwt>
</event>
<event>
12    1  0.9599717E-013  0.1222097E+04  0.7818608E-02  0.9443984E-01
         -2   -1    0    0    0  501 -0.00000000000E+00  0.00000000000E+00  0.10316724089E+04  0.10316724089E+04  0.00000000000E+00 0. -1.
          2   -1    0    0  501    0  0.00000000000E+00 -0.00000000000E+00 -0.79500014275E+03  0.79500014275E+03  0.00000000000E+00 0.  1.
         23    2    1    2    0    0  0.29234261979E+03  0.13987713715E+03 -0.33719591984E+03  0.47654465991E+03  0.91454380377E+02 0.  0.
    9900016    2    1    2    0    0 -0.56056324733E+02 -0.17827245981E+03  0.25625817110E+03  0.74844997383E+03  0.67792752680E+03 0.  0.
         23    2    4    4    0    0 -0.70099955581E+02  0.50224111979E+02 -0.20178952701E+03  0.23638005611E+03  0.87863829405E+02 0.  0.
        -15    1    3    3    0    0  0.56485375448E+02  0.43851033638E+02 -0.30064573650E+02  0.77571833673E+02  0.00000000000E+00 0.  1.
        -15    1    5    5    0    0 -0.59615226318E+02 -0.10337439237E+02 -0.11619528733E+03  0.13100451388E+03  0.00000000000E+00 0.  1.
         15    1    5    5    0    0 -0.10484729262E+02  0.60561551216E+02 -0.85594239678E+02  0.10537554223E+03  0.00000000000E+00 0. -1.
         15    1    3    3    0    0  0.23585724434E+03  0.96026103512E+02 -0.30713134619E+03  0.39897282624E+03  0.00000000000E+00 0. -1.
        -16    1    4    4    0    0  0.14043630847E+02 -0.22849657179E+03  0.45804769812E+03  0.51206991772E+03  0.00000000000E+00 0.  1.
         16    1    1    2    0    0 -0.11746205469E+02 -0.42832200027E+02  0.34204149855E+03  0.34491297081E+03  0.00000000000E+00 0. -1.
    9900018    1    1    2    0    0 -0.22454008959E+03  0.81227522683E+02 -0.24431483664E+02  0.25676494710E+03  0.91187600000E+02 0.  0.
<mgrwt>
<rscale>  0 0.88542716E+03</rscale>
<asrwt>0</asrwt>
<pdfrwt beam="1">  1        2 0.12230771E+00 0.12220968E+04</pdfrwt>
<pdfrwt beam="2">  1       -2 0.15871883E+00 0.12220968E+04</pdfrwt>
<totfact> 0.87187745E+00</totfact>
</mgrwt>
</event>
<event>
12    1  0.9599717E-013  0.1088812E+04  0.7818608E-02  0.9557981E-01
         -1   -1    0    0    0  501 -0.00000000000E+00  0.00000000000E+00  0.39353027718E+03  0.39353027718E+03  0.00000000000E+00 0.  1.
          1   -1    0    0  501    0  0.00000000000E+00 -0.00000000000E+00 -0.16969495985E+04  0.16969495985E+04  0.00000000000E+00 0. -1.
         23    2    1    2    0    0 -0.27762593587E+03 -0.12971781332E+03 -0.85531615841E+03  0.91306405940E+03  0.90649734578E+02 0.  0.
    9900016    2    1    2    0    0  0.14555663294E+03  0.30481028201E+03 -0.33831264120E+03  0.85690013833E+03  0.71114440338E+03 0.  0.
         23    2    4    4    0    0  0.31522800032E+03 -0.50429404633E+02  0.98433402202E+01  0.33135642438E+03  0.88251751228E+02 0.  0.
        -15    1    5    5    0    0  0.51201272465E+02  0.23749153376E+02 -0.53013301628E+01  0.56689476003E+02  0.00000000000E+00 0.  1.
        -15    1    3    3    0    0 -0.48447379907E+02 -0.13835231335E+02 -0.66080578514E+02  0.83097563759E+02  0.00000000000E+00 0.  1.
         15    1    5    5    0    0  0.26402672786E+03 -0.74178558009E+02  0.15144670383E+02  0.27466694838E+03  0.00000000000E+00 0. -1.
         15    1    3    3    0    0 -0.22917855597E+03 -0.11588258199E+03 -0.78923557989E+03  0.82996649564E+03  0.00000000000E+00 0. -1.
        -16    1    1    2    0    0 -0.43333368753E+01  0.15311340917E+02  0.29233492257E+02  0.33283810459E+02  0.00000000000E+00 0.  1.
         16    1    4    4    0    0 -0.16967136738E+03  0.35523968664E+03 -0.34815598142E+03  0.52554371395E+03  0.00000000000E+00 0. -1.
    9900018    1    1    2    0    0  0.13640263981E+03 -0.19040380960E+03 -0.13902401402E+03  0.28723186753E+03  0.91187600000E+02 0.  0.
<mgrwt>
<rscale>  0 0.80140796E+03</rscale>
<asrwt>0</asrwt>
<pdfrwt beam="1">  1        1 0.26106916E+00 0.10888120E+04</pdfrwt>
<pdfrwt beam="2">  1       -1 0.60543121E-01 0.10888120E+04</pdfrwt>
<totfact> 0.13230464E+01</totfact>
</mgrwt>
</event>
<event>
12    1  0.9599717E-013  0.1439492E+04  0.7818608E-02  0.9311853E-01
         -1   -1    0    0    0  501 -0.00000000000E+00  0.00000000000E+00  0.64776809535E+03  0.64776809535E+03  0.00000000000E+00 0.  1.
          1   -1    0    0  501    0  0.00000000000E+00 -0.00000000000E+00 -0.13114057027E+04  0.13114057027E+04  0.00000000000E+00 0. -1.
         23    2    1    2    0    0 -0.94577702883E+02 -0.30453887574E+03  0.77374893647E+02  0.34015063398E+03  0.89591913201E+02 0.  0.
    9900016    2    1    2    0    0 -0.85528356034E+02  0.19613523114E+03 -0.43244649337E+03  0.86604408184E+03  0.71919277908E+03 0.  0.
         23    2    4    4    0    0 -0.46282924320E+02  0.45278551690E+03 -0.16283111490E+03  0.49174203082E+03  0.90218731405E+02 0.  0.
        -15    1    5    5    0    0 -0.60002675291E+02  0.16010366022E+03 -0.57861406645E+02  0.18050331143E+03  0.00000000000E+00 0.  1.
        -15    1    3    3    0    0 -0.94596075325E+02 -0.19774229032E+03  0.23284463013E+02  0.22043728601E+03  0.00000000000E+00 0.  1.
         15    1    5    5    0    0  0.13719750970E+02  0.29268185668E+03 -0.10496970826E+03  0.31123871939E+03  0.00000000000E+00 0. -1.
         15    1    3    3    0    0  0.18372442470E-01 -0.10679658542E+03  0.54090430634E+02  0.11971334797E+03  0.00000000000E+00 0. -1.
        -16    1    1    2    0    0  0.39454480273E+03  0.14014294681E+03 -0.82451422700E+02  0.42673631671E+03  0.00000000000E+00 0.  1.
         16    1    4    4    0    0 -0.39245431714E+02 -0.25665028576E+03 -0.26961537847E+03  0.37430205102E+03  0.00000000000E+00 0. -1.
    9900018    1    1    2    0    0 -0.21443874381E+03 -0.31739302205E+02 -0.22611458496E+03  0.32624276555E+03  0.91187600000E+02 0.  0.
<mgrwt>
<rscale>  0 0.99698913E+03</rscale>
<asrwt>0</asrwt>
<pdfrwt beam="1">  1        1 0.20175472E+00 0.14394917E+04</pdfrwt>
<pdfrwt beam="2">  1       -1 0.99656631E-01 0.14394917E+04</pdfrwt>
<totfact> 0.82322728E+00</totfact>
</mgrwt>
</event>
<event>
12    1  0.9599717E-013  0.1029175E+04  0.7818608E-02  0.9495350E-01
         -2   -1    0    0    0  501 -0.00000000000E+00  0.00000000000E+00  0.96479847582E+03  0.96479847582E+03  0.00000000000E+00 0.  1.
          2   -1    0    0  501    0  0.00000000000E+00 -0.00000000000E+00 -0.83545555447E+03  0.83545555447E+03  0.00000000000E+00 0. -1.
         23    2    1    2    0    0  0.14830279079E+03  0.43691996991E+03 -0.42258056188E+03  0.63242700116E+03  0.92178102923E+02 0.  0.
    9900016    2    1    2    0    0 -0.14123898135E+03 -0.29315840241E+03  0.40267479921E+03  0.87857937836E+03  0.70983408723E+03 0.  0.
         23    2    4    4    0    0 -0.37121819101E+03  0.65825621395E+01  0.30326898811E+03  0.48791763466E+03  0.90803433885E+02 0.  0.
        -15    1    3    3    0    0 -0.55376947003E+01  0.99615182133E+02 -0.87197248638E+02  0.13250362540E+03  0.00000000000E+00 0.  1.
        -15    1    5    5    0    0 -0.94216249134E+02  0.29230883312E+02  0.11845845919E+03  0.15415431455E+03  0.00000000000E+00 0.  1.
         15    1    3    3    0    0  0.15384048549E+03  0.33730478778E+03 -0.33538331324E+03  0.49992337576E+03  0.00000000000E+00 0. -1.
         15    1    5    5    0    0 -0.27700194188E+03 -0.22648321172E+02  0.18481052892E+03  0.33376332012E+03  0.00000000000E+00 0. -1.
        -16    1    1    2    0    0  0.87084185062E+01 -0.12266086154E+03  0.13643169391E+02  0.12372412690E+03  0.00000000000E+00 0.  1.
         16    1    4    4    0    0  0.22997920966E+03 -0.29974096455E+03  0.99405811105E+02  0.39066174369E+03  0.00000000000E+00 0. -1.
    9900018    1    1    2    0    0 -0.15772227945E+02 -0.21100705962E+02  0.13560551462E+03  0.16552352388E+03  0.91187600000E+02 0.  0.
<mgrwt>
<rscale>  0 0.84627489E+03</rscale>
<asrwt>0</asrwt>
<pdfrwt beam="1">  1        2 0.12853162E+00 0.10291746E+04</pdfrwt>
<pdfrwt beam="2">  1       -2 0.14843054E+00 0.10291746E+04</pdfrwt>
<totfact> 0.99048880E+00</totfact>
</mgrwt>
</event>
<event>
12    1  0.1087238E-012  0.1257967E+04  0.7818608E-02  0.9348579E-01
         -1   -1    0    0    0  501 -0.00000000000E+00  0.00000000000E+00  0.14093899846E+04  0.14093899846E+04  0.00000000000E+00 0.  1.
          1   -1    0    0  501    0  0.00000000000E+00 -0.00000000000E+00 -0.60941974008E+03  0.60941974008E+03  0.00000000000E+00 0. -1.
         23    2    1    2    0    0  0.17994991372E+03 -0.38462632090E+03 -0.13114618475E+03  0.45373524908E+03  0.91416499093E+02 0.  0.
    9900016    2    1    2    0    0 -0.22213342513E+03  0.24953778750E+03  0.59841181002E+03  0.98398505108E+03  0.70605773164E+03 0.  0.
         23    2    4    4    0    0 -0.21618872989E+03 -0.17924992194E+02 -0.84998477084E+02  0.25007681536E+03  0.90855930989E+02 0.  0.
        -15    1    3    3    0    0  0.12865445292E+03 -0.20859241325E+03 -0.11176389097E+03  0.26935836806E+03  0.00000000000E+00 0.  1.
        -15    1    5    5    0    0 -0.12466405067E+03 -0.14556816660E+02 -0.56984828853E+00  0.12551235464E+03  0.00000000000E+00 0. -1.
         15    1    5    5    0    0 -0.91524679220E+02 -0.33681755335E+01 -0.84428628796E+02  0.12456446071E+03  0.00000000000E+00 0.  1.
         15    1    3    3    0    0  0.51295460797E+02 -0.17603390765E+03 -0.19382293786E+02  0.18437688102E+03  0.00000000000E+00 0. -1.
        -16    1    1    2    0    0  0.14260989578E+03  0.49782043176E+02  0.38415891862E+03  0.41278797094E+03  0.00000000000E+00 0.  1.
         16    1    4    4    0    0 -0.59446952364E+01  0.26746277970E+03  0.68341028711E+03  0.73390823572E+03  0.00000000000E+00 0. -1.
    9900018    1    1    2    0    0 -0.10042638437E+03  0.85306490217E+02 -0.51454299405E+02  0.16830145356E+03  0.91187600000E+02 0.  0.
<mgrwt>
<rscale>  0 0.96430974E+03</rscale>
<asrwt>0</asrwt>
<pdfrwt beam="1">  1        1 0.93756884E-01 0.12579667E+04</pdfrwt>
<pdfrwt beam="2">  1       -1 0.21682923E+00 0.12579667E+04</pdfrwt>
<totfact> 0.37923611E+00</totfact>
</mgrwt>
</event>
<event>
12    1  0.9599717E-013  0.1030043E+04  0.7818608E-02  0.9819314E-01
          1   -1    0    0  501    0  0.00000000000E+00  0.00000000000E+00  0.37513635096E+03  0.37513635096E+03  0.00000000000E+00 0. -1.
         -1   -1    0    0    0  501 -0.00000000000E+00 -0.00000000000E+00 -0.96889746457E+03  0.96889746457E+03  0.00000000000E+00 0.  1.
         23    2    1    2    0    0  0.62008208067E+02  0.11168304519E+03 -0.34021159314E+01  0.15680525556E+03  0.90874602216E+02 0.  0.
    9900016    2    1    2    0    0 -0.20547890568E+02  0.90151224622E+02 -0.40601377667E+03  0.82462284342E+03  0.71176273290E+03 0.  0.
         23    2    4    4    0    0 -0.17858832157E+03 -0.20172996419E+03 -0.40308004665E+03  0.49268909553E+03  0.87637057203E+02 0.  0.
        -15    1    5    5    0    0 -0.96634463057E+02 -0.16245226982E+03 -0.23472950077E+03  0.30137501215E+03  0.00000000000E+00 0. -1.
        -15    1    3    3    0    0 -0.17640278646E+02 -0.21497368156E+01  0.10642271270E+01  0.17802622797E+02  0.00000000000E+00 0. -1.
         15    1    5    5    0    0 -0.81953858517E+02 -0.39277694373E+02 -0.16835054588E+03  0.19131408338E+03  0.00000000000E+00 0.  1.
         15    1    3    3    0    0  0.79648486713E+02  0.11383278200E+03 -0.44663430585E+01  0.13900263276E+03  0.00000000000E+00 0.  1.
        -16    1    1    2    0    0 -0.30662868317E+02 -0.21215000584E+03 -0.96370489606E+02  0.23502150484E+03  0.00000000000E+00 0.  1.
         16    1    4    4    0    0  0.15804043101E+03  0.29188118881E+03 -0.29337300162E+01  0.33193374789E+03  0.00000000000E+00 0. -1.
    9900018    1    1    2    0    0 -0.10797449182E+02  0.10315736027E+02 -0.87974731408E+02  0.12758421171E+03  0.91187600000E+02 0.  0.
<mgrwt>
<rscale>  0 0.64336289E+03</rscale>
<asrwt>0</asrwt>
<pdfrwt beam="1">  1        1 0.57713285E-01 0.10300427E+04</pdfrwt>
<pdfrwt beam="2">  1       -1 0.14906115E+00 0.10300427E+04</pdfrwt>
<totfact> 0.23208854E+01</totfact>
</mgrwt>
</event>
<event>
12    1  0.9599717E-013  0.1350709E+04  0.7818608E-02  0.9579075E-01
          5   -1    0    0  501    0  0.00000000000E+00  0.00000000000E+00  0.11714672571E+04  0.11714672571E+04  0.00000000000E+00 0. -1.
         -5   -1    0    0    0  501 -0.00000000000E+00 -0.00000000000E+00 -0.48913661823E+03  0.48913661823E+03  0.00000000000E+00 0.  1.
         23    2    1    2    0    0 -0.58894351495E+02 -0.11342779406E+03  0.22235731724E+02  0.15722775145E+03  0.88835403727E+02 0.  0.
    9900016    2    1    2    0    0 -0.27676819035E+03  0.62018753554E+01  0.24607163984E+03  0.80162777919E+03  0.71092668398E+03 0.  0.
         23    2    4    4    0    0 -0.29603105516E+02 -0.10947982563E+03 -0.21886852896E+03  0.26251536451E+03  0.90270191985E+02 0.  0.
        -15    1    3    3    0    0 -0.46352805352E+02 -0.14377240623E+02 -0.14801137808E+02  0.50738164062E+02  0.00000000000E+00 0.  1.
        -15    1    5    5    0    0  0.14275364994E+02  0.10101323992E+02 -0.23567782398E+02  0.29347285382E+02  0.00000000000E+00 0. -1.
         15    1    3    3    0    0 -0.12541546143E+02 -0.99050553441E+02  0.37036869532E+02  0.10648958738E+03  0.00000000000E+00 0. -1.
         15    1    5    5    0    0 -0.43878470509E+02 -0.11958114962E+03 -0.19530074656E+03  0.23316807913E+03  0.00000000000E+00 0.  1.
        -16    1    4    4    0    0 -0.24716508484E+03  0.11568170098E+03  0.46494016879E+03  0.53911241468E+03  0.00000000000E+00 0.  1.
         16    1    1    2    0    0  0.59356552220E+01  0.20938387624E+03  0.14671886126E+03  0.25574061837E+03  0.00000000000E+00 0. -1.
    9900018    1    1    2    0    0  0.32972688663E+03 -0.10215795753E+03  0.26730440605E+03  0.44600772632E+03  0.91187600000E+02 0.  0.
<mgrwt>
<rscale>  0 0.78696758E+03</rscale>
<asrwt>0</asrwt>
<pdfrwt beam="1">  1        5 0.18022573E+00 0.13507089E+04</pdfrwt>
<pdfrwt beam="2">  1       -5 0.75251788E-01 0.13507089E+04</pdfrwt>
<totfact> 0.22774853E-01</totfact>
</mgrwt>
</event>
<event>
12    1  0.9599717E-013  0.1756950E+04  0.7818608E-02  0.9092102E-01
         -2   -1    0    0    0  501 -0.00000000000E+00  0.00000000000E+00  0.11988173845E+04  0.11988173845E+04  0.00000000000E+00 0. -1.
          2   -1    0    0  501    0  0.00000000000E+00 -0.00000000000E+00 -0.14520005080E+04  0.14520005080E+04  0.00000000000E+00 0.  1.
         23    2    1    2    0    0  0.28208539433E+03 -0.28896695304E+03 -0.72216941326E+03  0.83235122847E+03  0.90586072000E+02 0.  0.
    9900016    2    1    2    0    0 -0.19378204642E+03 -0.97824028201E+02  0.47913959159E+03  0.88378556218E+03  0.71019796513E+03 0.  0.
         23    2    4    4    0    0 -0.26771366104E+03  0.23776066335E+03  0.37080399181E+03  0.52348073148E+03  0.91300265825E+02 0.  0.
        -15    1    3    3    0    0  0.10306988786E+03 -0.89898713472E+02 -0.16587762788E+03  0.21498969254E+03  0.00000000000E+00 0.  1.
        -15    1    5    5    0    0 -0.16548666181E+03  0.15732108618E+03  0.29458783772E+03  0.37271672021E+03  0.00000000000E+00 0.  1.
         15    1    5    5    0    0 -0.10222699924E+03  0.80439577170E+02  0.76216154085E+02  0.15076401126E+03  0.00000000000E+00 0. -1.
         15    1    3    3    0    0  0.17901550647E+03 -0.19906823957E+03 -0.55629178538E+03  0.61736153593E+03  0.00000000000E+00 0. -1.
        -16    1    4    4    0    0  0.73931614621E+02 -0.33558469155E+03  0.10833559979E+03  0.36030483070E+03  0.00000000000E+00 0.  1.
         16    1    1    2    0    0 -0.25257436997E+03 -0.15576711726E+03 -0.16562411554E+03  0.33983607053E+03  0.00000000000E+00 0. -1.
    9900018    1    1    2    0    0  0.16427102206E+03  0.54255809851E+03  0.15547081378E+03  0.59484503131E+03  0.91187600000E+02 0.  0.
<mgrwt>
<rscale>  0 0.12240040E+04</rscale>
<asrwt>0</asrwt>
<pdfrwt beam="1">  1        2 0.22338469E+00 0.17569499E+04</pdfrwt>
<pdfrwt beam="2">  1       -2 0.18443344E+00 0.17569499E+04</pdfrwt>
<totfact> 0.21156492E+00</totfact>
</mgrwt>
</event>
<event>
12    1  0.9599717E-013  0.1902058E+04  0.7818608E-02  0.9109285E-01
          3   -1    0    0  501    0  0.00000000000E+00  0.00000000000E+00  0.86832155474E+03  0.86832155474E+03  0.00000000000E+00 0. -1.
         -3   -1    0    0    0  501 -0.00000000000E+00 -0.00000000000E+00 -0.17101211812E+04  0.17101211812E+04  0.00000000000E+00 0.  1.
         23    2    1    2    0    0  0.29107799480E+03 -0.30875871625E+02 -0.58390607169E+03  0.65898085876E+03  0.87348458219E+02 0.  0.
    9900016    2    1    2    0    0 -0.22579219778E+03  0.14170535251E+03 -0.17077622854E+03  0.77503990070E+03  0.70743183696E+03 0.  0.
         23    2    4    4    0    0 -0.80008831917E+02 -0.14310127605E+03  0.20765853054E+03  0.27947913520E+03  0.90039620790E+02 0.  0.
        -15    1    3    3    0    0  0.22876927252E+03  0.26798194126E+00 -0.50054959793E+03  0.55035020837E+03  0.00000000000E+00 0.  1.
        -15    1    5    5    0    0 -0.14338606054E+02 -0.26531557722E+02  0.10939716188E+03  0.11347800759E+03  0.00000000000E+00 0.  1.
         15    1    3    3    0    0  0.62308722280E+02 -0.31143853567E+02 -0.83356473757E+02  0.10863065039E+03  0.00000000000E+00 0. -1.
         15    1    5    5    0    0 -0.65670225863E+02 -0.11656971833E+03  0.98261368657E+02  0.16600112760E+03  0.00000000000E+00 0. -1.
        -16    1    1    2    0    0  0.40921211549E+03  0.29957244892E+03 -0.37263619712E+02  0.50851429181E+03  0.00000000000E+00 0.  1.
         16    1    4    4    0    0 -0.14578336586E+03  0.28480662855E+03 -0.37843475908E+03  0.49556076551E+03  0.00000000000E+00 0. -1.
    9900018    1    1    2    0    0 -0.47449791251E+03 -0.41040192980E+03 -0.49853706517E+02  0.63590768466E+03  0.91187600000E+02 0.  0.
<mgrwt>
<rscale>  0 0.12040889E+04</rscale>
<asrwt>0</asrwt>
<pdfrwt beam="1">  1        3 0.13358793E+00 0.19020580E+04</pdfrwt>
<pdfrwt beam="2">  1       -3 0.26309556E+00 0.19020580E+04</pdfrwt>
<totfact> 0.63891521E-02</totfact>
</mgrwt>
</event>
<event>
12    1  0.9599717E-013  0.1454143E+04  0.7818608E-02  0.9430583E-01
         -2   -1    0    0    0  501 -0.00000000000E+00  0.00000000000E+00  0.68574177131E+03  0.68574177131E+03  0.00000000000E+00 0.  1.
          2   -1    0    0  501    0  0.00000000000E+00 -0.00000000000E+00 -0.14106950323E+04  0.14106950323E+04  0.00000000000E+00 0. -1.
         23    2    1    2    0    0  0.18513397404E+03  0.29114994800E+02  0.26457192532E+03  0.33754748989E+03  0.93902784807E+02 0.  0.
    9900016    2    1    2    0    0 -0.32250211976E+03 -0.29174458413E+03 -0.92645439401E+03  0.12463087976E+04  0.71122806125E+03 0.  0.
         23    2    4    4    0    0  0.56194848084E+02  0.17061721107E+03 -0.95664409554E+02  0.22288228757E+03  0.90866612078E+02 0.  0.
        -15    1    3    3    0    0  0.45164894681E+02  0.46092470001E+02  0.11587121084E+03  0.13262926149E+03  0.00000000000E+00 0. -1.
        -15    1    5    5    0    0 -0.23039737274E+02  0.66636435107E+02 -0.36363398218E+02  0.79331839178E+02  0.00000000000E+00 0.  1.
         15    1    5    5    0    0  0.79234585358E+02  0.10398077596E+03 -0.59301011336E+02  0.14355044839E+03  0.00000000000E+00 0. -1.
         15    1    3    3    0    0  0.13996907936E+03 -0.16977475200E+02  0.14870071447E+03  0.20491822839E+03  0.00000000000E+00 0.  1.
        -16    1    4    4    0    0 -0.37869696784E+03 -0.46236179520E+03 -0.83078998445E+03  0.10234265100E+04  0.00000000000E+00 0.  1.
         16    1    1    2    0    0  0.21357558315E+03  0.25863744543E+03  0.60786159017E+02  0.34088534000E+03  0.00000000000E+00 0. -1.
    9900018    1    1    2    0    0 -0.76207437439E+02  0.39921438942E+01 -0.12385695136E+03  0.17169517619E+03  0.91187600000E+02 0.  0.
<mgrwt>
<rscale>  0 0.89600993E+03</rscale>
<asrwt>0</asrwt>
<pdfrwt beam="1">  1        2 0.21703000E+00 0.14541429E+04</pdfrwt>
<pdfrwt beam="2">  1       -2 0.10549874E+00 0.14541429E+04</pdfrwt>
<totfact> 0.99445396E+00</totfact>
</mgrwt>
</event>
<event>
12    1  0.9599717E-013  0.1100449E+04  0.7818608E-02  0.9544473E-01
          2   -1    0    0  501    0  0.00000000000E+00  0.00000000000E+00  0.82014198720E+03  0.82014198720E+03  0.00000000000E+00 0. -1.
         -2   -1    0    0    0  501 -0.00000000000E+00 -0.00000000000E+00 -0.65484166954E+03  0.65484166954E+03  0.00000000000E+00 0.  1.
         23    2    1    2    0    0  0.30528056985E+03 -0.57784599247E+02  0.18686268476E+03  0.37432304213E+03  0.93084857413E+02 0.  0.
    9900016    2    1    2    0    0 -0.13159394089E+03  0.52337397281E+02 -0.97900724042E+02  0.73223665325E+03  0.71170906708E+03 0.  0.
         23    2    4    4    0    0 -0.11887713662E+03  0.36020760367E+03  0.44291904115E+02  0.39287766252E+03  0.92248542443E+02 0.  0.
        -15    1    5    5    0    0 -0.44092575302E+02  0.19145246844E+03  0.65464258965E+02  0.20708397347E+03  0.00000000000E+00 0.  1.
        -15    1    3    3    0    0  0.84339144746E+02 -0.59369615534E+02  0.66484533250E+02  0.12271118835E+03  0.00000000000E+00 0.  1.
         15    1    3    3    0    0  0.22094142510E+03  0.15850162871E+01  0.12037815151E+03  0.25161185378E+03  0.00000000000E+00 0. -1.
         15    1    5    5    0    0 -0.74784561322E+02  0.16875513523E+03 -0.21172354850E+02  0.18579368904E+03  0.00000000000E+00 0. -1.
        -16    1    1    2    0    0 -0.13962015181E+03 -0.84386330604E+02  0.14585112513E+03  0.21883187676E+03  0.00000000000E+00 0.  1.
         16    1    4    4    0    0 -0.12716804266E+02 -0.30787020639E+03 -0.14219262816E+03  0.33935899074E+03  0.00000000000E+00 0. -1.
    9900018    1    1    2    0    0 -0.34066477144E+02  0.89833532570E+02 -0.69512768187E+02  0.14959208460E+03  0.91187600000E+02 0.  0.
<mgrwt>
<rscale>  0 0.81082954E+03</rscale>
<asrwt>0</asrwt>
<pdfrwt beam="1">  1        2 0.12617569E+00 0.11004494E+04</pdfrwt>
<pdfrwt beam="2">  1       -2 0.10074487E+00 0.11004494E+04</pdfrwt>
<totfact> 0.26716134E+01</totfact>
</mgrwt>
</event>
<event>
12    1  0.9599717E-013  0.1278683E+04  0.7818608E-02  0.9609534E-01
         -2   -1    0    0    0  501 -0.00000000000E+00  0.00000000000E+00  0.90204012030E+03  0.90204012030E+03  0.00000000000E+00 0.  1.
          2   -1    0    0  501    0  0.00000000000E+00 -0.00000000000E+00 -0.59342044173E+03  0.59342044173E+03  0.00000000000E+00 0. -1.
         23    2    1    2    0    0 -0.49636821739E+02  0.13010875350E+03  0.11702894116E+03  0.20250363367E+03  0.88993520942E+02 0.  0.
    9900016    2    1    2    0    0  0.86651243864E+02 -0.70508595511E+02 -0.11236979059E+03  0.70600665149E+03  0.68799601889E+03 0.  0.
         23    2    4    4    0    0  0.24701856669E+03  0.23393197023E+03 -0.75975337604E+02  0.35999177825E+03  0.89885980555E+02 0.  0.
        -15    1    5    5    0    0  0.15420428163E+02 -0.67507351675E+01 -0.98210300745E+01  0.19488834284E+02  0.00000000000E+00 0.  1.
        -15    1    3    3    0    0  0.15984599195E+02  0.70334886483E+02  0.75794529785E+02  0.10462941467E+03  0.00000000000E+00 0.  1.
         15    1    3    3    0    0 -0.65621420935E+02  0.59773867021E+02  0.41234411375E+02  0.97874219004E+02  0.00000000000E+00 0. -1.
         15    1    5    5    0    0  0.23159813852E+03  0.24068270540E+03 -0.66154307529E+02  0.34050294396E+03  0.00000000000E+00 0. -1.
        -16    1    1    2    0    0 -0.11146697033E+03  0.38339642545E+02 -0.10022651722E+03  0.15472610775E+03  0.00000000000E+00 0.  1.
         16    1    4    4    0    0 -0.16036732282E+03 -0.30444056574E+03 -0.36394452983E+02  0.34601487324E+03  0.00000000000E+00 0. -1.
    9900018    1    1    2    0    0  0.74452548205E+02 -0.97939800537E+02  0.40418704521E+03  0.43222416912E+03  0.91187600000E+02 0.  0.
<mgrwt>
<rscale>  0 0.76668381E+03</rscale>
<asrwt>0</asrwt>
<pdfrwt beam="1">  1        2 0.91295452E-01 0.12786832E+04</pdfrwt>
<pdfrwt beam="2">  1       -2 0.13877540E+00 0.12786832E+04</pdfrwt>
<totfact> 0.18048778E+01</totfact>
</mgrwt>
</event>
<event>
12    1  0.9599717E-013  0.1242762E+04  0.7818608E-02  0.9503172E-01
         -1   -1    0    0    0  501 -0.00000000000E+00  0.00000000000E+00  0.36154822169E+03  0.36154822169E+03  0.00000000000E+00 0.  1.
          1   -1    0    0  501    0  0.00000000000E+00 -0.00000000000E+00 -0.15795989132E+04  0.15795989132E+04  0.00000000000E+00 0. -1.
         23    2    1    2    0    0 -0.22290065976E+03  0.96901318726E+02 -0.13651682920E+03  0.29367228734E+03  0.92368815101E+02 0.  0.
    9900016    2    1    2    0    0  0.38506844434E+03 -0.14423929074E+03 -0.72840329731E+03  0.10751922425E+04  0.67556222143E+03 0.  0.
         23    2    4    4    0    0 -0.15874136086E+03  0.67477505421E+02 -0.26677774104E+03  0.33111478673E+03  0.93352051377E+02 0.  0.
        -15    1    3    3    0    0 -0.11129579260E+03  0.97940708311E+02 -0.72946954680E+02  0.16522830869E+03  0.00000000000E+00 0. -1.
        -15    1    5    5    0    0 -0.94194937451E+02  0.86564811567E+02 -0.15945293994E+03  0.20442943257E+03  0.00000000000E+00 0.  1.
         15    1    5    5    0    0 -0.64546423405E+02 -0.19087306147E+02 -0.10732480110E+03  0.12668535417E+03  0.00000000000E+00 0. -1.
         15    1    3    3    0    0 -0.11160486717E+03 -0.10393895855E+01 -0.63569874523E+02  0.12844397866E+03  0.00000000000E+00 0.  1.
        -16    1    4    4    0    0  0.54380980519E+03 -0.21171679616E+03 -0.46162555627E+03  0.74407745578E+03  0.00000000000E+00 0.  1.
         16    1    1    2    0    0 -0.28571023681E+02 -0.59846305444E+02 -0.37150167317E+03  0.37737431926E+03  0.00000000000E+00 0. -1.
    9900018    1    1    2    0    0 -0.13359676089E+03  0.10718427745E+03  0.18371108165E+02  0.19490828577E+03  0.91187600000E+02 0.  0.
<mgrwt>
<rscale>  0 0.84050371E+03</rscale>
<asrwt>0</asrwt>
<pdfrwt beam="1">  1        1 0.24301522E+00 0.12427622E+04</pdfrwt>
<pdfrwt beam="2">  1       -1 0.55622803E-01 0.12427622E+04</pdfrwt>
<totfact> 0.18557165E+01</totfact>
</mgrwt>
</event>
<event>
12    1  0.9599717E-013  0.1389011E+04  0.7818608E-02  0.9262285E-01
         -1   -1    0    0    0  501 -0.00000000000E+00  0.00000000000E+00  0.40836341931E+03  0.40836341931E+03  0.00000000000E+00 0.  1.
          1   -1    0    0  501    0  0.00000000000E+00 -0.00000000000E+00 -0.24202652263E+04  0.24202652263E+04  0.00000000000E+00 0. -1.
         23    2    1    2    0    0  0.32839166880E+03 -0.28150820944E+03 -0.80106732781E+02  0.44930449840E+03  0.91484881425E+02 0.  0.
    9900016    2    1    2    0    0 -0.28488945562E+03  0.75854471318E+02 -0.10540954975E+04  0.12996950723E+04  0.70083811282E+03 0.  0.
         23    2    4    4    0    0  0.11839357160E+03  0.24398375463E+03 -0.22962135808E+03  0.36660222456E+03  0.90144953488E+02 0.  0.
        -15    1    3    3    0    0  0.98653025562E+02 -0.36018452500E+02 -0.31095348593E+02  0.10952930693E+03  0.00000000000E+00 0.  1.
        -15    1    5    5    0    0  0.42691365867E+02  0.17937712061E+03 -0.12868332395E+03  0.22485128859E+03  0.00000000000E+00 0. -1.
         15    1    5    5    0    0  0.75702205736E+02  0.64606634030E+02 -0.10093803413E+03  0.14175093597E+03  0.00000000000E+00 0.  1.
         15    1    3    3    0    0  0.22973864324E+03 -0.24548975694E+03 -0.49011384187E+02  0.33977519147E+03  0.00000000000E+00 0. -1.
        -16    1    1    2    0    0  0.17239040589E+03  0.16157630712E+02 -0.71792873330E+03  0.73851282126E+03  0.00000000000E+00 0.  1.
         16    1    4    4    0    0 -0.40328302723E+03 -0.16812928332E+03 -0.82447413941E+03  0.93309284775E+03  0.00000000000E+00 0. -1.
    9900018    1    1    2    0    0 -0.21589261907E+03  0.18949610741E+03 -0.15977084339E+03  0.34111625362E+03  0.91187600000E+02 0.  0.
<mgrwt>
<rscale>  0 0.10433037E+04</rscale>
<asrwt>0</asrwt>
<pdfrwt beam="1">  1        1 0.37234850E+00 0.13890109E+04</pdfrwt>
<pdfrwt beam="2">  1       -1 0.62825142E-01 0.13890109E+04</pdfrwt>
<totfact> 0.38490719E+00</totfact>
</mgrwt>
</event>
<event>
12    1  0.9599717E-013  0.1040629E+04  0.7818608E-02  0.9595086E-01
          1   -1    0    0  501    0  0.00000000000E+00  0.00000000000E+00  0.15076812762E+04  0.15076812762E+04  0.00000000000E+00 0. -1.
         -1   -1    0    0    0  501 -0.00000000000E+00 -0.00000000000E+00 -0.40693267379E+03  0.40693267379E+03  0.00000000000E+00 0.  1.
         23    2    1    2    0    0 -0.11238314041E+03  0.28816336985E+03  0.75034009264E+03  0.81657236186E+03  0.90067028139E+02 0.  0.
    9900016    2    1    2    0    0 -0.17602610220E+02 -0.31196095368E+03  0.30579136914E+03  0.82953041089E+03  0.70497010762E+03 0.  0.
         23    2    4    4    0    0  0.23433689453E+03  0.13712484827E+02 -0.82061761191E+02  0.26387437290E+03  0.88282159267E+02 0.  0.
        -15    1    5    5    0    0  0.22629086601E+03  0.33531141833E+02 -0.69580433043E+02  0.23910945229E+03  0.00000000000E+00 0. -1.
        -15    1    3    3    0    0 -0.12623715183E+03  0.23757591329E+03  0.64631815507E+03  0.70007520357E+03  0.00000000000E+00 0.  1.
         15    1    3    3    0    0  0.13854011427E+02  0.50587456565E+02  0.10402193758E+03  0.11649715830E+03  0.00000000000E+00 0. -1.
         15    1    5    5    0    0  0.80460285222E+01 -0.19818657006E+02 -0.12481328148E+02  0.24764920610E+02  0.00000000000E+00 0.  1.
        -16    1    1    2    0    0  0.63191785842E+02  0.10602621906E+03  0.35510801329E+02  0.12843589037E+03  0.00000000000E+00 0.  1.
         16    1    4    4    0    0 -0.25193950475E+03 -0.32567343851E+03  0.38785313033E+03  0.56565603799E+03  0.00000000000E+00 0. -1.
    9900018    1    1    2    0    0  0.66793964785E+02 -0.82228635223E+02  0.91063393062E+01  0.14007528687E+03  0.91187600000E+02 0.  0.
<mgrwt>
<rscale>  0 0.77622265E+03</rscale>
<asrwt>0</asrwt>
<pdfrwt beam="1">  1        1 0.23195096E+00 0.10406292E+04</pdfrwt>
<pdfrwt beam="2">  1       -1 0.62605027E-01 0.10406292E+04</pdfrwt>
<totfact> 0.16753664E+01</totfact>
</mgrwt>
</event>
<event>
12    1  0.9599717E-013  0.1257644E+04  0.7818608E-02  0.9436488E-01
          2   -1    0    0  501    0  0.00000000000E+00  0.00000000000E+00  0.14802776876E+04  0.14802776876E+04  0.00000000000E+00 0. -1.
         -2   -1    0    0    0  501 -0.00000000000E+00 -0.00000000000E+00 -0.54074379602E+03  0.54074379602E+03  0.00000000000E+00 0.  1.
         23    2    1    2    0    0  0.30369047081E+03  0.29180650475E+01 -0.15559103174E+03  0.35339833810E+03  0.91898852261E+02 0.  0.
    9900016    2    1    2    0    0 -0.30193566891E+02 -0.53140264827E+02  0.10990654586E+04  0.13088910207E+04  0.70817743709E+03 0.  0.
         23    2    4    4    0    0  0.97137605309E+02  0.30173538187E+03  0.48142160235E+03  0.58526550617E+03  0.10143470051E+03 0.  0.
        -15    1    5    5    0    0  0.11744317142E+03  0.23863389946E+03  0.39850162976E+03  0.47910602731E+03  0.00000000000E+00 0. -1.
        -15    1    3    3    0    0  0.22454094828E+03  0.25875018552E+02 -0.14900831825E+03  0.27072427477E+03  0.00000000000E+00 0.  1.
         15    1    3    3    0    0  0.79149522530E+02 -0.22956953505E+02 -0.65827134929E+01  0.82674063332E+02  0.00000000000E+00 0. -1.
         15    1    5    5    0    0 -0.20305566112E+02  0.63101482407E+02  0.82919972591E+02  0.10615947886E+03  0.00000000000E+00 0.  1.
        -16    1    4    4    0    0 -0.12733117220E+03 -0.35487564670E+03  0.61764385629E+03  0.72362551450E+03  0.00000000000E+00 0.  1.
         16    1    1    2    0    0 -0.23905223919E+03  0.63963807648E+02 -0.45969479829E+02  0.25169532143E+03  0.00000000000E+00 0. -1.
    9900018    1    1    2    0    0 -0.34444664727E+02 -0.13741607868E+02  0.42028944514E+02  0.10703680342E+03  0.91187600000E+02 0.  0.
<mgrwt>
<rscale>  0 0.89132721E+03</rscale>
<asrwt>0</asrwt>
<pdfrwt beam="1">  1        2 0.22773503E+00 0.12576440E+04</pdfrwt>
<pdfrwt beam="2">  1       -2 0.83191354E-01 0.12576440E+04</pdfrwt>
<totfact> 0.16081162E+01</totfact>
</mgrwt>
</event>
<event>
12    1  0.9599717E-013  0.1158951E+04  0.7818608E-02  0.9801433E-01
          2   -1    0    0  501    0  0.00000000000E+00  0.00000000000E+00  0.21963358950E+04  0.21963358950E+04  0.00000000000E+00 0. -1.
         -2   -1    0    0    0  501 -0.00000000000E+00 -0.00000000000E+00 -0.19056664472E+03  0.19056664472E+03  0.00000000000E+00 0.  1.
         23    2    1    2    0    0  0.76581402373E+01  0.71810188515E+02  0.32482537606E+03  0.34515322721E+03  0.91672651518E+02 0.  0.
    9900016    2    1    2    0    0  0.11632850109E+03 -0.58529222461E+02  0.14278749364E+04  0.16042350893E+04  0.71957306632E+03 0.  0.
         23    2    4    4    0    0 -0.24146884343E+03  0.88767012856E+02  0.95568172569E+03  0.99375859598E+03  0.89676091252E+02 0.  0.
        -15    1    5    5    0    0 -0.14645482916E+03  0.19221751365E+02  0.64021343941E+03  0.65703252637E+03  0.00000000000E+00 0.  1.
        -15    1    3    3    0    0 -0.15575446817E+02  0.10580664975E+02  0.61350939481E+01  0.19803645942E+02  0.00000000000E+00 0.  1.
         15    1    5    5    0    0 -0.95014014267E+02  0.69545261491E+02  0.31546828628E+03  0.33672606961E+03  0.00000000000E+00 0. -1.
         15    1    3    3    0    0  0.23233587054E+02  0.61229523540E+02  0.31869028211E+03  0.32534958127E+03  0.00000000000E+00 0. -1.
        -16    1    1    2    0    0 -0.17267808855E+03 -0.11377725071E+03  0.10926428396E+03  0.23388387886E+03  0.00000000000E+00 0.  1.
         16    1    4    4    0    0  0.35779734452E+03 -0.14729623532E+03  0.47219321069E+03  0.61047649333E+03  0.00000000000E+00 0. -1.
    9900018    1    1    2    0    0  0.48691447224E+02  0.10049628465E+03  0.14380465388E+03  0.20363034433E+03  0.91187600000E+02 0.  0.
<mgrwt>
<rscale>  0 0.65285678E+03</rscale>
<asrwt>0</asrwt>
<pdfrwt beam="1">  1        2 0.33789781E+00 0.11589512E+04</pdfrwt>
<pdfrwt beam="2">  1       -2 0.29317947E-01 0.11589512E+04</pdfrwt>
<totfact> 0.55120541E+01</totfact>
</mgrwt>
</event>
<event>
12    1  0.9599717E-013  0.1304294E+04  0.7818608E-02  0.9517956E-01
         -2   -1    0    0    0  501 -0.00000000000E+00  0.00000000000E+00  0.14543174755E+04  0.14543174755E+04  0.00000000000E+00 0.  1.
          2   -1    0    0  501    0  0.00000000000E+00 -0.00000000000E+00 -0.39667213612E+03  0.39667213612E+03  0.00000000000E+00 0. -1.
         23    2    1    2    0    0 -0.43871231084E+02  0.18786907026E+03  0.17458523135E+03  0.27587782352E+03  0.91701134272E+02 0.  0.
    9900016    2    1    2    0    0 -0.89540787075E+02 -0.31404153268E+03  0.48762538617E+03  0.89482839488E+03  0.67549959456E+03 0.  0.
         23    2    4    4    0    0 -0.44042297961E+02 -0.26358496182E+03  0.65527235546E+03  0.71393758702E+03  0.94383590840E+02 0.  0.
        -15    1    5    5    0    0 -0.57917671518E+02 -0.10423298192E+03  0.34199685495E+03  0.36218892858E+03  0.00000000000E+00 0. -1.
        -15    1    3    3    0    0 -0.62084288082E+02  0.89239603447E+02  0.11910746012E+03  0.16125989181E+03  0.00000000000E+00 0. -1.
         15    1    3    3    0    0  0.18213056998E+02  0.98629466817E+02  0.55477771239E+02  0.11461793172E+03  0.00000000000E+00 0.  1.
         15    1    5    5    0    0  0.13875373557E+02 -0.15935197990E+03  0.31327550052E+03  0.35174865844E+03  0.00000000000E+00 0.  1.
        -16    1    1    2    0    0 -0.37461493168E+02  0.32197366917E+01  0.44416371288E+03  0.44575232362E+03  0.00000000000E+00 0.  1.
         16    1    4    4    0    0 -0.45498489114E+02 -0.50456570863E+02 -0.16764696929E+03  0.18089080786E+03  0.00000000000E+00 0. -1.
    9900018    1    1    2    0    0  0.17087351133E+03  0.12295272573E+03 -0.48728991038E+02  0.23453106958E+03  0.91187600000E+02 0.  0.
<mgrwt>
<rscale>  0 0.82972877E+03</rscale>
<asrwt>0</asrwt>
<pdfrwt beam="1">  1        2 0.61026483E-01 0.13042937E+04</pdfrwt>
<pdfrwt beam="2">  1       -2 0.22374115E+00 0.13042937E+04</pdfrwt>
<totfact> 0.73374421E+00</totfact>
</mgrwt>
</event>
<event>
12    1  0.9599717E-013  0.2063745E+04  0.7818608E-02  0.9079406E-01
         -2   -1    0    0    0  501 -0.00000000000E+00  0.00000000000E+00  0.59359788674E+03  0.59359788674E+03  0.00000000000E+00 0.  1.
          2   -1    0    0  501    0  0.00000000000E+00 -0.00000000000E+00 -0.24448502465E+04  0.24448502465E+04  0.00000000000E+00 0. -1.
         23    2    1    2    0    0  0.24743571708E+03  0.53309766620E+02 -0.51285639027E+03  0.57870244278E+03  0.88365575501E+02 0.  0.
    9900016    2    1    2    0    0  0.28560220634E+03 -0.36357761065E+03 -0.52928914924E+03  0.99947381542E+03  0.71066419986E+03 0.  0.
         23    2    4    4    0    0 -0.14747370074E+03 -0.12073357926E+03  0.69398915869E+02  0.22168504963E+03  0.89459276419E+02 0.  0.
        -15    1    5    5    0    0 -0.13384581677E+03 -0.13545196259E+03  0.61242085702E+02  0.20003132229E+03  0.00000000000E+00 0. -1.
        -15    1    3    3    0    0  0.17682570815E+03  0.48336096384E+02 -0.44218992133E+03  0.47868114210E+03  0.00000000000E+00 0.  1.
         15    1    5    5    0    0 -0.13627883964E+02  0.14718383334E+02  0.81568301672E+01  0.21653727339E+02  0.00000000000E+00 0.  1.
         15    1    3    3    0    0  0.70610008934E+02  0.49736702360E+01 -0.70666468938E+02  0.10002130068E+03  0.00000000000E+00 0. -1.
        -16    1    4    4    0    0  0.43307590707E+03 -0.24284403140E+03 -0.59868806511E+03  0.77778876579E+03  0.00000000000E+00 0.  1.
         16    1    1    2    0    0 -0.19928297892E+03  0.65663954969E+03 -0.65079489714E+03  0.94573950010E+03  0.00000000000E+00 0. -1.
    9900018    1    1    2    0    0 -0.33375494450E+03 -0.34637170565E+03 -0.15831192308E+03  0.51453237491E+03  0.91187600000E+02 0.  0.
<mgrwt>
<rscale>  0 0.12389797E+04</rscale>
<asrwt>0</asrwt>
<pdfrwt beam="1">  1        2 0.37613081E+00 0.20637454E+04</pdfrwt>
<pdfrwt beam="2">  1       -2 0.91322751E-01 0.20637454E+04</pdfrwt>
<totfact> 0.35080421E+00</totfact>
</mgrwt>
</event>
<event>
12    1  0.9599717E-013  0.9451008E+03  0.7818608E-02  0.9856436E-01
         -1   -1    0    0    0  501 -0.00000000000E+00  0.00000000000E+00  0.75309904677E+03  0.75309904677E+03  0.00000000000E+00 0.  1.
          1   -1    0    0  501    0  0.00000000000E+00 -0.00000000000E+00 -0.42023960267E+03  0.42023960267E+03  0.00000000000E+00 0. -1.
         23    2    1    2    0    0  0.43090641261E+02 -0.14856889145E+03  0.45017635713E+02  0.18537691916E+03  0.91697850374E+02 0.  0.
    9900016    2    1    2    0    0  0.58310142804E+02  0.43263148997E+02  0.25316317928E+03  0.71349791152E+03  0.66311077625E+03 0.  0.
         23    2    4    4    0    0  0.30508621944E+03  0.19288395016E+03  0.19094739381E+03  0.41827660453E+03  0.90623347859E+02 0.  0.
        -15    1    3    3    0    0  0.65265721550E+02 -0.63488812796E+02  0.13880573848E+02  0.92103822342E+02  0.00000000000E+00 0. -1.
        -15    1    5    5    0    0  0.27115291254E+03  0.17191402567E+03  0.13207530270E+03  0.34716310257E+03  0.00000000000E+00 0. -1.
         15    1    5    5    0    0  0.33933306893E+02  0.20969924483E+02  0.58872091104E+02  0.71113501956E+02  0.00000000000E+00 0.  1.
         15    1    3    3    0    0 -0.22175080289E+02 -0.85080078649E+02  0.31137061865E+02  0.93273096820E+02  0.00000000000E+00 0.  1.
        -16    1    1    2    0    0 -0.11347961673E+03  0.67960540731E+02  0.90784043349E+02  0.16043067361E+03  0.00000000000E+00 0.  1.
         16    1    4    4    0    0 -0.24677607663E+03 -0.14962080116E+03  0.62215785469E+02  0.29522130699E+03  0.00000000000E+00 0. -1.
    9900018    1    1    2    0    0  0.12078832664E+02  0.37345201718E+02 -0.56105414236E+02  0.11403314514E+03  0.91187600000E+02 0.  0.
<mgrwt>
<rscale>  0 0.62419855E+03</rscale>
<asrwt>0</asrwt>
<pdfrwt beam="1">  1        1 0.64652247E-01 0.94510077E+03</pdfrwt>
<pdfrwt beam="2">  1       -1 0.11586139E+00 0.94510077E+03</pdfrwt>
<totfact> 0.38116943E+01</totfact>
</mgrwt>
</event>
<event>
12    1  0.9599717E-013  0.1719831E+04  0.7818608E-02  0.8750134E-01
          2   -1    0    0  501    0  0.00000000000E+00  0.00000000000E+00  0.16359291207E+04  0.16359291207E+04  0.00000000000E+00 0. -1.
         -2   -1    0    0    0  501 -0.00000000000E+00 -0.00000000000E+00 -0.45200888973E+03  0.45200888973E+03  0.00000000000E+00 0.  1.
         23    2    1    2    0    0 -0.22978062946E+03  0.26086222734E+03  0.60641754503E+03  0.70505602863E+03  0.92268766447E+02 0.  0.
    9900016    2    1    2    0    0  0.45520964492E+02 -0.33936789224E+03  0.55766869031E+03  0.96745184352E+03  0.71254892947E+03 0.  0.
         23    2    4    4    0    0  0.32278872208E+03  0.89921684091E+01  0.31563316373E+03  0.46068430571E+03  0.91281527590E+02 0.  0.
        -15    1    3    3    0    0 -0.21076712458E+03  0.25830284375E+03  0.59678141736E+03  0.68358700982E+03  0.00000000000E+00 0. -1.
        -15    1    5    5    0    0  0.18601846869E+03  0.36378492369E+02  0.22564871874E+03  0.29469239840E+03  0.00000000000E+00 0. -1.
         15    1    3    3    0    0 -0.19013504879E+02  0.25593835918E+01  0.96361276717E+01  0.21469018810E+02  0.00000000000E+00 0.  1.
         15    1    5    5    0    0  0.13677025339E+03 -0.27386323960E+02  0.89984444989E+02  0.16599190731E+03  0.00000000000E+00 0.  1.
        -16    1    4    4    0    0 -0.27726775759E+03 -0.34836006065E+03  0.24203552658E+03  0.50676753781E+03  0.00000000000E+00 0.  1.
         16    1    1    2    0    0 -0.10425605964E+03  0.24247003345E+02  0.14136729866E+02  0.10796800579E+03  0.00000000000E+00 0. -1.
    9900018    1    1    2    0    0  0.28851572460E+03  0.54258661556E+02  0.56972657734E+01  0.30746213251E+03  0.91187600000E+02 0.  0.
<mgrwt>
<rscale>  0 0.17198308E+04</rscale>
<asrwt>0</asrwt>
<pdfrwt beam="1">  1        2 0.25168140E+00 0.17198308E+04</pdfrwt>
<pdfrwt beam="2">  1       -2 0.69539830E-01 0.17198308E+04</pdfrwt>
<totfact> 0.19076145E+01</totfact>
</mgrwt>
</event>
<event>
12    1  0.9599717E-013  0.1497343E+04  0.7818608E-02  0.8886222E-01
         -1   -1    0    0    0  501 -0.00000000000E+00  0.00000000000E+00  0.74904920426E+03  0.74904920426E+03  0.00000000000E+00 0.  1.
          1   -1    0    0  501    0  0.00000000000E+00 -0.00000000000E+00 -0.74829376617E+03  0.74829376617E+03  0.00000000000E+00 0. -1.
         23    2    1    2    0    0  0.37405286353E+02  0.26105692685E+03 -0.14735457255E+02  0.27887184523E+03  0.89456681464E+02 0.  0.
    9900016    2    1    2    0    0 -0.46849676781E+02 -0.14816104982E+03  0.15139142975E+03  0.75355884494E+03  0.72165433477E+03 0.  0.
         23    2    4    4    0    0  0.15380656820E+03 -0.81349821517E+02 -0.23889244021E+03  0.30965776584E+03  0.92434193214E+02 0.  0.
        -15    1    5    5    0    0  0.62104621437E+02 -0.47147210018E+02 -0.39204584305E+02  0.87274525761E+02  0.00000000000E+00 0.  1.
        -15    1    3    3    0    0  0.24794278435E+02  0.25449255292E+03  0.35344581729E+01  0.25572193517E+03  0.00000000000E+00 0. -1.
         15    1    3    3    0    0  0.12611007917E+02  0.65643739271E+01 -0.18269915428E+02  0.23149910054E+02  0.00000000000E+00 0.  1.
         15    1    5    5    0    0  0.91701946762E+02 -0.34202611499E+02 -0.19968785590E+03  0.22238324008E+03  0.00000000000E+00 0. -1.
        -16    1    1    2    0    0 -0.33857472726E+02  0.11674129624E+03  0.70103253542E+02  0.14031865473E+03  0.00000000000E+00 0.  1.
         16    1    4    4    0    0 -0.20065624498E+03 -0.66811228308E+02  0.39028386996E+03  0.44390107910E+03  0.00000000000E+00 0. -1.
    9900018    1    1    2    0    0  0.43301863154E+02 -0.22963717326E+03 -0.20600378794E+03  0.32459362553E+03  0.91187600000E+02 0.  0.
<mgrwt>
<rscale>  0 0.14973428E+04</rscale>
<asrwt>0</asrwt>
<pdfrwt beam="1">  1        1 0.11512212E+00 0.14973428E+04</pdfrwt>
<pdfrwt beam="2">  1       -1 0.11523834E+00 0.14973428E+04</pdfrwt>
<totfact> 0.16248838E+01</totfact>
</mgrwt>
</event>
<event>
12    1  0.9599717E-013  0.1130406E+04  0.7818608E-02  0.9852723E-01
         -1   -1    0    0    0  501 -0.00000000000E+00  0.00000000000E+00  0.48105719197E+03  0.48105719197E+03  0.00000000000E+00 0.  1.
          1   -1    0    0  501    0  0.00000000000E+00 -0.00000000000E+00 -0.80550864534E+03  0.80550864534E+03  0.00000000000E+00 0. -1.
         23    2    1    2    0    0  0.48389601565E+02 -0.25046608423E+02 -0.71605623458E+02  0.12822693854E+03  0.91355877340E+02 0.  0.
    9900016    2    1    2    0    0 -0.16345105198E+03  0.10662274968E+03 -0.32348612607E+03  0.79053298068E+03  0.69441663477E+03 0.  0.
         23    2    4    4    0    0  0.24097128799E+03  0.80449789697E+00  0.51078646197E+01  0.25881036297E+03  0.94280988790E+02 0.  0.
        -15    1    3    3    0    0 -0.10456639974E+02 -0.70584019681E+00 -0.63117945366E+02  0.63982142487E+02  0.00000000000E+00 0. -1.
        -15    1    5    5    0    0  0.23091565906E+03  0.36608176851E+01  0.28974187285E+02  0.23275512178E+03  0.00000000000E+00 0. -1.
         15    1    5    5    0    0  0.10055628928E+02 -0.28563197881E+01 -0.23866322666E+02  0.26055241190E+02  0.00000000000E+00 0.  1.
         15    1    3    3    0    0  0.58846241539E+02 -0.24340768226E+02 -0.84876780922E+01  0.64244796058E+02  0.00000000000E+00 0.  1.
        -16    1    4    4    0    0 -0.40442233997E+03  0.10581825178E+03 -0.32859399069E+03  0.53172261772E+03  0.00000000000E+00 0.  1.
         16    1    1    2    0    0 -0.66993187413E+00 -0.63895017714E+02 -0.11414292069E+03  0.13081142321E+03  0.00000000000E+00 0. -1.
    9900018    1    1    2    0    0  0.11573138229E+03 -0.17681123542E+02  0.18478321684E+03  0.23699449487E+03  0.91187600000E+02 0.  0.
<mgrwt>
<rscale>  0 0.62608262E+03</rscale>
<asrwt>0</asrwt>
<pdfrwt beam="1">  1        1 0.12392441E+00 0.11304061E+04</pdfrwt>
<pdfrwt beam="2">  1       -1 0.74008799E-01 0.11304061E+04</pdfrwt>
<totfact> 0.39948882E+01</totfact>
</mgrwt>
</event>
<event>
12    1  0.9599717E-013  0.1035469E+04  0.7818608E-02  0.9700664E-01
          2   -1    0    0  501    0  0.00000000000E+00  0.00000000000E+00  0.29310178842E+04  0.29310178842E+04  0.00000000000E+00 0. -1.
         -2   -1    0    0    0  501 -0.00000000000E+00 -0.00000000000E+00 -0.13640017257E+03  0.13640017257E+03  0.00000000000E+00 0.  1.
         23    2    1    2    0    0  0.89133303950E+01 -0.21290153045E+03  0.47232749717E+03  0.52473699107E+03  0.82759507547E+02 0.  0.
    9900016    2    1    2    0    0 -0.23519354029E+02  0.17900400839E+03  0.13956519093E+04  0.15720977122E+04  0.70075057604E+03 0.  0.
         23    2    4    4    0    0 -0.23638402411E+03  0.47435958969E+02  0.12632490613E+04  0.12889863674E+04  0.86948763206E+02 0.  0.
        -15    1    3    3    0    0  0.24880289784E+01 -0.96578360573E+02  0.31156613407E+03  0.32620089809E+03  0.00000000000E+00 0. -1.
        -15    1    5    5    0    0 -0.13323650266E+03 -0.15283781577E+02  0.59568692384E+03  0.61059681530E+03  0.00000000000E+00 0.  1.
         15    1    3    3    0    0  0.64253014166E+01 -0.11632316988E+03  0.16076136310E+03  0.19853609298E+03  0.00000000000E+00 0.  1.
         15    1    5    5    0    0 -0.10314752145E+03  0.62719740546E+02  0.66756213747E+03  0.67838955211E+03  0.00000000000E+00 0. -1.
        -16    1    1    2    0    0  0.79334688527E+02  0.17113937509E+02  0.78574136225E+03  0.78992174803E+03  0.00000000000E+00 0.  1.
         16    1    4    4    0    0  0.21286467009E+03  0.13156804942E+03  0.13240284797E+03  0.28311134479E+03  0.00000000000E+00 0. -1.
    9900018    1    1    2    0    0 -0.64728664894E+02  0.16783584551E+02  0.14089694293E+03  0.18066160547E+03  0.91187600000E+02 0.  0.
<mgrwt>
<rscale>  0 0.70977278E+03</rscale>
<asrwt>0</asrwt>
<pdfrwt beam="1">  1        2 0.45092578E+00 0.10354686E+04</pdfrwt>
<pdfrwt beam="2">  1       -2 0.20984644E-01 0.10354686E+04</pdfrwt>
<totfact> 0.38336804E+01</totfact>
</mgrwt>
</event>
<event>
12    1  0.9599717E-013  0.1435834E+04  0.7818608E-02  0.9293287E-01
          1   -1    0    0  501    0  0.00000000000E+00  0.00000000000E+00  0.36287335404E+03  0.36287335404E+03  0.00000000000E+00 0. -1.
         -1   -1    0    0    0  501 -0.00000000000E+00 -0.00000000000E+00 -0.22170130797E+04  0.22170130797E+04  0.00000000000E+00 0.  1.
         23    2    1    2    0    0 -0.20862517949E+03 -0.27292897811E+03 -0.33812167294E+03  0.49184162280E+03  0.97812185324E+02 0.  0.
    9900016    2    1    2    0    0  0.14132822822E+03  0.43207510630E+02 -0.70305577182E+03  0.10010052297E+04  0.69705343741E+03 0.  0.
         23    2    4    4    0    0 -0.15329807578E+03  0.26239865554E+03 -0.46733345490E+03  0.56464021314E+03  0.89803439599E+02 0.  0.
        -15    1    5    5    0    0 -0.56145178604E+02  0.17809038783E+03 -0.24911853958E+03  0.31133344517E+03  0.00000000000E+00 0. -1.
        -15    1    3    3    0    0 -0.12887878666E+03 -0.95819768130E+02 -0.18131202970E+03  0.24220904551E+03  0.00000000000E+00 0.  1.
         15    1    5    5    0    0 -0.97152897173E+02  0.84308267706E+02 -0.21821491532E+03  0.25330676797E+03  0.00000000000E+00 0.  1.
         15    1    3    3    0    0 -0.79746392829E+02 -0.17710920998E+03 -0.15680964325E+03  0.24963257729E+03  0.00000000000E+00 0. -1.
        -16    1    1    2    0    0  0.24663308979E+03  0.19608995142E+02 -0.26891820358E+02  0.24886856706E+03  0.00000000000E+00 0.  1.
         16    1    4    4    0    0  0.29462630400E+03 -0.21919114491E+03 -0.23572231692E+03  0.43636501660E+03  0.00000000000E+00 0. -1.
    9900018    1    1    2    0    0 -0.17933613852E+03  0.21011247234E+03 -0.78607046056E+03  0.83817101416E+03  0.91187600000E+02 0.  0.
<mgrwt>
<rscale>  0 0.10140326E+04</rscale>
<asrwt>0</asrwt>
<pdfrwt beam="1">  1        1 0.55826669E-01 0.14358344E+04</pdfrwt>
<pdfrwt beam="2">  1       -1 0.34107894E+00 0.14358344E+04</pdfrwt>
<totfact> 0.11831491E+00</totfact>
</mgrwt>
</event>
<event>
12    1  0.9599717E-013  0.1208883E+04  0.7818608E-02  0.9458678E-01
          2   -1    0    0  501    0  0.00000000000E+00  0.00000000000E+00  0.61674259900E+03  0.61674259900E+03  0.00000000000E+00 0. -1.
         -2   -1    0    0    0  501 -0.00000000000E+00 -0.00000000000E+00 -0.12403543567E+04  0.12403543567E+04  0.00000000000E+00 0.  1.
         23    2    1    2    0    0  0.27381794238E+03  0.16026933827E+03  0.20751553107E+03  0.39006871396E+03  0.91806206850E+02 0.  0.
    9900016    2    1    2    0    0 -0.35550563543E+03 -0.12943253935E+03 -0.61894495266E+03  0.10247872684E+04  0.72385015856E+03 0.  0.
         23    2    4    4    0    0  0.76912339201E+01  0.25599372520E+03 -0.12037758706E+03  0.29743949098E+03  0.91583540576E+02 0.  0.
        -15    1    3    3    0    0  0.81712313017E+02  0.90419164416E+02  0.10747281369E+03  0.16248979376E+03  0.00000000000E+00 0.  1.
        -15    1    5    5    0    0  0.33688533296E+02  0.68401437240E+02 -0.66644620138E+01  0.76538153532E+02  0.00000000000E+00 0. -1.
         15    1    5    5    0    0 -0.25997299376E+02  0.18759228796E+03 -0.11371312504E+03  0.22090133745E+03  0.00000000000E+00 0.  1.
         15    1    3    3    0    0  0.19210562936E+03  0.69850173852E+02  0.10004271738E+03  0.22757892020E+03  0.00000000000E+00 0. -1.
        -16    1    4    4    0    0 -0.36319686935E+03 -0.38542626456E+03 -0.49856736560E+03  0.72734777745E+03  0.00000000000E+00 0.  1.
         16    1    1    2    0    0 -0.46540382092E+02 -0.10616440290E+03  0.50880382235E+02  0.12659265739E+03  0.00000000000E+00 0. -1.
    9900018    1    1    2    0    0  0.12822807514E+03  0.75327603986E+02 -0.26306271839E+03  0.31564831597E+03  0.91187600000E+02 0.  0.
<mgrwt>
<rscale>  0 0.87400095E+03</rscale>
<asrwt>0</asrwt>
<pdfrwt beam="1">  1        2 0.94883477E-01 0.12088835E+04</pdfrwt>
<pdfrwt beam="2">  1       -2 0.19082375E+00 0.12088835E+04</pdfrwt>
<totfact> 0.71756075E+00</totfact>
</mgrwt>
</event>
<event>
12    1  0.9599717E-013  0.1277011E+04  0.7818608E-02  0.9483178E-01
          2   -1    0    0  501    0  0.00000000000E+00  0.00000000000E+00  0.72851764206E+03  0.72851764206E+03  0.00000000000E+00 0. -1.
         -2   -1    0    0    0  501 -0.00000000000E+00 -0.00000000000E+00 -0.81625408929E+03  0.81625408929E+03  0.00000000000E+00 0.  1.
         23    2    1    2    0    0 -0.23649754929E+03 -0.43591282205E+02 -0.74772399783E+02  0.26769475577E+03  0.90764970085E+02 0.  0.
    9900016    2    1    2    0    0  0.27579329305E+03 -0.22880448888E+03 -0.32737049629E+02  0.80723815561E+03  0.72259829147E+03 0.  0.
         23    2    4    4    0    0 -0.30983513498E+02 -0.41170008287E+03  0.85841107630E+02  0.43090906198E+03  0.88639650253E+02 0.  0.
        -15    1    3    3    0    0 -0.36350359089E+02 -0.39977307525E+02 -0.32649748117E+02  0.63131131583E+02  0.00000000000E+00 0.  1.
        -15    1    5    5    0    0  0.27536306359E+01 -0.25711806565E+03  0.90571011464E+02  0.27261766319E+03  0.00000000000E+00 0. -1.
         15    1    3    3    0    0 -0.20014719020E+03 -0.36139746802E+01 -0.42122651666E+02  0.20456362419E+03  0.00000000000E+00 0. -1.
         15    1    5    5    0    0 -0.33737144133E+02 -0.15458201722E+03 -0.47299038339E+01  0.15829139879E+03  0.00000000000E+00 0.  1.
        -16    1    1    2    0    0 -0.11560734755E+03  0.31955965461E+03 -0.33630521216E+01  0.33984517325E+03  0.00000000000E+00 0.  1.
         16    1    4    4    0    0  0.30677680655E+03  0.18289559399E+03 -0.11857815726E+03  0.37632909363E+03  0.00000000000E+00 0. -1.
    9900018    1    1    2    0    0  0.76311603789E+02 -0.47163883526E+02  0.23136054310E+02  0.12999364671E+03  0.91187600000E+02 0.  0.
<mgrwt>
<rscale>  0 0.85535463E+03</rscale>
<asrwt>0</asrwt>
<pdfrwt beam="1">  1        2 0.11207964E+00 0.12770112E+04</pdfrwt>
<pdfrwt beam="2">  1       -2 0.12557755E+00 0.12770112E+04</pdfrwt>
<totfact> 0.18012198E+01</totfact>
</mgrwt>
</event>
<event>
12    1  0.9599717E-013  0.1287039E+04  0.7818608E-02  0.9339309E-01
          2   -1    0    0  501    0  0.00000000000E+00  0.00000000000E+00  0.78135375382E+03  0.78135375382E+03  0.00000000000E+00 0. -1.
         -2   -1    0    0    0  501 -0.00000000000E+00 -0.00000000000E+00 -0.93499587978E+03  0.93499587978E+03  0.00000000000E+00 0.  1.
         23    2    1    2    0    0 -0.39825118117E+03 -0.94393954400E+02 -0.81602696562E+02  0.42729598494E+03  0.91698619014E+02 0.  0.
    9900016    2    1    2    0    0  0.64628849410E+02  0.19726255035E+03 -0.18531505862E+02  0.74317986985E+03  0.71336070840E+03 0.  0.
         23    2    4    4    0    0  0.23675607641E+03  0.26657553625E+03 -0.25131408110E+03  0.44548909132E+03  0.90475449029E+02 0.  0.
        -15    1    3    3    0    0 -0.19354924395E+03 -0.90386460468E+02 -0.26370375316E+02  0.21523572836E+03  0.00000000000E+00 0. -1.
        -15    1    5    5    0    0  0.40229687631E+01  0.43390957062E+02 -0.16490386915E+02  0.46592835212E+02  0.00000000000E+00 0. -1.
         15    1    5    5    0    0  0.23273310765E+03  0.22318457919E+03 -0.23482369418E+03  0.39889625611E+03  0.00000000000E+00 0.  1.
         15    1    3    3    0    0 -0.20470193722E+03 -0.40074939312E+01 -0.55232321247E+02  0.21206025657E+03  0.00000000000E+00 0.  1.
        -16    1    4    4    0    0 -0.17212722700E+03 -0.69312985900E+02  0.23278257524E+03  0.29769077853E+03  0.00000000000E+00 0.  1.
         16    1    1    2    0    0  0.23775187869E+03 -0.22195430245E+03  0.65451233984E+02  0.33177331452E+03  0.00000000000E+00 0. -1.
    9900018    1    1    2    0    0  0.95870453062E+02  0.11908570649E+03 -0.11895915751E+03  0.21410046429E+03  0.91187600000E+02 0.  0.
<mgrwt>
<rscale>  0 0.97243166E+03</rscale>
<asrwt>0</asrwt>
<pdfrwt beam="1">  1        2 0.12020827E+00 0.12870391E+04</pdfrwt>
<pdfrwt beam="2">  1       -2 0.14384552E+00 0.12870391E+04</pdfrwt>
<totfact> 0.11563453E+01</totfact>
</mgrwt>
</event>
<event>
12    1  0.9599717E-013  0.1593360E+04  0.7818608E-02  0.9405183E-01
         -1   -1    0    0    0  501 -0.00000000000E+00  0.00000000000E+00  0.95605386749E+03  0.95605386749E+03  0.00000000000E+00 0.  1.
          1   -1    0    0  501    0  0.00000000000E+00 -0.00000000000E+00 -0.81717595524E+03  0.81717595524E+03  0.00000000000E+00 0. -1.
         23    2    1    2    0    0 -0.89523462942E+01  0.14797864234E+03  0.12694858614E+02  0.17488100967E+03  0.91893334981E+02 0.  0.
    9900016    2    1    2    0    0  0.28614459197E+01 -0.27104024729E+03  0.20985314721E+03  0.77348615263E+03  0.69337686823E+03 0.  0.
         23    2    4    4    0    0  0.26176416704E+03 -0.86248169252E+02  0.32631144251E+03  0.43475135127E+03  0.81057720626E+02 0.  0.
        -15    1    3    3    0    0  0.34688551330E+02  0.48894743530E+02  0.26855079048E+02  0.65690081511E+02  0.00000000000E+00 0. -1.
        -15    1    5    5    0    0  0.92797347590E+02 -0.61379782140E+02  0.89561743326E+02  0.14282902801E+03  0.00000000000E+00 0.  1.
         15    1    3    3    0    0 -0.43640897624E+02  0.99083898809E+02 -0.14160220434E+02  0.10919092816E+03  0.00000000000E+00 0.  1.
         15    1    5    5    0    0  0.16896681945E+03 -0.24868387112E+02  0.23674969919E+03  0.29192232326E+03  0.00000000000E+00 0. -1.
        -16    1    4    4    0    0 -0.25890272112E+03 -0.18479207804E+03 -0.11645829531E+03  0.33873480136E+03  0.00000000000E+00 0.  1.
         16    1    1    2    0    0 -0.22746954175E+03  0.34265203012E+03  0.12715097455E+03  0.43048830007E+03  0.00000000000E+00 0. -1.
    9900018    1    1    2    0    0  0.23356044213E+03 -0.21959042517E+03 -0.21082106812E+03  0.39437436036E+03  0.91187600000E+02 0.  0.
<mgrwt>
<rscale>  0 0.91650390E+03</rscale>
<asrwt>0</asrwt>
<pdfrwt beam="1">  1        1 0.12571938E+00 0.15933602E+04</pdfrwt>
<pdfrwt beam="2">  1       -1 0.14708521E+00 0.15933602E+04</pdfrwt>
<totfact> 0.75127703E+00</totfact>
</mgrwt>
</event>
<event>
12    1  0.9599717E-013  0.1012318E+04  0.7818608E-02  0.9525996E-01
         -1   -1    0    0    0  501 -0.00000000000E+00  0.00000000000E+00  0.48197419710E+03  0.48197419710E+03  0.00000000000E+00 0.  1.
          1   -1    0    0  501    0  0.00000000000E+00 -0.00000000000E+00 -0.15938002386E+04  0.15938002386E+04  0.00000000000E+00 0. -1.
         23    2    1    2    0    0 -0.95841004892E+02  0.42422773467E+03 -0.95248190446E+03  0.10509924317E+04  0.90601568045E+02 0.  0.
    9900016    2    1    2    0    0  0.36847540249E+02 -0.38596523869E+03 -0.15039478438E+03  0.82200370504E+03  0.70904484572E+03 0.  0.
         23    2    4    4    0    0  0.19651416826E+03 -0.94320233639E+02 -0.35885911075E+03  0.42956566352E+03  0.90734079059E+02 0.  0.
        -15    1    3    3    0    0  0.15273546106E+02  0.60688737667E+02 -0.16750505403E+03  0.17881372211E+03  0.00000000000E+00 0.  1.
        -15    1    5    5    0    0  0.52782306488E+02 -0.65654785029E+02 -0.17679777135E+03  0.19584170810E+03  0.00000000000E+00 0. -1.
         15    1    3    3    0    0 -0.11111455100E+03  0.36353899700E+03 -0.78497685043E+03  0.87217870961E+03  0.00000000000E+00 0. -1.
         15    1    5    5    0    0  0.14373186178E+03 -0.28665448610E+02 -0.18206133939E+03  0.23372395542E+03  0.00000000000E+00 0.  1.
        -16    1    4    4    0    0 -0.15966662802E+03 -0.29164500505E+03  0.20846432637E+03  0.39243804153E+03  0.00000000000E+00 0.  1.
         16    1    1    2    0    0  0.29730040293E+02 -0.65463456492E+02  0.49539290555E+02  0.87312546295E+02  0.00000000000E+00 0. -1.
    9900018    1    1    2    0    0  0.29263424351E+02  0.27200960508E+02 -0.58488643228E+02  0.11546575266E+03  0.91187600000E+02 0.  0.
<mgrwt>
<rscale>  0 0.82394079E+03</rscale>
<asrwt>0</asrwt>
<pdfrwt beam="1">  1        1 0.24520004E+00 0.10123179E+04</pdfrwt>
<pdfrwt beam="2">  1       -1 0.74149876E-01 0.10123179E+04</pdfrwt>
<totfact> 0.10373735E+01</totfact>
</mgrwt>
</event>
<event>
12    1  0.9599717E-013  0.1687530E+04  0.7818608E-02  0.8768509E-01
          1   -1    0    0  501    0  0.00000000000E+00  0.00000000000E+00  0.59836588159E+03  0.59836588159E+03  0.00000000000E+00 0. -1.
         -1   -1    0    0    0  501 -0.00000000000E+00 -0.00000000000E+00 -0.11898060984E+04  0.11898060984E+04  0.00000000000E+00 0.  1.
         23    2    1    2    0    0  0.76453083317E+00 -0.29814842318E+03 -0.31073170729E+03  0.44291589452E+03  0.10357233679E+03 0.  0.
    9900016    2    1    2    0    0  0.69572956931E+02  0.39612397242E+03  0.19862016413E+02  0.81502426026E+03  0.70860104943E+03 0.  0.
         23    2    4    4    0    0 -0.27877171835E+03  0.92762928497E+02  0.13952957492E+03  0.33785315853E+03  0.91420033858E+02 0.  0.
        -15    1    3    3    0    0 -0.47350650315E+02 -0.10010519247E+03 -0.92193156697E+02  0.14409271941E+03  0.00000000000E+00 0. -1.
        -15    1    5    5    0    0 -0.98728887768E+02 -0.11873416651E+02  0.43585281331E+02  0.10857277767E+03  0.00000000000E+00 0.  1.
         15    1    3    3    0    0  0.48115181148E+02 -0.19804323071E+03 -0.21853855059E+03  0.29882317511E+03  0.00000000000E+00 0.  1.
         15    1    5    5    0    0 -0.18004283059E+03  0.10463634515E+03  0.95944293591E+02  0.22928038085E+03  0.00000000000E+00 0. -1.
        -16    1    4    4    0    0  0.34834467528E+03  0.30336104393E+03 -0.11966755851E+03  0.47717110173E+03  0.00000000000E+00 0.  1.
         16    1    1    2    0    0  0.13878801786E+03 -0.12566462523E+03 -0.21477215008E+03  0.28492242520E+03  0.00000000000E+00 0. -1.
    9900018    1    1    2    0    0 -0.20912550563E+03  0.27689075986E+02 -0.85798375832E+02  0.24530939999E+03  0.91187600000E+02 0.  0.
<mgrwt>
<rscale>  0 0.16875300E+04</rscale>
<asrwt>0</asrwt>
<pdfrwt beam="1">  1        1 0.92056290E-01 0.16875300E+04</pdfrwt>
<pdfrwt beam="2">  1       -1 0.18304709E+00 0.16875300E+04</pdfrwt>
<totfact> 0.64814633E+00</totfact>
</mgrwt>
</event>
<event>
12    1  0.9599717E-013  0.1758462E+04  0.7818608E-02  0.9032307E-01
          2   -1    0    0  501    0  0.00000000000E+00  0.00000000000E+00  0.15604629986E+04  0.15604629986E+04  0.00000000000E+00 0. -1.
         -2   -1    0    0    0  501 -0.00000000000E+00 -0.00000000000E+00 -0.85847682261E+03  0.85847682261E+03  0.00000000000E+00 0.  1.
         23    2    1    2    0    0 -0.37085538430E+02 -0.51019241855E+03 -0.15010445220E+02  0.51992087955E+03  0.91764734081E+02 0.  0.
    9900016    2    1    2    0    0 -0.37895870784E+02  0.17101886513E+03  0.22477346076E+03  0.77964104184E+03  0.72569518133E+03 0.  0.
         23    2    4    4    0    0  0.25375695435E+03 -0.25868996298E+01  0.32828808738E+03  0.42479514586E+03  0.90986612762E+02 0.  0.
        -15    1    5    5    0    0  0.21469754136E+03 -0.22062432977E+02  0.30939457649E+03  0.37723572097E+03  0.00000000000E+00 0.  1.
        -15    1    3    3    0    0 -0.53939665473E+02 -0.40884820752E+03  0.15709653570E+02  0.41269012287E+03  0.00000000000E+00 0. -1.
         15    1    5    5    0    0  0.39059412993E+02  0.19475533347E+02  0.18893510892E+02  0.47559424895E+02  0.00000000000E+00 0. -1.
         15    1    3    3    0    0  0.16854127042E+02 -0.10134421103E+03 -0.30720098790E+02  0.10723075668E+03  0.00000000000E+00 0.  1.
        -16    1    1    2    0    0  0.70415786302E+02 -0.18881923670E+03  0.54489544635E+03  0.58096655202E+03  0.00000000000E+00 0.  1.
         16    1    4    4    0    0 -0.29165282514E+03  0.17360576475E+03 -0.10351462662E+03  0.35484589598E+03  0.00000000000E+00 0. -1.
    9900018    1    1    2    0    0  0.45656229128E+01  0.52799279013E+03 -0.52672285902E+02  0.53841134779E+03  0.91187600000E+02 0.  0.
<mgrwt>
<rscale>  0 0.12965486E+04</rscale>
<asrwt>0</asrwt>
<pdfrwt beam="1">  1        2 0.24007123E+00 0.17584621E+04</pdfrwt>
<pdfrwt beam="2">  1       -2 0.13207336E+00 0.17584621E+04</pdfrwt>
<totfact> 0.45694961E+00</totfact>
</mgrwt>
</event>
<event>
12    1  0.9599717E-013  0.1407971E+04  0.7818608E-02  0.9312923E-01
         -1   -1    0    0    0  501 -0.00000000000E+00  0.00000000000E+00  0.54646084070E+03  0.54646084070E+03  0.00000000000E+00 0.  1.
          1   -1    0    0  501    0  0.00000000000E+00 -0.00000000000E+00 -0.16419248970E+04  0.16419248970E+04  0.00000000000E+00 0. -1.
         23    2    1    2    0    0 -0.33997391192E+03 -0.17953947549E+02 -0.59970512580E+03  0.69568359565E+03  0.91786830928E+02 0.  0.
    9900016    2    1    2    0    0  0.37284045216E+02  0.30031097040E+03 -0.51508069796E+03  0.92861650006E+03  0.71094563773E+03 0.  0.
         23    2    4    4    0    0  0.15613340027E+03 -0.10518437164E+03  0.57489209031E+02  0.21700709877E+03  0.91354699087E+02 0.  0.
        -15    1    3    3    0    0 -0.17521019183E+03 -0.23003111146E+02 -0.22328744195E+03  0.28475434356E+03  0.00000000000E+00 0.  1.
        -15    1    5    5    0    0  0.74827207351E+02 -0.19224505362E+01  0.35391194440E+01  0.74935519898E+02  0.00000000000E+00 0. -1.
         15    1    5    5    0    0  0.81306192918E+02 -0.10326192110E+03  0.53950089587E+02  0.14207157887E+03  0.00000000000E+00 0.  1.
         15    1    3    3    0    0 -0.16476372009E+03  0.50491635965E+01 -0.37641768385E+03  0.41092925209E+03  0.00000000000E+00 0. -1.
        -16    1    4    4    0    0 -0.11884935505E+03  0.40549534204E+03 -0.57256990699E+03  0.71160940129E+03  0.00000000000E+00 0.  1.
         16    1    1    2    0    0  0.28035866829E+03 -0.94868444560E+02 -0.11224807030E+03  0.31654483718E+03  0.00000000000E+00 0. -1.
    9900018    1    1    2    0    0  0.22331198417E+02 -0.18748857829E+03  0.13156983780E+03  0.24754080477E+03  0.91187600000E+02 0.  0.
<mgrwt>
<rscale>  0 0.99601771E+03</rscale>
<asrwt>0</asrwt>
<pdfrwt beam="1">  1        1 0.25260383E+00 0.14079712E+04</pdfrwt>
<pdfrwt beam="2">  1       -1 0.84070900E-01 0.14079712E+04</pdfrwt>
<totfact> 0.70886661E+00</totfact>
</mgrwt>
</event>
<event>
12    1  0.9599717E-013  0.1142793E+04  0.7818608E-02  0.9574054E-01
         -2   -1    0    0    0  501 -0.00000000000E+00  0.00000000000E+00  0.11059278757E+04  0.11059278757E+04  0.00000000000E+00 0.  1.
          2   -1    0    0  501    0  0.00000000000E+00 -0.00000000000E+00 -0.52892899465E+03  0.52892899465E+03  0.00000000000E+00 0. -1.
         23    2    1    2    0    0  0.45416769438E+02 -0.24133131502E+03  0.40081470596E+03  0.47856214100E+03  0.89809842085E+02 0.  0.
    9900016    2    1    2    0    0 -0.22903260089E+03  0.14845943661E+03  0.30051808531E+03  0.81811784716E+03  0.71028836092E+03 0.  0.
         23    2    4    4    0    0  0.56329919378E+02  0.37866645886E+03  0.15897940715E+03  0.42510354910E+03  0.94219046248E+02 0.  0.
        -15    1    3    3    0    0  0.15672938337E+02 -0.13371927309E+03  0.13693582965E+03  0.19203621126E+03  0.00000000000E+00 0. -1.
        -15    1    5    5    0    0 -0.64350737937E+01  0.16438566801E+03  0.10573003899E+03  0.19555791768E+03  0.00000000000E+00 0. -1.
         15    1    5    5    0    0  0.62764993172E+02  0.21428079084E+03  0.53249368161E+02  0.22954563142E+03  0.00000000000E+00 0.  1.
         15    1    3    3    0    0  0.29743831101E+02 -0.10761204193E+03  0.26387887630E+03  0.28652592974E+03  0.00000000000E+00 0.  1.
        -16    1    4    4    0    0 -0.28536252027E+03 -0.23020702225E+03  0.14153867816E+03  0.39301429806E+03  0.00000000000E+00 0.  1.
         16    1    1    2    0    0 -0.35283800529E+02  0.10756445449E+01 -0.69646667901E+02  0.78081764456E+02  0.00000000000E+00 0. -1.
    9900018    1    1    2    0    0  0.21889963198E+03  0.91796233870E+02 -0.54687242271E+02  0.26009511778E+03  0.91187600000E+02 0.  0.
<mgrwt>
<rscale>  0 0.79037540E+03</rscale>
<asrwt>0</asrwt>
<pdfrwt beam="1">  1        2 0.81373691E-01 0.11427933E+04</pdfrwt>
<pdfrwt beam="2">  1       -2 0.17014275E+00 0.11427933E+04</pdfrwt>
<totfact> 0.12065602E+01</totfact>
</mgrwt>
</event>
<event>
12    1  0.9599717E-013  0.2432833E+04  0.7818608E-02  0.9234870E-01
          2   -1    0    0  501    0  0.00000000000E+00  0.00000000000E+00  0.37253546477E+04  0.37253546477E+04  0.00000000000E+00 0.  1.
         -2   -1    0    0    0  501 -0.00000000000E+00 -0.00000000000E+00 -0.50790357580E+03  0.50790357580E+03  0.00000000000E+00 0. -1.
         23    2    1    2    0    0 -0.12865452944E+02 -0.27248045874E+01 -0.89597156480E+02  0.12774453840E+03  0.90100345179E+02 0.  0.
    9900016    2    1    2    0    0 -0.27032156304E+03  0.44270105877E+03  0.78815716539E+03  0.11833866516E+04  0.71425084869E+03 0.  0.
         23    2    4    4    0    0 -0.12636739372E+03  0.62256418898E+03  0.49301731397E+03  0.80897901225E+03  0.88465150183E+02 0.  0.
        -15    1    3    3    0    0 -0.26639001715E+02 -0.12105337724E+02 -0.10254705032E+03  0.10663992283E+03  0.00000000000E+00 0.  1.
        -15    1    5    5    0    0  0.13359118134E+02  0.37406761899E+02  0.27891059930E+02  0.48534967777E+02  0.00000000000E+00 0. -1.
         15    1    5    5    0    0 -0.13972651185E+03  0.58515742708E+03  0.46512625404E+03  0.76044404447E+03  0.00000000000E+00 0.  1.
         15    1    3    3    0    0  0.13773548772E+02  0.93805331371E+01  0.12949893835E+02  0.21104615562E+02  0.00000000000E+00 0. -1.
        -16    1    1    2    0    0  0.31800651676E+03 -0.85293612399E+03  0.22304057729E+04  0.24090118489E+04  0.00000000000E+00 0.  1.
         16    1    4    4    0    0 -0.14395416932E+03 -0.17986313021E+03  0.29513985142E+03  0.37440763931E+03  0.00000000000E+00 0. -1.
    9900018    1    1    2    0    0 -0.34819500774E+02  0.41295986981E+03  0.28848529004E+03  0.51311518460E+03  0.91187600000E+02 0.  0.
<mgrwt>
<rscale>  0 0.10700650E+04</rscale>
<asrwt>0</asrwt>
<pdfrwt beam="1">  1        2 0.57313147E+00 0.24328326E+04</pdfrwt>
<pdfrwt beam="2">  1       -2 0.78139014E-01 0.24328326E+04</pdfrwt>
<totfact> 0.72696161E-01</totfact>
</mgrwt>
</event>
<event>
12    1  0.9599717E-013  0.1591613E+04  0.7818608E-02  0.8825717E-01
         -1   -1    0    0    0  501 -0.00000000000E+00  0.00000000000E+00  0.52278658725E+03  0.52278658725E+03  0.00000000000E+00 0.  1.
          1   -1    0    0  501    0  0.00000000000E+00 -0.00000000000E+00 -0.12114079744E+04  0.12114079744E+04  0.00000000000E+00 0. -1.
         23    2    1    2    0    0  0.10905832815E+03  0.41979608703E+03 -0.29786302239E+02  0.44436898847E+03  0.91946182583E+02 0.  0.
    9900016    2    1    2    0    0 -0.16771897335E+02 -0.25679773627E+03 -0.61862312516E+03  0.97638286362E+03  0.71021303248E+03 0.  0.
         23    2    4    4    0    0 -0.22031777678E+03 -0.23138995641E+03 -0.68451973463E+03  0.76093253650E+03  0.91486738490E+02 0.  0.
        -15    1    3    3    0    0  0.48555666976E+02  0.54384940279E+02 -0.79692890902E+01  0.73340876005E+02  0.00000000000E+00 0.  1.
        -15    1    5    5    0    0 -0.57476719620E+02 -0.88965266667E+02 -0.14425433091E+03  0.17896285636E+03  0.00000000000E+00 0.  1.
         15    1    3    3    0    0  0.60502661170E+02  0.36541114675E+03 -0.21817013149E+02  0.37102811246E+03  0.00000000000E+00 0. -1.
         15    1    5    5    0    0 -0.16284105716E+03 -0.14242468974E+03 -0.54026540373E+03  0.58196968014E+03  0.00000000000E+00 0. -1.
        -16    1    4    4    0    0  0.20354587944E+03 -0.25407779860E+02  0.65896609477E+02  0.21545032712E+03  0.00000000000E+00 0.  1.
         16    1    1    2    0    0  0.40472385215E+02 -0.70683995396E+02  0.61226404003E+02  0.10189658344E+03  0.00000000000E+00 0. -1.
    9900018    1    1    2    0    0 -0.13275881603E+03 -0.92314355362E+02 -0.10143836376E+03  0.21154612612E+03  0.91187600000E+02 0.  0.
<mgrwt>
<rscale>  0 0.15916128E+04</rscale>
<asrwt>0</asrwt>
<pdfrwt beam="1">  1        1 0.18637046E+00 0.15916128E+04</pdfrwt>
<pdfrwt beam="2">  1       -1 0.80428706E-01 0.15916128E+04</pdfrwt>
<totfact> 0.15523715E+01</totfact>
</mgrwt>
</event>
<event>
12    1  0.9599717E-013  0.1737791E+04  0.7818608E-02  0.9173481E-01
         -2   -1    0    0    0  501 -0.00000000000E+00  0.00000000000E+00  0.15404757688E+04  0.15404757688E+04  0.00000000000E+00 0. -1.
          2   -1    0    0  501    0  0.00000000000E+00 -0.00000000000E+00 -0.71726089766E+03  0.71726089766E+03  0.00000000000E+00 0.  1.
         23    2    1    2    0    0 -0.34031636457E+02  0.29868066328E+03  0.32027968078E+03  0.44863164593E+03  0.91230416611E+02 0.  0.
    9900016    2    1    2    0    0 -0.17973819517E+03 -0.13704547738E+03 -0.66772067839E+01  0.74000558827E+03  0.70461081733E+03 0.  0.
         23    2    4    4    0    0 -0.14677320992E+03 -0.17594815857E+03 -0.33041602274E+03  0.41227562348E+03  0.91084092905E+02 0.  0.
        -15    1    3    3    0    0  0.10130088676E+02  0.11210168374E+03  0.67090513786E+02  0.13103641950E+03  0.00000000000E+00 0.  1.
        -15    1    5    5    0    0 -0.46852882785E+02 -0.62669742786E+02 -0.47431347855E+02  0.91500940134E+02  0.00000000000E+00 0.  1.
         15    1    5    5    0    0 -0.99920327137E+02 -0.11327841578E+03 -0.28298467489E+03  0.32077468335E+03  0.00000000000E+00 0. -1.
         15    1    3    3    0    0 -0.44161725133E+02  0.18657897954E+03  0.25318916700E+03  0.31759522644E+03  0.00000000000E+00 0. -1.
        -16    1    1    2    0    0  0.44504735723E+03 -0.19326783920E+03  0.62662862642E+03  0.79251690411E+03  0.00000000000E+00 0.  1.
         16    1    4    4    0    0 -0.32964985252E+02  0.38902681192E+02  0.32373881596E+03  0.32772996478E+03  0.00000000000E+00 0. -1.
    9900018    1    1    2    0    0 -0.23127752560E+03  0.31632653300E+02 -0.11701622924E+03  0.27658252819E+03  0.91187600000E+02 0.  0.
<mgrwt>
<rscale>  0 0.11331385E+04</rscale>
<asrwt>0</asrwt>
<pdfrwt beam="1">  1        2 0.11034783E+00 0.17377909E+04</pdfrwt>
<pdfrwt beam="2">  1       -2 0.23699627E+00 0.17377909E+04</pdfrwt>
<totfact> 0.28858977E+00</totfact>
</mgrwt>
</event>
<event>
12    1  0.1559679E-012  0.1290999E+04  0.7818608E-02  0.9593814E-01
          2   -1    0    0  501    0  0.00000000000E+00  0.00000000000E+00  0.17480056527E+04  0.17480056527E+04  0.00000000000E+00 0. -1.
         -2   -1    0    0    0  501 -0.00000000000E+00 -0.00000000000E+00 -0.30510365647E+03  0.30510365647E+03  0.00000000000E+00 0.  1.
         23    2    1    2    0    0  0.10928991886E+02 -0.14397523341E+03  0.15901766058E+03  0.23238486397E+03  0.88700608390E+02 0.  0.
    9900016    2    1    2    0    0 -0.16903063959E+03  0.28553947642E+02  0.67392695234E+03  0.99993954678E+03  0.71855053759E+03 0.  0.
         23    2    4    4    0    0  0.22296965888E+03  0.15144207832E+03  0.11672279793E+03  0.30766633745E+03  0.91565232363E+02 0.  0.
        -15    1    3    3    0    0  0.31075434279E+02 -0.56280176119E+02  0.21010367710E+02  0.67635614812E+02  0.00000000000E+00 0.  1.
        -15    1    5    5    0    0  0.97042903330E+02  0.15311475657E+02  0.52679850951E+02  0.11147615471E+03  0.00000000000E+00 0.  1.
         15    1    5    5    0    0  0.12592675555E+03  0.13613060267E+03  0.64042946978E+02  0.19619018274E+03  0.00000000000E+00 0. -1.
         15    1    3    3    0    0 -0.20146442393E+02 -0.87695057290E+02  0.13800729287E+03  0.16474924916E+03  0.00000000000E+00 0. -1.
        -16    1    1    2    0    0 -0.17216923264E+03  0.32519395037E+02  0.31796374730E+03  0.36304366173E+03  0.00000000000E+00 0.  1.
         16    1    4    4    0    0 -0.39200029847E+03 -0.12288813068E+03  0.55720415441E+03  0.69227320933E+03  0.00000000000E+00 0. -1.
    9900018    1    1    2    0    0  0.33027088035E+03  0.82901890731E+02  0.29199363600E+03  0.45774123667E+03  0.91187600000E+02 0.  0.
<mgrwt>
<rscale>  0 0.77706999E+03</rscale>
<asrwt>0</asrwt>
<pdfrwt beam="1">  1        2 0.26892394E+00 0.12909990E+04</pdfrwt>
<pdfrwt beam="2">  1       -2 0.46939025E-01 0.12909990E+04</pdfrwt>
<totfact> 0.38853364E+01</totfact>
</mgrwt>
</event>
<event>
12    1  0.9599717E-013  0.1627365E+04  0.7818608E-02  0.8803911E-01
         -1   -1    0    0    0  501 -0.00000000000E+00  0.00000000000E+00  0.62412677571E+03  0.62412677571E+03  0.00000000000E+00 0.  1.
          1   -1    0    0  501    0  0.00000000000E+00 -0.00000000000E+00 -0.10608084687E+04  0.10608084687E+04  0.00000000000E+00 0. -1.
         23    2    1    2    0    0 -0.22521589893E+03 -0.10911695278E+03 -0.43688086664E+03  0.51160768630E+03  0.90823028660E+02 0.  0.
    9900016    2    1    2    0    0  0.14441008186E+03  0.33401484597E+02  0.43455385171E+02  0.72286550008E+03  0.70617011392E+03 0.  0.
         23    2    4    4    0    0 -0.40646990889E+02  0.31667544417E+03  0.15599883691E+03  0.36627570090E+03  0.88807303449E+02 0.  0.
        -15    1    3    3    0    0 -0.86388904167E+02 -0.25532015875E+01 -0.19262304751E+03  0.21112366052E+03  0.00000000000E+00 0.  1.
        -15    1    5    5    0    0 -0.41631812578E+02  0.17281628631E+03  0.12965590956E+03  0.22002120697E+03  0.00000000000E+00 0. -1.
         15    1    5    5    0    0  0.98482168899E+00  0.14385915787E+03  0.26342927350E+02  0.14625449394E+03  0.00000000000E+00 0.  1.
         15    1    3    3    0    0 -0.13882699476E+03 -0.10656375119E+03 -0.24425781913E+03  0.30048402578E+03  0.00000000000E+00 0. -1.
        -16    1    1    2    0    0 -0.10993685510E+03 -0.36302338510E+02 -0.14915273185E+03  0.18881342460E+03  0.00000000000E+00 0.  1.
         16    1    4    4    0    0  0.18505707275E+03 -0.28327395957E+03 -0.11254345174E+03  0.35658979918E+03  0.00000000000E+00 0. -1.
    9900018    1    1    2    0    0  0.19074267216E+03  0.11201780669E+03  0.10589652028E+03  0.26164863348E+03  0.91187600000E+02 0.  0.
<mgrwt>
<rscale>  0 0.16273647E+04</rscale>
<asrwt>0</asrwt>
<pdfrwt beam="1">  1        1 0.16320130E+00 0.16273647E+04</pdfrwt>
<pdfrwt beam="2">  1       -1 0.96019504E-01 0.16273647E+04</pdfrwt>
<totfact> 0.13590796E+01</totfact>
</mgrwt>
</event>
<event>
12    1  0.9599717E-013  0.1902079E+04  0.7818608E-02  0.9013115E-01
          1   -1    0    0  501    0  0.00000000000E+00  0.00000000000E+00  0.15764087202E+04  0.15764087202E+04  0.00000000000E+00 0. -1.
         -1   -1    0    0    0  501 -0.00000000000E+00 -0.00000000000E+00 -0.90154808428E+03  0.90154808428E+03  0.00000000000E+00 0.  1.
         23    2    1    2    0    0  0.29000068261E+02  0.43217568614E+03 -0.43871579919E+02  0.44461447141E+03  0.90224636414E+02 0.  0.
    9900016    2    1    2    0    0  0.32153625355E+02 -0.15492733551E+03  0.41766179644E+03  0.83989824606E+03  0.71130257458E+03 0.  0.
         23    2    4    4    0    0  0.33215571648E+03  0.40268409813E+02  0.31377014391E+03  0.46721056295E+03  0.88797759554E+02 0.  0.
        -15    1    3    3    0    0 -0.51164893066E+00  0.30683441158E+03 -0.66276586060E+02  0.31391113993E+03  0.00000000000E+00 0.  1.
        -15    1    5    5    0    0  0.15925181602E+03  0.15588578765E+02  0.21013099834E+03  0.26411963417E+03  0.00000000000E+00 0.  1.
         15    1    5    5    0    0  0.17290390047E+03  0.24679831047E+02  0.10363914557E+03  0.20309092878E+03  0.00000000000E+00 0. -1.
         15    1    3    3    0    0  0.29511717191E+02  0.12534127456E+03  0.22405006141E+02  0.13070333148E+03  0.00000000000E+00 0. -1.
        -16    1    4    4    0    0 -0.30000209113E+03 -0.19519574533E+03  0.10389165254E+03  0.37268768311E+03  0.00000000000E+00 0.  1.
         16    1    1    2    0    0 -0.47168984980E+03 -0.32228329026E+03 -0.13388545406E+03  0.58675646429E+03  0.00000000000E+00 0. -1.
    9900018    1    1    2    0    0  0.41053615618E+03  0.45034939635E+02  0.43495587349E+03  0.60668762275E+03  0.91187600000E+02 0.  0.
<mgrwt>
<rscale>  0 0.13209494E+04</rscale>
<asrwt>0</asrwt>
<pdfrwt beam="1">  1        1 0.24252442E+00 0.19020791E+04</pdfrwt>
<pdfrwt beam="2">  1       -1 0.13869971E+00 0.19020791E+04</pdfrwt>
<totfact> 0.22985234E+00</totfact>
</mgrwt>
</event>
<event>
12    1  0.1059046E-012  0.1021265E+04  0.7818608E-02  0.9745151E-01
          1   -1    0    0  501    0  0.00000000000E+00  0.00000000000E+00  0.25437062674E+04  0.25437062674E+04  0.00000000000E+00 0. -1.
         -1   -1    0    0    0  501 -0.00000000000E+00 -0.00000000000E+00 -0.15487855981E+03  0.15487855981E+03  0.00000000000E+00 0.  1.
         23    2    1    2    0    0 -0.15670663268E+03  0.96666068187E+02  0.65380382078E+03  0.68530629500E+03  0.91016396515E+02 0.  0.
    9900016    2    1    2    0    0  0.26988998363E+02 -0.66540363822E+02  0.13206189202E+04  0.14975002917E+04  0.70236512242E+03 0.  0.
         23    2    4    4    0    0  0.11157837419E+03 -0.16924027018E+03  0.59976944617E+02  0.22985648373E+03  0.90248360607E+02 0.  0.
        -15    1    3    3    0    0 -0.23122535145E+02  0.48921392802E+02  0.10089666109E+03  0.11449056959E+03  0.00000000000E+00 0.  1.
        -15    1    5    5    0    0  0.48033039118E+02 -0.34001678944E+02 -0.17693062804E+02  0.61451863189E+02  0.00000000000E+00 0.  1.
         15    1    5    5    0    0  0.63545335069E+02 -0.13523859123E+03  0.77670007421E+02  0.16840462054E+03  0.00000000000E+00 0. -1.
         15    1    3    3    0    0 -0.13358409753E+03  0.47744675385E+02  0.55290715969E+03  0.57081572541E+03  0.00000000000E+00 0. -1.
        -16    1    1    2    0    0  0.19180477731E+03 -0.17333499346E+02  0.22452729457E+03  0.29580741844E+03  0.00000000000E+00 0.  1.
         16    1    4    4    0    0 -0.84589375824E+02  0.10269990636E+03  0.12606419756E+04  0.12676438080E+04  0.00000000000E+00 0. -1.
    9900018    1    1    2    0    0 -0.62087142991E+02 -0.12792205019E+02  0.18987767208E+03  0.21997082211E+03  0.91187600000E+02 0.  0.
<mgrwt>
<rscale>  0 0.68391009E+03</rscale>
<asrwt>0</asrwt>
<pdfrwt beam="1">  1        1 0.39133940E+00 0.10212652E+04</pdfrwt>
<pdfrwt beam="2">  1       -1 0.23827473E-01 0.10212652E+04</pdfrwt>
<totfact> 0.19474109E+01</totfact>
</mgrwt>
</event>
<event>
12    1  0.9599717E-013  0.1334462E+04  0.7818608E-02  0.9002675E-01
          1   -1    0    0  501    0  0.00000000000E+00  0.00000000000E+00  0.71002046174E+03  0.71002046174E+03  0.00000000000E+00 0. -1.
         -1   -1    0    0    0  501 -0.00000000000E+00 -0.00000000000E+00 -0.62701987979E+03  0.62701987979E+03  0.00000000000E+00 0.  1.
         23    2    1    2    0    0  0.18320001746E+03  0.18452722146E+03  0.54494052710E+01  0.27504569452E+03  0.89486849313E+02 0.  0.
    9900016    2    1    2    0    0 -0.24808065785E+03 -0.21396353580E+03 -0.67126851369E+01  0.78545753061E+03  0.71384456628E+03 0.  0.
         23    2    4    4    0    0  0.13847129276E+03  0.47144181878E+02  0.20965843537E+03  0.27124345793E+03  0.90661354195E+02 0.  0.
        -15    1    3    3    0    0  0.36025067596E+02  0.70533879872E+02  0.34940135421E+02  0.86565852207E+02  0.00000000000E+00 0. -1.
        -15    1    5    5    0    0  0.38294759604E+02  0.43313831636E+02  0.13306597900E+03  0.14508318784E+03  0.00000000000E+00 0. -1.
         15    1    5    5    0    0  0.10017653316E+03  0.38303502421E+01  0.76592456369E+02  0.12616027010E+03  0.00000000000E+00 0.  1.
         15    1    3    3    0    0  0.14717494987E+03  0.11399334159E+03 -0.29490730150E+02  0.18847984232E+03  0.00000000000E+00 0.  1.
        -16    1    1    2    0    0  0.35480050618E+02 -0.78636840123E+02 -0.31085203971E+02  0.91699926512E+02  0.00000000000E+00 0.  1.
         16    1    4    4    0    0 -0.38655195061E+03 -0.26110771767E+03 -0.21637112051E+03  0.51421407268E+03  0.00000000000E+00 0. -1.
    9900018    1    1    2    0    0  0.29400589764E+02  0.10807315446E+03  0.11534906579E+03  0.18483718989E+03  0.91187600000E+02 0.  0.
<mgrwt>
<rscale>  0 0.13344616E+04</rscale>
<asrwt>0</asrwt>
<pdfrwt beam="1">  1        1 0.10923392E+00 0.13344616E+04</pdfrwt>
<pdfrwt beam="2">  1       -1 0.96464597E-01 0.13344616E+04</pdfrwt>
<totfact> 0.27038456E+01</totfact>
</mgrwt>
</event>
<event>
12    1  0.9599717E-013  0.1641916E+04  0.7818608E-02  0.9130938E-01
          2   -1    0    0  501    0  0.00000000000E+00  0.00000000000E+00  0.69781308144E+03  0.69781308144E+03  0.00000000000E+00 0. -1.
         -2   -1    0    0    0  501 -0.00000000000E+00 -0.00000000000E+00 -0.15490224531E+04  0.15490224531E+04  0.00000000000E+00 0.  1.
         23    2    1    2    0    0  0.79242566434E+02 -0.42054069776E+03 -0.18752664909E+03  0.47585770362E+03  0.90224426675E+02 0.  0.
    9900016    2    1    2    0    0 -0.13032481418E+03  0.50474607764E+03 -0.50453548195E+03  0.10145799516E+04  0.70926952959E+03 0.  0.
         23    2    4    4    0    0  0.13322436297E+03 -0.13030673031E+02  0.88267571153E+02  0.18453995736E+03  0.91352626758E+02 0.  0.
        -15    1    3    3    0    0  0.31224891789E+02 -0.63717650690E+02 -0.23672070648E+01  0.70996736165E+02  0.00000000000E+00 0.  1.
        -15    1    5    5    0    0  0.38849114809E+02  0.38353715596E+02  0.30811059711E+02  0.62686383067E+02  0.00000000000E+00 0. -1.
         15    1    5    5    0    0  0.94375248160E+02 -0.51384388628E+02  0.57456511442E+02  0.12185357429E+03  0.00000000000E+00 0.  1.
         15    1    3    3    0    0  0.48017674645E+02 -0.35682304707E+03 -0.18515944203E+03  0.40486096746E+03  0.00000000000E+00 0. -1.
        -16    1    1    2    0    0  0.26287396135E+03  0.22990241018E+03 -0.60249704674E+02  0.35438378162E+03  0.00000000000E+00 0.  1.
         16    1    4    4    0    0 -0.26354917715E+03  0.51777675067E+03 -0.59280305311E+03  0.83003999427E+03  0.00000000000E+00 0. -1.
    9900018    1    1    2    0    0 -0.21179171360E+03 -0.31410779005E+03 -0.98897535946E+02  0.40201409768E+03  0.91187600000E+02 0.  0.
<mgrwt>
<rscale>  0 0.11795606E+04</rscale>
<asrwt>0</asrwt>
<pdfrwt beam="1">  1        2 0.10735586E+00 0.16419159E+04</pdfrwt>
<pdfrwt beam="2">  1       -2 0.23831115E+00 0.16419159E+04</pdfrwt>
<totfact> 0.29523382E+00</totfact>
</mgrwt>
</event>
<event>
12    1  0.9599717E-013  0.1394571E+04  0.7818608E-02  0.9343242E-01
         -3   -1    0    0    0  501 -0.00000000000E+00  0.00000000000E+00  0.28497054724E+04  0.28497054724E+04  0.00000000000E+00 0.  1.
          3   -1    0    0  501    0  0.00000000000E+00 -0.00000000000E+00 -0.27083392600E+03  0.27083392600E+03  0.00000000000E+00 0. -1.
         23    2    1    2    0    0  0.12700220990E+03 -0.28670417778E+03  0.26709337269E+03  0.42069741969E+03  0.85548830025E+02 0.  0.
    9900016    2    1    2    0    0 -0.57659149510E+02  0.57212403381E+02  0.22146271235E+04  0.23299656212E+04  0.71942245095E+03 0.  0.
         23    2    4    4    0    0 -0.22496062581E+03  0.18219215024E+03  0.39377799938E+03  0.49718051265E+03  0.91247392218E+02 0.  0.
        -15    1    5    5    0    0 -0.15276401614E+03  0.16856275534E+03  0.32374615826E+03  0.39567893816E+03  0.00000000000E+00 0.  1.
        -15    1    3    3    0    0  0.10072123921E+03 -0.21589634161E+03  0.24561845722E+03  0.34217601447E+03  0.00000000000E+00 0. -1.
         15    1    3    3    0    0  0.26280970690E+02 -0.70807836164E+02  0.21474915472E+02  0.78521405217E+02  0.00000000000E+00 0.  1.
         15    1    5    5    0    0 -0.72196609667E+02  0.13629394905E+02  0.70031841115E+02  0.10150157449E+03  0.00000000000E+00 0. -1.
        -16    1    1    2    0    0 -0.11997407076E+03  0.61157858390E+02  0.10641214648E+03  0.17163218292E+03  0.00000000000E+00 0.  1.
         16    1    4    4    0    0  0.16730147630E+03 -0.12497974686E+03  0.18208491241E+04  0.18327851085E+04  0.00000000000E+00 0. -1.
    9900018    1    1    2    0    0  0.50631010362E+02  0.16833391601E+03 -0.92610962692E+01  0.19824417466E+03  0.91187600000E+02 0.  0.
<mgrwt>
<rscale>  0 0.96897564E+03</rscale>
<asrwt>0</asrwt>
<pdfrwt beam="1">  1        3 0.41666760E-01 0.13945710E+04</pdfrwt>
<pdfrwt beam="2">  1       -3 0.43841620E+00 0.13945710E+04</pdfrwt>
<totfact> 0.95342960E-02</totfact>
</mgrwt>
</event>
<event>
12    1  0.9599717E-013  0.1467155E+04  0.7818608E-02  0.9374697E-01
         -2   -1    0    0    0  501 -0.00000000000E+00  0.00000000000E+00  0.11787375601E+04  0.11787375601E+04  0.00000000000E+00 0. -1.
          2   -1    0    0  501    0  0.00000000000E+00 -0.00000000000E+00 -0.74173131167E+03  0.74173131167E+03  0.00000000000E+00 0.  1.
         23    2    1    2    0    0  0.22693717941E+03  0.39670225302E+02 -0.20142525346E+03  0.32042532299E+03  0.95005498326E+02 0.  0.
    9900016    2    1    2    0    0 -0.18319782769E+03  0.17784409726E+02  0.52702730982E+03  0.92689314779E+03  0.73992931610E+03 0.  0.
         23    2    4    4    0    0  0.15608379428E+02  0.35232578461E+03  0.31929990366E+03  0.48576673193E+03  0.98182530849E+02 0.  0.
        -15    1    5    5    0    0  0.44113453349E+02  0.24121687903E+03  0.25705733529E+03  0.35526054259E+03  0.00000000000E+00 0.  1.
        -15    1    3    3    0    0  0.27779379740E+02  0.13920784102E+02  0.60786132941E+01  0.31661201940E+02  0.00000000000E+00 0.  1.
         15    1    3    3    0    0  0.19915779967E+03  0.25749441201E+02 -0.20750386675E+03  0.28876412105E+03  0.00000000000E+00 0. -1.
         15    1    5    5    0    0 -0.28505073921E+02  0.11110890558E+03  0.62242568363E+02  0.13050618934E+03  0.00000000000E+00 0. -1.
        -16    1    4    4    0    0 -0.19880620712E+03 -0.33454137489E+03  0.20772740617E+03  0.44112641586E+03  0.00000000000E+00 0.  1.
         16    1    1    2    0    0 -0.25817693129E+03 -0.18558141016E+03  0.21921835982E+03  0.38620263713E+03  0.00000000000E+00 0. -1.
    9900018    1    1    2    0    0  0.21443757957E+03  0.12812677513E+03 -0.10781416773E+03  0.28694776388E+03  0.91187600000E+02 0.  0.
<mgrwt>
<rscale>  0 0.94187600E+03</rscale>
<asrwt>0</asrwt>
<pdfrwt beam="1">  1        2 0.11411251E+00 0.14671553E+04</pdfrwt>
<pdfrwt beam="2">  1       -2 0.18134424E+00 0.14671553E+04</pdfrwt>
<totfact> 0.64738840E+00</totfact>
</mgrwt>
</event>
<event>
12    1  0.9599717E-013  0.1436945E+04  0.7818608E-02  0.9480378E-01
         -1   -1    0    0    0  501 -0.00000000000E+00  0.00000000000E+00  0.11177504197E+04  0.11177504197E+04  0.00000000000E+00 0.  1.
          1   -1    0    0  501    0  0.00000000000E+00 -0.00000000000E+00 -0.64381704758E+03  0.64381704758E+03  0.00000000000E+00 0. -1.
         23    2    1    2    0    0  0.13430657886E+03  0.83742503433E+02 -0.10738863154E+03  0.21148828425E+03  0.90243626841E+02 0.  0.
    9900016    2    1    2    0    0  0.30231131541E+03  0.27931485745E+01  0.83374339290E+00  0.74899282274E+03  0.68526609451E+03 0.  0.
         23    2    4    4    0    0 -0.86622202780E+02 -0.22552076452E+03 -0.11669509790E+03  0.28293536596E+03  0.89842385274E+02 0.  0.
        -15    1    3    3    0    0 -0.10215970591E+01  0.27236251012E+02  0.37086327691E+01  0.27506562612E+02  0.00000000000E+00 0.  1.
        -15    1    5    5    0    0 -0.86712970104E+02 -0.13352740303E+03 -0.42600900511E+02  0.16481366226E+03  0.00000000000E+00 0.  1.
         15    1    5    5    0    0  0.90767323824E-01 -0.91993361484E+02 -0.74094197392E+02  0.11812170369E+03  0.00000000000E+00 0. -1.
         15    1    3    3    0    0  0.13532817592E+03  0.56506252421E+02 -0.11109726431E+03  0.18398172164E+03  0.00000000000E+00 0. -1.
        -16    1    1    2    0    0 -0.38588508092E+03  0.28066847488E+02  0.47935742351E+03  0.61601833015E+03  0.00000000000E+00 0.  1.
         16    1    4    4    0    0  0.38893351819E+03  0.22831391309E+03  0.11752884130E+03  0.46605745678E+03  0.00000000000E+00 0. -1.
    9900018    1    1    2    0    0 -0.50732813350E+02 -0.11460249950E+03  0.10113083676E+03  0.18506803013E+03  0.91187600000E+02 0.  0.
<mgrwt>
<rscale>  0 0.85746045E+03</rscale>
<asrwt>0</asrwt>
<pdfrwt beam="1">  1        1 0.99048777E-01 0.14369447E+04</pdfrwt>
<pdfrwt beam="2">  1       -1 0.17196160E+00 0.14369447E+04</pdfrwt>
<totfact> 0.71140531E+00</totfact>
</mgrwt>
</event>
<event>
12    1  0.9599717E-013  0.1348566E+04  0.7818608E-02  0.9619028E-01
         -2   -1    0    0    0  501 -0.00000000000E+00  0.00000000000E+00  0.21844910521E+03  0.21844910521E+03  0.00000000000E+00 0. -1.
          2   -1    0    0  501    0  0.00000000000E+00 -0.00000000000E+00 -0.26483448093E+04  0.26483448093E+04  0.00000000000E+00 0.  1.
         23    2    1    2    0    0 -0.31474113417E+02 -0.95158208584E+02 -0.81919309414E+02  0.15909697531E+03  0.92495242150E+02 0.  0.
    9900016    2    1    2    0    0 -0.54525844785E+02  0.25244750572E+03 -0.99937614084E+03  0.12499930288E+04  0.70500148255E+03 0.  0.
         23    2    4    4    0    0  0.11494358747E+02  0.24777596136E+03 -0.16053092210E+02  0.26444510583E+03  0.90268847980E+02 0.  0.
        -15    1    3    3    0    0  0.19093822463E+02 -0.78350716208E+02 -0.63744612551E+02  0.10279486571E+03  0.00000000000E+00 0. -1.
        -15    1    5    5    0    0 -0.87856466993E+01  0.12170535405E+03  0.34974649896E+02  0.12693544394E+03  0.00000000000E+00 0. -1.
         15    1    3    3    0    0 -0.50567935880E+02 -0.16807492375E+02 -0.18174696863E+02  0.56302109598E+02  0.00000000000E+00 0.  1.
         15    1    5    5    0    0  0.20280005446E+02  0.12607060731E+03 -0.51027742107E+02  0.13750966189E+03  0.00000000000E+00 0.  1.
        -16    1    1    2    0    0 -0.13276237529E+03 -0.23684466655E+03 -0.94240518185E+03  0.98073889040E+03  0.00000000000E+00 0.  1.
         16    1    4    4    0    0 -0.66020203532E+02  0.46715443575E+01 -0.98332304863E+03  0.98554792302E+03  0.00000000000E+00 0. -1.
    9900018    1    1    2    0    0  0.21876233349E+03  0.79555369414E+02 -0.40619507201E+03  0.47696501997E+03  0.91187600000E+02 0.  0.
<mgrwt>
<rscale>  0 0.76049497E+03</rscale>
<asrwt>0</asrwt>
<pdfrwt beam="1">  1        2 0.40743763E+00 0.13485657E+04</pdfrwt>
<pdfrwt beam="2">  1       -2 0.33607558E-01 0.13485657E+04</pdfrwt>
<totfact> 0.23150396E+01</totfact>
</mgrwt>
</event>
<event>
12    1  0.9599717E-013  0.1344077E+04  0.7818608E-02  0.9564055E-01
          2   -1    0    0  501    0  0.00000000000E+00  0.00000000000E+00  0.23124467411E+04  0.23124467411E+04  0.00000000000E+00 0. -1.
         -2   -1    0    0    0  501 -0.00000000000E+00 -0.00000000000E+00 -0.24664373963E+03  0.24664373963E+03  0.00000000000E+00 0.  1.
         23    2    1    2    0    0  0.86918743730E+02 -0.10904954417E+03  0.22677363383E+03  0.28124702903E+03  0.90702476476E+02 0.  0.
    9900016    2    1    2    0    0  0.14647596200E+03  0.25614244014E+03  0.94759937153E+03  0.12222317560E+04  0.71333143717E+03 0.  0.
         23    2    4    4    0    0  0.17427218535E+03 -0.17526488828E+03  0.64123181583E+03  0.69237706623E+03  0.84375260313E+02 0.  0.
        -15    1    3    3    0    0  0.59240162670E+02 -0.12137636793E+03  0.19628357841E+03  0.23826217224E+03  0.00000000000E+00 0.  1.
        -15    1    5    5    0    0  0.49430660150E+02 -0.10614282556E+03  0.32468289437E+03  0.34515021582E+03  0.00000000000E+00 0.  1.
         15    1    3    3    0    0  0.27678581060E+02  0.12326823761E+02  0.30490055421E+02  0.42984856788E+02  0.00000000000E+00 0. -1.
         15    1    5    5    0    0  0.12484152520E+03 -0.69122062720E+02  0.31654892146E+03  0.34722685041E+03  0.00000000000E+00 0. -1.
        -16    1    4    4    0    0 -0.27796223349E+02  0.43140732841E+03  0.30636755570E+03  0.52985468973E+03  0.00000000000E+00 0.  1.
         16    1    1    2    0    0 -0.10141276970E+03  0.90052704048E+02  0.69569335848E+03  0.70879001714E+03  0.00000000000E+00 0. -1.
    9900018    1    1    2    0    0 -0.13198193603E+03 -0.23714560001E+03  0.19573663763E+03  0.34682167860E+03  0.91187600000E+02 0.  0.
<mgrwt>
<rscale>  0 0.79721641E+03</rscale>
<asrwt>0</asrwt>
<pdfrwt beam="1">  1        2 0.35576102E+00 0.13440766E+04</pdfrwt>
<pdfrwt beam="2">  1       -2 0.37945192E-01 0.13440766E+04</pdfrwt>
<totfact> 0.28610972E+01</totfact>
</mgrwt>
</event>
<event>
12    1  0.9599717E-013  0.1807854E+04  0.7818608E-02  0.9047729E-01
         -2   -1    0    0    0  501 -0.00000000000E+00  0.00000000000E+00  0.58124978201E+03  0.58124978201E+03  0.00000000000E+00 0.  1.
          2   -1    0    0  501    0  0.00000000000E+00 -0.00000000000E+00 -0.22461067547E+04  0.22461067547E+04  0.00000000000E+00 0. -1.
         23    2    1    2    0    0 -0.20027000465E+03  0.39319178541E+03 -0.51751513020E+03  0.68615826606E+03  0.91013192612E+02 0.  0.
    9900016    2    1    2    0    0  0.59127551863E+02 -0.40635403111E+03 -0.11218544011E+04  0.13851608705E+04  0.70106609813E+03 0.  0.
         23    2    4    4    0    0  0.17849980332E+03  0.14642646095E+03 -0.34860638674E+03  0.42717939964E+03  0.87481074223E+02 0.  0.
        -15    1    3    3    0    0 -0.12179364322E+03  0.25303433567E+03 -0.39248540310E+03  0.48260217385E+03  0.00000000000E+00 0. -1.
        -15    1    5    5    0    0  0.17904651255E+03  0.10932850792E+03 -0.29706767230E+03  0.36367509982E+03  0.00000000000E+00 0.  1.
         15    1    3    3    0    0 -0.78476361425E+02  0.14015744974E+03 -0.12502972710E+03  0.20355609222E+03  0.00000000000E+00 0.  1.
         15    1    5    5    0    0 -0.54670922443E+00  0.37097953032E+02 -0.51538714439E+02  0.63504299824E+02  0.00000000000E+00 0. -1.
        -16    1    4    4    0    0 -0.11937225146E+03 -0.55278049206E+03 -0.77324801433E+03  0.95798147085E+03  0.00000000000E+00 0.  1.
         16    1    1    2    0    0  0.37465170252E+03  0.88272420528E+02 -0.20749341428E+03  0.43727501117E+03  0.00000000000E+00 0. -1.
    9900018    1    1    2    0    0 -0.23350924974E+03 -0.75110174826E+02  0.18200597287E+03  0.31876238898E+03  0.91187600000E+02 0.  0.
<mgrwt>
<rscale>  0 0.12773421E+04</rscale>
<asrwt>0</asrwt>
<pdfrwt beam="1">  1        2 0.34555488E+00 0.18078542E+04</pdfrwt>
<pdfrwt beam="2">  1       -2 0.89423044E-01 0.18078542E+04</pdfrwt>
<totfact> 0.48713008E+00</totfact>
</mgrwt>
</event>
<event>
12    1  0.9599717E-013  0.1144636E+04  0.7818608E-02  0.9436500E-01
         -2   -1    0    0    0  501 -0.00000000000E+00  0.00000000000E+00  0.62789368504E+03  0.62789368504E+03  0.00000000000E+00 0.  1.
          2   -1    0    0  501    0  0.00000000000E+00 -0.00000000000E+00 -0.10698725429E+04  0.10698725429E+04  0.00000000000E+00 0. -1.
         23    2    1    2    0    0 -0.33129327327E+03 -0.24284196856E+03  0.98069589423E+02  0.43212615145E+03  0.91585543568E+02 0.  0.
    9900016    2    1    2    0    0  0.10220751571E+03  0.14421349783E+03 -0.39006362134E+03  0.81864552481E+03  0.69770119491E+03 0.  0.
         23    2    4    4    0    0  0.80152562571E+02  0.33312977063E+03 -0.48874005780E+03  0.60437275893E+03  0.94866802801E+02 0.  0.
        -15    1    5    5    0    0 -0.52929863362E+01  0.16243823769E+03 -0.25783359605E+03  0.30478247984E+03  0.00000000000E+00 0. -1.
        -15    1    3    3    0    0 -0.12455264428E+03 -0.13183179068E+03  0.75265131745E+02  0.19636145826E+03  0.00000000000E+00 0.  1.
         15    1    3    3    0    0 -0.20674062899E+03 -0.11101017788E+03  0.22804457678E+02  0.23576469319E+03  0.00000000000E+00 0. -1.
         15    1    5    5    0    0  0.85445548908E+02  0.17069153294E+03 -0.23090646175E+03  0.29959027909E+03  0.00000000000E+00 0.  1.
        -16    1    4    4    0    0  0.22054953137E+02 -0.18891627280E+03  0.98676436458E+02  0.21427276588E+03  0.00000000000E+00 0.  1.
         16    1    1    2    0    0  0.25355789088E+03 -0.18200607602E+02 -0.32465185314E+02  0.25627495860E+03  0.00000000000E+00 0. -1.
    9900018    1    1    2    0    0 -0.24472133328E+02  0.11682907834E+03 -0.11751964058E+03  0.19071959304E+03  0.91187600000E+02 0.  0.
<mgrwt>
<rscale>  0 0.89131803E+03</rscale>
<asrwt>0</asrwt>
<pdfrwt beam="1">  1        2 0.16459578E+00 0.11446364E+04</pdfrwt>
<pdfrwt beam="2">  1       -2 0.96599029E-01 0.11446364E+04</pdfrwt>
<totfact> 0.20053556E+01</totfact>
</mgrwt>
</event>
<event>
12    1  0.9599717E-013  0.1223564E+04  0.7818608E-02  0.9434094E-01
          2   -1    0    0  501    0  0.00000000000E+00  0.00000000000E+00  0.54350315729E+03  0.54350315729E+03  0.00000000000E+00 0. -1.
         -2   -1    0    0    0  501 -0.00000000000E+00 -0.00000000000E+00 -0.13227145639E+04  0.13227145639E+04  0.00000000000E+00 0.  1.
         23    2    1    2    0    0 -0.32832501244E+03 -0.67912540388E+02  0.97571704495E+02  0.36094092118E+03  0.91371134009E+02 0.  0.
    9900016    2    1    2    0    0  0.15031944379E+03 -0.24580646307E+03 -0.53348691015E+03  0.92257606550E+03  0.69535714627E+03 0.  0.
         23    2    4    4    0    0  0.34143897652E+03 -0.10203133915E+03 -0.32470072695E+02  0.36740417008E+03  0.83309961689E+02 0.  0.
        -15    1    5    5    0    0  0.19384040270E+03 -0.98258088336E+02 -0.60081905676E+01  0.21740481135E+03  0.00000000000E+00 0. -1.
        -15    1    3    3    0    0 -0.14225470544E+03 -0.96097565177E+01 -0.71263661648E+00  0.14258070168E+03  0.00000000000E+00 0. -1.
         15    1    3    3    0    0 -0.18607030700E+03 -0.58302783870E+02  0.98284341111E+02  0.21836021950E+03  0.00000000000E+00 0.  1.
         15    1    5    5    0    0  0.14759857382E+03 -0.37732508138E+01 -0.26461882128E+02  0.14999935873E+03  0.00000000000E+00 0.  1.
        -16    1    4    4    0    0 -0.19111953273E+03 -0.14377512392E+03 -0.50101683746E+03  0.55517189542E+03  0.00000000000E+00 0.  1.
         16    1    1    2    0    0  0.40924845407E+02  0.30198273029E+03 -0.24091141413E+03  0.38846714382E+03  0.00000000000E+00 0. -1.
    9900018    1    1    2    0    0  0.13708072324E+03  0.11736273165E+02 -0.10238478685E+03  0.19423359072E+03  0.91187600000E+02 0.  0.
<mgrwt>
<rscale>  0 0.89322247E+03</rscale>
<asrwt>0</asrwt>
<pdfrwt beam="1">  1        2 0.83615871E-01 0.12235643E+04</pdfrwt>
<pdfrwt beam="2">  1       -2 0.20349455E+00 0.12235643E+04</pdfrwt>
<totfact> 0.68894173E+00</totfact>
</mgrwt>
</event>
<event>
12    1  0.9599717E-013  0.1460440E+04  0.7818608E-02  0.9490141E-01
         -1   -1    0    0    0  501 -0.00000000000E+00  0.00000000000E+00  0.75337920104E+03  0.75337920104E+03  0.00000000000E+00 0.  1.
          1   -1    0    0  501    0  0.00000000000E+00 -0.00000000000E+00 -0.10341825541E+04  0.10341825541E+04  0.00000000000E+00 0. -1.
         23    2    1    2    0    0  0.19992080437E+02 -0.14281240314E+03  0.18970637989E+03  0.25320040027E+03  0.85597116516E+02 0.  0.
    9900016    2    1    2    0    0 -0.10284521060E+03  0.24506100152E+03 -0.51598212099E+03  0.91759706894E+03  0.71071428854E+03 0.  0.
         23    2    4    4    0    0  0.35763124242E+02  0.25485558651E+03  0.96415289475E+02  0.28963306302E+03  0.91438679562E+02 0.  0.
        -15    1    5    5    0    0  0.72718739355E+01  0.11390816989E+03  0.90583611313E+02  0.14571664955E+03  0.00000000000E+00 0.  1.
        -15    1    3    3    0    0  0.15433221829E+01 -0.26706677470E+02  0.10485947175E+03  0.10821800811E+03  0.00000000000E+00 0.  1.
         15    1    5    5    0    0  0.28491250307E+02  0.14094741662E+03  0.58316781618E+01  0.14391641347E+03  0.00000000000E+00 0. -1.
         15    1    3    3    0    0  0.18448758254E+02 -0.11610572567E+03  0.84846908142E+02  0.14498239216E+03  0.00000000000E+00 0. -1.
        -16    1    1    2    0    0 -0.20334562703E+03 -0.67295802274E+02 -0.14565712757E+03  0.25902541930E+03  0.00000000000E+00 0.  1.
         16    1    4    4    0    0 -0.13860833484E+03 -0.97945849888E+01 -0.61239741046E+03  0.62796400592E+03  0.00000000000E+00 0. -1.
    9900018    1    1    2    0    0  0.28619875719E+03 -0.34952796109E+02  0.19112951559E+03  0.35773886663E+03  0.91187600000E+02 0.  0.
<mgrwt>
<rscale>  0 0.85014589E+03</rscale>
<asrwt>0</asrwt>
<pdfrwt beam="1">  1        1 0.15910501E+00 0.14604401E+04</pdfrwt>
<pdfrwt beam="2">  1       -1 0.11590449E+00 0.14604401E+04</pdfrwt>
<totfact> 0.92488368E+00</totfact>
</mgrwt>
</event>
<event>
12    1  0.9599717E-013  0.1144445E+04  0.7818608E-02  0.9509424E-01
          2   -1    0    0  501    0  0.00000000000E+00  0.00000000000E+00  0.19019430309E+04  0.19019430309E+04  0.00000000000E+00 0. -1.
         -2   -1    0    0    0  501 -0.00000000000E+00 -0.00000000000E+00 -0.28603076158E+03  0.28603076158E+03  0.00000000000E+00 0.  1.
         23    2    1    2    0    0 -0.19838304049E+03  0.24192596585E+03  0.28656304274E+03  0.43385753706E+03  0.90719244367E+02 0.  0.
    9900016    2    1    2    0    0  0.88050072721E+00 -0.17306892554E+03  0.96834570751E+03  0.12145230618E+04  0.71233365079E+03 0.  0.
         23    2    4    4    0    0  0.30457406327E+03 -0.18601076995E+03  0.76256131328E+03  0.84744747258E+03  0.96447372757E+02 0.  0.
        -15    1    3    3    0    0 -0.40393873628E+01  0.49241240562E+02  0.65557041829E+02  0.82089841976E+02  0.00000000000E+00 0.  1.
        -15    1    5    5    0    0  0.16755692209E+03 -0.80452126622E+02  0.49605048656E+03  0.52973007470E+03  0.00000000000E+00 0. -1.
         15    1    3    3    0    0 -0.19434365313E+03  0.19268472529E+03  0.22100600091E+03  0.35176769509E+03  0.00000000000E+00 0. -1.
         15    1    5    5    0    0  0.13701714118E+03 -0.10555864333E+03  0.26651082672E+03  0.31771739789E+03  0.00000000000E+00 0.  1.
        -16    1    4    4    0    0 -0.30369356255E+03  0.12941844412E+02  0.20578439423E+03  0.36707558918E+03  0.00000000000E+00 0.  1.
         16    1    1    2    0    0  0.13136953005E+03 -0.11409750053E+02 -0.24288705616E+02  0.13408235171E+03  0.00000000000E+00 0. -1.
    9900018    1    1    2    0    0  0.66133009718E+02 -0.57447290255E+02  0.38529222467E+03  0.40551084193E+03  0.91187600000E+02 0.  0.
<mgrwt>
<rscale>  0 0.83592591E+03</rscale>
<asrwt>0</asrwt>
<pdfrwt beam="1">  1        2 0.29260661E+00 0.11444450E+04</pdfrwt>
<pdfrwt beam="2">  1       -2 0.44004734E-01 0.11444450E+04</pdfrwt>
<totfact> 0.36746281E+01</totfact>
</mgrwt>
</event>
<event>
12    1  0.9599717E-013  0.1606540E+04  0.7818608E-02  0.9342481E-01
         -1   -1    0    0    0  501 -0.00000000000E+00  0.00000000000E+00  0.76126677759E+03  0.76126677759E+03  0.00000000000E+00 0.  1.
          1   -1    0    0  501    0  0.00000000000E+00 -0.00000000000E+00 -0.12887085367E+04  0.12887085367E+04  0.00000000000E+00 0. -1.
         23    2    1    2    0    0  0.19050815069E+03 -0.33232522392E+02  0.19458472986E+03  0.28864229730E+03  0.89740752568E+02 0.  0.
    9900016    2    1    2    0    0  0.84932322665E+02 -0.24347547814E+03 -0.63323394530E+03  0.94597498468E+03  0.65375043730E+03 0.  0.
         23    2    4    4    0    0 -0.10253224080E+03  0.68646975606E+02  0.58090303438E+02  0.16463472232E+03  0.92221693641E+02 0.  0.
        -15    1    3    3    0    0  0.50403971584E+02  0.24887733098E+02  0.26217913298E+02  0.62026918253E+02  0.00000000000E+00 0.  1.
        -15    1    5    5    0    0 -0.44024420860E+02  0.66811057341E+01  0.65377123948E+02  0.79100917451E+02  0.00000000000E+00 0.  1.
         15    1    5    5    0    0 -0.58507819935E+02  0.61965869872E+02 -0.72868205091E+01  0.85533804871E+02  0.00000000000E+00 0. -1.
         15    1    3    3    0    0  0.14010417911E+03 -0.58120255490E+02  0.16836681656E+03  0.22661537905E+03  0.00000000000E+00 0. -1.
        -16    1    1    2    0    0  0.14900815999E+03  0.54014786422E+01 -0.23912602608E+03  0.28180465586E+03  0.00000000000E+00 0.  1.
         16    1    4    4    0    0  0.18746456346E+03 -0.31212245375E+03 -0.69132424874E+03  0.78134026235E+03  0.00000000000E+00 0. -1.
    9900018    1    1    2    0    0 -0.42444863335E+03  0.27130652189E+03  0.15033348243E+03  0.53355337644E+03  0.91187600000E+02 0.  0.
<mgrwt>
<rscale>  0 0.96964294E+03</rscale>
<asrwt>0</asrwt>
<pdfrwt beam="1">  1        1 0.19826285E+00 0.16065403E+04</pdfrwt>
<pdfrwt beam="2">  1       -1 0.11711797E+00 0.16065403E+04</pdfrwt>
<totfact> 0.57579154E+00</totfact>
</mgrwt>
</event>
<event>
12    1  0.9599717E-013  0.1774629E+04  0.7818608E-02  0.9358726E-01
         -2   -1    0    0    0  501 -0.00000000000E+00  0.00000000000E+00  0.41660717277E+03  0.41660717277E+03  0.00000000000E+00 0.  1.
          2   -1    0    0  501    0  0.00000000000E+00 -0.00000000000E+00 -0.22237836107E+04  0.22237836107E+04  0.00000000000E+00 0. -1.
         23    2    1    2    0    0  0.11933161576E+03 -0.16476351184E+02 -0.16667876064E+03  0.22366977118E+03  0.87948010928E+02 0.  0.
    9900016    2    1    2    0    0 -0.32436137735E+03  0.12822918101E+03 -0.13843879570E+04  0.15956324268E+04  0.71264282787E+03 0.  0.
         23    2    4    4    0    0 -0.18039636688E+03  0.19699671331E+02 -0.26542764649E+01  0.20218614419E+03  0.89113778312E+02 0.  0.
        -15    1    3    3    0    0  0.90697298206E+02  0.19619742161E+02 -0.68893786797E+02  0.11557373423E+03  0.00000000000E+00 0.  1.
        -15    1    5    5    0    0 -0.15013952907E+03  0.27921399327E+02 -0.35491794976E+02  0.15678376906E+03  0.00000000000E+00 0. -1.
         15    1    3    3    0    0  0.28634317552E+02 -0.36096093345E+02 -0.97784973841E+02  0.10809603696E+03  0.00000000000E+00 0. -1.
         15    1    5    5    0    0 -0.30256837804E+02 -0.82217279964E+01  0.32837518511E+02  0.45402375126E+02  0.00000000000E+00 0.  1.
        -16    1    4    4    0    0 -0.14396501047E+03  0.10852950968E+03 -0.13817336805E+04  0.13934462826E+04  0.00000000000E+00 0.  1.
         16    1    1    2    0    0  0.27352086478E+03 -0.33921041654E+03 -0.34050486686E+03  0.55301079060E+03  0.00000000000E+00 0. -1.
    9900018    1    1    2    0    0 -0.68491103184E+02  0.22745758671E+03  0.84395146521E+02  0.26807779490E+03  0.91187600000E+02 0.  0.
<mgrwt>
<rscale>  0 0.95551615E+03</rscale>
<asrwt>0</asrwt>
<pdfrwt beam="1">  1        2 0.34212055E+00 0.17746289E+04</pdfrwt>
<pdfrwt beam="2">  1       -2 0.64093412E-01 0.17746289E+04</pdfrwt>
<totfact> 0.10627363E+01</totfact>
</mgrwt>
</event>
<event>
12    1  0.9599717E-013  0.1042977E+04  0.7818608E-02  0.9575329E-01
          1   -1    0    0  501    0  0.00000000000E+00  0.00000000000E+00  0.77456009417E+03  0.77456009417E+03  0.00000000000E+00 0. -1.
         -1   -1    0    0    0  501 -0.00000000000E+00 -0.00000000000E+00 -0.65810093376E+03  0.65810093376E+03  0.00000000000E+00 0.  1.
         23    2    1    2    0    0  0.32930124174E+03 -0.27225964628E+02 -0.12062349516E+03  0.36307744668E+03  0.89970238097E+02 0.  0.
    9900016    2    1    2    0    0 -0.15173402985E+03 -0.37771430537E+02  0.10746563521E+03  0.68301644752E+03  0.65613467219E+03 0.  0.
         23    2    4    4    0    0  0.62043389366E+02 -0.19935412801E+03 -0.18015829809E+03  0.28990414792E+03  0.89420087754E+02 0.  0.
        -15    1    3    3    0    0  0.46117278778E+02 -0.31735902176E+02 -0.39346651033E+02  0.68426090319E+02  0.00000000000E+00 0. -1.
        -15    1    5    5    0    0  0.50994496015E+02 -0.14255680281E+03 -0.72912657688E+02  0.16804504248E+03  0.00000000000E+00 0. -1.
         15    1    3    3    0    0  0.28318396296E+03  0.45099375485E+01 -0.81276844129E+02  0.29465135636E+03  0.00000000000E+00 0.  1.
         15    1    5    5    0    0  0.11048893351E+02 -0.56797325198E+02 -0.10724564040E+03  0.12185910544E+03  0.00000000000E+00 0.  1.
        -16    1    4    4    0    0 -0.21377741922E+03  0.16158269747E+03  0.28762393330E+03  0.39311229960E+03  0.00000000000E+00 0.  1.
         16    1    1    2    0    0 -0.20569627449E+03  0.29675972077E+02  0.17824163368E+03  0.27379134507E+03  0.00000000000E+00 0. -1.
    9900018    1    1    2    0    0  0.28129062606E+02  0.35321423087E+02 -0.48624613318E+02  0.11277578865E+03  0.91187600000E+02 0.  0.
<mgrwt>
<rscale>  0 0.78950848E+03</rscale>
<asrwt>0</asrwt>
<pdfrwt beam="1">  1        1 0.11916309E+00 0.10429769E+04</pdfrwt>
<pdfrwt beam="2">  1       -1 0.10124630E+00 0.10429769E+04</pdfrwt>
<totfact> 0.21542805E+01</totfact>
</mgrwt>
</event>
<event>
12    1  0.9599717E-013  0.1885186E+04  0.7818608E-02  0.8662266E-01
         -2   -1    0    0    0  501 -0.00000000000E+00  0.00000000000E+00  0.96675942774E+03  0.96675942774E+03  0.00000000000E+00 0.  1.
          2   -1    0    0  501    0  0.00000000000E+00 -0.00000000000E+00 -0.91903072450E+03  0.91903072450E+03  0.00000000000E+00 0. -1.
         23    2    1    2    0    0 -0.41006304652E+03  0.31488784038E+03 -0.38932559085E+03  0.65340505327E+03  0.89764657925E+02 0.  0.
    9900016    2    1    2    0    0  0.46256376921E+03 -0.34612169401E+03  0.29623469748E+03  0.95868414680E+03  0.70537566565E+03 0.  0.
         23    2    4    4    0    0  0.23550913704E+03 -0.21535586746E+03  0.51814742323E+03  0.61532025058E+03  0.91101895121E+02 0.  0.
        -15    1    3    3    0    0 -0.29760434578E+02  0.55485075964E+02 -0.31851045195E+02  0.70560372739E+02  0.00000000000E+00 0. -1.
        -15    1    5    5    0    0  0.49823590013E+02 -0.21418366742E+02  0.15120241792E+03  0.16063408026E+03  0.00000000000E+00 0. -1.
         15    1    5    5    0    0  0.18568554703E+03 -0.19393750071E+03  0.36694500531E+03  0.45468617032E+03  0.00000000000E+00 0.  1.
         15    1    3    3    0    0 -0.38030261194E+03  0.25940276441E+03 -0.35747454566E+03  0.58284468054E+03  0.00000000000E+00 0.  1.
        -16    1    1    2    0    0  0.95762441473E+01  0.84846457082E+02 -0.20459610845E+01  0.85409669758E+02  0.00000000000E+00 0.  1.
         16    1    4    4    0    0  0.22705463216E+03 -0.13076582655E+03 -0.22191272575E+03  0.34336389623E+03  0.00000000000E+00 0. -1.
    9900018    1    1    2    0    0 -0.62076966834E+02 -0.53612603451E+02  0.14286555770E+03  0.18829128241E+03  0.91187600000E+02 0.  0.
<mgrwt>
<rscale>  0 0.18851861E+04</rscale>
<asrwt>0</asrwt>
<pdfrwt beam="1">  1        2 0.14138934E+00 0.18851861E+04</pdfrwt>
<pdfrwt beam="2">  1       -2 0.14873222E+00 0.18851861E+04</pdfrwt>
<totfact> 0.81782747E+00</totfact>
</mgrwt>
</event>
<event>
12    1  0.9599717E-013  0.1167112E+04  0.7818608E-02  0.9404400E-01
          2   -1    0    0  501    0  0.00000000000E+00  0.00000000000E+00  0.28068887059E+04  0.28068887059E+04  0.00000000000E+00 0. -1.
         -2   -1    0    0    0  501 -0.00000000000E+00 -0.00000000000E+00 -0.23220461732E+03  0.23220461732E+03  0.00000000000E+00 0.  1.
         23    2    1    2    0    0  0.92896547757E+01  0.43507356719E+03  0.78785902595E+03  0.90487362734E+03  0.93269127461E+02 0.  0.
    9900016    2    1    2    0    0 -0.19683697931E+03 -0.35438402431E+03  0.13410557088E+04  0.15674310172E+04  0.70290593002E+03 0.  0.
         23    2    4    4    0    0  0.22724899498E+03 -0.29412656902E+03  0.60995686763E+03  0.72009083163E+03  0.91273660530E+02 0.  0.
        -15    1    3    3    0    0 -0.91539939234E+01  0.38139322377E+03  0.62313703939E+03  0.73064653329E+03  0.00000000000E+00 0. -1.
        -15    1    5    5    0    0  0.31856274835E+02 -0.87564455392E+02  0.20606288053E+03  0.22615098237E+03  0.00000000000E+00 0. -1.
         15    1    3    3    0    0  0.18443648699E+02  0.53680343413E+02  0.16472198656E+03  0.17422709406E+03  0.00000000000E+00 0.  1.
         15    1    5    5    0    0  0.19539272015E+03 -0.20656211363E+03  0.40389398710E+03  0.49393984926E+03  0.00000000000E+00 0.  1.
        -16    1    4    4    0    0 -0.42408597429E+03 -0.60257455290E+02  0.73109884116E+03  0.84734018556E+03  0.00000000000E+00 0.  1.
         16    1    1    2    0    0 -0.12006959337E+02 -0.12202180930E+03  0.20140479734E+03  0.23579096974E+03  0.00000000000E+00 0. -1.
    9900018    1    1    2    0    0  0.19955428387E+03  0.41332266428E+02  0.24436455649E+03  0.33099770894E+03  0.91187600000E+02 0.  0.
<mgrwt>
<rscale>  0 0.91714477E+03</rscale>
<asrwt>0</asrwt>
<pdfrwt beam="1">  1        2 0.43182901E+00 0.11671118E+04</pdfrwt>
<pdfrwt beam="2">  1       -2 0.35723789E-01 0.11671118E+04</pdfrwt>
<totfact> 0.16861851E+01</totfact>
</mgrwt>
</event>
<event>
12    1  0.9599717E-013  0.1300258E+04  0.7818608E-02  0.9469055E-01
         -2   -1    0    0    0  501 -0.00000000000E+00  0.00000000000E+00  0.65115337673E+03  0.65115337673E+03  0.00000000000E+00 0.  1.
          2   -1    0    0  501    0  0.00000000000E+00 -0.00000000000E+00 -0.93796028225E+03  0.93796028225E+03  0.00000000000E+00 0. -1.
         23    2    1    2    0    0 -0.23449287245E+03 -0.45579037868E+02  0.73220663582E+01  0.25600357583E+03  0.91759807436E+02 0.  0.
    9900016    2    1    2    0    0  0.98592143895E+02  0.26878141901E+03 -0.11549003748E+03  0.78062035594E+03  0.71698419042E+03 0.  0.
         23    2    4    4    0    0 -0.22028510447E+03  0.32070260559E+03 -0.19906605571E+03  0.44690871401E+03  0.93404580403E+02 0.  0.
        -15    1    3    3    0    0 -0.19500536897E+03 -0.60231000037E+02  0.32895741380E+02  0.20672928456E+03  0.00000000000E+00 0.  1.
        -15    1    5    5    0    0 -0.19591089447E+03  0.28272899742E+03 -0.13717672598E+03  0.37031637650E+03  0.00000000000E+00 0.  1.
         15    1    3    3    0    0 -0.39487503471E+02  0.14651962169E+02 -0.25573675022E+02  0.49274291268E+02  0.00000000000E+00 0. -1.
         15    1    5    5    0    0 -0.24374209999E+02  0.37973608164E+02 -0.61889329732E+02  0.76592337507E+02  0.00000000000E+00 0. -1.
        -16    1    4    4    0    0  0.31887724836E+03 -0.51921186581E+02  0.83576018225E+02  0.33371164193E+03  0.00000000000E+00 0.  1.
         16    1    1    2    0    0  0.53984879804E+02 -0.29757814409E+03 -0.24995247052E+03  0.39235616040E+03  0.00000000000E+00 0. -1.
    9900018    1    1    2    0    0  0.81915848746E+02  0.74375762957E+02  0.71313536118E+02  0.16013356681E+03  0.91187600000E+02 0.  0.
<mgrwt>
<rscale>  0 0.86604251E+03</rscale>
<asrwt>0</asrwt>
<pdfrwt beam="1">  1        2 0.14430158E+00 0.13002579E+04</pdfrwt>
<pdfrwt beam="2">  1       -2 0.10017744E+00 0.13002579E+04</pdfrwt>
<totfact> 0.22176414E+01</totfact>
</mgrwt>
</event>
<event>
12    1  0.9599717E-013  0.1172222E+04  0.7818608E-02  0.9560694E-01
         -1   -1    0    0    0  501 -0.00000000000E+00  0.00000000000E+00  0.63856752308E+03  0.63856752308E+03  0.00000000000E+00 0.  1.
          1   -1    0    0  501    0  0.00000000000E+00 -0.00000000000E+00 -0.10755459391E+04  0.10755459391E+04  0.00000000000E+00 0. -1.
         23    2    1    2    0    0 -0.20780529926E+03 -0.11455411866E+03 -0.47802285481E+03  0.54117279070E+03  0.89757735952E+02 0.  0.
    9900016    2    1    2    0    0  0.37422283708E+03  0.10580278829E+03  0.12891636722E+03  0.87097347722E+03  0.76859508617E+03 0.  0.
         23    2    4    4    0    0  0.18641784485E+03  0.26867481799E+03 -0.24742785309E+03  0.41993801816E+03  0.90496551941E+02 0.  0.
        -15    1    5    5    0    0  0.12519394347E+03  0.10705104720E+03 -0.14206903914E+03  0.21752485392E+03  0.00000000000E+00 0.  1.
        -15    1    3    3    0    0 -0.49200282394E+02 -0.36994144288E+02 -0.22056596437E+03  0.22899471421E+03  0.00000000000E+00 0.  1.
         15    1    3    3    0    0 -0.15860501687E+03 -0.77559974374E+02 -0.25745689044E+03  0.31217807648E+03  0.00000000000E+00 0. -1.
         15    1    5    5    0    0  0.61223901380E+02  0.16162377079E+03 -0.10535881395E+03  0.20241316425E+03  0.00000000000E+00 0. -1.
        -16    1    4    4    0    0  0.18780499223E+03 -0.16287202971E+03  0.37634422031E+03  0.45103545905E+03  0.00000000000E+00 0.  1.
         16    1    1    2    0    0  0.11235467787E+02  0.74297364904E+02 -0.44619526956E+02  0.87391283054E+02  0.00000000000E+00 0. -1.
    9900018    1    1    2    0    0 -0.17765300560E+03 -0.65546034529E+02 -0.43252401460E+02  0.21457591120E+03  0.91187600000E+02 0.  0.
<mgrwt>
<rscale>  0 0.79953283E+03</rscale>
<asrwt>0</asrwt>
<pdfrwt beam="1">  1        1 0.16546860E+00 0.11722223E+04</pdfrwt>
<pdfrwt beam="2">  1       -1 0.98241158E-01 0.11722223E+04</pdfrwt>
<totfact> 0.12968518E+01</totfact>
</mgrwt>
</event>
<event>
12    1  0.9776463E-013  0.1682319E+04  0.7818608E-02  0.9097478E-01
         -2   -1    0    0    0  501 -0.00000000000E+00  0.00000000000E+00  0.88724588587E+03  0.88724588587E+03  0.00000000000E+00 0.  1.
          2   -1    0    0  501    0  0.00000000000E+00 -0.00000000000E+00 -0.14738811339E+04  0.14738811339E+04  0.00000000000E+00 0. -1.
         23    2    1    2    0    0 -0.17813224177E+03 -0.41644154254E+03 -0.49400792194E+03  0.67625970396E+03  0.90159338660E+02 0.  0.
    9900016    2    1    2    0    0 -0.21845184697E+03  0.97582859095E+02 -0.40890143440E+03  0.85116654105E+03  0.70713539985E+03 0.  0.
         23    2    4    4    0    0  0.10127026226E+03  0.69554005635E+02  0.14623925112E+03  0.20992631736E+03  0.87118967133E+02 0.  0.
        -15    1    3    3    0    0 -0.86168222067E+02 -0.28581788853E+03 -0.28073315972E+03  0.40979011075E+03  0.00000000000E+00 0. -1.
        -15    1    5    5    0    0  0.76060496561E+02  0.10117248275E+02  0.42436394078E+02  0.87683552574E+02  0.00000000000E+00 0.  1.
         15    1    3    3    0    0 -0.91964019700E+02 -0.13062365400E+03 -0.21327476222E+03  0.26646959321E+03  0.00000000000E+00 0.  1.
         15    1    5    5    0    0  0.25209765696E+02  0.59436757360E+02  0.10380285705E+03  0.12224276479E+03  0.00000000000E+00 0. -1.
        -16    1    4    4    0    0 -0.31972210922E+03  0.28028853460E+02 -0.55514068552E+03  0.64124022369E+03  0.00000000000E+00 0.  1.
         16    1    1    2    0    0  0.28774272284E+03 -0.87170200107E+02  0.14550530851E+01  0.30066033245E+03  0.00000000000E+00 0. -1.
    9900018    1    1    2    0    0  0.10884136590E+03  0.40602888355E+03  0.31481905523E+03  0.53304044231E+03  0.91187600000E+02 0.  0.
<mgrwt>
<rscale>  0 0.12177298E+04</rscale>
<asrwt>0</asrwt>
<pdfrwt beam="1">  1        2 0.22675094E+00 0.16823192E+04</pdfrwt>
<pdfrwt beam="2">  1       -2 0.13649937E+00 0.16823192E+04</pdfrwt>
<totfact> 0.47251893E+00</totfact>
</mgrwt>
</event>
<event>
12    1  0.9599717E-013  0.1222347E+04  0.7818608E-02  0.9593586E-01
         -2   -1    0    0    0  501 -0.00000000000E+00  0.00000000000E+00  0.39695213626E+03  0.39695213626E+03  0.00000000000E+00 0.  1.
          2   -1    0    0  501    0  0.00000000000E+00 -0.00000000000E+00 -0.12740372438E+04  0.12740372438E+04  0.00000000000E+00 0. -1.
         23    2    1    2    0    0 -0.54552030596E+02 -0.16794881119E+03 -0.13169016804E+03  0.23929580779E+03  0.93474360350E+02 0.  0.
    9900016    2    1    2    0    0 -0.17700605624E+03  0.41513910540E+02 -0.70265179638E+03  0.10193026253E+04  0.71568411070E+03 0.  0.
         23    2    4    4    0    0  0.23051868348E+03 -0.54883552293E+02 -0.74853956965E+02  0.26465104247E+03  0.91027422581E+02 0.  0.
        -15    1    3    3    0    0 -0.59399839734E+02 -0.39674854378E+02 -0.47761121255E+02  0.85927642432E+02  0.00000000000E+00 0.  1.
        -15    1    5    5    0    0  0.95670929371E+02  0.22225265275E+02 -0.35161785521E+02  0.10432276983E+03  0.00000000000E+00 0.  1.
         15    1    5    5    0    0  0.13484775410E+03 -0.77108817568E+02 -0.39692171445E+02  0.16032827264E+03  0.00000000000E+00 0. -1.
         15    1    3    3    0    0  0.48478091377E+01 -0.12827395681E+03 -0.83929046786E+02  0.15336816535E+03  0.00000000000E+00 0. -1.
        -16    1    1    2    0    0  0.19248547115E+03 -0.88621175204E+01 -0.12072238285E+03  0.22738312921E+03  0.00000000000E+00 0.  1.
         16    1    4    4    0    0 -0.40752473972E+03  0.96397462832E+02 -0.62779783941E+03  0.75465158285E+03  0.00000000000E+00 0. -1.
    9900018    1    1    2    0    0  0.39072615694E+02  0.13529701817E+03  0.77979239698E+02  0.18500781778E+03  0.91187600000E+02 0.  0.
<mgrwt>
<rscale>  0 0.77722189E+03</rscale>
<asrwt>0</asrwt>
<pdfrwt beam="1">  1        2 0.19600573E+00 0.12223473E+04</pdfrwt>
<pdfrwt beam="2">  1       -2 0.61069560E-01 0.12223473E+04</pdfrwt>
<totfact> 0.41968527E+01</totfact>
</mgrwt>
</event>
<event>
12    1  0.9599717E-013  0.1756619E+04  0.7818608E-02  0.8729715E-01
         -2   -1    0    0    0  501 -0.00000000000E+00  0.00000000000E+00  0.10128519133E+04  0.10128519133E+04  0.00000000000E+00 0.  1.
          2   -1    0    0  501    0  0.00000000000E+00 -0.00000000000E+00 -0.76163946962E+03  0.76163946962E+03  0.00000000000E+00 0. -1.
         23    2    1    2    0    0 -0.25987685682E+02 -0.32323425655E+03  0.12321359360E+03  0.35861193766E+03  0.90913078102E+02 0.  0.
    9900016    2    1    2    0    0  0.30800881051E+03  0.39209065780E+03  0.10355540157E+02  0.85289961804E+03  0.69190028903E+03 0.  0.
         23    2    4    4    0    0 -0.70278999146E+02  0.32059645404E+03  0.22893256377E+03  0.41019316523E+03  0.90150374301E+02 0.  0.
        -15    1    3    3    0    0  0.33199098624E+01 -0.14249839666E+03  0.99848955095E+02  0.17403053952E+03  0.00000000000E+00 0. -1.
        -15    1    5    5    0    0 -0.50528273579E+02  0.26821718702E+03  0.14432932337E+03  0.30874669137E+03  0.00000000000E+00 0.  1.
         15    1    3    3    0    0 -0.29307595544E+02 -0.18073585988E+03  0.23364638501E+02  0.18458139813E+03  0.00000000000E+00 0.  1.
         15    1    5    5    0    0 -0.19750725567E+02  0.52379267014E+02  0.84603240402E+02  0.10144647387E+03  0.00000000000E+00 0. -1.
        -16    1    1    2    0    0 -0.34332813591E+02 -0.13833194332E+03  0.22775307061E+03  0.26867439366E+03  0.00000000000E+00 0.  1.
         16    1    4    4    0    0  0.37828780965E+03  0.71494203760E+02 -0.21857702362E+03  0.44270645281E+03  0.00000000000E+00 0. -1.
    9900018    1    1    2    0    0 -0.24768831123E+03  0.69475542068E+02 -0.11010976064E+03  0.29430543361E+03  0.91187600000E+02 0.  0.
<mgrwt>
<rscale>  0 0.17566195E+04</rscale>
<asrwt>0</asrwt>
<pdfrwt beam="1">  1        2 0.11717530E+00 0.17566195E+04</pdfrwt>
<pdfrwt beam="2">  1       -2 0.15582337E+00 0.17566195E+04</pdfrwt>
<totfact> 0.94182991E+00</totfact>
</mgrwt>
</event>
<event>
12    1  0.9599717E-013  0.1860290E+04  0.7818608E-02  0.8674879E-01
          1   -1    0    0  501    0  0.00000000000E+00  0.00000000000E+00  0.24662029105E+04  0.24662029105E+04  0.00000000000E+00 0.  1.
         -1   -1    0    0    0  501 -0.00000000000E+00 -0.00000000000E+00 -0.35081046536E+03  0.35081046536E+03  0.00000000000E+00 0. -1.
         23    2    1    2    0    0 -0.49212097839E+03 -0.71093996270E+02  0.94313844583E+03  0.10702211349E+04  0.92874840224E+02 0.  0.
    9900016    2    1    2    0    0  0.20694373988E+03  0.13515981479E+03  0.65973017363E+03  0.98648032242E+03  0.69051114221E+03 0.  0.
         23    2    4    4    0    0  0.19048851159E+03 -0.25710626718E+03  0.23225647732E+03  0.40606907629E+03  0.92517662073E+02 0.  0.
        -15    1    5    5    0    0  0.43119681429E+02 -0.48568222960E+02  0.65756917073E+01  0.65279544494E+02  0.00000000000E+00 0.  1.
        -15    1    3    3    0    0 -0.13572898291E+03  0.62271590572E+01  0.32921622119E+03  0.35615229131E+03  0.00000000000E+00 0. -1.
         15    1    5    5    0    0  0.14736883016E+03 -0.20853804422E+03  0.22568078561E+03  0.34078953180E+03  0.00000000000E+00 0. -1.
         15    1    3    3    0    0 -0.35639199548E+03 -0.77321155327E+02  0.61392222464E+03  0.71406884361E+03  0.00000000000E+00 0.  1.
        -16    1    4    4    0    0  0.16455228296E+02  0.39226608197E+03  0.42747369631E+03  0.58041124613E+03  0.00000000000E+00 0.  1.
         16    1    1    2    0    0 -0.34215074521E+02  0.15366822874E+03  0.94091738678E+02  0.18340624618E+03  0.00000000000E+00 0. -1.
    9900018    1    1    2    0    0  0.31939231303E+03 -0.21773404726E+03  0.41843208701E+03  0.57690567235E+03  0.91187600000E+02 0.  0.
<mgrwt>
<rscale>  0 0.18602901E+04</rscale>
<asrwt>0</asrwt>
<pdfrwt beam="1">  1        1 0.37941582E+00 0.18602901E+04</pdfrwt>
<pdfrwt beam="2">  1       -1 0.53970843E-01 0.18602901E+04</pdfrwt>
<totfact> 0.46558296E+00</totfact>
</mgrwt>
</event>
<event>
12    1  0.9599717E-013  0.1390273E+04  0.7818608E-02  0.9409085E-01
          1   -1    0    0  501    0  0.00000000000E+00  0.00000000000E+00  0.15814429934E+04  0.15814429934E+04  0.00000000000E+00 0. -1.
         -1   -1    0    0    0  501 -0.00000000000E+00 -0.00000000000E+00 -0.43096882972E+03  0.43096882972E+03  0.00000000000E+00 0.  1.
         23    2    1    2    0    0 -0.29604960353E+02 -0.24092885283E+03  0.14623263109E+03  0.29737243623E+03  0.90128894536E+02 0.  0.
    9900016    2    1    2    0    0  0.14729205441E+02  0.28246851198E+03  0.60848039967E+03  0.97627878520E+03  0.70913077771E+03 0.  0.
         23    2    4    4    0    0  0.14008003157E+03 -0.13300967100E+03 -0.17900347408E+02  0.21425005185E+03  0.90932252009E+02 0.  0.
        -15    1    5    5    0    0  0.43670083765E+02 -0.73966498760E+02  0.30667057330E+02  0.91206291231E+02  0.00000000000E+00 0.  1.
        -15    1    3    3    0    0  0.25800451039E+02 -0.10364801385E+03  0.87620895933E+02  0.13815207364E+03  0.00000000000E+00 0.  1.
         15    1    3    3    0    0 -0.55405411392E+02 -0.13728083898E+03  0.58611735153E+02  0.15922036258E+03  0.00000000000E+00 0. -1.
         15    1    5    5    0    0  0.96409947801E+02 -0.59043172241E+02 -0.48567404738E+02  0.12304376061E+03  0.00000000000E+00 0. -1.
        -16    1    1    2    0    0 -0.14438611616E+03  0.22353914659E+03  0.30301102693E+03  0.40327755088E+03  0.00000000000E+00 0.  1.
         16    1    4    4    0    0 -0.12535082612E+03  0.41547818298E+03  0.62638074708E+03  0.76202873336E+03  0.00000000000E+00 0. -1.
    9900018    1    1    2    0    0  0.15926187108E+03 -0.26507880574E+03  0.92750105992E+02  0.33548305082E+03  0.91187600000E+02 0.  0.
<mgrwt>
<rscale>  0 0.91331794E+03</rscale>
<asrwt>0</asrwt>
<pdfrwt beam="1">  1        1 0.24329892E+00 0.13902730E+04</pdfrwt>
<pdfrwt beam="2">  1       -1 0.66302898E-01 0.13902730E+04</pdfrwt>
<totfact> 0.12883151E+01</totfact>
</mgrwt>
</event>
<event>
12    1  0.9599717E-013  0.1854675E+04  0.7818608E-02  0.9012346E-01
         -2   -1    0    0    0  501 -0.00000000000E+00  0.00000000000E+00  0.59381234606E+03  0.59381234606E+03  0.00000000000E+00 0. -1.
          2   -1    0    0  501    0  0.00000000000E+00 -0.00000000000E+00 -0.22993794625E+04  0.22993794625E+04  0.00000000000E+00 0.  1.
         23    2    1    2    0    0  0.38862554449E+03 -0.26383740777E+03 -0.28608716732E+03  0.55765267661E+03  0.92144716910E+02 0.  0.
    9900016    2    1    2    0    0 -0.62205728905E+02  0.62803955263E+03 -0.37814588723E+03  0.10253553703E+04  0.71418211333E+03 0.  0.
         23    2    4    4    0    0 -0.12243002306E+03 -0.11934385103E+03 -0.13800152417E+03  0.23803190895E+03  0.91557106115E+02 0.  0.
        -15    1    3    3    0    0  0.35158678350E+02  0.20421483138E+01 -0.31877418322E+02  0.47502345541E+02  0.00000000000E+00 0. -1.
        -15    1    5    5    0    0 -0.46223724502E+02 -0.97693086519E+02 -0.48368258985E+02  0.11840633572E+03  0.00000000000E+00 0. -1.
         15    1    5    5    0    0 -0.76206298561E+02 -0.21650764513E+02 -0.89633265187E+02  0.11962557324E+03  0.00000000000E+00 0.  1.
         15    1    3    3    0    0  0.35346686614E+03 -0.26587955609E+03 -0.25420974899E+03  0.51015033107E+03  0.00000000000E+00 0.  1.
        -16    1    1    2    0    0 -0.19248131431E+03  0.42355456379E+02 -0.77094552419E+03  0.79573867715E+03  0.00000000000E+00 0.  1.
         16    1    4    4    0    0  0.60224294158E+02  0.74738340366E+03 -0.24014436306E+03  0.78732346135E+03  0.00000000000E+00 0. -1.
    9900018    1    1    2    0    0 -0.13393850127E+03 -0.40655760124E+03 -0.27038853769E+03  0.51444508449E+03  0.91187600000E+02 0.  0.
<mgrwt>
<rscale>  0 0.13219386E+04</rscale>
<asrwt>0</asrwt>
<pdfrwt beam="1">  1        2 0.35375068E+00 0.18546751E+04</pdfrwt>
<pdfrwt beam="2">  1       -2 0.91355747E-01 0.18546751E+04</pdfrwt>
<totfact> 0.43075216E+00</totfact>
</mgrwt>
</event>
<event>
12    1  0.9599717E-013  0.2092495E+04  0.7818608E-02  0.8915662E-01
         -1   -1    0    0    0  501 -0.00000000000E+00  0.00000000000E+00  0.61092744995E+03  0.61092744995E+03  0.00000000000E+00 0.  1.
          1   -1    0    0  501    0  0.00000000000E+00 -0.00000000000E+00 -0.27646284684E+04  0.27646284684E+04  0.00000000000E+00 0. -1.
         23    2    1    2    0    0  0.46495412247E+03 -0.11584365598E+03 -0.25679233004E+03  0.55123365741E+03  0.91181991938E+02 0.  0.
    9900016    2    1    2    0    0 -0.69217795367E+03  0.36985878148E+02 -0.67767687628E+03  0.11975217915E+04  0.70308905388E+03 0.  0.
         23    2    4    4    0    0  0.93601115589E+02 -0.12769966171E+03 -0.13813693191E+03  0.23021965445E+03  0.94079247964E+02 0.  0.
        -15    1    3    3    0    0  0.42372941399E+03 -0.79909724987E+02 -0.24249545827E+03  0.49470822483E+03  0.00000000000E+00 0. -1.
        -15    1    5    5    0    0  0.13843121041E+02 -0.72999730720E+02 -0.18853319753E+02  0.76655334785E+02  0.00000000000E+00 0.  1.
         15    1    3    3    0    0  0.41224708481E+02 -0.35933930990E+02 -0.14296871770E+02  0.56525432578E+02  0.00000000000E+00 0.  1.
         15    1    5    5    0    0  0.79757994549E+02 -0.54699930986E+02 -0.11928361216E+03  0.15356431966E+03  0.00000000000E+00 0. -1.
        -16    1    4    4    0    0 -0.78577906926E+03  0.16468553985E+03 -0.53953994437E+03  0.96730213702E+03  0.00000000000E+00 0.  1.
         16    1    1    2    0    0 -0.17307192662E+03 -0.37514927390E+02  0.12480332742E+03  0.21664979136E+03  0.00000000000E+00 0. -1.
    9900018    1    1    2    0    0  0.40029575782E+03  0.11637270522E+03 -0.13440351395E+04  0.14101506781E+04  0.91187600000E+02 0.  0.
<mgrwt>
<rscale>  0 0.14539560E+04</rscale>
<asrwt>0</asrwt>
<pdfrwt beam="1">  1        1 0.42532747E+00 0.20924946E+04</pdfrwt>
<pdfrwt beam="2">  1       -1 0.93988836E-01 0.20924946E+04</pdfrwt>
<totfact> 0.88172108E-01</totfact>
</mgrwt>
</event>
<event>
12    1  0.9599717E-013  0.1383846E+04  0.7818608E-02  0.9396272E-01
          1   -1    0    0  501    0  0.00000000000E+00  0.00000000000E+00  0.10157356819E+04  0.10157356819E+04  0.00000000000E+00 0. -1.
         -1   -1    0    0    0  501 -0.00000000000E+00 -0.00000000000E+00 -0.67837958196E+03  0.67837958196E+03  0.00000000000E+00 0.  1.
         23    2    1    2    0    0  0.21995826294E+03  0.14087900593E+03  0.29465644775E+02  0.27643206829E+03  0.85544914566E+02 0.  0.
    9900016    2    1    2    0    0 -0.11296461605E+03  0.24081692022E+03  0.85814785172E+02  0.76178886621E+03  0.70866374662E+03 0.  0.
         23    2    4    4    0    0 -0.16795058484E+03  0.47516956160E+03  0.95434755526E+02  0.52087983542E+03  0.90633874311E+02 0.  0.
        -15    1    5    5    0    0 -0.12338233039E+03  0.41400312510E+03  0.10505967397E+03  0.44458893614E+03  0.00000000000E+00 0. -1.
        -15    1    3    3    0    0  0.19573832641E+03  0.84466799235E+02  0.17663248088E+02  0.21391615865E+03  0.00000000000E+00 0. -1.
         15    1    3    3    0    0  0.24219936525E+02  0.56412206698E+02  0.11802396687E+02  0.62515909634E+02  0.00000000000E+00 0.  1.
         15    1    5    5    0    0 -0.44568254448E+02  0.61166436499E+02 -0.96249184423E+01  0.76290899284E+02  0.00000000000E+00 0.  1.
        -16    1    1    2    0    0 -0.30315927997E+02 -0.45874145580E+03  0.22945227099E+03  0.51382012749E+03  0.00000000000E+00 0.  1.
         16    1    4    4    0    0  0.54985968790E+02 -0.23435264137E+03 -0.96199703541E+01  0.24090903078E+03  0.00000000000E+00 0. -1.
    9900018    1    1    2    0    0 -0.76677718886E+02  0.77045529641E+02 -0.73766009694E+01  0.14207420190E+03  0.91187600000E+02 0.  0.
<mgrwt>
<rscale>  0 0.92383101E+03</rscale>
<asrwt>0</asrwt>
<pdfrwt beam="1">  1        1 0.15626703E+00 0.13838458E+04</pdfrwt>
<pdfrwt beam="2">  1       -1 0.10436609E+00 0.13838458E+04</pdfrwt>
<totfact> 0.12341618E+01</totfact>
</mgrwt>
</event>
<event>
12    1  0.9599717E-013  0.1124818E+04  0.7818608E-02  0.9438850E-01
         -2   -1    0    0    0  501 -0.00000000000E+00  0.00000000000E+00  0.22833350815E+03  0.22833350815E+03  0.00000000000E+00 0.  1.
          2   -1    0    0  501    0  0.00000000000E+00 -0.00000000000E+00 -0.27461899542E+04  0.27461899542E+04  0.00000000000E+00 0. -1.
         23    2    1    2    0    0 -0.29148377394E+03 -0.31625923018E+03 -0.51334420824E+03  0.67598370539E+03  0.91918456663E+02 0.  0.
    9900016    2    1    2    0    0  0.23330549263E+03  0.21434857876E+03 -0.11481900496E+04  0.13847517424E+04  0.70627206662E+03 0.  0.
         23    2    4    4    0    0 -0.17734404078E+02 -0.45081163319E+02  0.62231236454E+02  0.12164267726E+03  0.92614220110E+02 0.  0.
        -15    1    5    5    0    0 -0.10557767785E+02 -0.60688632581E+02  0.49017979070E+01  0.61794855837E+02  0.00000000000E+00 0.  1.
        -15    1    3    3    0    0 -0.92901748680E+02 -0.11798833143E+03 -0.24713572551E+03  0.28918514499E+03  0.00000000000E+00 0.  1.
         15    1    3    3    0    0 -0.19858202526E+03 -0.19827089875E+03 -0.26620848273E+03  0.38679856040E+03  0.00000000000E+00 0. -1.
         15    1    5    5    0    0 -0.71766362933E+01  0.15607469262E+02  0.57329438547E+02  0.59847821425E+02  0.00000000000E+00 0. -1.
        -16    1    4    4    0    0  0.25103989671E+03  0.25942974208E+03 -0.12104212860E+04  0.12631090652E+04  0.00000000000E+00 0.  1.
         16    1    1    2    0    0  0.55273032977E+02  0.17770038578E+03 -0.38281877032E+03  0.42565566623E+03  0.00000000000E+00 0. -1.
    9900018    1    1    2    0    0  0.29052483340E+01 -0.75789734362E+02 -0.47350341796E+03  0.48813234836E+03  0.91187600000E+02 0.  0.
<mgrwt>
<rscale>  0 0.88946255E+03</rscale>
<asrwt>0</asrwt>
<pdfrwt beam="1">  1        2 0.42249078E+00 0.11248181E+04</pdfrwt>
<pdfrwt beam="2">  1       -2 0.35128230E-01 0.11248181E+04</pdfrwt>
<totfact> 0.19011035E+01</totfact>
</mgrwt>
</event>
<event>
12    1  0.9599717E-013  0.1836938E+04  0.7818608E-02  0.9119536E-01
          2   -1    0    0  501    0  0.00000000000E+00  0.00000000000E+00  0.16168734109E+04  0.16168734109E+04  0.00000000000E+00 0. -1.
         -2   -1    0    0    0  501 -0.00000000000E+00 -0.00000000000E+00 -0.92810387570E+03  0.92810387570E+03  0.00000000000E+00 0.  1.
         23    2    1    2    0    0 -0.29086871503E+03  0.11198777965E+03  0.62729390594E+03  0.70701109639E+03  0.96026943166E+02 0.  0.
    9900016    2    1    2    0    0  0.16466781381E+03 -0.70870539573E+02  0.23094193950E+02  0.73493075886E+03  0.71235648115E+03 0.  0.
         23    2    4    4    0    0 -0.35067332681E+02  0.52293314697E+02 -0.30875309889E+03  0.32849984282E+03  0.92840519572E+02 0.  0.
        -15    1    5    5    0    0  0.66351800340E+01  0.49045162032E+02 -0.25812801041E+03  0.26282983714E+03  0.00000000000E+00 0.  1.
        -15    1    3    3    0    0 -0.27304941097E+03  0.12241814402E+03  0.61225316672E+03  0.68146615688E+03  0.00000000000E+00 0. -1.
         15    1    5    5    0    0 -0.41702512715E+02  0.32481526644E+01 -0.50625088490E+02  0.65670005688E+02  0.00000000000E+00 0. -1.
         15    1    3    3    0    0 -0.17819304062E+02 -0.10430364374E+02  0.15040739224E+02  0.25544939511E+02  0.00000000000E+00 0.  1.
        -16    1    4    4    0    0  0.19973514649E+03 -0.12316385427E+03  0.33184729285E+03  0.40643091604E+03  0.00000000000E+00 0.  1.
         16    1    1    2    0    0  0.73969507240E+02 -0.12737225327E+03  0.55221457459E+03  0.57152087914E+03  0.00000000000E+00 0. -1.
    9900018    1    1    2    0    0  0.52231393976E+02  0.86255013196E+02 -0.51383313927E+03  0.53151455223E+03  0.91187600000E+02 0.  0.
<mgrwt>
<rscale>  0 0.11923993E+04</rscale>
<asrwt>0</asrwt>
<pdfrwt beam="1">  1        2 0.24874976E+00 0.18369378E+04</pdfrwt>
<pdfrwt beam="2">  1       -2 0.14278521E+00 0.18369378E+04</pdfrwt>
<totfact> 0.34459497E+00</totfact>
</mgrwt>
</event>
<event>
12    1  0.9599717E-013  0.1780814E+04  0.7818608E-02  0.9210152E-01
         -1   -1    0    0    0  501 -0.00000000000E+00  0.00000000000E+00  0.28939595484E+03  0.28939595484E+03  0.00000000000E+00 0.  1.
          1   -1    0    0  501    0  0.00000000000E+00 -0.00000000000E+00 -0.35805612198E+04  0.35805612198E+04  0.00000000000E+00 0. -1.
         23    2    1    2    0    0 -0.18838031514E+03  0.14469766611E+03 -0.38200299543E+03  0.45901519286E+03  0.91346051115E+02 0.  0.
    9900016    2    1    2    0    0 -0.11704544624E+03 -0.22901860289E+03 -0.68496609332E+03  0.10139439824E+04  0.70196488050E+03 0.  0.
         23    2    4    4    0    0  0.19209835440E+03  0.13340709632E+03 -0.12731969865E+03  0.28053292547E+03  0.88256362344E+02 0.  0.
        -15    1    3    3    0    0 -0.12303687805E+03  0.36918083442E+02 -0.19260898888E+03  0.23151509852E+03  0.00000000000E+00 0.  1.
        -15    1    5    5    0    0  0.14790573473E+02  0.44128043682E+02 -0.37333783753E+01  0.46690292534E+02  0.00000000000E+00 0. -1.
         15    1    5    5    0    0  0.17730778093E+03  0.89279052638E+02 -0.12358632028E+03  0.23384263293E+03  0.00000000000E+00 0.  1.
         15    1    3    3    0    0 -0.65343437095E+02  0.10777958267E+03 -0.18939400655E+03  0.22750009434E+03  0.00000000000E+00 0. -1.
        -16    1    1    2    0    0  0.28170432596E+03 -0.33785803051E+03 -0.13802514582E+04  0.14486543632E+04  0.00000000000E+00 0.  1.
         16    1    4    4    0    0 -0.30914380064E+03 -0.36242569921E+03 -0.55764639467E+03  0.73341105692E+03  0.00000000000E+00 0. -1.
    9900018    1    1    2    0    0  0.23721435419E+02  0.42217896728E+03 -0.84394471799E+03  0.94834363621E+03  0.91187600000E+02 0.  0.
<mgrwt>
<rscale>  0 0.10949256E+04</rscale>
<asrwt>0</asrwt>
<pdfrwt beam="1">  1        1 0.55085561E+00 0.17808144E+04</pdfrwt>
<pdfrwt beam="2">  1       -1 0.44522452E-01 0.17808144E+04</pdfrwt>
<totfact> 0.10220751E+00</totfact>
</mgrwt>
</event>
<event>
12    1  0.9599717E-013  0.1219107E+04  0.7818608E-02  0.9446096E-01
          1   -1    0    0  501    0  0.00000000000E+00  0.00000000000E+00  0.37923776843E+04  0.37923776843E+04  0.00000000000E+00 0. -1.
         -1   -1    0    0    0  501 -0.00000000000E+00 -0.00000000000E+00 -0.18168412355E+03  0.18168412355E+03  0.00000000000E+00 0.  1.
         23    2    1    2    0    0 -0.27899022137E+03  0.16507099477E+03  0.31879704432E+03  0.46367671703E+03  0.90997612678E+02 0.  0.
    9900016    2    1    2    0    0  0.30947188491E+03 -0.19210540105E+03  0.19895524209E+04  0.21425769514E+04  0.70685205290E+03 0.  0.
         23    2    4    4    0    0  0.94426645277E+02  0.17638386831E+03  0.18349347809E+03  0.28680818848E+03  0.92527942465E+02 0.  0.
        -15    1    3    3    0    0 -0.17500630295E+03  0.79965553306E+02  0.13105384473E+03  0.23280207474E+03  0.00000000000E+00 0. -1.
        -15    1    5    5    0    0 -0.58502474015E+01  0.27041836915E+02  0.67024418998E+02  0.72510406704E+02  0.00000000000E+00 0.  1.
         15    1    3    3    0    0 -0.10398391842E+03  0.85105441467E+02  0.18774319959E+03  0.23087464229E+03  0.00000000000E+00 0.  1.
         15    1    5    5    0    0  0.10027689268E+03  0.14934203139E+03  0.11646905909E+03  0.21429778177E+03  0.00000000000E+00 0. -1.
        -16    1    1    2    0    0  0.74684256922E+02  0.93607177545E+02  0.11306382300E+04  0.11369621142E+04  0.00000000000E+00 0.  1.
         16    1    4    4    0    0  0.21504523963E+03 -0.36848926936E+03  0.18060589428E+04  0.18557687629E+04  0.00000000000E+00 0. -1.
    9900018    1    1    2    0    0 -0.10516592046E+03 -0.66572771269E+02  0.17170586555E+03  0.23084602522E+03  0.91187600000E+02 0.  0.
<mgrwt>
<rscale>  0 0.88377336E+03</rscale>
<asrwt>0</asrwt>
<pdfrwt beam="1">  1        1 0.58344266E+00 0.12191066E+04</pdfrwt>
<pdfrwt beam="2">  1       -1 0.27951406E-01 0.12191066E+04</pdfrwt>
<totfact> 0.16923722E+00</totfact>
</mgrwt>
</event>
<event>
12    1  0.9599717E-013  0.1887462E+04  0.7818608E-02  0.8954328E-01
          2   -1    0    0  501    0  0.00000000000E+00  0.00000000000E+00  0.24783430408E+04  0.24783430408E+04  0.00000000000E+00 0. -1.
         -2   -1    0    0    0  501 -0.00000000000E+00 -0.00000000000E+00 -0.62125042320E+03  0.62125042320E+03  0.00000000000E+00 0.  1.
         23    2    1    2    0    0 -0.50925234419E+03 -0.24001838439E+03  0.62281019216E+03  0.84438462892E+03  0.90255698873E+02 0.  0.
    9900016    2    1    2    0    0  0.12651933779E+03  0.11319778102E+03  0.21218376787E+03  0.76238784243E+03  0.71231481136E+03 0.  0.
         23    2    4    4    0    0  0.47877571099E+02  0.66204574926E+02  0.47153283195E+03  0.48733361882E+03  0.92062679040E+02 0.  0.
        -15    1    3    3    0    0 -0.47572780722E+03 -0.20129907656E+03  0.58680564151E+03  0.78177946104E+03  0.00000000000E+00 0.  1.
        -15    1    5    5    0    0  0.18549473456E+02  0.85171073045E+02  0.30703065049E+03  0.31916455785E+03  0.00000000000E+00 0. -1.
         15    1    3    3    0    0 -0.33524536972E+02 -0.38719307827E+02  0.36004550649E+02  0.62605167880E+02  0.00000000000E+00 0. -1.
         15    1    5    5    0    0  0.29328097642E+02 -0.18966498118E+02  0.16450218146E+03  0.16816906097E+03  0.00000000000E+00 0.  1.
        -16    1    4    4    0    0  0.78641766690E+02  0.46993206089E+02 -0.25934906408E+03  0.27505422361E+03  0.00000000000E+00 0.  1.
         16    1    1    2    0    0  0.21038207500E+03 -0.30239347485E+03  0.12547683670E+01  0.36838024588E+03  0.00000000000E+00 0. -1.
    9900018    1    1    2    0    0  0.17235093140E+03  0.42921407823E+03  0.10208438892E+04  0.11244407468E+04  0.91187600000E+02 0.  0.
<mgrwt>
<rscale>  0 0.13992961E+04</rscale>
<asrwt>0</asrwt>
<pdfrwt beam="1">  1        2 0.38128354E+00 0.18874623E+04</pdfrwt>
<pdfrwt beam="2">  1       -2 0.95576989E-01 0.18874623E+04</pdfrwt>
<totfact> 0.30479926E+00</totfact>
</mgrwt>
</event>
<event>
12    1  0.9599717E-013  0.1109687E+04  0.7818608E-02  0.9601691E-01
          1   -1    0    0  501    0  0.00000000000E+00  0.00000000000E+00  0.15680849441E+04  0.15680849441E+04  0.00000000000E+00 0. -1.
         -1   -1    0    0    0  501 -0.00000000000E+00 -0.00000000000E+00 -0.30776649584E+03  0.30776649584E+03  0.00000000000E+00 0.  1.
         23    2    1    2    0    0  0.23845840896E+03  0.49353905463E+02  0.37557961198E+03  0.45663739956E+03  0.90329668195E+02 0.  0.
    9900016    2    1    2    0    0 -0.40694769396E+02 -0.10782707625E+02  0.76694928913E+03  0.10468894949E+04  0.71133260252E+03 0.  0.
         23    2    4    4    0    0  0.15952481158E+03 -0.30501000805E+03  0.40519132678E+03  0.53941889650E+03  0.91178199567E+02 0.  0.
        -15    1    3    3    0    0  0.13529983755E+03  0.38437460177E+02  0.13639339433E+03  0.19592509386E+03  0.00000000000E+00 0. -1.
        -15    1    5    5    0    0  0.43136892757E+02 -0.16466735888E+03  0.23364812464E+03  0.28908057137E+03  0.00000000000E+00 0.  1.
         15    1    3    3    0    0  0.10315857141E+03  0.10916445286E+02  0.23918621765E+03  0.26071230571E+03  0.00000000000E+00 0.  1.
         15    1    5    5    0    0  0.11638791882E+03 -0.14034264918E+03  0.17154320214E+03  0.25033832513E+03  0.00000000000E+00 0. -1.
        -16    1    1    2    0    0 -0.18700839673E+03 -0.15940943396E+02  0.17925648451E+03  0.25953639699E+03  0.00000000000E+00 0.  1.
         16    1    4    4    0    0 -0.20021958098E+03  0.29422730043E+03  0.36175796235E+03  0.50747059841E+03  0.00000000000E+00 0. -1.
    9900018    1    1    2    0    0 -0.10755242841E+02 -0.22630254443E+02 -0.61466937340E+02  0.11278814851E+03  0.91187600000E+02 0.  0.
<mgrwt>
<rscale>  0 0.77184367E+03</rscale>
<asrwt>0</asrwt>
<pdfrwt beam="1">  1        1 0.24124383E+00 0.11096872E+04</pdfrwt>
<pdfrwt beam="2">  1       -1 0.47348693E-01 0.11096872E+04</pdfrwt>
<totfact> 0.26027444E+01</totfact>
</mgrwt>
</event>
<event>
12    1  0.9599717E-013  0.1998144E+04  0.7818608E-02  0.9320163E-01
         -1   -1    0    0    0  501 -0.00000000000E+00  0.00000000000E+00  0.16102975026E+04  0.16102975026E+04  0.00000000000E+00 0.  1.
          1   -1    0    0  501    0  0.00000000000E+00 -0.00000000000E+00 -0.72744617989E+03  0.72744617989E+03  0.00000000000E+00 0. -1.
         23    2    1    2    0    0  0.80999867928E+02 -0.11493824715E+01  0.18626933300E+03  0.22166055473E+03  0.88740280714E+02 0.  0.
    9900016    2    1    2    0    0 -0.49814083524E+02 -0.11917140505E+03  0.47682458218E+03  0.87081316258E+03  0.71712663822E+03 0.  0.
         23    2    4    4    0    0 -0.34302667077E+03 -0.15443057371E+03  0.11484511006E+03  0.40364513229E+03  0.90685691039E+02 0.  0.
        -15    1    3    3    0    0  0.83988591320E+02  0.26291307082E+02  0.11208582797E+03  0.14250806690E+03  0.00000000000E+00 0. -1.
        -15    1    5    5    0    0 -0.28087982016E+02 -0.45946725752E+02  0.17051605024E+02  0.56487109813E+02  0.00000000000E+00 0.  1.
         15    1    3    3    0    0 -0.29887233921E+01 -0.27440689553E+02  0.74183505025E+02  0.79152487823E+02  0.00000000000E+00 0.  1.
         15    1    5    5    0    0 -0.31493868875E+03 -0.10848384795E+03  0.97793505040E+02  0.34715802247E+03  0.00000000000E+00 0. -1.
        -16    1    1    2    0    0  0.31780088629E+03 -0.65022929864E+02  0.60464609030E+03  0.68616490675E+03  0.00000000000E+00 0.  1.
         16    1    4    4    0    0  0.29321258725E+03  0.35259168655E+02  0.36197947212E+03  0.46716803029E+03  0.00000000000E+00 0. -1.
    9900018    1    1    2    0    0 -0.34898667070E+03  0.18534371739E+03 -0.38488868275E+03  0.55910505846E+03  0.91187600000E+02 0.  0.
<mgrwt>
<rscale>  0 0.98947608E+03</rscale>
<asrwt>0</asrwt>
<pdfrwt beam="1">  1        1 0.11191480E+00 0.19981445E+04</pdfrwt>
<pdfrwt beam="2">  1       -1 0.24773808E+00 0.19981445E+04</pdfrwt>
<totfact> 0.17110736E+00</totfact>
</mgrwt>
</event>
<event>
12    1  0.9599717E-013  0.1446438E+04  0.7818608E-02  0.9276245E-01
         -2   -1    0    0    0  501 -0.00000000000E+00  0.00000000000E+00  0.42625182657E+03  0.42625182657E+03  0.00000000000E+00 0.  1.
          2   -1    0    0  501    0  0.00000000000E+00 -0.00000000000E+00 -0.21169970324E+04  0.21169970324E+04  0.00000000000E+00 0. -1.
         23    2    1    2    0    0 -0.94763700562E+02 -0.34784600103E+03 -0.83869956405E+02  0.38125195379E+03  0.91333911040E+02 0.  0.
    9900016    2    1    2    0    0  0.14844184926E+03  0.25908175591E+03 -0.15873698953E+04  0.17638423491E+04  0.70868773735E+03 0.  0.
         23    2    4    4    0    0  0.28078910982E+02  0.26897374732E+03 -0.15161695817E+03  0.32301911743E+03  0.90655094904E+02 0.  0.
        -15    1    3    3    0    0 -0.10767236095E+02 -0.20504034919E+03 -0.59664410956E+02  0.21381608944E+03  0.00000000000E+00 0.  1.
        -15    1    5    5    0    0 -0.22255517738E+02  0.82220784688E+02 -0.15680967648E+02  0.86610959185E+02  0.00000000000E+00 0.  1.
         15    1    5    5    0    0  0.50334428720E+02  0.18675296263E+03 -0.13593599052E+03  0.23640815824E+03  0.00000000000E+00 0. -1.
         15    1    3    3    0    0 -0.83996464467E+02 -0.14280565184E+03 -0.24205545448E+02  0.16743586435E+03  0.00000000000E+00 0. -1.
        -16    1    4    4    0    0  0.12036293828E+03 -0.98919914082E+01 -0.14357529371E+04  0.14408232317E+04  0.00000000000E+00 0.  1.
         16    1    1    2    0    0  0.36578088009E+02  0.20171115150E+03  0.54142266066E+02  0.21203002178E+03  0.00000000000E+00 0. -1.
    9900018    1    1    2    0    0 -0.90256236709E+02 -0.11294690638E+03 -0.73647620225E+02  0.18612453434E+03  0.91187600000E+02 0.  0.
<mgrwt>
<rscale>  0 0.10299948E+04</rscale>
<asrwt>0</asrwt>
<pdfrwt beam="1">  1        2 0.32569185E+00 0.14464379E+04</pdfrwt>
<pdfrwt beam="2">  1       -2 0.65577205E-01 0.14464379E+04</pdfrwt>
<totfact> 0.11879781E+01</totfact>
</mgrwt>
</event>
<event>
12    1  0.9599717E-013  0.1187371E+04  0.7818608E-02  0.9426866E-01
          2   -1    0    0  501    0  0.00000000000E+00  0.00000000000E+00  0.93893239478E+03  0.93893239478E+03  0.00000000000E+00 0.  1.
         -2   -1    0    0    0  501 -0.00000000000E+00 -0.00000000000E+00 -0.81844305994E+03  0.81844305994E+03  0.00000000000E+00 0. -1.
         23    2    1    2    0    0 -0.17575107667E+03 -0.33646573096E+03  0.37708745833E+03  0.54259463400E+03  0.90090823937E+02 0.  0.
    9900016    2    1    2    0    0  0.93126831421E+02  0.11095389139E+03 -0.43319986606E+02  0.74578129094E+03  0.73029428311E+03 0.  0.
         23    2    4    4    0    0  0.22152373621E+03 -0.98546513624E+02 -0.29645329044E+03  0.39300281318E+03  0.88218346744E+02 0.  0.
        -15    1    3    3    0    0 -0.15772407313E+03 -0.32497726845E+03  0.32354149806E+03  0.48493938716E+03  0.00000000000E+00 0.  1.
        -15    1    5    5    0    0  0.15475064117E+03 -0.25017480157E+02 -0.15764000147E+03  0.22231510367E+03  0.00000000000E+00 0.  1.
         15    1    5    5    0    0  0.66773095046E+02 -0.73529033467E+02 -0.13881328897E+03  0.17068770951E+03  0.00000000000E+00 0. -1.
         15    1    3    3    0    0 -0.18027003535E+02 -0.11488462515E+02  0.53545960264E+02  0.57655246839E+02  0.00000000000E+00 0. -1.
        -16    1    4    4    0    0 -0.12839690479E+03  0.20950040501E+03  0.25313330384E+03  0.35277847776E+03  0.00000000000E+00 0.  1.
         16    1    1    2    0    0 -0.11129617611E+03  0.15097509190E+03 -0.67603166485E+02  0.19937528761E+03  0.00000000000E+00 0. -1.
    9900018    1    1    2    0    0  0.19392042135E+03  0.74536747670E+02 -0.14567497039E+03  0.26962424216E+03  0.91187600000E+02 0.  0.
<mgrwt>
<rscale>  0 0.89897299E+03</rscale>
<asrwt>0</asrwt>
<pdfrwt beam="1">  1        2 0.14445114E+00 0.11873710E+04</pdfrwt>
<pdfrwt beam="2">  1       -2 0.12591432E+00 0.11873710E+04</pdfrwt>
<totfact> 0.12717762E+01</totfact>
</mgrwt>
</event>
<event>
12    1  0.9599717E-013  0.1063222E+04  0.7818608E-02  0.9507264E-01
         -2   -1    0    0    0  501 -0.00000000000E+00  0.00000000000E+00  0.31447855082E+03  0.31447855082E+03  0.00000000000E+00 0.  1.
          2   -1    0    0  501    0  0.00000000000E+00 -0.00000000000E+00 -0.19656514498E+04  0.19656514498E+04  0.00000000000E+00 0. -1.
         23    2    1    2    0    0  0.19763185948E+03  0.34726653338E+03 -0.14041674625E+03  0.43274694555E+03  0.88885652203E+02 0.  0.
    9900016    2    1    2    0    0 -0.16687817814E+03 -0.21756036883E+03 -0.95324084264E+03  0.12191934500E+04  0.70893139584E+03 0.  0.
         23    2    4    4    0    0 -0.14014936409E+03  0.21733108065E+03 -0.59486815783E+03  0.65503391268E+03  0.91250527031E+02 0.  0.
        -15    1    5    5    0    0 -0.12154802256E+02  0.66130808133E+02 -0.87412373634E+02  0.11028121357E+03  0.00000000000E+00 0. -1.
        -15    1    3    3    0    0  0.14900913088E+03  0.17267597626E+03 -0.76271930915E+02  0.24049557441E+03  0.00000000000E+00 0.  1.
         15    1    3    3    0    0  0.48622728598E+02  0.17459055712E+03 -0.64144815335E+02  0.19225137114E+03  0.00000000000E+00 0. -1.
         15    1    5    5    0    0 -0.12799456183E+03  0.15120027252E+03 -0.50745578420E+03  0.54475269911E+03  0.00000000000E+00 0.  1.
        -16    1    4    4    0    0 -0.26728814055E+02 -0.43489144948E+03 -0.35837268481E+03  0.56415953732E+03  0.00000000000E+00 0.  1.
         16    1    1    2    0    0  0.30239533974E+02 -0.13837860568E+03 -0.15097600359E+03  0.20701889186E+03  0.00000000000E+00 0. -1.
    9900018    1    1    2    0    0 -0.60993215315E+02  0.86724411299E+01 -0.40653930649E+03  0.42117071321E+03  0.91187600000E+02 0.  0.
<mgrwt>
<rscale>  0 0.83750395E+03</rscale>
<asrwt>0</asrwt>
<pdfrwt beam="1">  1        2 0.30240791E+00 0.10632215E+04</pdfrwt>
<pdfrwt beam="2">  1       -2 0.48381316E-01 0.10632215E+04</pdfrwt>
<totfact> 0.28186645E+01</totfact>
</mgrwt>
</event>
<event>
12    1  0.9599717E-013  0.1744011E+04  0.7818608E-02  0.9213848E-01
          2   -1    0    0  501    0  0.00000000000E+00  0.00000000000E+00  0.10725511778E+04  0.10725511778E+04  0.00000000000E+00 0. -1.
         -2   -1    0    0    0  501 -0.00000000000E+00 -0.00000000000E+00 -0.97488578804E+03  0.97488578804E+03  0.00000000000E+00 0.  1.
         23    2    1    2    0    0 -0.17318527023E+03 -0.18143406785E+03 -0.11416222219E+03  0.29060850851E+03  0.92243338196E+02 0.  0.
    9900016    2    1    2    0    0  0.10452189357E+03 -0.17103433386E+03  0.35147888696E+03  0.80692837705E+03  0.69815358491E+03 0.  0.
         23    2    4    4    0    0  0.38677063882E+03 -0.19143974243E+03  0.18414310534E+03  0.47817010917E+03  0.92180627158E+02 0.  0.
        -15    1    5    5    0    0  0.95911995466E+02 -0.39413225770E+02  0.88496107173E+02  0.13632341774E+03  0.00000000000E+00 0.  1.
        -15    1    3    3    0    0 -0.16017987076E+03 -0.12532136453E+03 -0.61270048943E+02  0.21240775481E+03  0.00000000000E+00 0.  1.
         15    1    5    5    0    0  0.29085864335E+03 -0.15202651666E+03  0.95646998166E+02  0.34184669143E+03  0.00000000000E+00 0. -1.
         15    1    3    3    0    0 -0.13005399473E+02 -0.56112703320E+02 -0.52892173243E+02  0.78200753703E+02  0.00000000000E+00 0. -1.
        -16    1    1    2    0    0 -0.75165269438E+02  0.53545411670E+03 -0.33199467516E+03  0.63449302057E+03  0.00000000000E+00 0.  1.
         16    1    4    4    0    0 -0.28224874525E+03  0.20405408569E+02  0.16733578162E+03  0.32875826788E+03  0.00000000000E+00 0. -1.
    9900018    1    1    2    0    0  0.14382864610E+03 -0.18298571499E+03  0.19234340010E+03  0.31540705966E+03  0.91187600000E+02 0.  0.
<mgrwt>
<rscale>  0 0.10911631E+04</rscale>
<asrwt>0</asrwt>
<pdfrwt beam="1">  1        2 0.16500787E+00 0.17440113E+04</pdfrwt>
<pdfrwt beam="2">  1       -2 0.14998243E+00 0.17440113E+04</pdfrwt>
<totfact> 0.63815864E+00</totfact>
</mgrwt>
</event>
<event>
12    1  0.1040902E-012  0.2002218E+04  0.7818608E-02  0.9101866E-01
         -1   -1    0    0    0  501 -0.00000000000E+00  0.00000000000E+00  0.10543957325E+04  0.10543957325E+04  0.00000000000E+00 0.  1.
          1   -1    0    0  501    0  0.00000000000E+00 -0.00000000000E+00 -0.12382894176E+04  0.12382894176E+04  0.00000000000E+00 0. -1.
         23    2    1    2    0    0  0.10557615380E+03  0.22945891677E+03  0.59023919590E+02  0.27578543025E+03  0.93680636832E+02 0.  0.
    9900016    2    1    2    0    0 -0.18552885117E+00 -0.10445648430E+03  0.14457179280E+03  0.71996660783E+03  0.69752399356E+03 0.  0.
         23    2    4    4    0    0 -0.33263731929E+02 -0.39464616152E+03  0.34391467702E+02  0.40780652019E+03  0.90946776676E+02 0.  0.
        -15    1    5    5    0    0 -0.37134726716E+02 -0.18611942045E+03 -0.23809156318E+02  0.19127546242E+03  0.00000000000E+00 0. -1.
        -15    1    3    3    0    0  0.80204843815E+02  0.65689975727E+02  0.22847325024E+02  0.10616020979E+03  0.00000000000E+00 0. -1.
         15    1    3    3    0    0  0.25371309987E+02  0.16376894104E+03  0.36176594566E+02  0.16962522046E+03  0.00000000000E+00 0.  1.
         15    1    5    5    0    0  0.38709947871E+01 -0.20852674107E+03  0.58200624020E+02  0.21653105777E+03  0.00000000000E+00 0.  1.
        -16    1    1    2    0    0  0.12556228875E+03  0.67451349710E+02 -0.78071815366E+03  0.79362233360E+03  0.00000000000E+00 0.  1.
         16    1    4    4    0    0  0.33078203078E+02  0.29018967722E+03  0.11018032510E+03  0.31216008765E+03  0.00000000000E+00 0. -1.
    9900018    1    1    2    0    0 -0.23095291370E+03 -0.19245378218E+03  0.39322875620E+03  0.50331077846E+03  0.91187600000E+02 0.  0.
<mgrwt>
<rscale>  0 0.12126373E+04</rscale>
<asrwt>0</asrwt>
<pdfrwt beam="1">  1        1 0.19050606E+00 0.20022176E+04</pdfrwt>
<pdfrwt beam="2">  1       -1 0.16221473E+00 0.20022176E+04</pdfrwt>
<totfact> 0.25920737E+00</totfact>
</mgrwt>
</event>
<event>
12    1  0.9599717E-013  0.1403756E+04  0.7818608E-02  0.9601552E-01
         -2   -1    0    0    0  501 -0.00000000000E+00  0.00000000000E+00  0.56383046286E+03  0.56383046286E+03  0.00000000000E+00 0.  1.
          2   -1    0    0  501    0  0.00000000000E+00 -0.00000000000E+00 -0.10559975952E+04  0.10559975952E+04  0.00000000000E+00 0. -1.
         23    2    1    2    0    0  0.48914054385E+02 -0.77231099252E+02 -0.98837484402E+02  0.16200794449E+03  0.90113807756E+02 0.  0.
    9900016    2    1    2    0    0  0.50814408301E+02 -0.22557317653E+03 -0.30837718767E+03  0.80657879922E+03  0.70852488130E+03 0.  0.
         23    2    4    4    0    0  0.13162148621E+03  0.22989344873E+03 -0.15744029366E+03  0.31999727826E+03  0.86229917205E+02 0.  0.
        -15    1    3    3    0    0  0.19406990013E+02 -0.50365514721E+02  0.15316594739E+01  0.53996873199E+02  0.00000000000E+00 0.  1.
        -15    1    5    5    0    0  0.76939323518E+02  0.16592020220E+03 -0.14807342975E+03  0.23531874894E+03  0.00000000000E+00 0. -1.
         15    1    3    3    0    0  0.29507064372E+02 -0.26865584531E+02 -0.10036914388E+03  0.10801107130E+03  0.00000000000E+00 0. -1.
         15    1    5    5    0    0  0.54682162691E+02  0.63973246533E+02 -0.93668639081E+01  0.84678529322E+02  0.00000000000E+00 0.  1.
        -16    1    1    2    0    0 -0.83470373395E+01  0.13964497559E+03  0.23270255397E+03  0.27151587590E+03  0.00000000000E+00 0.  1.
         16    1    4    4    0    0 -0.80807077909E+02 -0.45546662526E+03 -0.15093689401E+03  0.48658152096E+03  0.00000000000E+00 0. -1.
    9900018    1    1    2    0    0 -0.91381425347E+02  0.16315930019E+03 -0.31765501427E+03  0.37972543847E+03  0.91187600000E+02 0.  0.
<mgrwt>
<rscale>  0 0.77193531E+03</rscale>
<asrwt>0</asrwt>
<pdfrwt beam="1">  1        2 0.16246117E+00 0.14037561E+04</pdfrwt>
<pdfrwt beam="2">  1       -2 0.86743149E-01 0.14037561E+04</pdfrwt>
<totfact> 0.25896127E+01</totfact>
</mgrwt>
</event>
<event>
12    1  0.9599717E-013  0.1712048E+04  0.7818608E-02  0.9274969E-01
         -2   -1    0    0    0  501 -0.00000000000E+00  0.00000000000E+00  0.64368871880E+03  0.64368871880E+03  0.00000000000E+00 0.  1.
          2   -1    0    0  501    0  0.00000000000E+00 -0.00000000000E+00 -0.16312568008E+04  0.16312568008E+04  0.00000000000E+00 0. -1.
         23    2    1    2    0    0  0.13996567922E+03  0.14997936772E+03  0.10014786024E+03  0.24658766874E+03  0.93229192661E+02 0.  0.
    9900016    2    1    2    0    0 -0.58965052651E+02 -0.32602273926E+03 -0.31192237670E+03  0.84387301643E+03  0.71067460544E+03 0.  0.
         23    2    4    4    0    0 -0.36513471083E+03 -0.10246786519E+03 -0.76531002682E+02  0.39763794355E+03  0.91847260871E+02 0.  0.
        -15    1    5    5    0    0 -0.12594878803E+03 -0.41593617119E+02  0.16948450739E+02  0.13371752381E+03  0.00000000000E+00 0.  1.
        -15    1    3    3    0    0  0.56193593134E+02  0.59452452314E+02  0.91804969401E+02  0.12296530568E+03  0.00000000000E+00 0.  1.
         15    1    5    5    0    0 -0.23918592279E+03 -0.60874248075E+02 -0.93479453421E+02  0.26392041973E+03  0.00000000000E+00 0. -1.
         15    1    3    3    0    0  0.83772086084E+02  0.90526915407E+02  0.83428908347E+01  0.12362236306E+03  0.00000000000E+00 0. -1.
        -16    1    1    2    0    0  0.22044656268E+03  0.13384449188E+03 -0.82371102927E+03  0.86314013622E+03  0.00000000000E+00 0.  1.
         16    1    4    4    0    0  0.30616965817E+03 -0.22355487407E+03 -0.23539137402E+03  0.44623507288E+03  0.00000000000E+00 0. -1.
    9900018    1    1    2    0    0 -0.30144718924E+03  0.42198879661E+02  0.47917463735E+02  0.32134469822E+03  0.91187600000E+02 0.  0.
<mgrwt>
<rscale>  0 0.10312031E+04</rscale>
<asrwt>0</asrwt>
<pdfrwt beam="1">  1        2 0.25096258E+00 0.17120484E+04</pdfrwt>
<pdfrwt beam="2">  1       -2 0.99029034E-01 0.17120484E+04</pdfrwt>
<totfact> 0.85345704E+00</totfact>
</mgrwt>
</event>
<event>
12    1  0.9599717E-013  0.1384068E+04  0.7818608E-02  0.9492743E-01
          2   -1    0    0  501    0  0.00000000000E+00  0.00000000000E+00  0.67675406158E+03  0.67675406158E+03  0.00000000000E+00 0.  1.
         -2   -1    0    0    0  501 -0.00000000000E+00 -0.00000000000E+00 -0.94389636768E+03  0.94389636768E+03  0.00000000000E+00 0. -1.
         23    2    1    2    0    0  0.15110357254E+03 -0.80384025012E+02  0.48251604853E+02  0.20110174366E+03  0.93913858508E+02 0.  0.
    9900016    2    1    2    0    0  0.69662008155E+02 -0.18286890683E+03  0.18002313549E+03  0.75624728203E+03  0.70796030241E+03 0.  0.
         23    2    4    4    0    0  0.30007972921E+03 -0.83854942691E+01 -0.12347105670E+03  0.33714644437E+03  0.91128824819E+02 0.  0.
        -15    1    3    3    0    0  0.10881389602E+03 -0.61837370489E+02  0.76771157161E+02  0.14682688762E+03  0.00000000000E+00 0.  1.
        -15    1    5    5    0    0  0.28115898923E+02 -0.15256773955E+02 -0.42710616846E+02  0.53361687708E+02  0.00000000000E+00 0.  1.
         15    1    5    5    0    0  0.27196383028E+03  0.68712796861E+01 -0.80760439853E+02  0.28378475666E+03  0.00000000000E+00 0. -1.
         15    1    3    3    0    0  0.42289676518E+02 -0.18546654523E+02 -0.28519552308E+02  0.54274856037E+02  0.00000000000E+00 0. -1.
        -16    1    4    4    0    0 -0.23041772105E+03 -0.17448341256E+03  0.30349419219E+03  0.41910083766E+03  0.00000000000E+00 0.  1.
         16    1    1    2    0    0 -0.20174225708E+03  0.26601528157E+03 -0.30911078585E+03  0.45498741329E+03  0.00000000000E+00 0. -1.
    9900018    1    1    2    0    0 -0.19023323613E+02 -0.27623497268E+01 -0.18630626060E+03  0.20831399028E+03  0.91187600000E+02 0.  0.
<mgrwt>
<rscale>  0 0.84820979E+03</rscale>
<asrwt>0</asrwt>
<pdfrwt beam="1">  1        2 0.10411601E+00 0.13840683E+04</pdfrwt>
<pdfrwt beam="2">  1       -2 0.14521483E+00 0.13840683E+04</pdfrwt>
<totfact> 0.13522363E+01</totfact>
</mgrwt>
</event>
<event>
12    1  0.9599717E-013  0.1154134E+04  0.7818608E-02  0.9848550E-01
         -2   -1    0    0    0  501 -0.00000000000E+00  0.00000000000E+00  0.34798838918E+03  0.34798838918E+03  0.00000000000E+00 0. -1.
          2   -1    0    0  501    0  0.00000000000E+00 -0.00000000000E+00 -0.11429289777E+04  0.11429289777E+04  0.00000000000E+00 0.  1.
         23    2    1    2    0    0  0.38211185646E+02  0.23484606141E+02 -0.10679432944E+03  0.14720255140E+03  0.90840194326E+02 0.  0.
    9900016    2    1    2    0    0 -0.16710186844E+03 -0.29355351054E+02 -0.65475624918E+03  0.98202254171E+03  0.71195347848E+03 0.  0.
         23    2    4    4    0    0  0.12928494443E+03 -0.19962185306E+03 -0.13450402573E+02  0.25531144820E+03  0.91866975432E+02 0.  0.
        -15    1    5    5    0    0  0.13745969216E+03 -0.17251782700E+03 -0.29848946793E+02  0.22259498473E+03  0.00000000000E+00 0.  1.
        -15    1    3    3    0    0  0.52873501582E+02  0.17333487728E+02 -0.11612441120E+03  0.12876698274E+03  0.00000000000E+00 0. -1.
         15    1    5    5    0    0 -0.81747477332E+01 -0.27104026064E+02  0.16398544220E+02  0.32716463469E+02  0.00000000000E+00 0. -1.
         15    1    3    3    0    0 -0.14662315936E+02  0.61511184132E+01  0.93300817623E+01  0.18435568666E+02  0.00000000000E+00 0.  1.
        -16    1    4    4    0    0 -0.29638681287E+03  0.17026650201E+03 -0.64130584661E+03  0.72671109352E+03  0.00000000000E+00 0.  1.
         16    1    1    2    0    0  0.80374300264E+02  0.10211174628E+03  0.10267592346E+03  0.16561757796E+03  0.00000000000E+00 0. -1.
    9900018    1    1    2    0    0  0.48516382531E+02 -0.96241001365E+02 -0.13606593336E+03  0.19607469580E+03  0.91187600000E+02 0.  0.
<mgrwt>
<rscale>  0 0.62820923E+03</rscale>
<asrwt>0</asrwt>
<pdfrwt beam="1">  1        2 0.17583523E+00 0.11541335E+04</pdfrwt>
<pdfrwt beam="2">  1       -2 0.53536674E-01 0.11541335E+04</pdfrwt>
<totfact> 0.66628348E+01</totfact>
</mgrwt>
</event>
<event>
12    1  0.9599717E-013  0.1627583E+04  0.7818608E-02  0.9275421E-01
         -1   -1    0    0    0  501 -0.00000000000E+00  0.00000000000E+00  0.99499474442E+03  0.99499474442E+03  0.00000000000E+00 0.  1.
          1   -1    0    0  501    0  0.00000000000E+00 -0.00000000000E+00 -0.15578933198E+04  0.15578933198E+04  0.00000000000E+00 0. -1.
         23    2    1    2    0    0 -0.80794612729E+01 -0.24645781517E+03 -0.85950231430E+03  0.89849947095E+03  0.88036007798E+02 0.  0.
    9900016    2    1    2    0    0 -0.13055464714E+03  0.43621041333E+02  0.13405424057E+03  0.73252096463E+03  0.70687277008E+03 0.  0.
         23    2    4    4    0    0  0.25244723463E+03 -0.99843798031E+02  0.14989752650E+03  0.32322448129E+03  0.91139489679E+02 0.  0.
        -15    1    5    5    0    0  0.14317796135E+03 -0.85195518594E+02  0.48714443377E+02  0.17358370315E+03  0.00000000000E+00 0.  1.
        -15    1    3    3    0    0  0.15850671023E+02 -0.15862132459E+03 -0.41060731686E+03  0.44046604529E+03  0.00000000000E+00 0.  1.
         15    1    5    5    0    0  0.10926927328E+03 -0.14648279437E+02  0.10118308313E+03  0.14964077814E+03  0.00000000000E+00 0. -1.
         15    1    3    3    0    0 -0.23930132296E+02 -0.87836490578E+02 -0.44889499743E+03  0.45803342567E+03  0.00000000000E+00 0. -1.
        -16    1    1    2    0    0  0.36823872059E+03  0.16444519373E+03 -0.22414288673E+03  0.46139138565E+03  0.00000000000E+00 0.  1.
         16    1    4    4    0    0 -0.38300188176E+03  0.14346483936E+03 -0.15843285936E+02  0.40929648334E+03  0.00000000000E+00 0. -1.
    9900018    1    1    2    0    0 -0.22960461218E+03  0.38391580111E+02  0.38669238503E+03  0.46047624303E+03  0.91187600000E+02 0.  0.
<mgrwt>
<rscale>  0 0.10307752E+04</rscale>
<asrwt>0</asrwt>
<pdfrwt beam="1">  1        1 0.23967589E+00 0.16275834E+04</pdfrwt>
<pdfrwt beam="2">  1       -1 0.15307611E+00 0.16275834E+04</pdfrwt>
<totfact> 0.18536327E+00</totfact>
</mgrwt>
</event>
<event>
12    1  0.9599717E-013  0.1146536E+04  0.7818608E-02  0.9538941E-01
         -2   -1    0    0    0  501 -0.00000000000E+00  0.00000000000E+00  0.58430436982E+03  0.58430436982E+03  0.00000000000E+00 0.  1.
          2   -1    0    0  501    0  0.00000000000E+00 -0.00000000000E+00 -0.96899754524E+03  0.96899754524E+03  0.00000000000E+00 0. -1.
         23    2    1    2    0    0  0.12662833290E+03  0.24737805257E+03 -0.27529434795E+03  0.40155818956E+03  0.90726875861E+02 0.  0.
    9900016    2    1    2    0    0 -0.12726453786E+03 -0.21020116869E+03 -0.73118396678E+02  0.75344140678E+03  0.70848208136E+03 0.  0.
         23    2    4    4    0    0  0.20979213047E+03 -0.31877271401E+03 -0.74082869235E+02  0.39932855990E+03  0.91357791292E+02 0.  0.
        -15    1    5    5    0    0  0.29092506103E+02 -0.57797001815E+01 -0.14588942864E+02  0.33054743978E+02  0.00000000000E+00 0. -1.
        -15    1    3    3    0    0  0.93895249232E+02  0.13477608519E+03 -0.21236369637E+03  0.26847579128E+03  0.00000000000E+00 0. -1.
         15    1    3    3    0    0  0.32733083670E+02  0.11260196738E+03 -0.62930651583E+02  0.13308239828E+03  0.00000000000E+00 0.  1.
         15    1    5    5    0    0  0.18069962437E+03 -0.31299301383E+03 -0.59493926370E+02  0.36627381592E+03  0.00000000000E+00 0.  1.
        -16    1    4    4    0    0 -0.33705666833E+03  0.10857154532E+03  0.96447255675E+00  0.35411284689E+03  0.00000000000E+00 0.  1.
         16    1    1    2    0    0 -0.11921752728E+03 -0.39430764152E+02  0.12531297328E+03  0.17740052211E+03  0.00000000000E+00 0. -1.
    9900018    1    1    2    0    0  0.11985373224E+03  0.22538802751E+01 -0.16159340407E+03  0.22090179660E+03  0.91187600000E+02 0.  0.
<mgrwt>
<rscale>  0 0.81472772E+03</rscale>
<asrwt>0</asrwt>
<pdfrwt beam="1">  1        2 0.14907654E+00 0.11465363E+04</pdfrwt>
<pdfrwt beam="2">  1       -2 0.89892982E-01 0.11465363E+04</pdfrwt>
<totfact> 0.27542472E+01</totfact>
</mgrwt>
</event>
<event>
12    1  0.9599717E-013  0.1219928E+04  0.7818608E-02  0.9561427E-01
          2   -1    0    0  501    0  0.00000000000E+00  0.00000000000E+00  0.24051064461E+04  0.24051064461E+04  0.00000000000E+00 0. -1.
         -2   -1    0    0    0  501 -0.00000000000E+00 -0.00000000000E+00 -0.21696088866E+03  0.21696088866E+03  0.00000000000E+00 0.  1.
         23    2    1    2    0    0  0.20086081993E+03  0.40275723053E+02  0.35953531090E+03  0.42387716094E+03  0.91864056825E+02 0.  0.
    9900016    2    1    2    0    0 -0.25405200064E+03  0.15551959015E+03  0.94967925807E+03  0.12294460722E+04  0.72174662410E+03 0.  0.
         23    2    4    4    0    0  0.19080373310E+03 -0.49307689578E+02  0.56958800997E+03  0.60951043426E+03  0.90747757838E+02 0.  0.
        -15    1    3    3    0    0  0.16404970157E+03  0.14234447180E+02  0.20526077702E+03  0.26314807743E+03  0.00000000000E+00 0. -1.
        -15    1    5    5    0    0  0.14124473515E+03 -0.35343329128E+02  0.28220519985E+03  0.31755157210E+03  0.00000000000E+00 0.  1.
         15    1    5    5    0    0  0.49558997952E+02 -0.13964360450E+02  0.28738281012E+03  0.29195886216E+03  0.00000000000E+00 0. -1.
         15    1    3    3    0    0  0.36811118358E+02  0.26041275873E+02  0.15427453388E+03  0.16072908351E+03  0.00000000000E+00 0.  1.
        -16    1    4    4    0    0 -0.44485573374E+03  0.20482727973E+03  0.38009124810E+03  0.61993563798E+03  0.00000000000E+00 0.  1.
         16    1    1    2    0    0 -0.10212730248E+03  0.65711382876E+01  0.44949427051E+03  0.46099703360E+03  0.00000000000E+00 0. -1.
    9900018    1    1    2    0    0  0.15531848319E+03 -0.20236645149E+03  0.42943671798E+03  0.50774706799E+03  0.91187600000E+02 0.  0.
<mgrwt>
<rscale>  0 0.79902650E+03</rscale>
<asrwt>0</asrwt>
<pdfrwt beam="1">  1        2 0.37001636E+00 0.12199281E+04</pdfrwt>
<pdfrwt beam="2">  1       -2 0.33378600E-01 0.12199281E+04</pdfrwt>
<totfact> 0.32768342E+01</totfact>
</mgrwt>
</event>
<event>
12    1  0.9599717E-013  0.1356735E+04  0.7818608E-02  0.9356988E-01
         -2   -1    0    0    0  501 -0.00000000000E+00  0.00000000000E+00  0.83828283148E+03  0.83828283148E+03  0.00000000000E+00 0.  1.
          2   -1    0    0  501    0  0.00000000000E+00 -0.00000000000E+00 -0.11353554929E+04  0.11353554929E+04  0.00000000000E+00 0. -1.
         23    2    1    2    0    0  0.32227261516E+03  0.17105296209E+02  0.33721706014E+03  0.47595585896E+03  0.93093524957E+02 0.  0.
    9900016    2    1    2    0    0 -0.27077838185E+03  0.30410114464E+03 -0.21522078565E+03  0.84120725603E+03  0.70392558043E+03 0.  0.
         23    2    4    4    0    0 -0.74830721913E+01  0.77119273585E+02 -0.42052040157E+03  0.43748318916E+03  0.92470286764E+02 0.  0.
        -15    1    5    5    0    0 -0.47307358176E+02  0.60417123858E+02 -0.29131920474E+03  0.30125586142E+03  0.00000000000E+00 0. -1.
        -15    1    3    3    0    0  0.14094966505E+03  0.43225880292E+02  0.10921855884E+03  0.18347746019E+03  0.00000000000E+00 0.  1.
         15    1    3    3    0    0  0.18132295011E+03 -0.26120584082E+02  0.22799850130E+03  0.29247839876E+03  0.00000000000E+00 0. -1.
         15    1    5    5    0    0  0.39824285985E+02  0.16702149727E+02 -0.12920119683E+03  0.13622732774E+03  0.00000000000E+00 0.  1.
        -16    1    4    4    0    0 -0.26329530966E+03  0.22698187106E+03  0.20529961592E+03  0.40372406688E+03  0.00000000000E+00 0.  1.
         16    1    1    2    0    0  0.17246888966E+02 -0.32285471779E+03 -0.13511044805E+03  0.35041041245E+03  0.00000000000E+00 0. -1.
    9900018    1    1    2    0    0 -0.68741122269E+02  0.16482769389E+01 -0.28395848789E+03  0.30606479697E+03  0.91187600000E+02 0.  0.
<mgrwt>
<rscale>  0 0.95701518E+03</rscale>
<asrwt>0</asrwt>
<pdfrwt beam="1">  1        2 0.17467007E+00 0.13567348E+04</pdfrwt>
<pdfrwt beam="2">  1       -2 0.12896659E+00 0.13567348E+04</pdfrwt>
<totfact> 0.88572379E+00</totfact>
</mgrwt>
</event>
<event>
12    1  0.9599717E-013  0.2016447E+04  0.7818608E-02  0.9127825E-01
          2   -1    0    0  501    0  0.00000000000E+00  0.00000000000E+00  0.10566807458E+04  0.10566807458E+04  0.00000000000E+00 0. -1.
         -2   -1    0    0    0  501 -0.00000000000E+00 -0.00000000000E+00 -0.12358599367E+04  0.12358599367E+04  0.00000000000E+00 0.  1.
         23    2    1    2    0    0  0.11718224575E+03 -0.18755072057E+03  0.95842690646E+02  0.25742543903E+03  0.90416170059E+02 0.  0.
    9900016    2    1    2    0    0  0.37884083605E+02  0.75789584118E+00  0.41615041913E+03  0.83907866465E+03  0.72762356746E+03 0.  0.
         23    2    4    4    0    0  0.24909150376E+02  0.34888378201E+03  0.12148051047E+03  0.38279987204E+03  0.97148692645E+02 0.  0.
        -15    1    5    5    0    0 -0.30561925511E+02  0.21847392154E+03  0.85463386681E+02  0.23657742105E+03  0.00000000000E+00 0.  1.
        -15    1    3    3    0    0  0.37241512916E+02 -0.50637165900E+01  0.32290366146E+01  0.37722648203E+02  0.00000000000E+00 0.  1.
         15    1    5    5    0    0  0.55471075887E+02  0.13040986047E+03  0.36017123791E+02  0.14622245099E+03  0.00000000000E+00 0. -1.
         15    1    3    3    0    0  0.79940732833E+02 -0.18248700398E+03  0.92613654031E+02  0.21970279083E+03  0.00000000000E+00 0. -1.
        -16    1    4    4    0    0  0.12974933229E+02 -0.34812588617E+03  0.29466990866E+03  0.45627879261E+03  0.00000000000E+00 0.  1.
         16    1    1    2    0    0  0.11680312678E+03 -0.18064079941E+03 -0.69748984107E+03  0.72990831427E+03  0.00000000000E+00 0. -1.
    9900018    1    1    2    0    0 -0.27186945613E+03  0.36743362413E+03  0.63175404346E+01  0.46612826457E+03  0.91187600000E+02 0.  0.
<mgrwt>
<rscale>  0 0.11830483E+04</rscale>
<asrwt>0</asrwt>
<pdfrwt beam="1">  1        2 0.16256627E+00 0.20164466E+04</pdfrwt>
<pdfrwt beam="2">  1       -2 0.19013230E+00 0.20164466E+04</pdfrwt>
<totfact> 0.32978721E+00</totfact>
</mgrwt>
</event>
<event>
12    1  0.9599717E-013  0.1449899E+04  0.7818608E-02  0.9576005E-01
         -2   -1    0    0    0  501 -0.00000000000E+00  0.00000000000E+00  0.26727058023E+03  0.26727058023E+03  0.00000000000E+00 0. -1.
          2   -1    0    0  501    0  0.00000000000E+00 -0.00000000000E+00 -0.24690944515E+04  0.24690944515E+04  0.00000000000E+00 0.  1.
         23    2    1    2    0    0 -0.72665336202E+02  0.50511438159E+02 -0.39939746861E+02  0.13329952171E+03  0.91334126364E+02 0.  0.
    9900016    2    1    2    0    0  0.14672002092E+03  0.56271363298E+02 -0.11709287253E+04  0.13780317969E+04  0.70936896096E+03 0.  0.
         23    2    4    4    0    0  0.17376433223E+03  0.96545342235E+02 -0.12996365257E+02  0.21908367965E+03  0.91179531227E+02 0.  0.
        -15    1    5    5    0    0  0.63166325713E+02 -0.92950313057E+01  0.88272618967E+01  0.64453881680E+02  0.00000000000E+00 0.  1.
        -15    1    3    3    0    0 -0.30733658690E+02 -0.55093556980E+01  0.23317883190E+02  0.38969660675E+02  0.00000000000E+00 0. -1.
         15    1    5    5    0    0  0.11059800652E+03  0.10584037354E+03 -0.21823627154E+02  0.15462979797E+03  0.00000000000E+00 0. -1.
         15    1    3    3    0    0 -0.41931677513E+02  0.56020793857E+02 -0.63257630051E+02  0.94329861036E+02  0.00000000000E+00 0.  1.
        -16    1    1    2    0    0 -0.26270109000E+03 -0.32397888807E+03 -0.61135111417E+03  0.74008402725E+03  0.00000000000E+00 0.  1.
         16    1    4    4    0    0 -0.27044311304E+02 -0.40273978937E+02 -0.11579323600E+04  0.11589481173E+04  0.00000000000E+00 0. -1.
    9900018    1    1    2    0    0  0.18864640528E+03  0.21719608661E+03 -0.37960428502E+03  0.48494968591E+03  0.91187600000E+02 0.  0.
<mgrwt>
<rscale>  0 0.78904919E+03</rscale>
<asrwt>0</asrwt>
<pdfrwt beam="1">  1        2 0.37986067E+00 0.14498990E+04</pdfrwt>
<pdfrwt beam="2">  1       -2 0.41118552E-01 0.14498990E+04</pdfrwt>
<totfact> 0.19730440E+01</totfact>
</mgrwt>
</event>
<event>
12    1  0.9599717E-013  0.1642207E+04  0.7818608E-02  0.9199878E-01
         -2   -1    0    0    0  501 -0.00000000000E+00  0.00000000000E+00  0.57747099032E+03  0.57747099032E+03  0.00000000000E+00 0.  1.
          2   -1    0    0  501    0  0.00000000000E+00 -0.00000000000E+00 -0.17849083907E+04  0.17849083907E+04  0.00000000000E+00 0. -1.
         23    2    1    2    0    0 -0.12126665096E+02  0.32437906564E+03 -0.42717569194E+03  0.54423395632E+03  0.91338344606E+02 0.  0.
    9900016    2    1    2    0    0  0.25313347417E+03 -0.14209013795E+02 -0.27570236512E+03  0.80463923087E+03  0.71214748887E+03 0.  0.
         23    2    4    4    0    0 -0.34541893222E+02 -0.32015220283E+03 -0.11970784997E+03  0.35665190887E+03  0.95812522099E+02 0.  0.
        -15    1    5    5    0    0  0.29844544740E+02 -0.10649290664E+03 -0.20665694393E+02  0.11251003040E+03  0.00000000000E+00 0.  1.
        -15    1    3    3    0    0 -0.50370005321E+02  0.14920510889E+03 -0.21354855956E+03  0.26533429715E+03  0.00000000000E+00 0.  1.
         15    1    3    3    0    0  0.38243340225E+02  0.17517395676E+03 -0.21362713238E+03  0.27889965918E+03  0.00000000000E+00 0. -1.
         15    1    5    5    0    0 -0.64386437962E+02 -0.21365929619E+03 -0.99042155578E+02  0.24414187847E+03  0.00000000000E+00 0. -1.
        -16    1    4    4    0    0  0.28767536739E+03  0.30594318903E+03 -0.15599451515E+03  0.44798732200E+03  0.00000000000E+00 0.  1.
         16    1    1    2    0    0  0.91876134409E+02 -0.41306844644E+03 -0.39083498144E+02  0.42496386357E+03  0.00000000000E+00 0. -1.
    9900018    1    1    2    0    0 -0.33288294348E+03  0.10289839459E+03 -0.46547584522E+03  0.58854233029E+03  0.91187600000E+02 0.  0.
<mgrwt>
<rscale>  0 0.11054689E+04</rscale>
<asrwt>0</asrwt>
<pdfrwt beam="1">  1        2 0.27460128E+00 0.16422072E+04</pdfrwt>
<pdfrwt beam="2">  1       -2 0.88841694E-01 0.16422072E+04</pdfrwt>
<totfact> 0.90761192E+00</totfact>
</mgrwt>
</event>
<event>
12    1  0.9599717E-013  0.1371733E+04  0.7818608E-02  0.9458600E-01
          2   -1    0    0  501    0  0.00000000000E+00  0.00000000000E+00  0.19089992051E+04  0.19089992051E+04  0.00000000000E+00 0. -1.
         -2   -1    0    0    0  501 -0.00000000000E+00 -0.00000000000E+00 -0.33854055082E+03  0.33854055082E+03  0.00000000000E+00 0.  1.
         23    2    1    2    0    0 -0.18229990635E+03  0.96286237708E+02  0.31683529649E+03  0.38925489450E+03  0.92900335613E+02 0.  0.
    9900016    2    1    2    0    0  0.23387891741E+03 -0.20433153441E+03  0.95464600029E+03  0.12192812126E+04  0.69198769176E+03 0.  0.
         23    2    4    4    0    0  0.34786020310E+03 -0.20213553524E+03  0.20444800526E+03  0.46047057241E+03  0.91480411518E+02 0.  0.
        -15    1    5    5    0    0  0.75289900646E+02 -0.43740868212E+01  0.45599352885E+02  0.88130600578E+02  0.00000000000E+00 0.  1.
        -15    1    3    3    0    0 -0.17795721295E+03  0.74726112141E+02  0.23287789122E+03  0.30246466521E+03  0.00000000000E+00 0.  1.
         15    1    5    5    0    0  0.27257030246E+03 -0.19776144842E+03  0.15884865238E+03  0.37233997184E+03  0.00000000000E+00 0. -1.
         15    1    3    3    0    0 -0.43426933987E+01  0.21560125567E+02  0.83957405270E+02  0.86790229289E+02  0.00000000000E+00 0. -1.
        -16    1    4    4    0    0 -0.11398128570E+03 -0.21959991703E+01  0.75019799503E+03  0.75881064018E+03  0.00000000000E+00 0.  1.
         16    1    1    2    0    0 -0.23974994247E+03  0.21714779158E+03  0.12882553740E+03  0.34817986356E+03  0.00000000000E+00 0. -1.
    9900018    1    1    2    0    0  0.18817093142E+03 -0.10910249487E+03  0.17015182014E+03  0.29082378532E+03  0.91187600000E+02 0.  0.
<mgrwt>
<rscale>  0 0.87406091E+03</rscale>
<asrwt>0</asrwt>
<pdfrwt beam="1">  1        2 0.29369218E+00 0.13717329E+04</pdfrwt>
<pdfrwt beam="2">  1       -2 0.52083163E-01 0.13717329E+04</pdfrwt>
<totfact> 0.25418740E+01</totfact>
</mgrwt>
</event>
<event>
12    1  0.9599717E-013  0.1566900E+04  0.7818608E-02  0.9529325E-01
         -2   -1    0    0    0  501 -0.00000000000E+00  0.00000000000E+00  0.16546206617E+04  0.16546206617E+04  0.00000000000E+00 0.  1.
          2   -1    0    0  501    0  0.00000000000E+00 -0.00000000000E+00 -0.42937211964E+03  0.42937211964E+03  0.00000000000E+00 0. -1.
         23    2    1    2    0    0 -0.16043898830E+02 -0.73117068292E+02  0.98542020017E+02  0.15405926074E+03  0.91761722663E+02 0.  0.
    9900016    2    1    2    0    0 -0.28250922986E+03 -0.11786599074E+03  0.83171099908E+03  0.11319271593E+04  0.70413922722E+03 0.  0.
         23    2    4    4    0    0  0.29567893713E+02 -0.30373049937E+03  0.65382268238E+03  0.72747444288E+03  0.92781940370E+02 0.  0.
        -15    1    5    5    0    0 -0.16263008418E+02 -0.96006928874E+02  0.29137386587E+03  0.30721416886E+03  0.00000000000E+00 0.  1.
        -15    1    3    3    0    0 -0.53476758694E+02 -0.51912119312E+02  0.71271452538E+02  0.10312250869E+03  0.00000000000E+00 0.  1.
         15    1    3    3    0    0  0.37432859864E+02 -0.21204948981E+02  0.27270567479E+02  0.50936752051E+02  0.00000000000E+00 0. -1.
         15    1    5    5    0    0  0.45830902130E+02 -0.20772357050E+03  0.36244881651E+03  0.42026027402E+03  0.00000000000E+00 0. -1.
        -16    1    1    2    0    0  0.39842481462E+03  0.11501682017E+03 -0.51978325828E+02  0.41793892877E+03  0.00000000000E+00 0.  1.
         16    1    4    4    0    0 -0.31207712358E+03  0.18586450863E+03  0.17788831670E+03  0.40445271645E+03  0.00000000000E+00 0. -1.
    9900018    1    1    2    0    0 -0.99871685931E+02  0.75966238865E+02  0.34697384878E+03  0.38006743248E+03  0.91187600000E+02 0.  0.
<mgrwt>
<rscale>  0 0.82155927E+03</rscale>
<asrwt>0</asrwt>
<pdfrwt beam="1">  1        2 0.66057250E-01 0.15669001E+04</pdfrwt>
<pdfrwt beam="2">  1       -2 0.25455702E+00 0.15669001E+04</pdfrwt>
<totfact> 0.42415310E+00</totfact>
</mgrwt>
</event>
<event>
12    1  0.9599717E-013  0.1621234E+04  0.7818608E-02  0.9197549E-01
          2   -1    0    0  501    0  0.00000000000E+00  0.00000000000E+00  0.11048426689E+04  0.11048426689E+04  0.00000000000E+00 0.  1.
         -2   -1    0    0    0  501 -0.00000000000E+00 -0.00000000000E+00 -0.96400235710E+03  0.96400235710E+03  0.00000000000E+00 0. -1.
         23    2    1    2    0    0 -0.33642604325E+03  0.56438236297E+02  0.26653347055E+03  0.44274612852E+03  0.92823953284E+02 0.  0.
    9900016    2    1    2    0    0  0.72410958996E+03  0.16227208409E+03  0.14054948284E+03  0.10406420631E+04  0.71590140301E+03 0.  0.
         23    2    4    4    0    0  0.24173614574E+03 -0.17162892309E+03 -0.19029438752E+03  0.36712020834E+03  0.10330751210E+03 0.  0.
        -15    1    3    3    0    0 -0.19541915547E+03  0.60754762334E+02  0.11117464623E+03  0.23289394461E+03  0.00000000000E+00 0.  1.
        -15    1    5    5    0    0  0.70033576534E+02 -0.50056933661E+02 -0.11503884345E+03  0.14368136257E+03  0.00000000000E+00 0. -1.
         15    1    3    3    0    0 -0.14100688778E+03 -0.43165260374E+01  0.15535882432E+03  0.20985218391E+03  0.00000000000E+00 0. -1.
         15    1    5    5    0    0  0.17170256920E+03 -0.12157198943E+03 -0.75255544072E+02  0.22343884577E+03  0.00000000000E+00 0.  1.
        -16    1    4    4    0    0  0.48237344422E+03  0.33390100718E+03  0.33084387036E+03  0.67352185476E+03  0.00000000000E+00 0.  1.
         16    1    1    2    0    0 -0.10432783182E+03 -0.32247657489E+02 -0.20021625586E+03  0.22805867012E+03  0.00000000000E+00 0. -1.
    9900018    1    1    2    0    0 -0.28335571489E+03 -0.18646266290E+03 -0.66026385726E+02  0.35739816427E+03  0.91187600000E+02 0.  0.
<mgrwt>
<rscale>  0 0.11078757E+04</rscale>
<asrwt>0</asrwt>
<pdfrwt beam="1">  1        2 0.16997579E+00 0.16212337E+04</pdfrwt>
<pdfrwt beam="2">  1       -2 0.14830806E+00 0.16212337E+04</pdfrwt>
<totfact> 0.63189722E+00</totfact>
</mgrwt>
</event>
<event>
12    1  0.9599717E-013  0.1282507E+04  0.7818608E-02  0.9541935E-01
          2   -1    0    0  501    0  0.00000000000E+00  0.00000000000E+00  0.56099673195E+03  0.56099673195E+03  0.00000000000E+00 0. -1.
         -2   -1    0    0    0  501 -0.00000000000E+00 -0.00000000000E+00 -0.10075513070E+04  0.10075513070E+04  0.00000000000E+00 0.  1.
         23    2    1    2    0    0  0.61588287907E+01  0.18584914640E+03  0.10646882580E+02  0.20698325847E+03  0.90282206374E+02 0.  0.
    9900016    2    1    2    0    0 -0.36066358206E+02 -0.81966639144E+02 -0.45114079741E+03  0.84212956465E+03  0.70543240105E+03 0.  0.
         23    2    4    4    0    0  0.46656491257E+02 -0.17175677349E+03 -0.60982889086E+03  0.64191156083E+03  0.92097548173E+02 0.  0.
        -15    1    5    5    0    0 -0.12785874235E+02  0.49158816011E+01 -0.51346553559E+02  0.53142384537E+02  0.00000000000E+00 0. -1.
        -15    1    3    3    0    0  0.47743759221E+02  0.10563581690E+03  0.12625543939E+02  0.11660959102E+03  0.00000000000E+00 0. -1.
         15    1    3    3    0    0 -0.41584930430E+02  0.80213329502E+02 -0.19786613591E+01  0.90373667456E+02  0.00000000000E+00 0.  1.
         15    1    5    5    0    0  0.59442365492E+02 -0.17667265509E+03 -0.55848233730E+03  0.58876917629E+03  0.00000000000E+00 0.  1.
        -16    1    1    2    0    0  0.38846146416E+02 -0.63860203770E+02  0.24131040661E+03  0.25262197263E+03  0.00000000000E+00 0.  1.
         16    1    4    4    0    0 -0.82722849462E+02  0.89790134343E+02  0.15868809346E+03  0.20021800382E+03  0.00000000000E+00 0. -1.
    9900018    1    1    2    0    0 -0.89386170008E+01 -0.40022303491E+02 -0.24737106679E+03  0.26681324317E+03  0.91187600000E+02 0.  0.
<mgrwt>
<rscale>  0 0.81261514E+03</rscale>
<asrwt>0</asrwt>
<pdfrwt beam="1">  1        2 0.86307191E-01 0.12825075E+04</pdfrwt>
<pdfrwt beam="2">  1       -2 0.15500789E+00 0.12825075E+04</pdfrwt>
<totfact> 0.14407221E+01</totfact>
</mgrwt>
</event>
<event>
12    1  0.9599717E-013  0.1349240E+04  0.7818608E-02  0.9507015E-01
          2   -1    0    0  501    0  0.00000000000E+00  0.00000000000E+00  0.73351837522E+03  0.73351837522E+03  0.00000000000E+00 0. -1.
         -2   -1    0    0    0  501 -0.00000000000E+00 -0.00000000000E+00 -0.93107159335E+03  0.93107159335E+03  0.00000000000E+00 0.  1.
         23    2    1    2    0    0 -0.12889638674E+03 -0.12395575624E+03 -0.24245691508E+03  0.31460281061E+03  0.90610511285E+02 0.  0.
    9900016    2    1    2    0    0  0.29625042434E+03  0.24798546676E+03 -0.10647585661E+03  0.81717141485E+03  0.71215932737E+03 0.  0.
         23    2    4    4    0    0  0.20463340664E+03 -0.10993721924E+03 -0.30835369936E+03  0.39615242421E+03  0.88846586958E+02 0.  0.
        -15    1    5    5    0    0  0.28622716009E+02  0.75998851754E+00 -0.90832898231E+02  0.95238925106E+02  0.00000000000E+00 0. -1.
        -15    1    3    3    0    0 -0.62031620146E+02 -0.10881013292E+03 -0.19295148372E+03  0.23003878368E+03  0.00000000000E+00 0.  1.
         15    1    3    3    0    0 -0.66864766596E+02 -0.15145623315E+02 -0.49505431353E+02  0.84564026933E+02  0.00000000000E+00 0. -1.
         15    1    5    5    0    0  0.17601069063E+03 -0.11069720776E+03 -0.21752080113E+03  0.30091349911E+03  0.00000000000E+00 0.  1.
        -16    1    4    4    0    0  0.91617017709E+02  0.35792268600E+03  0.20187784275E+03  0.42101899064E+03  0.00000000000E+00 0.  1.
         16    1    1    2    0    0 -0.19808348717E+03 -0.24323432589E+03  0.20008000924E+03  0.37206453107E+03  0.00000000000E+00 0. -1.
    9900018    1    1    2    0    0  0.30729449566E+02  0.11920461537E+03 -0.48700455683E+02  0.16075121205E+03  0.91187600000E+02 0.  0.
<mgrwt>
<rscale>  0 0.83768573E+03</rscale>
<asrwt>0</asrwt>
<pdfrwt beam="1">  1        2 0.11284898E+00 0.13492402E+04</pdfrwt>
<pdfrwt beam="2">  1       -2 0.14324178E+00 0.13492402E+04</pdfrwt>
<totfact> 0.12662389E+01</totfact>
</mgrwt>
</event>
<event>
12    1  0.9599717E-013  0.1208010E+04  0.7818608E-02  0.9650444E-01
         -1   -1    0    0    0  501 -0.00000000000E+00  0.00000000000E+00  0.39912744023E+03  0.39912744023E+03  0.00000000000E+00 0.  1.
          1   -1    0    0  501    0  0.00000000000E+00 -0.00000000000E+00 -0.13324566264E+04  0.13324566264E+04  0.00000000000E+00 0. -1.
         23    2    1    2    0    0 -0.70516646706E+02  0.12379362997E+03  0.45834358236E+02  0.17657621931E+03  0.93706523501E+02 0.  0.
    9900016    2    1    2    0    0 -0.20894670001E+02 -0.27987311465E+02 -0.21767367910E+03  0.74176634466E+03  0.70824826344E+03 0.  0.
         23    2    4    4    0    0 -0.15369322104E+03 -0.10827618290E+03 -0.43021593887E+03  0.47860105398E+03  0.92886365174E+02 0.  0.
        -15    1    5    5    0    0 -0.78569463910E+02 -0.51229481961E+02 -0.10889823054E+03  0.14372350224E+03  0.00000000000E+00 0.  1.
        -15    1    3    3    0    0 -0.11312122974E+02  0.45498040059E+02 -0.27222362308E+02  0.54213400420E+02  0.00000000000E+00 0. -1.
         15    1    5    5    0    0 -0.75123757132E+02 -0.57046700935E+02 -0.32131770833E+03  0.33487755174E+03  0.00000000000E+00 0. -1.
         15    1    3    3    0    0 -0.59204523732E+02  0.78295589910E+02  0.73056720544E+02  0.12236281889E+03  0.00000000000E+00 0.  1.
        -16    1    4    4    0    0  0.13279855104E+03  0.80288871431E+02  0.21254225977E+03  0.26316529068E+03  0.00000000000E+00 0.  1.
         16    1    1    2    0    0  0.43000915829E+02  0.70805355188E+02 -0.15334438541E+03  0.17428992404E+03  0.00000000000E+00 0. -1.
    9900018    1    1    2    0    0  0.48410400878E+02 -0.16661167369E+03 -0.60814547989E+03  0.63895157862E+03  0.91187600000E+02 0.  0.
<mgrwt>
<rscale>  0 0.74045583E+03</rscale>
<asrwt>0</asrwt>
<pdfrwt beam="1">  1        1 0.20499333E+00 0.12080100E+04</pdfrwt>
<pdfrwt beam="2">  1       -1 0.61404222E-01 0.12080100E+04</pdfrwt>
<totfact> 0.22775197E+01</totfact>
</mgrwt>
</event>
<event>
12    1  0.9599717E-013  0.1432903E+04  0.7818608E-02  0.9397846E-01
          1   -1    0    0  501    0  0.00000000000E+00  0.00000000000E+00  0.20552279859E+04  0.20552279859E+04  0.00000000000E+00 0. -1.
         -1   -1    0    0    0  501 -0.00000000000E+00 -0.00000000000E+00 -0.40096991261E+03  0.40096991261E+03  0.00000000000E+00 0.  1.
         23    2    1    2    0    0 -0.11352839763E+03 -0.19648447183E+03  0.68069336666E+03  0.72384678778E+03  0.95477055019E+02 0.  0.
    9900016    2    1    2    0    0  0.10337185343E+03  0.12908174180E+03  0.33583647454E+03  0.80139641450E+03  0.70859172969E+03 0.  0.
         23    2    4    4    0    0 -0.94098320544E+02  0.34446269283E+03  0.16906340723E+02  0.36884600826E+03  0.90843341928E+02 0.  0.
        -15    1    5    5    0    0 -0.10020205372E+03  0.22492026795E+03 -0.89245290221E+01  0.24639242221E+03  0.00000000000E+00 0.  1.
        -15    1    3    3    0    0 -0.80164504460E+02 -0.91012761595E+02  0.47560975057E+03  0.49083022053E+03  0.00000000000E+00 0. -1.
         15    1    5    5    0    0  0.61037331754E+01  0.11954242489E+03  0.25830869746E+02  0.12245358606E+03  0.00000000000E+00 0. -1.
         15    1    3    3    0    0 -0.33363893165E+02 -0.10547171023E+03  0.20508361609E+03  0.23301656725E+03  0.00000000000E+00 0.  1.
        -16    1    1    2    0    0  0.90252131024E+02 -0.25862219026E+03  0.47174305059E+03  0.54550196172E+03  0.00000000000E+00 0.  1.
         16    1    4    4    0    0  0.19747017398E+03 -0.21538095103E+03  0.31893013382E+03  0.43255040623E+03  0.00000000000E+00 0. -1.
    9900018    1    1    2    0    0 -0.80095586831E+02  0.32602492029E+03  0.16598518149E+03  0.38545273452E+03  0.91187600000E+02 0.  0.
<mgrwt>
<rscale>  0 0.92253182E+03</rscale>
<asrwt>0</asrwt>
<pdfrwt beam="1">  1        1 0.31618891E+00 0.14329034E+04</pdfrwt>
<pdfrwt beam="2">  1       -1 0.61687680E-01 0.14329034E+04</pdfrwt>
<totfact> 0.70615553E+00</totfact>
</mgrwt>
</event>
<event>
12    1  0.9599717E-013  0.1775002E+04  0.7818608E-02  0.9258648E-01
         -2   -1    0    0    0  501 -0.00000000000E+00  0.00000000000E+00  0.39164005604E+03  0.39164005604E+03  0.00000000000E+00 0.  1.
          2   -1    0    0  501    0  0.00000000000E+00 -0.00000000000E+00 -0.26177951823E+04  0.26177951823E+04  0.00000000000E+00 0. -1.
         23    2    1    2    0    0 -0.18160906231E+03  0.61177978043E+02 -0.91987977735E+02  0.23359270503E+03  0.96846101040E+02 0.  0.
    9900016    2    1    2    0    0 -0.33230496588E+03 -0.12543000908E+03 -0.20351161348E+04  0.21844179371E+04  0.70980614554E+03 0.  0.
         23    2    4    4    0    0  0.58458157831E+02 -0.33192062391E+03 -0.79820730143E+03  0.87091968626E+03  0.88190402347E+02 0.  0.
        -15    1    5    5    0    0  0.28004877737E+02 -0.24121981762E+03 -0.65616252731E+03  0.69965744177E+03  0.00000000000E+00 0.  1.
        -15    1    3    3    0    0 -0.11898378698E+03  0.60688017776E+02 -0.10467068265E+03  0.16969422168E+03  0.00000000000E+00 0.  1.
         15    1    5    5    0    0  0.30453280094E+02 -0.90700806295E+02 -0.14204477412E+03  0.17126224449E+03  0.00000000000E+00 0. -1.
         15    1    3    3    0    0 -0.62625275328E+02  0.48996026682E+00  0.12682704911E+02  0.63898483353E+02  0.00000000000E+00 0. -1.
        -16    1    1    2    0    0  0.40780129564E+03  0.10467615175E+03 -0.13367230102E+03  0.44173213323E+03  0.00000000000E+00 0.  1.
         16    1    4    4    0    0 -0.39076312371E+03  0.20649061484E+03 -0.12369088334E+04  0.13134982509E+04  0.00000000000E+00 0. -1.
    9900018    1    1    2    0    0  0.10611273255E+03 -0.40424120714E+02  0.34621287309E+02  0.14969246298E+03  0.91187600000E+02 0.  0.
<mgrwt>
<rscale>  0 0.10468060E+04</rscale>
<asrwt>0</asrwt>
<pdfrwt beam="1">  1        2 0.40273773E+00 0.17750021E+04</pdfrwt>
<pdfrwt beam="2">  1       -2 0.60252314E-01 0.17750021E+04</pdfrwt>
<totfact> 0.71924825E+00</totfact>
</mgrwt>
</event>
