<event>
12    1  0.2241867E-011  0.2871513E+04  0.7818608E-02  0.8906834E-01
         -1   -1    0    0    0  501 -0.00000000000E+00  0.00000000000E+00  0.80134528338E+03  0.80134528338E+03  0.00000000000E+00 0.  1.
          1   -1    0    0  501    0  0.00000000000E+00 -0.00000000000E+00 -0.30821802467E+04  0.30821802467E+04  0.00000000000E+00 0. -1.
         23    2    1    2    0    0  0.12712609575E+03  0.12749040051E+03 -0.41589205086E+03  0.45955165138E+03  0.76201547695E+02 0.  0.
    9900016    2    1    2    0    0  0.20085967047E+03  0.24799719309E+03 -0.19102827020E+04  0.29233529720E+04  0.21897409395E+04 0.  0.
         24    2    4    4    0    0 -0.94701588785E+03 -0.19336174665E+01 -0.91188694484E+03  0.13172153014E+04  0.81703852103E+02 0.  0.
        -15    1    3    3    0    0  0.12091137407E+03  0.79843325450E+02 -0.27742446062E+03  0.31298378288E+03  0.00000000000E+00 0.  1.
        -15    1    5    5    0    0 -0.82649823158E+03  0.25228574274E+02 -0.78647551437E+03  0.11411746328E+04  0.00000000000E+00 0.  1.
         15    1    3    3    0    0  0.62147216824E+01  0.47647075060E+02 -0.13846759024E+03  0.14656786849E+03  0.00000000000E+00 0. -1.
         15    1    4    4    0    0  0.99627685244E+03  0.10585266889E+03 -0.66628780652E+03  0.12032089575E+04  0.00000000000E+00 0. -1.
        -16    1    1    2    0    0 -0.32798576622E+03 -0.37548759360E+03  0.45339789510E+02  0.50062090678E+03  0.00000000000E+00 0.  1.
         16    1    5    5    0    0 -0.12051765627E+03 -0.27162191740E+02 -0.12541143047E+03  0.17604066867E+03  0.00000000000E+00 0. -1.
    9900018    1    4    4    0    0  0.15159870588E+03  0.14407814166E+03 -0.33210795065E+03  0.40292871306E+03  0.91187600000E+02 0.  0.
<mgrwt>
<rscale>  0 0.14668022E+04</rscale>
<asrwt>0</asrwt>
<pdfrwt beam="1">  1        1 0.47418157E+00 0.28715127E+04</pdfrwt>
<pdfrwt beam="2">  1       -1 0.12328389E+00 0.28715127E+04</pdfrwt>
<totfact> 0.25702946E-01</totfact>
</mgrwt>
</event>
<event>
11    1  0.2241867E-011  0.3195034E+04  0.7818608E-02  0.8190130E-01
         -1   -1    0    0    0  501 -0.00000000000E+00  0.00000000000E+00  0.12299442095E+04  0.12299442095E+04  0.00000000000E+00 0.  1.
          1   -1    0    0  501    0  0.00000000000E+00 -0.00000000000E+00 -0.20749400797E+04  0.20749400797E+04  0.00000000000E+00 0. -1.
    9900016    2    1    2    0    0 -0.30616518906E+03 -0.22825734944E+03  0.85066126977E+02  0.22490646273E+04  0.22147724288E+04 0.  0.
        -24    2    3    3    0    0  0.74948930297E+03 -0.62669006983E+03 -0.12633368624E+03  0.98865755092E+03  0.83719136535E+02 0.  0.
        -15    1    1    2    0    0  0.69025209623E+02  0.83587748956E+02 -0.78863692950E+02  0.13405548629E+03  0.00000000000E+00 0.  1.
        -15    1    3    3    0    0 -0.96792849953E+03  0.46034171057E+03  0.92030383857E+02  0.10757646872E+04  0.00000000000E+00 0.  1.
         15    1    1    2    0    0  0.90490613301E+02 -0.52043628978E+02 -0.19480466296E+03  0.22101119230E+03  0.00000000000E+00 0. -1.
         15    1    4    4    0    0  0.40297140391E+03 -0.35166887045E+03 -0.10954727299E+03  0.54594647341E+03  0.00000000000E+00 0. -1.
        -16    1    4    4    0    0  0.34651789906E+03 -0.27502119938E+03 -0.16786413249E+02  0.44271107750E+03  0.00000000000E+00 0.  1.
         16    1    1    2    0    0  0.14664936614E+03  0.19671322947E+03 -0.65639364132E+03  0.70075298330E+03  0.00000000000E+00 0. -1.
    9900018    1    3    3    0    0 -0.87725992503E+02 -0.61908990185E+02  0.11936942936E+03  0.18464238919E+03  0.91187600000E+02 0.  0.
<mgrwt>
<rscale>  0 0.31950340E+04</rscale>
<asrwt>0</asrwt>
<pdfrwt beam="1">  1        1 0.31922155E+00 0.31950340E+04</pdfrwt>
<pdfrwt beam="2">  1       -1 0.18922219E+00 0.31950340E+04</pdfrwt>
<totfact> 0.39696256E-01</totfact>
</mgrwt>
</event>
<event>
12    1  0.2241867E-011  0.2636996E+04  0.7818608E-02  0.8987875E-01
          2   -1    0    0  501    0  0.00000000000E+00  0.00000000000E+00  0.11928983273E+04  0.11928983273E+04  0.00000000000E+00 0. -1.
         -2   -1    0    0    0  501 -0.00000000000E+00 -0.00000000000E+00 -0.17143397387E+04  0.17143397387E+04  0.00000000000E+00 0.  1.
         23    2    1    2    0    0  0.13051887385E+03  0.10271747376E+03  0.84081421503E+02  0.20161300810E+03  0.77408421691E+02 0.  0.
    9900016    2    1    2    0    0 -0.97751893912E+02 -0.46586129135E+03 -0.36095031381E+03  0.22665774245E+04  0.21864368083E+04 0.  0.
         24    2    4    4    0    0 -0.10411589480E+03 -0.11297300648E+04 -0.47205965144E+03  0.12314768901E+04  0.81023931524E+02 0.  0.
        -15    1    3    3    0    0  0.34935768691E+02 -0.88352511628E+01  0.21283122117E+02  0.41851414364E+02  0.00000000000E+00 0. -1.
        -15    1    5    5    0    0 -0.46972186883E+02 -0.70642266002E+03 -0.25645019183E+03  0.75299804901E+03  0.00000000000E+00 0.  1.
         15    1    4    4    0    0 -0.35681215332E+03  0.15415637179E+03  0.10491662895E+03  0.40259979974E+03  0.00000000000E+00 0. -1.
         15    1    3    3    0    0  0.95583105158E+02  0.11155272492E+03  0.62798299385E+02  0.15976159374E+03  0.00000000000E+00 0.  1.
        -16    1    1    2    0    0 -0.32766979938E+02  0.36314381759E+03 -0.24457251909E+03  0.43904763332E+03  0.00000000000E+00 0.  1.
         16    1    5    5    0    0 -0.57143707915E+02 -0.42330740476E+03 -0.21560945961E+03  0.47847884107E+03  0.00000000000E+00 0. -1.
    9900018    1    4    4    0    0  0.36317615421E+03  0.50971240165E+03  0.61927086793E+01  0.63250073471E+03  0.91187600000E+02 0.  0.
<mgrwt>
<rscale>  0 0.13539081E+04</rscale>
<asrwt>0</asrwt>
<pdfrwt beam="1">  1        2 0.18352282E+00 0.26369962E+04</pdfrwt>
<pdfrwt beam="2">  1       -2 0.26374457E+00 0.26369962E+04</pdfrwt>
<totfact> 0.88597319E-01</totfact>
</mgrwt>
</event>
<event>
12    1  0.2241867E-011  0.2891842E+04  0.7818608E-02  0.8833340E-01
          2   -1    0    0  501    0  0.00000000000E+00  0.00000000000E+00  0.33404573901E+04  0.33404573901E+04  0.00000000000E+00 0. -1.
         -2   -1    0    0    0  501 -0.00000000000E+00 -0.00000000000E+00 -0.81500917369E+03  0.81500917369E+03  0.00000000000E+00 0.  1.
         23    2    1    2    0    0 -0.22942538424E+03  0.14117291190E+02 -0.73301148505E+02  0.26750442403E+03  0.11554329778E+03 0.  0.
    9900016    2    1    2    0    0  0.48267865352E+03 -0.48612616067E+03  0.23512537346E+04  0.32978912302E+04  0.22087089249E+04 0.  0.
         24    2    4    4    0    0  0.35252276970E+03  0.37241254895E+03  0.15633452341E+04  0.16472599755E+04  0.80334900588E+02 0.  0.
        -15    1    3    3    0    0 -0.16013379308E+02 -0.32644896631E+02 -0.23903899445E+02  0.43514526329E+02  0.00000000000E+00 0.  1.
        -15    1    5    5    0    0  0.19554990162E+03  0.26266715750E+03  0.97465740774E+03  0.10281978711E+04  0.00000000000E+00 0.  1.
         15    1    4    4    0    0 -0.38749532547E+03 -0.35183407589E+03 -0.65573464657E+02  0.52748433482E+03  0.00000000000E+00 0. -1.
         15    1    3    3    0    0 -0.21341200493E+03  0.46762187821E+02 -0.49397249060E+02  0.22398989771E+03  0.00000000000E+00 0. -1.
        -16    1    1    2    0    0 -0.25325326928E+03  0.47200886948E+03  0.24749563028E+03  0.59007090953E+03  0.00000000000E+00 0.  1.
         16    1    5    5    0    0  0.15697286808E+03  0.10974539145E+03  0.58868782633E+03  0.61906210442E+03  0.00000000000E+00 0. -1.
    9900018    1    4    4    0    0  0.51765120929E+03 -0.50670463373E+03  0.85348196522E+03  0.11231469199E+04  0.91187600000E+02 0.  0.
<mgrwt>
<rscale>  0 0.15793426E+04</rscale>
<asrwt>0</asrwt>
<pdfrwt beam="1">  1        2 0.51391651E+00 0.28918422E+04</pdfrwt>
<pdfrwt beam="2">  1       -2 0.12538603E+00 0.28918422E+04</pdfrwt>
<totfact> 0.42464753E-01</totfact>
</mgrwt>
</event>
<event>
12    1  0.2241867E-011  0.2805498E+04  0.7818608E-02  0.8301564E-01
          1   -1    0    0  501    0  0.00000000000E+00  0.00000000000E+00  0.18809956320E+04  0.18809956320E+04  0.00000000000E+00 0. -1.
         -1   -1    0    0    0  501 -0.00000000000E+00 -0.00000000000E+00 -0.10460974160E+04  0.10460974160E+04  0.00000000000E+00 0.  1.
         23    2    1    2    0    0  0.68985944610E+02 -0.19863569919E+03  0.30081562355E+03  0.38648106154E+03  0.12108827363E+03 0.  0.
    9900016    2    1    2    0    0  0.13211101665E+03  0.23103174486E+03  0.28971432937E+03  0.22224841197E+04  0.21873893759E+04 0.  0.
        -24    2    4    4    0    0 -0.45045914761E+03 -0.32010986717E+03  0.74318639920E+03  0.92947924558E+03  0.78878851957E+02 0.  0.
        -15    1    4    4    0    0  0.47844285519E+01 -0.18991003336E+03 -0.27177516446E+03  0.33158777351E+03  0.00000000000E+00 0.  1.
        -15    1    3    3    0    0  0.89407788101E+02 -0.18084706575E+03  0.29713395444E+03  0.35914899505E+03  0.00000000000E+00 0.  1.
         15    1    5    5    0    0 -0.10321048011E+03 -0.87003754710E+02  0.23817120590E+03  0.27376555638E+03  0.00000000000E+00 0. -1.
         15    1    3    3    0    0 -0.20421843491E+02 -0.17788633440E+02  0.36816691087E+01  0.27332066491E+02  0.00000000000E+00 0. -1.
        -16    1    5    5    0    0 -0.34724866750E+03 -0.23310611246E+03  0.50501519330E+03  0.65571368920E+03  0.00000000000E+00 0.  1.
         16    1    1    2    0    0 -0.20109696126E+03 -0.32396045675E+02  0.24436826308E+03  0.31812786675E+03  0.00000000000E+00 0. -1.
    9900018    1    4    4    0    0  0.57778573571E+03  0.74105164539E+03 -0.18169690538E+03  0.96141710061E+03  0.91187600000E+02 0.  0.
<mgrwt>
<rscale>  0 0.28054979E+04</rscale>
<asrwt>0</asrwt>
<pdfrwt beam="1">  1        1 0.28938394E+00 0.28054979E+04</pdfrwt>
<pdfrwt beam="2">  1       -1 0.16093806E+00 0.28054979E+04</pdfrwt>
<totfact> 0.89287910E-01</totfact>
</mgrwt>
</event>
<event>
11    1  0.2241867E-011  0.2854161E+04  0.7818608E-02  0.8286648E-01
         -2   -1    0    0    0  501 -0.00000000000E+00  0.00000000000E+00  0.19640035168E+04  0.19640035168E+04  0.00000000000E+00 0.  1.
          2   -1    0    0  501    0  0.00000000000E+00 -0.00000000000E+00 -0.10369424587E+04  0.10369424587E+04  0.00000000000E+00 0. -1.
    9900016    2    1    2    0    0  0.16163652992E+03 -0.16508836856E+03  0.20209289839E+03  0.22189358720E+04  0.21976019493E+04 0.  0.
         24    2    3    3    0    0 -0.36018191136E+03  0.17783047380E+03  0.87352234307E+03  0.96470612464E+03  0.79132397844E+02 0.  0.
        -15    1    1    2    0    0 -0.16886382392E+03  0.14626904348E+03  0.67871524586E+03  0.71453761907E+03  0.00000000000E+00 0.  1.
        -15    1    4    4    0    0 -0.11172731696E+03  0.44078199769E+02  0.18455915479E+03  0.22019982440E+03  0.00000000000E+00 0.  1.
         15    1    1    2    0    0 -0.12470770402E+02 -0.16180268653E+01  0.34554251116E+02  0.36771380115E+02  0.00000000000E+00 0. -1.
         15    1    3    3    0    0  0.56651046067E+03  0.31407667359E+02 -0.11979277224E+03  0.57988865474E+03  0.00000000000E+00 0. -1.
        -16    1    1    2    0    0  0.19698064407E+02  0.20437351946E+02  0.11698662644E+02  0.30701104273E+02  0.00000000000E+00 0.  1.
         16    1    4    4    0    0 -0.24845459440E+03  0.13375227403E+03  0.68896318828E+03  0.74450630024E+03  0.00000000000E+00 0. -1.
    9900018    1    3    3    0    0 -0.44692019392E+02 -0.37432650972E+03 -0.55163667244E+03  0.67434109266E+03  0.91187600000E+02 0.  0.
<mgrwt>
<rscale>  0 0.28541609E+04</rscale>
<asrwt>0</asrwt>
<pdfrwt beam="1">  1        2 0.15952961E+00 0.28541609E+04</pdfrwt>
<pdfrwt beam="2">  1       -2 0.30215439E+00 0.28541609E+04</pdfrwt>
<totfact> 0.63721488E-01</totfact>
</mgrwt>
</event>
<event>
12    1  0.2241867E-011  0.3038583E+04  0.7818608E-02  0.8232798E-01
          3   -1    0    0  501    0  0.00000000000E+00  0.00000000000E+00  0.13277593467E+04  0.13277593467E+04  0.00000000000E+00 0. -1.
         -3   -1    0    0    0  501 -0.00000000000E+00 -0.00000000000E+00 -0.17384527819E+04  0.17384527819E+04  0.00000000000E+00 0.  1.
         23    2    1    2    0    0 -0.22411232598E+03  0.16877129159E+03  0.28897645781E+02  0.30153178914E+03  0.10665956316E+03 0.  0.
    9900016    2    1    2    0    0  0.43704533312E+03 -0.36870308679E+03 -0.68949491243E+03  0.23802780590E+04  0.22053049255E+04 0.  0.
        -24    2    4    4    0    0 -0.42014683361E+03 -0.36082771217E+03  0.47865001292E+03  0.73637218063E+03  0.80113381356E+02 0.  0.
        -15    1    4    4    0    0  0.50452030282E+03  0.36196372811E+03 -0.77304544481E+03  0.99154310858E+03  0.00000000000E+00 0.  1.
        -15    1    3    3    0    0 -0.17119212042E+03  0.69319666136E+02 -0.20411040415E+01  0.18470550699E+03  0.00000000000E+00 0.  1.
         15    1    3    3    0    0 -0.52920205555E+02  0.99451625451E+02  0.30938749822E+02  0.11682628215E+03  0.00000000000E+00 0. -1.
         15    1    5    5    0    0 -0.20122422149E+03 -0.17747631126E+03  0.28450203254E+03  0.39106321087E+03  0.00000000000E+00 0. -1.
        -16    1    5    5    0    0 -0.21892261212E+03 -0.18335140091E+03  0.19414798038E+03  0.34530896976E+03  0.00000000000E+00 0.  1.
         16    1    1    2    0    0 -0.21293300714E+03  0.19993179521E+03  0.24990383141E+03  0.38440228045E+03  0.00000000000E+00 0. -1.
    9900018    1    4    4    0    0  0.35267186391E+03 -0.36983910274E+03 -0.39509948054E+03  0.65236276980E+03  0.91187600000E+02 0.  0.
<mgrwt>
<rscale>  0 0.30385832E+04</rscale>
<asrwt>0</asrwt>
<pdfrwt beam="1">  1        3 0.20427067E+00 0.30385832E+04</pdfrwt>
<pdfrwt beam="2">  1       -3 0.26745427E+00 0.30385832E+04</pdfrwt>
<totfact> 0.17777479E-02</totfact>
</mgrwt>
</event>
<event>
12    1  0.2241867E-011  0.2788643E+04  0.7818608E-02  0.8961985E-01
         -3   -1    0    0    0  501 -0.00000000000E+00  0.00000000000E+00  0.17014660336E+04  0.17014660336E+04  0.00000000000E+00 0.  1.
          3   -1    0    0  501    0  0.00000000000E+00 -0.00000000000E+00 -0.13694222402E+04  0.13694222402E+04  0.00000000000E+00 0. -1.
         23    2    1    2    0    0 -0.69350307882E+02  0.94159025003E+02  0.22136951177E+03  0.28004976725E+03  0.12549113197E+03 0.  0.
    9900016    2    1    2    0    0 -0.43424176972E+03 -0.78147111244E+02  0.27714173459E+03  0.22602041928E+04  0.21993277534E+04 0.  0.
        -24    2    4    4    0    0  0.78261682678E+03 -0.17104938168E+03 -0.47142571236E+02  0.80665359768E+03  0.81979363893E+02 0.  0.
        -15    1    4    4    0    0 -0.13077944179E+03  0.61684355396E+02 -0.19750785950E+03  0.24478067052E+03  0.00000000000E+00 0.  1.
        -15    1    3    3    0    0 -0.56737746353E+02  0.12516456023E+03  0.18709480440E+03  0.23214177743E+03  0.00000000000E+00 0.  1.
         15    1    5    5    0    0  0.37751862306E+03 -0.98998136290E+02 -0.60695694601E+02  0.39497456765E+03  0.00000000000E+00 0. -1.
         15    1    3    3    0    0 -0.12612561529E+02 -0.31005535224E+02  0.34274707371E+02  0.47907989816E+02  0.00000000000E+00 0. -1.
        -16    1    5    5    0    0  0.40509820371E+03 -0.72051245387E+02  0.13553123366E+02  0.41167903003E+03  0.00000000000E+00 0.  1.
         16    1    1    2    0    0  0.50359207760E+03 -0.16011913759E+02 -0.16646745302E+03  0.53063431374E+03  0.00000000000E+00 0. -1.
    9900018    1    4    4    0    0 -0.10860791547E+04  0.31217915037E+02  0.52179216533E+03  0.12087699246E+04  0.91187600000E+02 0.  0.
<mgrwt>
<rscale>  0 0.13887732E+04</rscale>
<asrwt>0</asrwt>
<pdfrwt beam="1">  1        3 0.21068034E+00 0.27886432E+04</pdfrwt>
<pdfrwt beam="2">  1       -3 0.26176401E+00 0.27886432E+04</pdfrwt>
<totfact> 0.17656140E-02</totfact>
</mgrwt>
</event>
<event>
12    1  0.2241867E-011  0.2701011E+04  0.7818608E-02  0.8334677E-01
          2   -1    0    0  501    0  0.00000000000E+00  0.00000000000E+00  0.18454271698E+04  0.18454271698E+04  0.00000000000E+00 0. -1.
         -2   -1    0    0    0  501 -0.00000000000E+00 -0.00000000000E+00 -0.98831562874E+03  0.98831562874E+03  0.00000000000E+00 0.  1.
         23    2    1    2    0    0 -0.54264887743E+02  0.44549115401E+02  0.58219567243E+02  0.11887770524E+03  0.76243616568E+02 0.  0.
    9900016    2    1    2    0    0  0.50986391388E+01 -0.42552055722E+02  0.10591494773E+04  0.24499966800E+04  0.22088117718E+04 0.  0.
         24    2    4    4    0    0  0.41835382407E+03  0.15311564053E+03 -0.54521055701E+03  0.70862563903E+03  0.80196155273E+02 0.  0.
        -15    1    5    5    0    0  0.45233641016E+02  0.36257980112E+02 -0.10426626822E+03  0.11929869274E+03  0.00000000000E+00 0.  1.
        -15    1    3    3    0    0 -0.92098090996E+01 -0.21269246465E+02  0.19126832863E+02  0.30050576770E+02  0.00000000000E+00 0.  1.
         15    1    4    4    0    0 -0.41197872453E+03 -0.13858460392E+03  0.65605129065E+03  0.78697868959E+03  0.00000000000E+00 0. -1.
         15    1    3    3    0    0 -0.45055078643E+02  0.65818361865E+02  0.39092734380E+02  0.88827128466E+02  0.00000000000E+00 0. -1.
        -16    1    1    2    0    0  0.49166248604E+02 -0.19970596791E+01 -0.26025750345E+03  0.26486841328E+03  0.00000000000E+00 0.  1.
         16    1    5    5    0    0  0.37312018305E+03  0.11685766042E+03 -0.44094428880E+03  0.58932694629E+03  0.00000000000E+00 0. -1.
    9900018    1    4    4    0    0 -0.12764603988E+01 -0.57083092335E+02  0.94830874363E+03  0.95439235140E+03  0.91187600000E+02 0.  0.
<mgrwt>
<rscale>  0 0.27010106E+04</rscale>
<asrwt>0</asrwt>
<pdfrwt beam="1">  1        2 0.28391187E+00 0.27010106E+04</pdfrwt>
<pdfrwt beam="2">  1       -2 0.15204856E+00 0.27010106E+04</pdfrwt>
<totfact> 0.20644349E+00</totfact>
</mgrwt>
</event>
<event>
12    1  0.2241867E-011  0.2576027E+04  0.7818608E-02  0.9062833E-01
          1   -1    0    0  501    0  0.00000000000E+00  0.00000000000E+00  0.11632324268E+04  0.11632324268E+04  0.00000000000E+00 0. -1.
         -1   -1    0    0    0  501 -0.00000000000E+00 -0.00000000000E+00 -0.15936922818E+04  0.15936922818E+04  0.00000000000E+00 0.  1.
         23    2    1    2    0    0  0.15527799639E+02  0.12438728713E+03 -0.16343731311E+02  0.14782354172E+03  0.76624879606E+02 0.  0.
    9900016    2    1    2    0    0  0.13140667833E+03  0.13444286409E+03 -0.54862506637E+03  0.22824890978E+04  0.22075833890E+04 0.  0.
        -24    2    4    4    0    0  0.21779590122E+03 -0.38402892237E+03 -0.14001657118E+03  0.47057362275E+03  0.83196312508E+02 0.  0.
        -15    1    4    4    0    0 -0.72374349083E+03 -0.15888132230E+03  0.10041416091E+03  0.74775057259E+03  0.00000000000E+00 0.  1.
        -15    1    3    3    0    0 -0.16718783232E+02  0.10921061149E+03 -0.18919303488E+02  0.11209110321E+03  0.00000000000E+00 0. -1.
         15    1    5    5    0    0  0.72281603889E+02 -0.15864261707E+03 -0.16148547515E+02  0.17507965558E+03  0.00000000000E+00 0. -1.
         15    1    3    3    0    0  0.32246582871E+02  0.15176675640E+02  0.25755721765E+01  0.35732438517E+02  0.00000000000E+00 0.  1.
        -16    1    5    5    0    0  0.14551429733E+03 -0.22538630531E+03 -0.12386802367E+03  0.29549396717E+03  0.00000000000E+00 0.  1.
         16    1    1    2    0    0 -0.14693447797E+03 -0.25883015122E+03  0.13450894270E+03  0.32661206907E+03  0.00000000000E+00 0. -1.
    9900018    1    4    4    0    0  0.63735426794E+03  0.67735310877E+03 -0.50902265609E+03  0.10641649025E+04  0.91187600000E+02 0.  0.
<mgrwt>
<rscale>  0 0.12588705E+04</rscale>
<asrwt>0</asrwt>
<pdfrwt beam="1">  1        1 0.17895883E+00 0.25760273E+04</pdfrwt>
<pdfrwt beam="2">  1       -1 0.24518343E+00 0.25760273E+04</pdfrwt>
<totfact> 0.74880121E-01</totfact>
</mgrwt>
</event>
<event>
12    1  0.2241867E-011  0.2967584E+04  0.7818608E-02  0.8930886E-01
         -2   -1    0    0    0  501 -0.00000000000E+00  0.00000000000E+00  0.99550256324E+03  0.99550256324E+03  0.00000000000E+00 0.  1.
          2   -1    0    0  501    0  0.00000000000E+00 -0.00000000000E+00 -0.25690017569E+04  0.25690017569E+04  0.00000000000E+00 0. -1.
         23    2    1    2    0    0 -0.21157865677E+01 -0.10519582349E+03 -0.28911254454E+03  0.33089901323E+03  0.12180909536E+03 0.  0.
    9900016    2    1    2    0    0  0.17217034798E+03  0.32610508763E+03 -0.34936697564E+03  0.22579100437E+04  0.22000257555E+04 0.  0.
        -24    2    4    4    0    0 -0.81572932482E+03 -0.34978154650E+02 -0.16359951235E+03  0.83595550656E+03  0.73613897027E+02 0.  0.
        -15    1    4    4    0    0  0.95743102332E+03  0.13695921510E+03 -0.44621870554E+03  0.10651493436E+04  0.00000000000E+00 0.  1.
        -15    1    3    3    0    0 -0.28510467354E+02 -0.48313949073E+02 -0.28644351872E+02  0.62988755488E+02  0.00000000000E+00 0.  1.
         15    1    5    5    0    0 -0.45939218945E+03 -0.29456615574E+02 -0.12801137579E+03  0.47780308523E+03  0.00000000000E+00 0. -1.
         15    1    3    3    0    0  0.26394680787E+02 -0.56881874420E+02 -0.26046819267E+03  0.26791025774E+03  0.00000000000E+00 0. -1.
        -16    1    5    5    0    0 -0.35633713537E+03 -0.55215390759E+01 -0.35588136555E+02  0.35815242133E+03  0.00000000000E+00 0.  1.
         16    1    1    2    0    0 -0.17005456141E+03 -0.22090926414E+03 -0.93501967346E+03  0.97569526318E+03  0.00000000000E+00 0. -1.
    9900018    1    4    4    0    0  0.30468649483E+02  0.22412402719E+03  0.26045124225E+03  0.35680519355E+03  0.91187600000E+02 0.  0.
<mgrwt>
<rscale>  0 0.14321275E+04</rscale>
<asrwt>0</asrwt>
<pdfrwt beam="1">  1        2 0.39523104E+00 0.29675839E+04</pdfrwt>
<pdfrwt beam="2">  1       -2 0.15315424E+00 0.29675839E+04</pdfrwt>
<totfact> 0.76592224E-01</totfact>
</mgrwt>
</event>
<event>
11    1  0.2241867E-011  0.2737869E+04  0.7818608E-02  0.8832421E-01
          1   -1    0    0  501    0  0.00000000000E+00  0.00000000000E+00  0.11577809568E+04  0.11577809568E+04  0.00000000000E+00 0. -1.
         -1   -1    0    0    0  501 -0.00000000000E+00 -0.00000000000E+00 -0.20737344209E+04  0.20737344209E+04  0.00000000000E+00 0.  1.
    9900016    2    1    2    0    0  0.82347293205E+02  0.27136834646E+03 -0.24803105484E+03  0.22298420341E+04  0.21977839376E+04 0.  0.
         24    2    3    3    0    0  0.24870571612E+03 -0.70441813687E+03 -0.15800280430E+03  0.76753281066E+03  0.77989002326E+02 0.  0.
        -15    1    1    2    0    0  0.50726879265E+02 -0.55524311391E+02 -0.46721177053E+01  0.75352465914E+02  0.00000000000E+00 0.  1.
        -15    1    4    4    0    0  0.12093868585E+03 -0.39332612161E+03 -0.12255995843E+03  0.42936295495E+03  0.00000000000E+00 0.  1.
         15    1    1    2    0    0  0.49114947183E+02  0.18617723660E+03 -0.29095809775E+03  0.34889949285E+03  0.00000000000E+00 0. -1.
         15    1    3    3    0    0  0.43632103502E+03  0.54342649836E+03 -0.14904178918E+03  0.71267233680E+03  0.00000000000E+00 0. -1.
        -16    1    1    2    0    0 -0.18218911965E+03 -0.40202127167E+03 -0.37229219380E+03  0.57742138492E+03  0.00000000000E+00 0.  1.
         16    1    4    4    0    0  0.12776703027E+03 -0.31109201526E+03 -0.35442845872E+02  0.33816985570E+03  0.00000000000E+00 0. -1.
    9900018    1    3    3    0    0 -0.60267945793E+03  0.43235998497E+03  0.59013538643E+02  0.74963688660E+03  0.91187600000E+02 0.  0.
<mgrwt>
<rscale>  0 0.15808166E+04</rscale>
<asrwt>0</asrwt>
<pdfrwt beam="1">  1        1 0.17812015E+00 0.27378691E+04</pdfrwt>
<pdfrwt beam="2">  1       -1 0.31903606E+00 0.27378691E+04</pdfrwt>
<totfact> 0.24528564E-01</totfact>
</mgrwt>
</event>
