<event>
12    1  0.1617536E-008  0.3344399E+04  0.7818608E-02  0.8151689E-01
          2   -1    0    0  501    0  0.00000000000E+00  0.00000000000E+00  0.16625287390E+04  0.16625287390E+04  0.00000000000E+00 0.  1.
         -2   -1    0    0    0  501 -0.00000000000E+00 -0.00000000000E+00 -0.16819267687E+04  0.16819267687E+04  0.00000000000E+00 0. -1.
    9900016    2    1    2    0    0  0.26280313466E+03 -0.30056479937E+03  0.85086858797E+03  0.23869751309E+04  0.21941440781E+04 0.  0.
        -24    2    3    3    0    0  0.87116264493E+03  0.50265238402E+03  0.54633289742E+03  0.11473565341E+04  0.79772228069E+02 0.  0.
         23    2    3    3    0    0 -0.16901184987E+03 -0.22083751931E+03  0.25189861098E+03  0.38644478889E+03  0.92479453464E+02 0.  0.
        -15    1    3    3    0    0 -0.29388317861E+03 -0.26119950408E+03 -0.16777519101E+03  0.42748218480E+03  0.00000000000E+00 0.  1.
        -15    1    5    5    0    0 -0.41166385605E+02 -0.10452431344E+03  0.57082796999E+02  0.12600971834E+03  0.00000000000E+00 0. -1.
         15    1    4    4    0    0  0.59787432388E+03  0.38091462323E+03  0.36249330977E+03  0.79621043511E+03  0.00000000000E+00 0. -1.
         15    1    5    5    0    0 -0.12784546426E+03 -0.11631320588E+03  0.19481581398E+03  0.26043507055E+03  0.00000000000E+00 0.  1.
        -16    1    4    4    0    0  0.27328832104E+03  0.12173776079E+03  0.18383958765E+03  0.35114609895E+03  0.00000000000E+00 0.  1.
         16    1    1    2    0    0 -0.26280313466E+03  0.30056479937E+03 -0.87026661768E+03  0.95748037685E+03  0.00000000000E+00 0. -1.
    9900018    1    3    3    0    0 -0.14546448180E+03 -0.32118016000E+03  0.22041227057E+03  0.42569162319E+03  0.91187600000E+02 0.  0.
<mgrwt>
<rscale>  0 0.33443993E+04</rscale>
<asrwt>0</asrwt>
<pdfrwt beam="1">  1        2 0.25577365E+00 0.33443993E+04</pdfrwt>
<pdfrwt beam="2">  1       -2 0.25875797E+00 0.33443993E+04</pdfrwt>
<totfact> 0.48621734E-01</totfact>
</mgrwt>
</event>
<event>
12    1  0.1617536E-008  0.3375808E+04  0.7818608E-02  0.8143869E-01
         -2   -1    0    0    0  501 -0.00000000000E+00  0.00000000000E+00  0.10734365126E+04  0.10734365126E+04  0.00000000000E+00 0.  1.
          2   -1    0    0  501    0  0.00000000000E+00 -0.00000000000E+00 -0.26541115280E+04  0.26541115280E+04  0.00000000000E+00 0. -1.
    9900016    2    1    2    0    0  0.68359645762E+03  0.69281622215E+03 -0.11064288271E+04  0.26448625453E+04  0.21963184422E+04 0.  0.
        -24    2    3    3    0    0  0.23814464856E+03  0.41668150504E+03 -0.53560287092E+03  0.72362279653E+03  0.80144657010E+02 0.  0.
         23    2    3    3    0    0  0.35812624138E+03 -0.14937557598E+03  0.14120268345E+03  0.42290703822E+03  0.91349316913E+02 0.  0.
        -15    1    5    5    0    0  0.32418057522E+03 -0.15980653159E+03  0.11685687370E+03  0.37985089419E+03  0.00000000000E+00 0. -1.
        -15    1    3    3    0    0 -0.11959292478E+03  0.51990126129E+03 -0.99195659375E+03  0.11263115346E+04  0.00000000000E+00 0.  1.
         15    1    4    4    0    0  0.61302331441E+02  0.16602761728E+03 -0.23439867030E+03  0.29371054148E+03  0.00000000000E+00 0. -1.
         15    1    5    5    0    0  0.33945666161E+02  0.10430955616E+02  0.24345809750E+02  0.43056144028E+02  0.00000000000E+00 0.  1.
        -16    1    4    4    0    0  0.17684231711E+03  0.25065388776E+03 -0.30120420062E+03  0.42991225505E+03  0.00000000000E+00 0.  1.
         16    1    1    2    0    0 -0.68359645762E+03 -0.69281622215E+03 -0.47424618842E+03  0.10826854953E+04  0.00000000000E+00 0. -1.
    9900018    1    3    3    0    0  0.20691849246E+03 -0.94390968209E+02  0.27992795417E+03  0.37202117590E+03  0.91187600000E+02 0.  0.
<mgrwt>
<rscale>  0 0.33758082E+04</rscale>
<asrwt>0</asrwt>
<pdfrwt beam="1">  1        2 0.40832485E+00 0.33758082E+04</pdfrwt>
<pdfrwt beam="2">  1       -2 0.16514408E+00 0.33758082E+04</pdfrwt>
<totfact> 0.54192770E-01</totfact>
</mgrwt>
</event>
<event>
12    1  0.1617536E-008  0.3131167E+04  0.7818608E-02  0.8207236E-01
          1   -1    0    0  501    0  0.00000000000E+00  0.00000000000E+00  0.21942166117E+04  0.21942166117E+04  0.00000000000E+00 0. -1.
         -1   -1    0    0    0  501 -0.00000000000E+00 -0.00000000000E+00 -0.11170509492E+04  0.11170509492E+04  0.00000000000E+00 0.  1.
    9900016    2    1    2    0    0 -0.10996794743E+03 -0.71547346343E+03  0.11462061693E+04  0.25841074562E+04  0.21999608033E+04 0.  0.
        -24    2    3    3    0    0  0.62770050689E+03 -0.61587108931E+03  0.10349971872E+04  0.13605718408E+04  0.81433601290E+02 0.  0.
         23    2    3    3    0    0 -0.68337382828E+02 -0.25361627194E+03 -0.20011691805E+03  0.34223218412E+03  0.89915936726E+02 0.  0.
        -15    1    3    3    0    0 -0.69561817698E+03  0.12461857725E+03  0.33044122637E+03  0.78013193886E+03  0.00000000000E+00 0.  1.
        -15    1    5    5    0    0 -0.24841858740E+01 -0.79475476487E+02 -0.10909298976E+03  0.13499556644E+03  0.00000000000E+00 0.  1.
         15    1    4    4    0    0  0.42062729333E+03 -0.37101634018E+03  0.69725284387E+03  0.89484187031E+03  0.00000000000E+00 0. -1.
         15    1    5    5    0    0 -0.65853196954E+02 -0.17414079545E+03 -0.91023928283E+02  0.20723661768E+03  0.00000000000E+00 0. -1.
        -16    1    4    4    0    0  0.20707321357E+03 -0.24485474913E+03  0.33774434335E+03  0.46572997049E+03  0.00000000000E+00 0.  1.
         16    1    1    2    0    0  0.10996794743E+03  0.71547346343E+03 -0.69040506787E+02  0.72716010473E+03  0.00000000000E+00 0. -1.
    9900018    1    3    3    0    0  0.26287105485E+02  0.29395320560E+02 -0.19115326235E+02  0.10117149241E+03  0.91187600000E+02 0.  0.
<mgrwt>
<rscale>  0 0.31311670E+04</rscale>
<asrwt>0</asrwt>
<pdfrwt beam="1">  1        1 0.33757179E+00 0.31311670E+04</pdfrwt>
<pdfrwt beam="2">  1       -1 0.17185399E+00 0.31311670E+04</pdfrwt>
<totfact> 0.44116909E-01</totfact>
</mgrwt>
</event>
<event>
12    1  0.1617536E-008  0.2717692E+04  0.7818608E-02  0.8329287E-01
         -2   -1    0    0    0  501 -0.00000000000E+00  0.00000000000E+00  0.89102069545E+03  0.89102069545E+03  0.00000000000E+00 0.  1.
          2   -1    0    0  501    0  0.00000000000E+00 -0.00000000000E+00 -0.20723009828E+04  0.20723009828E+04  0.00000000000E+00 0. -1.
    9900016    2    1    2    0    0 -0.12874963053E+03  0.34317579280E+03 -0.66484798267E+03  0.23300378419E+04  0.22028861551E+04 0.  0.
        -24    2    3    3    0    0 -0.72395719850E+03  0.19152166508E+02 -0.89750537204E+03  0.11559846595E+04  0.79396532803E+02 0.  0.
         23    2    3    3    0    0  0.49358497625E+01  0.19265444701E+03  0.15285000014E+03  0.26234841362E+03  0.91233047868E+02 0.  0.
        -15    1    3    3    0    0 -0.27604863225E+02 -0.39629160476E+02  0.23985155864E+03  0.24466562696E+03  0.00000000000E+00 0.  1.
        -15    1    5    5    0    0 -0.22957859803E+02  0.15471478757E+03  0.14744246762E+03  0.21494885456E+03  0.00000000000E+00 0.  1.
         15    1    5    5    0    0  0.27893709566E+02  0.37939659439E+02  0.54075325269E+01  0.47399559067E+02  0.00000000000E+00 0. -1.
         15    1    4    4    0    0 -0.64201379719E+03  0.42217163692E+02 -0.79547848001E+03  0.10231080182E+04  0.00000000000E+00 0. -1.
        -16    1    4    4    0    0 -0.81943401317E+02 -0.23064997184E+02 -0.10202689203E+03  0.13287664134E+03  0.00000000000E+00 0.  1.
         16    1    1    2    0    0  0.12874963053E+03 -0.34317579280E+03 -0.51643230468E+03  0.63328383640E+03  0.00000000000E+00 0. -1.
    9900018    1    3    3    0    0  0.61787658143E+03  0.17099833976E+03 -0.16004416941E+03  0.66703914176E+03  0.91187600000E+02 0.  0.
<mgrwt>
<rscale>  0 0.27176924E+04</rscale>
<asrwt>0</asrwt>
<pdfrwt beam="1">  1        2 0.31881553E+00 0.27176924E+04</pdfrwt>
<pdfrwt beam="2">  1       -2 0.13708011E+00 0.27176924E+04</pdfrwt>
<totfact> 0.20234922E+00</totfact>
</mgrwt>
</event>
<event>
12    1  0.1617536E-008  0.2429535E+04  0.7818608E-02  0.8428528E-01
         -2   -1    0    0    0  501 -0.00000000000E+00  0.00000000000E+00  0.13426973821E+04  0.13426973821E+04  0.00000000000E+00 0.  1.
          2   -1    0    0  501    0  0.00000000000E+00 -0.00000000000E+00 -0.10990268508E+04  0.10990268508E+04  0.00000000000E+00 0. -1.
    9900016    2    1    2    0    0 -0.21298073461E+03  0.60690550873E+01  0.18803486429E+03  0.22215130747E+04  0.22032624910E+04 0.  0.
        -24    2    3    3    0    0  0.36785058004E+03 -0.12735858797E+03  0.44426418819E+03  0.59604323334E+03  0.79765957296E+02 0.  0.
         23    2    3    3    0    0  0.27894455107E+03  0.11532119812E+03 -0.76610390927E+02  0.32460527043E+03  0.91599062664E+02 0.  0.
        -15    1    3    3    0    0  0.13321296172E+03 -0.93176031891E+02 -0.24650186887E+03  0.29528060797E+03  0.00000000000E+00 0.  1.
        -15    1    5    5    0    0  0.15947433545E+03  0.63118095089E+02  0.35660945857E+01  0.17154787852E+03  0.00000000000E+00 0. -1.
         15    1    5    5    0    0  0.11947021562E+03  0.52203103030E+02 -0.80176485513E+02  0.15305739190E+03  0.00000000000E+00 0.  1.
         15    1    4    4    0    0  0.70237212031E+02  0.43360132417E+01  0.10020611152E+03  0.12244726110E+03  0.00000000000E+00 0. -1.
        -16    1    4    4    0    0  0.29761336801E+03 -0.13169460121E+03  0.34405807667E+03  0.47359597224E+03  0.00000000000E+00 0.  1.
         16    1    1    2    0    0  0.21298073461E+03 -0.60690550873E+01  0.55635667016E+02  0.22021115818E+03  0.00000000000E+00 0. -1.
    9900018    1    3    3    0    0 -0.99298882744E+03  0.11128247683E+03  0.66882935896E+02  0.10055839630E+04  0.91187600000E+02 0.  0.
<mgrwt>
<rscale>  0 0.24295353E+04</rscale>
<asrwt>0</asrwt>
<pdfrwt beam="1">  1        2 0.16908105E+00 0.24295353E+04</pdfrwt>
<pdfrwt beam="2">  1       -2 0.20656883E+00 0.24295353E+04</pdfrwt>
<totfact> 0.23579993E+00</totfact>
</mgrwt>
</event>
<event>
12    1  0.1617536E-008  0.3083164E+04  0.7818608E-02  0.8220373E-01
         -2   -1    0    0    0  501 -0.00000000000E+00  0.00000000000E+00  0.58080025667E+03  0.58080025667E+03  0.00000000000E+00 0.  1.
          2   -1    0    0  501    0  0.00000000000E+00 -0.00000000000E+00 -0.40917265410E+04  0.40917265410E+04  0.00000000000E+00 0. -1.
    9900016    2    1    2    0    0 -0.83021269016E+02  0.39679058885E+03 -0.36182063943E+04  0.42531888379E+04  0.21986046658E+04 0.  0.
         24    2    3    3    0    0 -0.88261220430E+02  0.11044395673E+03  0.17090948885E+03  0.23513915303E+03  0.78054194651E+02 0.  0.
         23    2    3    3    0    0 -0.29486136749E+03  0.19824735054E+03 -0.78757215649E+03  0.86885506959E+03  0.91618733020E+02 0.  0.
        -15    1    5    5    0    0 -0.59456451096E+02  0.89900760135E+02 -0.23383681105E+03  0.25748178664E+03  0.00000000000E+00 0. -1.
        -15    1    4    4    0    0 -0.76631897742E+02  0.35190811057E+02  0.10294414758E+03  0.13307268110E+03  0.00000000000E+00 0.  1.
         15    1    3    3    0    0  0.32657166260E+03 -0.18037363383E+03 -0.46241757288E+03  0.59414956896E+03  0.00000000000E+00 0. -1.
         15    1    5    5    0    0 -0.23540491640E+03  0.10834659041E+03 -0.55373534544E+03  0.61137328295E+03  0.00000000000E+00 0.  1.
        -16    1    1    2    0    0  0.83021269016E+02 -0.39679058885E+03  0.10728010998E+03  0.41933795977E+03  0.00000000000E+00 0.  1.
         16    1    4    4    0    0 -0.11629322688E+02  0.75253145670E+02  0.67965341262E+02  0.10206647193E+03  0.00000000000E+00 0. -1.
    9900018    1    3    3    0    0 -0.26470343696E+02  0.26847291541E+03 -0.25391261538E+04  0.25550450463E+04  0.91187600000E+02 0.  0.
<mgrwt>
<rscale>  0 0.30831645E+04</rscale>
<asrwt>0</asrwt>
<pdfrwt beam="1">  1        2 0.62949639E+00 0.30831645E+04</pdfrwt>
<pdfrwt beam="2">  1       -2 0.89353886E-01 0.30831645E+04</pdfrwt>
<totfact> 0.26239695E-01</totfact>
</mgrwt>
</event>
<event>
12    1  0.1617536E-008  0.3030107E+04  0.7818608E-02  0.8235186E-01
         -1   -1    0    0    0  501 -0.00000000000E+00  0.00000000000E+00  0.10288483488E+04  0.10288483488E+04  0.00000000000E+00 0.  1.
          1   -1    0    0  501    0  0.00000000000E+00 -0.00000000000E+00 -0.22310253114E+04  0.22310253114E+04  0.00000000000E+00 0. -1.
    9900016    2    1    2    0    0  0.35245827787E+03 -0.58164274315E+03 -0.11755342106E+04  0.25792526537E+04  0.21927445025E+04 0.  0.
        -24    2    3    3    0    0  0.20873216609E+03  0.21048746581E+03 -0.88442660239E+03  0.93613636397E+03  0.79163037448E+02 0.  0.
         23    2    3    3    0    0  0.35097626270E+02  0.92787293322E+02  0.13216584038E+03  0.18883951631E+03  0.91385055600E+02 0.  0.
        -15    1    5    5    0    0 -0.98893729496E+01  0.72730061130E+02  0.38195692695E+02  0.82742808931E+02  0.00000000000E+00 0. -1.
        -15    1    3    3    0    0  0.26808222882E+03 -0.10249139434E+04 -0.54699113185E+03  0.11922734465E+04  0.00000000000E+00 0.  1.
         15    1    4    4    0    0  0.10983462601E+03  0.13718219210E+03 -0.62061950004E+03  0.64502028087E+03  0.00000000000E+00 0. -1.
         15    1    5    5    0    0  0.44986999220E+02  0.20057232191E+02  0.93970147681E+02  0.10609670738E+03  0.00000000000E+00 0.  1.
        -16    1    4    4    0    0  0.98897540082E+02  0.73305273711E+02 -0.26380710235E+03  0.29111608310E+03  0.00000000000E+00 0.  1.
         16    1    1    2    0    0 -0.35245827787E+03  0.58164274315E+03 -0.26642752067E+02  0.68062100653E+03  0.00000000000E+00 0. -1.
    9900018    1    3    3    0    0 -0.15945374331E+03  0.13999644114E+03  0.12371768331E+03  0.26200332698E+03  0.91187600000E+02 0.  0.
<mgrwt>
<rscale>  0 0.30301067E+04</rscale>
<asrwt>0</asrwt>
<pdfrwt beam="1">  1        1 0.34323466E+00 0.30301067E+04</pdfrwt>
<pdfrwt beam="2">  1       -1 0.15828436E+00 0.30301067E+04</pdfrwt>
<totfact> 0.53032579E-01</totfact>
</mgrwt>
</event>
<event>
12    1  0.1617536E-008  0.3646292E+04  0.7818608E-02  0.8079970E-01
          2   -1    0    0  501    0  0.00000000000E+00  0.00000000000E+00  0.12376608873E+04  0.12376608873E+04  0.00000000000E+00 0. -1.
         -2   -1    0    0    0  501 -0.00000000000E+00 -0.00000000000E+00 -0.26855992288E+04  0.26855992288E+04  0.00000000000E+00 0.  1.
    9900016    2    1    2    0    0  0.10891674129E+04  0.38292676936E+03 -0.96043065106E+03  0.26700313611E+04  0.22076507581E+04 0.  0.
         24    2    3    3    0    0 -0.47189575230E+02 -0.36359688402E+03 -0.10005010271E+04  0.10686616859E+04  0.81276956180E+02 0.  0.
         23    2    3    3    0    0 -0.17650875055E+02  0.75724109774E+02 -0.56254552349E+02  0.13215031836E+03  0.90848433069E+02 0.  0.
        -15    1    5    5    0    0 -0.47756303501E+02  0.66140923388E+02 -0.19873496264E+02  0.83965719937E+02  0.00000000000E+00 0. -1.
        -15    1    4    4    0    0 -0.25299464430E+02 -0.31883736455E+03 -0.78882221668E+03  0.85119787210E+03  0.00000000000E+00 0.  1.
         15    1    3    3    0    0  0.93835990010E+02 -0.83083712350E+02  0.10746094960E+03  0.16509376720E+03  0.00000000000E+00 0. -1.
         15    1    5    5    0    0  0.30105428446E+02  0.95831863854E+01 -0.36381056085E+02  0.48184598422E+02  0.00000000000E+00 0.  1.
        -16    1    1    2    0    0 -0.10891674129E+04 -0.38292676936E+03 -0.48750769043E+03  0.12532287549E+04  0.00000000000E+00 0.  1.
         16    1    4    4    0    0 -0.21890110800E+02 -0.44759519471E+02 -0.21167881040E+03  0.21746381379E+03  0.00000000000E+00 0. -1.
    9900018    1    3    3    0    0  0.10601718731E+04  0.75388325596E+03 -0.11136021231E+02  0.13041255897E+04  0.91187600000E+02 0.  0.
<mgrwt>
<rscale>  0 0.36462919E+04</rscale>
<asrwt>0</asrwt>
<pdfrwt beam="1">  1        2 0.19040937E+00 0.36462919E+04</pdfrwt>
<pdfrwt beam="2">  1       -2 0.41316911E+00 0.36462919E+04</pdfrwt>
<totfact> 0.88761440E-02</totfact>
</mgrwt>
</event>
<event>
12    1  0.1617536E-008  0.2830450E+04  0.7818608E-02  0.8293877E-01
         -2   -1    0    0    0  501 -0.00000000000E+00  0.00000000000E+00  0.13491228993E+04  0.13491228993E+04  0.00000000000E+00 0.  1.
          2   -1    0    0  501    0  0.00000000000E+00 -0.00000000000E+00 -0.14845660220E+04  0.14845660220E+04  0.00000000000E+00 0. -1.
    9900016    2    1    2    0    0  0.83382803632E+02  0.39886283000E+03 -0.51568734508E+03  0.22763470893E+04  0.21793986290E+04 0.  0.
         24    2    3    3    0    0 -0.61166520096E+03  0.28060824483E+03  0.41778803792E+03  0.79562199375E+03  0.74781061622E+02 0.  0.
         23    2    3    3    0    0  0.43751175763E+03 -0.30639904095E+03 -0.64494070371E+03  0.84292777464E+03  0.96342158943E+02 0.  0.
        -15    1    4    4    0    0 -0.33993570645E+03  0.17314412858E+03  0.19681072804E+03  0.42926639334E+03  0.00000000000E+00 0.  1.
        -15    1    5    5    0    0  0.79224485961E+02 -0.10374370414E+03 -0.13887950676E+03  0.19059588852E+03  0.00000000000E+00 0. -1.
         15    1    3    3    0    0  0.10119035109E+03  0.36416031247E+03 -0.19299777225E+03  0.42438232813E+03  0.00000000000E+00 0. -1.
         15    1    5    5    0    0  0.35828727167E+03 -0.20265533681E+03 -0.50606119696E+03  0.65233188611E+03  0.00000000000E+00 0.  1.
        -16    1    1    2    0    0 -0.83382803632E+02 -0.39886283000E+03  0.38024422230E+03  0.55734183199E+03  0.00000000000E+00 0.  1.
         16    1    4    4    0    0 -0.27172949451E+03  0.10746411626E+03  0.22097730988E+03  0.36635560041E+03  0.00000000000E+00 0. -1.
    9900018    1    3    3    0    0  0.15634589587E+03  0.60493313642E+02 -0.95536907034E+02  0.21341499280E+03  0.91187600000E+02 0.  0.
<mgrwt>
<rscale>  0 0.28304502E+04</rscale>
<asrwt>0</asrwt>
<pdfrwt beam="1">  1        2 0.22839477E+00 0.28304502E+04</pdfrwt>
<pdfrwt beam="2">  1       -2 0.20755737E+00 0.28304502E+04</pdfrwt>
<totfact> 0.13349808E+00</totfact>
</mgrwt>
</event>
<event>
12    1  0.1617536E-008  0.2793156E+04  0.7818608E-02  0.8305396E-01
         -2   -1    0    0    0  501 -0.00000000000E+00  0.00000000000E+00  0.87344164334E+03  0.87344164334E+03  0.00000000000E+00 0.  1.
          2   -1    0    0  501    0  0.00000000000E+00 -0.00000000000E+00 -0.22330397806E+04  0.22330397806E+04  0.00000000000E+00 0. -1.
    9900016    2    1    2    0    0 -0.27516859869E+03  0.29676652185E+02 -0.16119805699E+04  0.27319212102E+04  0.21882215791E+04 0.  0.
         24    2    3    3    0    0 -0.93926695215E+02  0.59071279795E+03 -0.17210465185E+02  0.60387100568E+03  0.81241354280E+02 0.  0.
         23    2    3    3    0    0 -0.73157269854E+02 -0.22277174888E+02  0.14828617481E+03  0.19079971169E+03  0.92560691924E+02 0.  0.
        -15    1    5    5    0    0 -0.52130562354E+02 -0.28815155351E+02  0.23414042383E+02  0.64000985070E+02  0.00000000000E+00 0.  1.
        -15    1    4    4    0    0 -0.25013166156E+02  0.24742852716E+03 -0.44643262791E+02  0.25266490743E+03  0.00000000000E+00 0.  1.
         15    1    5    5    0    0 -0.21026707500E+02  0.65379804632E+01  0.12487213242E+03  0.12679872662E+03  0.00000000000E+00 0. -1.
         15    1    3    3    0    0 -0.13271971066E+03 -0.61390932055E+03 -0.97518730683E+03  0.11599523520E+04  0.00000000000E+00 0. -1.
        -16    1    1    2    0    0  0.27516859869E+03 -0.29676652185E+02  0.25238243270E+03  0.37456021375E+03  0.00000000000E+00 0.  1.
         16    1    4    4    0    0 -0.68913529059E+02  0.34328427079E+03  0.27432797606E+02  0.35120609825E+03  0.00000000000E+00 0. -1.
    9900018    1    3    3    0    0  0.24635077042E+02  0.75150349673E+02 -0.76786897271E+03  0.77729814082E+03  0.91187600000E+02 0.  0.
<mgrwt>
<rscale>  0 0.27931559E+04</rscale>
<asrwt>0</asrwt>
<pdfrwt beam="1">  1        2 0.34354458E+00 0.27931559E+04</pdfrwt>
<pdfrwt beam="2">  1       -2 0.13437564E+00 0.27931559E+04</pdfrwt>
<totfact> 0.17193538E+00</totfact>
</mgrwt>
</event>
