<event>
12    1  0.1417476E-015  0.2880282E+04  0.7818608E-02  0.8278768E-01
         -2   -1    0    0    0  501 -0.00000000000E+00  0.00000000000E+00  0.60328975571E+03  0.60328975571E+03  0.00000000000E+00 0.  1.
          2   -1    0    0  501    0  0.00000000000E+00 -0.00000000000E+00 -0.34378285370E+04  0.34378285370E+04  0.00000000000E+00 0. -1.
    9900016    2    1    2    0    0 -0.67021369849E+03  0.57421942955E+01 -0.31445322747E+04  0.33026635951E+04  0.75517165036E+03 0.  0.
         23    2    3    3    0    0  0.28280675850E+02 -0.33238930985E+02 -0.36820131361E+02  0.91998215424E+02  0.72134086313E+02 0.  0.
         23    2    3    3    0    0 -0.52531802416E+03 -0.85964973836E+02 -0.23533596152E+04  0.24155001252E+04  0.11397531833E+03 0.  0.
        -15    1    5    5    0    0 -0.19774884061E+03 -0.51954789397E+02 -0.11426578559E+04  0.11608061336E+04  0.00000000000E+00 0.  1.
        -15    1    4    4    0    0  0.34535892223E+02  0.35631680093E+01 -0.41799098476E+02  0.54337727698E+02  0.00000000000E+00 0.  1.
         15    1    5    5    0    0 -0.32756918354E+03 -0.34010184438E+02 -0.12107017593E+04  0.12546939916E+04  0.00000000000E+00 0. -1.
         15    1    4    4    0    0 -0.62552163726E+01 -0.36802098994E+02  0.49789671152E+01  0.37660487726E+02  0.00000000000E+00 0. -1.
        -16    1    1    2    0    0  0.67021369849E+03 -0.57421942955E+01  0.30999349341E+03  0.73845469759E+03  0.00000000000E+00 0.  1.
         16    1    3    3    0    0 -0.62007552382E+02  0.79102353140E+02 -0.30947065071E+03  0.32538316256E+03  0.00000000000E+00 0. -1.
    9900018    1    3    3    0    0 -0.11116879780E+03  0.45843745976E+02 -0.44488187744E+03  0.46978209195E+03  0.91187600000E+02 0.  0.
<mgrwt>
<rscale>  0 0.28802824E+04</rscale>
<asrwt>0</asrwt>
<pdfrwt beam="1">  1        2 0.52889670E+00 0.28802824E+04</pdfrwt>
<pdfrwt beam="2">  1       -2 0.92813809E-01 0.28802824E+04</pdfrwt>
<totfact> 0.76356345E-01</totfact>
</mgrwt>
</event>
<event>
11    1  0.1417476E-015  0.2001560E+04  0.7818608E-02  0.8605892E-01
          2   -1    0    0  501    0  0.00000000000E+00  0.00000000000E+00  0.78298174988E+03  0.78298174988E+03  0.00000000000E+00 0. -1.
         -2   -1    0    0    0  501 -0.00000000000E+00 -0.00000000000E+00 -0.12791624429E+04  0.12791624429E+04  0.00000000000E+00 0.  1.
    9900016    2    1    2    0    0 -0.81601196112E+03 -0.25522030386E+03 -0.33143324707E+03  0.11914234309E+04  0.76067658722E+03 0.  0.
         23    2    3    3    0    0 -0.38848304523E+02 -0.12416722443E+02 -0.28864178540E+01  0.11162240391E+03  0.10386464214E+03 0.  0.
        -15    1    4    4    0    0 -0.43821362820E+02  0.39493214243E+02 -0.65054901854E+01  0.59349365736E+02  0.00000000000E+00 0.  1.
        -15    1    3    3    0    0 -0.23662614307E+03 -0.61681891692E+02  0.81057001762E+02  0.25761759428E+03  0.00000000000E+00 0.  1.
         15    1    4    4    0    0  0.49730582970E+01 -0.51909936686E+02  0.36190723314E+01  0.52273038176E+02  0.00000000000E+00 0. -1.
         15    1    3    3    0    0 -0.27179962999E+03  0.17741471267E+02 -0.19777877317E+02  0.27309515392E+03  0.00000000000E+00 0. -1.
        -16    1    3    3    0    0 -0.15477539690E+03 -0.16915283614E+03 -0.29041984362E+03  0.37001593348E+03  0.00000000000E+00 0.  1.
         16    1    1    2    0    0  0.81601196112E+03  0.25522030386E+03 -0.16474744598E+03  0.87072076187E+03  0.00000000000E+00 0. -1.
    9900018    1    3    3    0    0 -0.11396248663E+03 -0.29710324845E+02 -0.99406110046E+02  0.17907234535E+03  0.91187600000E+02 0.  0.
<mgrwt>
<rscale>  0 0.20015602E+04</rscale>
<asrwt>0</asrwt>
<pdfrwt beam="1">  1        2 0.12045873E+00 0.20015602E+04</pdfrwt>
<pdfrwt beam="2">  1       -2 0.19679422E+00 0.20015602E+04</pdfrwt>
<totfact> 0.45950467E+00</totfact>
</mgrwt>
</event>
<event>
12    1  0.1417476E-015  0.9889360E+03  0.7818608E-02  0.9320764E-01
          1   -1    0    0  501    0  0.00000000000E+00  0.00000000000E+00  0.14281006143E+04  0.14281006143E+04  0.00000000000E+00 0. -1.
         -1   -1    0    0    0  501 -0.00000000000E+00 -0.00000000000E+00 -0.17120542994E+03  0.17120542994E+03  0.00000000000E+00 0.  1.
    9900016    2    1    2    0    0 -0.14096965042E+03  0.67884694675E+02  0.11962522184E+04  0.14315015645E+04  0.77051708929E+03 0.  0.
         23    2    3    3    0    0 -0.62689498661E+02  0.20471463321E+03  0.24073999603E+03  0.34023845134E+03  0.10940020015E+03 0.  0.
         23    2    3    3    0    0 -0.40166951504E+02 -0.23881580747E+03  0.34715332494E+03  0.44185943601E+03  0.12679888125E+03 0.  0.
        -15    1    5    5    0    0  0.38469740800E+02 -0.27565549632E+02  0.72030897274E+02  0.86187183767E+02  0.00000000000E+00 0.  1.
        -15    1    4    4    0    0 -0.58796608467E+02  0.15545645338E+03  0.23859891535E+03  0.29078031651E+03  0.00000000000E+00 0.  1.
         15    1    5    5    0    0 -0.78636692304E+02 -0.21125025784E+03  0.27512242766E+03  0.35567225224E+03  0.00000000000E+00 0. -1.
         15    1    4    4    0    0 -0.38928901938E+01  0.49258179837E+02  0.21410806773E+01  0.49458134835E+02  0.00000000000E+00 0. -1.
        -16    1    1    2    0    0  0.14096965042E+03 -0.67884694675E+02  0.60642965922E+02  0.16780447975E+03  0.00000000000E+00 0.  1.
         16    1    3    3    0    0 -0.65562379062E+02  0.11370265177E+03  0.34809157240E+03  0.37201406068E+03  0.00000000000E+00 0. -1.
    9900018    1    3    3    0    0  0.27449178810E+02 -0.11716782842E+02  0.26026732506E+03  0.27738961643E+03  0.91187600000E+02 0.  0.
<mgrwt>
<rscale>  0 0.98893595E+03</rscale>
<asrwt>0</asrwt>
<pdfrwt beam="1">  1        1 0.21970778E+00 0.98893595E+03</pdfrwt>
<pdfrwt beam="2">  1       -1 0.26339298E-01 0.98893595E+03</pdfrwt>
<totfact> 0.94264486E+01</totfact>
</mgrwt>
</event>
<event>
11    1  0.1417476E-015  0.9041271E+03  0.7818608E-02  0.9420437E-01
         -2   -1    0    0    0  501 -0.00000000000E+00  0.00000000000E+00  0.22180353985E+03  0.22180353985E+03  0.00000000000E+00 0.  1.
          2   -1    0    0  501    0  0.00000000000E+00 -0.00000000000E+00 -0.92136246395E+03  0.92136246395E+03  0.00000000000E+00 0. -1.
    9900016    2    1    2    0    0  0.12951533344E+03  0.41695992634E+02 -0.53569599722E+03  0.93017812573E+03  0.74816332893E+03 0.  0.
         23    2    3    3    0    0  0.14058366515E+03 -0.88092353198E+02  0.70741726275E+02  0.19482279998E+03  0.73671581730E+02 0.  0.
        -15    1    4    4    0    0  0.81235251038E+02 -0.79561718344E+02  0.72473695402E+02  0.13483942140E+03  0.00000000000E+00 0.  1.
        -15    1    3    3    0    0  0.44474062774E+02  0.78371959879E+02 -0.36308579168E+03  0.37410078652E+03  0.00000000000E+00 0.  1.
         15    1    3    3    0    0  0.11320613753E+02  0.62503165000E+02 -0.13832999746E+03  0.15221691801E+03  0.00000000000E+00 0. -1.
         15    1    4    4    0    0  0.59348414113E+02 -0.85306348532E+01 -0.17319691272E+01  0.59983378579E+02  0.00000000000E+00 0. -1.
        -16    1    3    3    0    0 -0.78390090576E+02 -0.21672888043E+02 -0.77909543343E+02  0.11262600641E+03  0.00000000000E+00 0.  1.
         16    1    1    2    0    0 -0.12951533344E+03 -0.41695992634E+02 -0.16386292688E+03  0.21298787807E+03  0.00000000000E+00 0. -1.
    9900018    1    3    3    0    0  0.11527082341E+02  0.10586108996E+02 -0.27112391012E+02  0.96411614814E+02  0.91187600000E+02 0.  0.
<mgrwt>
<rscale>  0 0.90412711E+03</rscale>
<asrwt>0</asrwt>
<pdfrwt beam="1">  1        2 0.14174807E+00 0.90412711E+03</pdfrwt>
<pdfrwt beam="2">  1       -2 0.34123622E-01 0.90412711E+03</pdfrwt>
<totfact> 0.22840869E+02</totfact>
</mgrwt>
</event>
<event>
11    1  0.1417476E-015  0.1636784E+04  0.7818608E-02  0.8798264E-01
          1   -1    0    0  501    0  0.00000000000E+00  0.00000000000E+00  0.13570573368E+04  0.13570573368E+04  0.00000000000E+00 0. -1.
         -1   -1    0    0    0  501 -0.00000000000E+00 -0.00000000000E+00 -0.49354247638E+03  0.49354247638E+03  0.00000000000E+00 0.  1.
    9900016    2    1    2    0    0  0.13052774925E+03  0.28320903370E+03  0.10073928668E+04  0.12402469747E+04  0.65278428289E+03 0.  0.
         23    2    3    3    0    0 -0.93919412249E+02  0.24642190491E+03  0.79206173036E+03  0.84246607348E+03  0.11332558868E+03 0.  0.
        -15    1    3    3    0    0  0.25292047940E+03  0.28088529439E+02  0.14098307617E+03  0.29091916773E+03  0.00000000000E+00 0.  1.
        -15    1    4    4    0    0  0.15197461793E+02 -0.14194451743E+01  0.60405967321E+02  0.62304562895E+02  0.00000000000E+00 0.  1.
         15    1    4    4    0    0 -0.10911687404E+03  0.24784135009E+03  0.73165576304E+03  0.78016151059E+03  0.00000000000E+00 0. -1.
         15    1    3    3    0    0 -0.71247784969E+01  0.11424301372E+02 -0.11899964998E+02  0.17969037187E+02  0.00000000000E+00 0. -1.
        -16    1    1    2    0    0 -0.18629728006E+03 -0.26228400585E+03 -0.28657202895E+03  0.43083999821E+03  0.00000000000E+00 0.  1.
         16    1    3    3    0    0 -0.21348539403E+02 -0.27257020210E+01  0.86248025270E+02  0.88892696264E+02  0.00000000000E+00 0. -1.
    9900018    1    1    2    0    0  0.55769530805E+02 -0.20925027856E+02  0.14269402254E+03  0.17951284026E+03  0.91187600000E+02 0.  0.
<mgrwt>
<rscale>  0 0.16367840E+04</rscale>
<asrwt>0</asrwt>
<pdfrwt beam="1">  1        1 0.20877805E+00 0.16367840E+04</pdfrwt>
<pdfrwt beam="2">  1       -1 0.75929612E-01 0.16367840E+04</pdfrwt>
<totfact> 0.13730514E+01</totfact>
</mgrwt>
</event>
<event>
12    1  0.1417476E-015  0.1019502E+04  0.7818608E-02  0.9287410E-01
         -2   -1    0    0    0  501 -0.00000000000E+00  0.00000000000E+00  0.22779771929E+03  0.22779771929E+03  0.00000000000E+00 0.  1.
          2   -1    0    0  501    0  0.00000000000E+00 -0.00000000000E+00 -0.11406878720E+04  0.11406878720E+04  0.00000000000E+00 0. -1.
    9900016    2    1    2    0    0  0.69099704588E+02 -0.21022984291E+03 -0.79013400911E+03  0.11154234906E+04  0.75557028459E+03 0.  0.
         23    2    3    3    0    0 -0.12440492782E+03  0.12640918762E+03 -0.90535814763E+02  0.23011674083E+03  0.11533044644E+03 0.  0.
         23    2    3    3    0    0  0.44881272432E+02 -0.98454450476E+02 -0.33662799735E+03  0.36106952302E+03  0.73110768141E+02 0.  0.
        -15    1    5    5    0    0 -0.46491923470E+01 -0.75597735094E+02 -0.20754914909E+03  0.22093728030E+03  0.00000000000E+00 0.  1.
        -15    1    4    4    0    0 -0.13043713490E+03  0.74926104891E+02 -0.35588196776E+02  0.15457777041E+03  0.00000000000E+00 0.  1.
         15    1    5    5    0    0  0.49530464779E+02 -0.22856715383E+02 -0.12907884827E+03  0.14013224272E+03  0.00000000000E+00 0. -1.
         15    1    4    4    0    0  0.60322070826E+01  0.51483082729E+02 -0.54947617986E+02  0.75538970419E+02  0.00000000000E+00 0. -1.
        -16    1    3    3    0    0  0.18217872911E+03 -0.20494817848E+03 -0.28320438422E+03  0.39420498277E+03  0.00000000000E+00 0.  1.
         16    1    1    2    0    0 -0.69099704588E+02  0.21022984291E+03 -0.12275614361E+03  0.25306210071E+03  0.00000000000E+00 0. -1.
    9900018    1    3    3    0    0 -0.33555369132E+02 -0.33236401571E+02 -0.79765812770E+02  0.13003224395E+03  0.91187600000E+02 0.  0.
<mgrwt>
<rscale>  0 0.10195020E+04</rscale>
<asrwt>0</asrwt>
<pdfrwt beam="1">  1        2 0.17549044E+00 0.10195020E+04</pdfrwt>
<pdfrwt beam="2">  1       -2 0.35045802E-01 0.10195020E+04</pdfrwt>
<totfact> 0.15657517E+02</totfact>
</mgrwt>
</event>
<event>
11    1  0.1417476E-015  0.9813516E+03  0.7818608E-02  0.9329238E-01
         -1   -1    0    0    0  501 -0.00000000000E+00  0.00000000000E+00  0.49422208918E+03  0.49422208918E+03  0.00000000000E+00 0.  1.
          1   -1    0    0  501    0  0.00000000000E+00 -0.00000000000E+00 -0.48715491839E+03  0.48715491839E+03  0.00000000000E+00 0. -1.
    9900016    2    1    2    0    0  0.11792139590E+03  0.19532270382E+02 -0.11793571722E+03  0.68318223814E+03  0.66222516708E+03 0.  0.
         23    2    3    3    0    0 -0.27648916819E+01 -0.31729802406E+02 -0.80754298456E+02  0.13778563044E+03  0.10700092640E+03 0.  0.
        -15    1    4    4    0    0  0.37897667315E+02 -0.10824638134E+02  0.58578320899E+01  0.39846206537E+02  0.00000000000E+00 0. -1.
        -15    1    3    3    0    0 -0.64796228551E+02 -0.32721598843E+02  0.42233603573E+02  0.83981733348E+02  0.00000000000E+00 0. -1.
         15    1    3    3    0    0  0.42081174843E+01  0.64837649039E+02  0.15289442282E+03  0.16612746165E+03  0.00000000000E+00 0.  1.
         15    1    4    4    0    0 -0.40662558996E+02 -0.20905164272E+02 -0.86612130546E+02  0.97939423906E+02  0.00000000000E+00 0.  1.
        -16    1    1    2    0    0 -0.10062702560E+03 -0.91786099116E+01  0.16747917970E+03  0.19559989978E+03  0.00000000000E+00 0.  1.
         16    1    3    3    0    0  0.18127439865E+03  0.19146022593E+02 -0.23230944516E+03  0.29528741269E+03  0.00000000000E+00 0. -1.
    9900018    1    1    2    0    0 -0.17294370294E+02 -0.10353660471E+02 -0.42476291696E+02  0.10259486965E+03  0.91187600000E+02 0.  0.
<mgrwt>
<rscale>  0 0.98135156E+03</rscale>
<asrwt>0</asrwt>
<pdfrwt beam="1">  1        1 0.74946911E-01 0.98135156E+03</pdfrwt>
<pdfrwt beam="2">  1       -1 0.76034167E-01 0.98135156E+03</pdfrwt>
<totfact> 0.80153709E+01</totfact>
</mgrwt>
</event>
<event>
12    1  0.1417476E-015  0.1066843E+04  0.7818608E-02  0.9238125E-01
          1   -1    0    0  501    0  0.00000000000E+00  0.00000000000E+00  0.36966880845E+03  0.36966880845E+03  0.00000000000E+00 0. -1.
         -1   -1    0    0    0  501 -0.00000000000E+00 -0.00000000000E+00 -0.76971243396E+03  0.76971243396E+03  0.00000000000E+00 0.  1.
    9900016    2    1    2    0    0  0.75391982821E+02 -0.21201704131E+03 -0.15275704755E+03  0.80503736477E+03  0.75770394364E+03 0.  0.
         23    2    3    3    0    0  0.10144110003E+03 -0.97117367811E+02  0.11794926227E+03  0.21159810684E+03  0.10554454247E+03 0.  0.
         23    2    3    3    0    0  0.31179752624E+02  0.87692004879E+02  0.63615835640E+02  0.13731433217E+03  0.78397618465E+02 0.  0.
        -15    1    5    5    0    0 -0.25806866372E+02  0.29934977990E+02  0.12654099572E+02  0.41499680663E+02  0.00000000000E+00 0.  1.
        -15    1    4    4    0    0  0.76752374112E+01 -0.10441497115E+02  0.76143896949E+02  0.77238767300E+02  0.00000000000E+00 0. -1.
         15    1    5    5    0    0  0.56986618996E+02  0.57757026889E+02  0.50961736068E+02  0.95814651504E+02  0.00000000000E+00 0.  1.
         15    1    4    4    0    0  0.93765862614E+02 -0.86675870696E+02  0.41805365317E+02  0.13435933954E+03  0.00000000000E+00 0. -1.
        -16    1    3    3    0    0 -0.80608281094E+02 -0.17411193595E+03 -0.29122204669E+03  0.34874480885E+03  0.00000000000E+00 0.  1.
         16    1    1    2    0    0 -0.75391982821E+02  0.21201704131E+03 -0.24728657796E+03  0.33434387765E+03  0.00000000000E+00 0. -1.
    9900018    1    3    3    0    0  0.23379411267E+02 -0.28479742431E+02 -0.43100098763E+02  0.10738011691E+03  0.91187600000E+02 0.  0.
<mgrwt>
<rscale>  0 0.10668433E+04</rscale>
<asrwt>0</asrwt>
<pdfrwt beam="1">  1        1 0.56872124E-01 0.10668433E+04</pdfrwt>
<pdfrwt beam="2">  1       -1 0.11841730E+00 0.10668433E+04</pdfrwt>
<totfact> 0.42566834E+01</totfact>
</mgrwt>
</event>
<event>
11    1  0.1417476E-015  0.1019201E+04  0.7818608E-02  0.9287733E-01
         -1   -1    0    0    0  501 -0.00000000000E+00  0.00000000000E+00  0.21283408420E+03  0.21283408420E+03  0.00000000000E+00 0.  1.
          1   -1    0    0  501    0  0.00000000000E+00 -0.00000000000E+00 -0.12201646235E+04  0.12201646235E+04  0.00000000000E+00 0. -1.
    9900016    2    1    2    0    0  0.26215262136E+02  0.22597358435E+02 -0.46096419818E+03  0.81485394239E+03  0.67104476367E+03 0.  0.
         23    2    3    3    0    0 -0.19812382329E+03 -0.15180235271E+03 -0.15364909524E+03  0.30305701854E+03  0.77061717964E+02 0.  0.
        -15    1    3    3    0    0  0.45011738041E+02  0.15190051975E+03 -0.18723951310E+03  0.24527221556E+03  0.00000000000E+00 0.  1.
        -15    1    4    4    0    0 -0.36889608164E+02 -0.47484059195E+02 -0.52439950564E+01  0.60357920377E+02  0.00000000000E+00 0. -1.
         15    1    4    4    0    0 -0.16123421512E+03 -0.10431829352E+03 -0.14840510018E+03  0.24269909816E+03  0.00000000000E+00 0. -1.
         15    1    3    3    0    0  0.51358515141E+02  0.66802507638E+01  0.36743573623E+02  0.63501283691E+02  0.00000000000E+00 0.  1.
        -16    1    3    3    0    0  0.12796883224E+03  0.15818940637E+02 -0.15681916346E+03  0.20302342460E+03  0.00000000000E+00 0.  1.
         16    1    1    2    0    0 -0.35313394917E+02 -0.49746668448E+02 -0.51344471527E+03  0.51705632432E+03  0.00000000000E+00 0. -1.
    9900018    1    1    2    0    0  0.90981327813E+01  0.27149310013E+02 -0.32921625815E+02  0.10108844095E+03  0.91187600000E+02 0.  0.
<mgrwt>
<rscale>  0 0.10192009E+04</rscale>
<asrwt>0</asrwt>
<pdfrwt beam="1">  1        1 0.18771763E+00 0.10192009E+04</pdfrwt>
<pdfrwt beam="2">  1       -1 0.32743705E-01 0.10192009E+04</pdfrwt>
<totfact> 0.90334422E+01</totfact>
</mgrwt>
</event>
<event>
12    1  0.1417476E-015  0.1303162E+04  0.7818608E-02  0.9027062E-01
         -1   -1    0    0    0  501 -0.00000000000E+00  0.00000000000E+00  0.17721636788E+03  0.17721636788E+03  0.00000000000E+00 0.  1.
          1   -1    0    0  501    0  0.00000000000E+00 -0.00000000000E+00 -0.23957014855E+04  0.23957014855E+04  0.00000000000E+00 0. -1.
    9900016    2    1    2    0    0 -0.38364200902E+03 -0.18520756688E+03 -0.15341518475E+04  0.17668191879E+04  0.76586233591E+03 0.  0.
         23    2    3    3    0    0 -0.12093906686E+03 -0.29963357929E+03 -0.43009087337E+03  0.54347464079E+03  0.77330369807E+02 0.  0.
         23    2    3    3    0    0  0.14345422911E+02 -0.19390780773E+02 -0.17053919639E+03  0.21275915985E+03  0.12490415949E+03 0.  0.
        -15    1    5    5    0    0  0.45371728213E+02 -0.37604905471E+02 -0.27073931435E+02  0.64851525810E+02  0.00000000000E+00 0. -1.
        -15    1    4    4    0    0 -0.14807541939E+02 -0.33362618471E+02 -0.16003430017E+02  0.39855205204E+02  0.00000000000E+00 0. -1.
         15    1    4    4    0    0 -0.10613152492E+03 -0.26627096082E+03 -0.41408744335E+03  0.50361943558E+03  0.00000000000E+00 0.  1.
         15    1    5    5    0    0 -0.31026305302E+02  0.18214124698E+02 -0.14346526495E+03  0.14790763404E+03  0.00000000000E+00 0.  1.
        -16    1    1    2    0    0  0.38364200902E+03  0.18520756688E+03 -0.68433327013E+03  0.80609866550E+03  0.00000000000E+00 0.  1.
         16    1    3    3    0    0 -0.23350167498E+03  0.15326581170E+03 -0.60583854689E+03  0.66712351641E+03  0.00000000000E+00 0. -1.
    9900018    1    3    3    0    0 -0.43546690097E+02 -0.19449018517E+02 -0.32768323088E+03  0.34346187086E+03  0.91187600000E+02 0.  0.
<mgrwt>
<rscale>  0 0.13031616E+04</rscale>
<asrwt>0</asrwt>
<pdfrwt beam="1">  1        1 0.36856943E+00 0.13031616E+04</pdfrwt>
<pdfrwt beam="2">  1       -1 0.27264059E-01 0.13031616E+04</pdfrwt>
<totfact> 0.19019866E+01</totfact>
</mgrwt>
</event>
<event>
12    1  0.1417476E-015  0.8191033E+03  0.7818608E-02  0.9532770E-01
         -1   -1    0    0    0  501 -0.00000000000E+00  0.00000000000E+00  0.27603613387E+03  0.27603613387E+03  0.00000000000E+00 0.  1.
          1   -1    0    0  501    0  0.00000000000E+00 -0.00000000000E+00 -0.60764713522E+03  0.60764713522E+03  0.00000000000E+00 0. -1.
    9900016    2    1    2    0    0  0.36789104143E+02 -0.41111061930E+02 -0.31313375519E+03  0.82550280654E+03  0.76181269179E+03 0.  0.
         23    2    3    3    0    0  0.13257802266E+03  0.16620006738E+03 -0.28426628444E+03  0.36236358568E+03  0.72805585389E+02 0.  0.
         23    2    3    3    0    0  0.42680476522E+02 -0.15635554864E+03 -0.45158149933E+02  0.20196066594E+03  0.11171468755E+03 0.  0.
        -15    1    5    5    0    0  0.27616821854E+02 -0.50854307239E+02 -0.71694335316E+02  0.92135373937E+02  0.00000000000E+00 0.  1.
        -15    1    4    4    0    0  0.70521654257E+02  0.10880345736E+03 -0.11563676727E+03  0.17373358339E+03  0.00000000000E+00 0. -1.
         15    1    4    4    0    0  0.62056368405E+02  0.57396610022E+02 -0.16862951717E+03  0.18863000229E+03  0.00000000000E+00 0.  1.
         15    1    5    5    0    0  0.15063654668E+02 -0.10550124140E+03  0.26536185383E+02  0.10982529201E+03  0.00000000000E+00 0. -1.
        -16    1    1    2    0    0 -0.36789104143E+02  0.41111061930E+02 -0.18477246149E+02  0.58180462545E+02  0.00000000000E+00 0.  1.
         16    1    3    3    0    0 -0.10776128801E+03 -0.14474784348E+02  0.84515811954E+02  0.13771324209E+03  0.00000000000E+00 0. -1.
    9900018    1    3    3    0    0 -0.30708107026E+02 -0.36480796318E+02 -0.68225132774E+02  0.12346531283E+03  0.91187600000E+02 0.  0.
<mgrwt>
<rscale>  0 0.81910333E+03</rscale>
<asrwt>0</asrwt>
<pdfrwt beam="1">  1        1 0.93484174E-01 0.81910333E+03</pdfrwt>
<pdfrwt beam="2">  1       -1 0.42467098E-01 0.81910333E+03</pdfrwt>
<totfact> 0.18529936E+02</totfact>
</mgrwt>
</event>
