<event>
11    1  0.1041424E-010  0.2643020E+04  0.7818608E-02  0.8353733E-01
         -2   -1    0    0    0  501 -0.00000000000E+00  0.00000000000E+00  0.63504407645E+03  0.63504407645E+03  0.00000000000E+00 0.  1.
          2   -1    0    0  501    0  0.00000000000E+00 -0.00000000000E+00 -0.27500275774E+04  0.27500275774E+04  0.00000000000E+00 0. -1.
    9900016    2    1    2    0    0 -0.98801713157E+02  0.70412608692E+01 -0.14091434608E+04  0.25676707614E+04  0.21441633539E+04 0.  0.
        -24    2    3    3    0    0  0.74886512806E+01  0.57687038614E+03 -0.69806508248E+03  0.90923316319E+03  0.81083681228E+02 0.  0.
        -15    1    3    3    0    0 -0.51730871966E+03 -0.33808246303E+03 -0.25989689070E+03  0.67041364622E+03  0.00000000000E+00 0.  1.
        -15    1    3    3    0    0  0.58569416386E+03 -0.31638635060E+03 -0.43064527978E+03  0.79283878149E+03  0.00000000000E+00 0.  1.
         15    1    3    3    0    0 -0.17467580864E+03  0.84639688361E+02 -0.20536207836E+02  0.19518517055E+03  0.00000000000E+00 0. -1.
         15    1    4    4    0    0 -0.31201327193E+02  0.28705578748E+03 -0.31472771549E+03  0.42711600631E+03  0.00000000000E+00 0. -1.
        -16    1    4    4    0    0  0.38689978474E+02  0.28981459866E+03 -0.38333736699E+03  0.48211715688E+03  0.00000000000E+00 0.  1.
         16    1    1    2    0    0  0.13353961988E+03 -0.34755598366E+02 -0.70248149765E+03  0.71590574536E+03  0.00000000000E+00 0. -1.
    9900018    1    1    2    0    0 -0.34737906719E+02  0.27714337497E+02 -0.33585424616E+01  0.10149514701E+03  0.91187600000E+02 0.  0.
<mgrwt>
<rscale>  0 0.26430200E+04</rscale>
<asrwt>0</asrwt>
<pdfrwt beam="1">  1        2 0.42308118E+00 0.26430200E+04</pdfrwt>
<pdfrwt beam="2">  1       -2 0.97699087E-01 0.26430200E+04</pdfrwt>
<totfact> 0.19060921E+00</totfact>
</mgrwt>
</event>
<event>
11    1  0.1041424E-010  0.2657348E+04  0.7818608E-02  0.8348978E-01
         -1   -1    0    0    0  501 -0.00000000000E+00  0.00000000000E+00  0.48631739811E+03  0.48631739811E+03  0.00000000000E+00 0.  1.
          1   -1    0    0  501    0  0.00000000000E+00 -0.00000000000E+00 -0.36300880509E+04  0.36300880509E+04  0.00000000000E+00 0. -1.
    9900016    2    1    2    0    0  0.62092740370E+02 -0.12759575047E+03 -0.30470848848E+04  0.37329275782E+04  0.21517169482E+04 0.  0.
         24    2    3    3    0    0 -0.88896217807E+02 -0.55757824335E+03 -0.15148848287E+03  0.58978331628E+03  0.78099710120E+02 0.  0.
        -15    1    4    4    0    0 -0.64804758694E+02 -0.39712697326E+03 -0.14396672474E+03  0.42735922532E+03  0.00000000000E+00 0.  1.
        -15    1    3    3    0    0 -0.13749001773E+03  0.13971303804E+03 -0.96563162493E+02  0.21851243060E+03  0.00000000000E+00 0.  1.
         15    1    3    3    0    0 -0.19130828508E+03  0.30179214275E+02 -0.24174792880E+03  0.30976072378E+03  0.00000000000E+00 0. -1.
         15    1    3    3    0    0  0.47978726099E+03  0.26009024057E+03 -0.25572853107E+04  0.26148711076E+04  0.00000000000E+00 0. -1.
        -16    1    1    2    0    0 -0.98326595169E+02  0.18088536512E+03  0.37120602290E+02  0.20920223170E+03  0.00000000000E+00 0.  1.
         16    1    4    4    0    0 -0.24091459113E+02 -0.16045127010E+03 -0.75217581270E+01  0.16242409096E+03  0.00000000000E+00 0. -1.
    9900018    1    1    2    0    0  0.36233854799E+02 -0.53289614653E+02 -0.13380637024E+03  0.17427563907E+03  0.91187600000E+02 0.  0.
<mgrwt>
<rscale>  0 0.26573483E+04</rscale>
<asrwt>0</asrwt>
<pdfrwt beam="1">  1        1 0.55847509E+00 0.26573483E+04</pdfrwt>
<pdfrwt beam="2">  1       -1 0.74818060E-01 0.26573483E+04</pdfrwt>
<totfact> 0.30992223E-01</totfact>
</mgrwt>
</event>
<event>
11    1  0.1041424E-010  0.5896647E+04  0.7818608E-02  0.7703350E-01
         -2   -1    0    0    0  501 -0.00000000000E+00  0.00000000000E+00  0.19412056758E+04  0.19412056758E+04  0.00000000000E+00 0.  1.
          2   -1    0    0  501    0  0.00000000000E+00 -0.00000000000E+00 -0.44779450637E+04  0.44779450637E+04  0.00000000000E+00 0. -1.
    9900016    2    1    2    0    0 -0.23100214464E+04  0.51671780870E+03 -0.14121895144E+04  0.34993750621E+04  0.21559569161E+04 0.  0.
         24    2    3    3    0    0 -0.12714878952E+04  0.52371713091E+02 -0.97611520168E+03  0.16060093104E+04  0.83909201233E+02 0.  0.
        -15    1    3    3    0    0 -0.24784100440E+03  0.65945417491E+03 -0.66849509798E+03  0.97118003907E+03  0.00000000000E+00 0.  1.
        -15    1    4    4    0    0 -0.37290738140E+03 -0.14905969059E+01 -0.24344589823E+03  0.44534036685E+03  0.00000000000E+00 0.  1.
         15    1    3    3    0    0 -0.25230257575E+03  0.93911654674E+02  0.14231892656E+03  0.30451710210E+03  0.00000000000E+00 0. -1.
         15    1    3    3    0    0 -0.53838997105E+03 -0.28901973397E+03  0.90101858656E+02  0.61766861057E+03  0.00000000000E+00 0. -1.
        -16    1    1    2    0    0  0.24546445049E+04 -0.55667966335E+03 -0.10781385855E+04  0.27381663029E+04  0.00000000000E+00 0.  1.
         16    1    4    4    0    0 -0.89858051384E+03  0.53862309997E+02 -0.73266930345E+03  0.11606689435E+04  0.00000000000E+00 0. -1.
    9900018    1    1    2    0    0 -0.14462305843E+03  0.39961854653E+02 -0.46411287940E+02  0.18160937448E+03  0.91187600000E+02 0.  0.
<mgrwt>
<rscale>  0 0.58966473E+04</rscale>
<asrwt>0</asrwt>
<pdfrwt beam="1">  1        2 0.68891463E+00 0.58966473E+04</pdfrwt>
<pdfrwt beam="2">  1       -2 0.29864703E+00 0.58966473E+04</pdfrwt>
<totfact> 0.28106306E-03</totfact>
</mgrwt>
</event>
<event>
11    1  0.1041424E-010  0.3613097E+04  0.7818608E-02  0.8087498E-01
          2   -1    0    0  501    0  0.00000000000E+00  0.00000000000E+00  0.22677574452E+04  0.22677574452E+04  0.00000000000E+00 0. -1.
         -2   -1    0    0    0  501 -0.00000000000E+00 -0.00000000000E+00 -0.14391389133E+04  0.14391389133E+04  0.00000000000E+00 0.  1.
    9900016    2    1    2    0    0  0.92744692638E+03 -0.35927212521E+03  0.26024110621E+03  0.23904578619E+04  0.21580845894E+04 0.  0.
        -24    2    3    3    0    0  0.32364346178E+03  0.62451415158E+03 -0.12115144152E+03  0.71810904749E+03  0.78993141630E+02 0.  0.
        -15    1    3    3    0    0  0.52554993841E+03 -0.74873332512E+03 -0.11595031731E+03  0.92208936985E+03  0.00000000000E+00 0.  1.
        -15    1    3    3    0    0 -0.19140190665E+03 -0.22006646099E+03  0.25841688738E+03  0.38967066198E+03  0.00000000000E+00 0.  1.
         15    1    3    3    0    0  0.26965543284E+03 -0.14986490687E+02  0.23892597766E+03  0.36058878264E+03  0.00000000000E+00 0. -1.
         15    1    4    4    0    0  0.28687240382E+03  0.54880421866E+03 -0.79950874552E+02  0.62439890201E+03  0.00000000000E+00 0. -1.
        -16    1    4    4    0    0  0.36771057959E+02  0.75709932918E+02 -0.41200566972E+02  0.93710145473E+02  0.00000000000E+00 0.  1.
         16    1    1    2    0    0 -0.97379697872E+03  0.37602543005E+03  0.60497687477E+03  0.12065126186E+04  0.00000000000E+00 0. -1.
    9900018    1    1    2    0    0  0.46350052343E+02 -0.16753304834E+02 -0.36599449164E+02  0.10992587797E+03  0.91187600000E+02 0.  0.
<mgrwt>
<rscale>  0 0.36130973E+04</rscale>
<asrwt>0</asrwt>
<pdfrwt beam="1">  1        2 0.34888576E+00 0.36130973E+04</pdfrwt>
<pdfrwt beam="2">  1       -2 0.22140599E+00 0.36130973E+04</pdfrwt>
<totfact> 0.37278036E-01</totfact>
</mgrwt>
</event>
