<event>
11    1  0.2973099E-008  0.2519525E+04  0.7818608E-02  0.8396062E-01
         -2   -1    0    0    0  501 -0.00000000000E+00  0.00000000000E+00  0.61190757087E+03  0.61190757087E+03  0.00000000000E+00 0.  1.
          2   -1    0    0  501    0  0.00000000000E+00 -0.00000000000E+00 -0.25935315568E+04  0.25935315568E+04  0.00000000000E+00 0. -1.
    9900016    2    1    2    0    0 -0.18562703613E+03 -0.28946634262E+03 -0.91875628267E+03  0.20883286073E+04  0.18435712910E+04 0.  0.
         24    2    3    3    0    0 -0.34132715007E+03  0.61514345616E+02 -0.28580375725E+03  0.45627019505E+03  0.78806504483E+02 0.  0.
        -15    1    4    4    0    0 -0.20761688409E+03  0.44970557774E+01 -0.19507254829E+03  0.28491804641E+03  0.00000000000E+00 0.  1.
        -15    1    3    3    0    0  0.27921845753E+03 -0.40148944951E+02  0.21576425469E+03  0.35514658721E+03  0.00000000000E+00 0.  1.
         15    1    3    3    0    0  0.20017502882E+03  0.13978651134E+03 -0.63685061481E+02  0.25232141799E+03  0.00000000000E+00 0. -1.
         15    1    3    3    0    0 -0.32328065281E+03 -0.28710525102E+03 -0.36917698291E+03  0.56853447596E+03  0.00000000000E+00 0. -1.
        -16    1    1    2    0    0  0.18562703613E+03  0.28946634262E+03 -0.10628677033E+04  0.11171105204E+04  0.00000000000E+00 0.  1.
         16    1    4    4    0    0 -0.13371026598E+03  0.57017289839E+02 -0.90731208953E+02  0.17135214865E+03  0.00000000000E+00 0. -1.
    9900018    1    3    3    0    0 -0.41271960817E+00 -0.16351300361E+03 -0.41585473572E+03  0.45605593111E+03  0.91187600000E+02 0.  0.
<mgrwt>
<rscale>  0 0.25195250E+04</rscale>
<asrwt>0</asrwt>
<pdfrwt beam="1">  1        2 0.39900485E+00 0.25195250E+04</pdfrwt>
<pdfrwt beam="2">  1       -2 0.94139627E-01 0.25195250E+04</pdfrwt>
<totfact> 0.26020798E+00</totfact>
</mgrwt>
</event>
<event>
11    1  0.2973099E-008  0.2120869E+04  0.7818608E-02  0.8552106E-01
         -2   -1    0    0    0  501 -0.00000000000E+00  0.00000000000E+00  0.13907065259E+04  0.13907065259E+04  0.00000000000E+00 0.  1.
          2   -1    0    0  501    0  0.00000000000E+00 -0.00000000000E+00 -0.80859727281E+03  0.80859727281E+03  0.00000000000E+00 0. -1.
    9900016    2    1    2    0    0  0.17497042128E+03 -0.14448423893E+03  0.62312126640E+03  0.19687125395E+04  0.18536608662E+04 0.  0.
         24    2    3    3    0    0 -0.32505323484E+03  0.14112844734E+03 -0.13349545738E+03  0.38667325161E+03  0.78219704926E+02 0.  0.
        -15    1    3    3    0    0  0.25480642484E+03  0.11563824345E+03  0.87573016799E+02  0.29320223526E+03  0.00000000000E+00 0.  1.
        -15    1    4    4    0    0 -0.74893161944E+02  0.55086180825E+01 -0.49634204155E+02  0.90016025247E+02  0.00000000000E+00 0.  1.
         15    1    3    3    0    0  0.10230649763E+02  0.78140365090E+02 -0.17014416772E+03  0.18750898821E+03  0.00000000000E+00 0. -1.
         15    1    3    3    0    0 -0.31859382653E+01 -0.16589098066E+03 -0.43492689715E+01  0.16597856430E+03  0.00000000000E+00 0. -1.
        -16    1    1    2    0    0 -0.17497042128E+03  0.14448423893E+03 -0.41012013288E+02  0.23059125928E+03  0.00000000000E+00 0.  1.
         16    1    4    4    0    0 -0.25016007290E+03  0.13561982926E+03 -0.83861253228E+02  0.29665722636E+03  0.00000000000E+00 0. -1.
    9900018    1    3    3    0    0  0.23817251978E+03 -0.31350031415E+03  0.84353714368E+03  0.93534950008E+03  0.91187600000E+02 0.  0.
<mgrwt>
<rscale>  0 0.21208692E+04</rscale>
<asrwt>0</asrwt>
<pdfrwt beam="1">  1        2 0.12439958E+00 0.21208692E+04</pdfrwt>
<pdfrwt beam="2">  1       -2 0.21395485E+00 0.21208692E+04</pdfrwt>
<totfact> 0.33725265E+00</totfact>
</mgrwt>
</event>
<event>
11    1  0.2973099E-008  0.2475290E+04  0.7818608E-02  0.8411842E-01
         -1   -1    0    0    0  501 -0.00000000000E+00  0.00000000000E+00  0.15560926712E+04  0.15560926712E+04  0.00000000000E+00 0.  1.
          1   -1    0    0  501    0  0.00000000000E+00 -0.00000000000E+00 -0.98436594258E+03  0.98436594258E+03  0.00000000000E+00 0. -1.
    9900016    2    1    2    0    0  0.32418989686E+03 -0.35367776215E+03  0.73096833693E+03  0.20349440854E+04  0.18375243324E+04 0.  0.
        -24    2    3    3    0    0  0.42074316178E+03 -0.28997074434E+03  0.80389791360E+03  0.95628833272E+03  0.84425582899E+02 0.  0.
        -15    1    3    3    0    0 -0.20245982048E+01 -0.23007977708E+03  0.24193110140E+03  0.33387342009E+03  0.00000000000E+00 0.  1.
        -15    1    3    3    0    0 -0.15300647777E+03  0.30510995737E+03 -0.29598307423E+03  0.45178429428E+03  0.00000000000E+00 0.  1.
         15    1    4    4    0    0  0.30185825179E+03 -0.20973188766E+03  0.64379523821E+03  0.74133540156E+03  0.00000000000E+00 0. -1.
         15    1    3    3    0    0 -0.98653947290E+01 -0.14276166405E+03 -0.79662414384E+02  0.16378131457E+03  0.00000000000E+00 0. -1.
        -16    1    4    4    0    0  0.11888490999E+03 -0.80238856671E+02  0.16010267539E+03  0.21495293115E+03  0.00000000000E+00 0.  1.
         16    1    1    2    0    0 -0.32418989686E+03  0.35367776215E+03 -0.15924160827E+03  0.50551452844E+03  0.00000000000E+00 0. -1.
    9900018    1    3    3    0    0  0.68343205785E+02  0.40244659476E+01  0.60784810556E+02  0.12921672373E+03  0.91187600000E+02 0.  0.
<mgrwt>
<rscale>  0 0.24752896E+04</rscale>
<asrwt>0</asrwt>
<pdfrwt beam="1">  1        1 0.15144091E+00 0.24752896E+04</pdfrwt>
<pdfrwt beam="2">  1       -1 0.23939887E+00 0.24752896E+04</pdfrwt>
<totfact> 0.11337062E+00</totfact>
</mgrwt>
</event>
<event>
11    1  0.2973099E-008  0.2127308E+04  0.7818608E-02  0.8549309E-01
         -2   -1    0    0    0  501 -0.00000000000E+00  0.00000000000E+00  0.83873213553E+03  0.83873213553E+03  0.00000000000E+00 0. -1.
          2   -1    0    0  501    0  0.00000000000E+00 -0.00000000000E+00 -0.13488928227E+04  0.13488928227E+04  0.00000000000E+00 0.  1.
    9900016    2    1    2    0    0 -0.10895094328E+03  0.56358847015E+02 -0.69600272940E+03  0.19649505493E+04  0.18334569082E+04 0.  0.
        -24    2    3    3    0    0  0.24561478363E+03 -0.10028007583E+03 -0.14160432457E+03  0.31050648087E+03  0.77329000873E+02 0.  0.
        -15    1    3    3    0    0 -0.28105153043E+03  0.13760416783E+03 -0.15060879715E+03  0.34728645171E+03  0.00000000000E+00 0.  1.
        -15    1    3    3    0    0  0.17090118390E+03 -0.22462318434E+03 -0.16519455311E+03  0.32703521214E+03  0.00000000000E+00 0.  1.
         15    1    3    3    0    0 -0.17675683631E+03  0.37751318329E+02  0.32364427019E+03  0.37069361317E+03  0.00000000000E+00 0. -1.
         15    1    4    4    0    0  0.22493825885E+03 -0.96335438309E+02 -0.15090996951E+03  0.28749183618E+03  0.00000000000E+00 0. -1.
        -16    1    4    4    0    0  0.20676524782E+02 -0.39446375190E+01  0.93056449489E+01  0.23014644688E+02  0.00000000000E+00 0.  1.
         16    1    1    2    0    0  0.10895094328E+03 -0.56358847015E+02  0.18584204227E+03  0.22267440884E+03  0.00000000000E+00 0. -1.
    9900018    1    3    3    0    0 -0.67658544077E+02  0.20590662102E+03 -0.56223932476E+03  0.60942879147E+03  0.91187600000E+02 0.  0.
<mgrwt>
<rscale>  0 0.21273079E+04</rscale>
<asrwt>0</asrwt>
<pdfrwt beam="1">  1        2 0.20752197E+00 0.21273079E+04</pdfrwt>
<pdfrwt beam="2">  1       -2 0.12903571E+00 0.21273079E+04</pdfrwt>
<totfact> 0.63024773E+00</totfact>
</mgrwt>
</event>
<event>
12    1  0.2973099E-008  0.3127916E+04  0.7818608E-02  0.8208118E-01
          2   -1    0    0  501    0  0.00000000000E+00  0.00000000000E+00  0.20781741459E+04  0.20781741459E+04  0.00000000000E+00 0.  1.
         -2   -1    0    0    0  501 -0.00000000000E+00 -0.00000000000E+00 -0.11769780210E+04  0.11769780210E+04  0.00000000000E+00 0. -1.
    9900016    2    1    2    0    0  0.67788872347E+03 -0.62284459808E+03  0.14319614972E+03  0.20626621346E+04  0.18402721075E+04 0.  0.
    9900016    2    3    3    0    0  0.69267037037E+03 -0.57362800721E+03  0.14379406804E+03  0.19530592471E+04  0.17276927840E+04 0.  0.
         24    2    4    4    0    0  0.10632480635E+04 -0.10261789439E+03  0.43609088379E+03  0.11565601621E+04  0.80182746570E+02 0.  0.
        -15    1    3    3    0    0 -0.48841520832E+02  0.97249793373E-01  0.64156915724E+01  0.49261188710E+02  0.00000000000E+00 0.  1.
        -15    1    5    5    0    0  0.89628273000E+03 -0.10617858118E+03  0.34428242560E+03  0.96598499562E+03  0.00000000000E+00 0.  1.
         15    1    3    3    0    0  0.34059873931E+02 -0.49313840656E+02 -0.70136098900E+01  0.60341698817E+02  0.00000000000E+00 0. -1.
         15    1    4    4    0    0 -0.38619804544E+03 -0.50128801800E+03 -0.20344546036E+03  0.66470193518E+03  0.00000000000E+00 0. -1.
        -16    1    1    2    0    0 -0.67788872347E+03  0.62284459808E+03  0.75799997522E+03  0.11924900323E+04  0.00000000000E+00 0.  1.
         16    1    5    5    0    0  0.16696533349E+03  0.35606867894E+01  0.91808458196E+02  0.19057516647E+03  0.00000000000E+00 0. -1.
    9900018    1    4    4    0    0  0.15620352319E+02  0.30277905180E+02 -0.88851355394E+02  0.13179714981E+03  0.91187600000E+02 0.  0.
<mgrwt>
<rscale>  0 0.31279164E+04</rscale>
<asrwt>0</asrwt>
<pdfrwt beam="1">  1        2 0.31971910E+00 0.31279164E+04</pdfrwt>
<pdfrwt beam="2">  1       -2 0.18107354E+00 0.31279164E+04</pdfrwt>
<totfact> 0.91256839E-01</totfact>
</mgrwt>
</event>
<event>
11    1  0.2973099E-008  0.2109348E+04  0.7818608E-02  0.8557137E-01
         -1   -1    0    0    0  501 -0.00000000000E+00  0.00000000000E+00  0.89476416515E+03  0.89476416515E+03  0.00000000000E+00 0.  1.
          1   -1    0    0  501    0  0.00000000000E+00 -0.00000000000E+00 -0.12431619803E+04  0.12431619803E+04  0.00000000000E+00 0. -1.
    9900016    2    1    2    0    0  0.23160165473E+03  0.30007786203E+02 -0.21700414211E+03  0.18699632917E+04  0.18425884296E+04 0.  0.
        -24    2    3    3    0    0 -0.35690631645E+03  0.55188260650E+03 -0.10508572313E+03  0.67054940214E+03  0.81467548297E+02 0.  0.
        -15    1    3    3    0    0  0.16981498268E+00 -0.18922732996E+02  0.50709603674E+01  0.19591153622E+02  0.00000000000E+00 0. -1.
        -15    1    3    3    0    0  0.25930978663E+03 -0.22218074131E+03  0.10797198157E+03  0.35813935284E+03  0.00000000000E+00 0.  1.
         15    1    3    3    0    0  0.14591319562E+03 -0.47891158745E+03 -0.18673744906E+03  0.53433869796E+03  0.00000000000E+00 0.  1.
         15    1    4    4    0    0 -0.81828968450E+02  0.80006079448E+02 -0.59255374982E+00  0.11444345305E+03  0.00000000000E+00 0. -1.
        -16    1    4    4    0    0 -0.27507734800E+03  0.47187652705E+03 -0.10449316938E+03  0.55610594909E+03  0.00000000000E+00 0.  1.
         16    1    1    2    0    0 -0.23160165473E+03 -0.30007786203E+02 -0.13139367308E+03  0.26796285383E+03  0.00000000000E+00 0. -1.
    9900018    1    3    3    0    0  0.18311517395E+03  0.19814024146E+03 -0.38223911854E+02  0.28734468509E+03  0.91187600000E+02 0.  0.
<mgrwt>
<rscale>  0 0.21093476E+04</rscale>
<asrwt>0</asrwt>
<pdfrwt beam="1">  1        1 0.19125569E+00 0.21093476E+04</pdfrwt>
<pdfrwt beam="2">  1       -1 0.13765603E+00 0.21093476E+04</pdfrwt>
<totfact> 0.40012962E+00</totfact>
</mgrwt>
</event>
