<event>
11    1  0.1820439E-013  0.2678836E+04  0.7818608E-02  0.8341905E-01
         -2   -1    0    0    0  501 -0.00000000000E+00  0.00000000000E+00  0.16117755867E+04  0.16117755867E+04  0.00000000000E+00 0. -1.
          2   -1    0    0  501    0  0.00000000000E+00 -0.00000000000E+00 -0.11130832460E+04  0.11130832460E+04  0.00000000000E+00 0.  1.
    9900016    2    1    2    0    0  0.47876176610E+03 -0.41367500264E+03  0.61046945966E+03  0.20823372683E+04  0.18876217050E+04 0.  0.
         24    2    3    3    0    0  0.56828876254E+03 -0.51840541650E+03 -0.40672738009E+02  0.77568671182E+03  0.91319821453E+02 0.  0.
        -15    1    3    3    0    0  0.12731056388E+03  0.12690998264E+03  0.35952682684E+03  0.40196226513E+03  0.00000000000E+00 0.  1.
        -15    1    4    4    0    0  0.23446787934E+03 -0.18048616167E+03 -0.52639644961E+02  0.30053514474E+03  0.00000000000E+00 0.  1.
         15    1    3    3    0    0 -0.31777471909E+03 -0.28456991654E+03  0.27319428155E+03  0.50655298338E+03  0.00000000000E+00 0. -1.
         15    1    3    3    0    0  0.79680463163E+02  0.28942455788E+03  0.10946087419E+02  0.30039202343E+03  0.00000000000E+00 0. -1.
        -16    1    1    2    0    0 -0.47876176610E+03  0.41367500264E+03 -0.11177711897E+03  0.64252156447E+03  0.00000000000E+00 0.  1.
         16    1    4    4    0    0  0.33382088320E+03 -0.33791925483E+03  0.11966906952E+02  0.47515156709E+03  0.00000000000E+00 0. -1.
    9900018    1    3    3    0    0  0.21256695603E+02 -0.27034210111E+02  0.74750018634E+01  0.97743284531E+02  0.91187600000E+02 0.  0.
<mgrwt>
<rscale>  0 0.26788359E+04</rscale>
<asrwt>0</asrwt>
<pdfrwt beam="1">  1        2 0.17124358E+00 0.26788359E+04</pdfrwt>
<pdfrwt beam="2">  1       -2 0.24796547E+00 0.26788359E+04</pdfrwt>
<totfact> 0.12430098E+00</totfact>
</mgrwt>
</event>
<event>
11    1  0.1820439E-013  0.2691944E+04  0.7818608E-02  0.8337624E-01
          2   -1    0    0  501    0  0.00000000000E+00  0.00000000000E+00  0.27922336412E+04  0.27922336412E+04  0.00000000000E+00 0. -1.
         -2   -1    0    0    0  501 -0.00000000000E+00 -0.00000000000E+00 -0.64881402151E+03  0.64881402151E+03  0.00000000000E+00 0.  1.
    9900016    2    1    2    0    0  0.48682732911E+03 -0.45625903266E+03  0.14238914123E+04  0.24597760415E+04  0.18915227377E+04 0.  0.
        -24    2    3    3    0    0  0.28852284843E+03 -0.84873605305E+03  0.50515457075E+03  0.10301642531E+04  0.49587561943E+02 0.  0.
        -15    1    3    3    0    0  0.28935953315E+02 -0.64438915856E+02  0.39224833760E+01  0.70746371969E+02  0.00000000000E+00 0.  1.
        -15    1    3    3    0    0 -0.95788484545E+02  0.22929378581E+03 -0.75711828710E+02  0.25977558582E+03  0.00000000000E+00 0.  1.
         15    1    4    4    0    0  0.13078389708E+03 -0.45621795734E+03  0.27754567533E+03  0.54979164620E+03  0.00000000000E+00 0. -1.
         15    1    3    3    0    0  0.27900010299E+03  0.22999037338E+03  0.89963363724E+03  0.96957584054E+03  0.00000000000E+00 0. -1.
        -16    1    4    4    0    0  0.15773895135E+03 -0.39251809571E+03  0.22760889542E+03  0.48037260695E+03  0.00000000000E+00 0.  1.
         16    1    1    2    0    0 -0.48682732911E+03  0.45625903266E+03  0.71952820741E+03  0.98127162117E+03  0.00000000000E+00 0. -1.
    9900018    1    3    3    0    0 -0.13843091085E+02 -0.23682229363E+01  0.90892549612E+02  0.12951399005E+03  0.91187600000E+02 0.  0.
<mgrwt>
<rscale>  0 0.26919438E+04</rscale>
<asrwt>0</asrwt>
<pdfrwt beam="1">  1        2 0.42957440E+00 0.26919438E+04</pdfrwt>
<pdfrwt beam="2">  1       -2 0.99817543E-01 0.26919438E+04</pdfrwt>
<totfact> 0.17018948E+00</totfact>
</mgrwt>
</event>
<event>
11    1  0.1820439E-013  0.2678467E+04  0.7818608E-02  0.8342026E-01
         -1   -1    0    0    0  501 -0.00000000000E+00  0.00000000000E+00  0.19370273885E+04  0.19370273885E+04  0.00000000000E+00 0.  1.
          1   -1    0    0  501    0  0.00000000000E+00 -0.00000000000E+00 -0.92592703226E+03  0.92592703226E+03  0.00000000000E+00 0. -1.
    9900016    2    1    2    0    0  0.60221189376E+03 -0.11698339906E+03  0.47383999152E+03  0.20474834034E+04  0.18950777475E+04 0.  0.
         24    2    3    3    0    0 -0.20085878523E+03 -0.32382145756E+03  0.24704088231E+03  0.46403746914E+03  0.95378127753E+02 0.  0.
        -15    1    4    4    0    0 -0.55589623119E+02 -0.69050715185E+02  0.10726660768E+03  0.13915578532E+03  0.00000000000E+00 0.  1.
        -15    1    3    3    0    0 -0.23261275124E+03 -0.27678908278E+02  0.10238418589E+03  0.25565080779E+03  0.00000000000E+00 0.  1.
         15    1    3    3    0    0  0.12000542845E+03 -0.15770745875E+03  0.55868095760E+01  0.19825276251E+03  0.00000000000E+00 0. -1.
         15    1    3    3    0    0  0.90987667456E+03  0.42842489684E+03  0.45147146968E+02  0.10067083590E+04  0.00000000000E+00 0. -1.
        -16    1    1    2    0    0 -0.60221189376E+03  0.11698339906E+03  0.53726036470E+03  0.81547101733E+03  0.00000000000E+00 0.  1.
         16    1    4    4    0    0 -0.14526916211E+03 -0.25477074238E+03  0.13977427463E+03  0.32488168382E+03  0.00000000000E+00 0. -1.
    9900018    1    3    3    0    0  0.58013272114E+01 -0.36200471309E+02  0.73680966774E+02  0.12283400498E+03  0.91187600000E+02 0.  0.
<mgrwt>
<rscale>  0 0.26784667E+04</rscale>
<asrwt>0</asrwt>
<pdfrwt beam="1">  1        1 0.14245031E+00 0.26784667E+04</pdfrwt>
<pdfrwt beam="2">  1       -1 0.29800421E+00 0.26784667E+04</pdfrwt>
<totfact> 0.51582571E-01</totfact>
</mgrwt>
</event>
<event>
11    1  0.1820440E-013  0.2543733E+04  0.7818608E-02  0.8387569E-01
         -1   -1    0    0    0  501 -0.00000000000E+00  0.00000000000E+00  0.73253514689E+03  0.73253514689E+03  0.00000000000E+00 0.  1.
          1   -1    0    0  501    0  0.00000000000E+00 -0.00000000000E+00 -0.22082816479E+04  0.22082816479E+04  0.00000000000E+00 0. -1.
    9900016    2    1    2    0    0 -0.31011885295E+03  0.21896814771E+03 -0.64807464938E+03  0.20302337691E+04  0.18861939597E+04 0.  0.
        -24    2    3    3    0    0 -0.49252894562E+03  0.28892187814E+02  0.22876367807E+03  0.55165395107E+03  0.92572893107E+02 0.  0.
        -15    1    3    3    0    0  0.42329288883E+03  0.33636182462E+03 -0.47466169441E+03  0.71945803973E+03  0.00000000000E+00 0.  1.
        -15    1    3    3    0    0 -0.72464118525E+02  0.13202484996E+03  0.28399342410E+02  0.15325838356E+03  0.00000000000E+00 0.  1.
         15    1    4    4    0    0 -0.27350106614E+03  0.59162070931E+02  0.14543288544E+03  0.31536281960E+03  0.00000000000E+00 0. -1.
         15    1    3    3    0    0 -0.12931631901E+03 -0.27119278931E+03 -0.40294180567E+03  0.50262345557E+03  0.00000000000E+00 0. -1.
        -16    1    4    4    0    0 -0.21902787948E+03 -0.30269883116E+02  0.83330792630E+02  0.23629113147E+03  0.00000000000E+00 0.  1.
         16    1    1    2    0    0  0.31011885295E+03 -0.21896814771E+03 -0.82767185167E+03  0.91058302571E+03  0.00000000000E+00 0. -1.
    9900018    1    3    3    0    0 -0.39102358616E+02 -0.71179253804E+01 -0.27634169784E+02  0.10323993919E+03  0.91187600000E+02 0.  0.
<mgrwt>
<rscale>  0 0.25437326E+04</rscale>
<asrwt>0</asrwt>
<pdfrwt beam="1">  1        1 0.33973564E+00 0.25437326E+04</pdfrwt>
<pdfrwt beam="2">  1       -1 0.11269772E+00 0.25437326E+04</pdfrwt>
<totfact> 0.13707881E+00</totfact>
</mgrwt>
</event>
<event>
11    1  0.1820439E-013  0.2501818E+04  0.7818608E-02  0.8402338E-01
          1   -1    0    0  501    0  0.00000000000E+00  0.00000000000E+00  0.10479499281E+04  0.10479499281E+04  0.00000000000E+00 0. -1.
         -1   -1    0    0    0  501 -0.00000000000E+00 -0.00000000000E+00 -0.14931753302E+04  0.14931753302E+04  0.00000000000E+00 0.  1.
    9900016    2    1    2    0    0  0.30519923737E+03  0.15958169933E+03 -0.67711775487E+03  0.19597300603E+04  0.18064995328E+04 0.  0.
        -24    2    3    3    0    0  0.49265534567E+03  0.71429764646E+03 -0.39215179365E+03  0.95661490407E+03  0.91644029187E+02 0.  0.
        -15    1    3    3    0    0  0.15049990182E+03 -0.15610369700E+03 -0.23844112384E+02  0.21814473718E+03  0.00000000000E+00 0.  1.
        -15    1    3    3    0    0 -0.27535479696E+03 -0.70408436168E+02 -0.33851159468E+03  0.44200419888E+03  0.00000000000E+00 0.  1.
         15    1    3    3    0    0 -0.62601213153E+02 -0.32820381396E+03  0.77389745835E+02  0.34296622013E+03  0.00000000000E+00 0. -1.
         15    1    4    4    0    0  0.17306769328E+03  0.22860048543E+03 -0.84995711089E+02  0.29905664898E+03  0.00000000000E+00 0. -1.
        -16    1    4    4    0    0  0.31958765239E+03  0.48569716103E+03 -0.30715608256E+03  0.65755825509E+03  0.00000000000E+00 0.  1.
         16    1    1    2    0    0 -0.33660508115E+03 -0.19686840924E+03  0.26654563950E+03  0.47234175037E+03  0.00000000000E+00 0. -1.
    9900018    1    1    2    0    0  0.31405843781E+02  0.37286709906E+02 -0.34653286744E+02  0.10905344761E+03  0.91187600000E+02 0.  0.
<mgrwt>
<rscale>  0 0.25018177E+04</rscale>
<asrwt>0</asrwt>
<pdfrwt beam="1">  1        1 0.16122307E+00 0.25018177E+04</pdfrwt>
<pdfrwt beam="2">  1       -1 0.22971928E+00 0.25018177E+04</pdfrwt>
<totfact> 0.11695312E+00</totfact>
</mgrwt>
</event>
<event>
10    1  0.1820439E-013  0.3242198E+04  0.7818608E-02  0.8177761E-01
          1   -1    0    0  501    0  0.00000000000E+00  0.00000000000E+00  0.35575130361E+04  0.35575130361E+04  0.00000000000E+00 0. -1.
         -1   -1    0    0    0  501 -0.00000000000E+00 -0.00000000000E+00 -0.73870770983E+03  0.73870770983E+03  0.00000000000E+00 0.  1.
    9900016    2    1    2    0    0 -0.46637880239E+03 -0.25114243777E+03  0.64742731087E+03  0.20611672349E+04  0.18837904703E+04 0.  0.
        -15    1    3    3    0    0 -0.28625910461E+03 -0.80428209875E+03  0.37409680510E+03  0.93207424003E+03  0.00000000000E+00 0.  1.
        -15    1    3    3    0    0 -0.21102316544E+03  0.19293712046E+03 -0.94129534252E+02  0.30102471331E+03  0.00000000000E+00 0.  1.
         15    1    3    3    0    0 -0.16596850469E+03 -0.30153851240E+02  0.53669365256E+02  0.17701751343E+03  0.00000000000E+00 0. -1.
         15    1    3    3    0    0  0.31687197185E+02  0.31045943481E+02  0.34205977208E+02  0.56017657474E+02  0.00000000000E+00 0. -1.
        -16    1    3    3    0    0  0.19171938534E+03  0.37472716104E+03  0.26584075826E+03  0.49784342587E+03  0.00000000000E+00 0.  1.
         16    1    1    2    0    0  0.46637880239E+03  0.25114243777E+03  0.21713780154E+04  0.22350535110E+04  0.00000000000E+00 0. -1.
    9900018    1    3    3    0    0 -0.26534610178E+02 -0.15416712755E+02  0.13743939296E+02  0.97189684795E+02  0.91187600000E+02 0.  0.
<mgrwt>
<rscale>  0 0.32421982E+04</rscale>
<asrwt>0</asrwt>
<pdfrwt beam="1">  1        1 0.54730969E+00 0.32421982E+04</pdfrwt>
<pdfrwt beam="2">  1       -1 0.11364734E+00 0.32421982E+04</pdfrwt>
<totfact> 0.13225480E-01</totfact>
</mgrwt>
</event>
<event>
11    1  0.1820439E-013  0.2733791E+04  0.7818608E-02  0.8324124E-01
          2   -1    0    0  501    0  0.00000000000E+00  0.00000000000E+00  0.19345161382E+04  0.19345161382E+04  0.00000000000E+00 0. -1.
         -2   -1    0    0    0  501 -0.00000000000E+00 -0.00000000000E+00 -0.96582439969E+03  0.96582439969E+03  0.00000000000E+00 0.  1.
    9900016    2    1    2    0    0 -0.45445833668E+03  0.17603853639E+03  0.11769122195E+04  0.22045116707E+04  0.17992296651E+04 0.  0.
         24    2    3    3    0    0 -0.13108891843E+03  0.70391303004E+03  0.10219315281E+04  0.12511119650E+04  0.90880374275E+02 0.  0.
        -15    1    4    4    0    0 -0.17217491133E+02  0.34004205934E+03  0.47888657746E+03  0.58758607726E+03  0.00000000000E+00 0.  1.
        -15    1    3    3    0    0  0.18307187541E+03 -0.67654925622E+02  0.16025488001E+03  0.25253539770E+03  0.00000000000E+00 0.  1.
         15    1    3    3    0    0 -0.39239083058E+03 -0.43086408677E+03  0.34391870614E+01  0.58277461612E+03  0.00000000000E+00 0. -1.
         15    1    3    3    0    0 -0.11405046308E+03 -0.29355481264E+02 -0.87133756656E+01  0.11808969187E+03  0.00000000000E+00 0. -1.
        -16    1    1    2    0    0  0.49484151272E+03 -0.18831910861E+03 -0.25181596215E+03  0.58629641665E+03  0.00000000000E+00 0.  1.
         16    1    4    4    0    0 -0.11387142730E+03  0.36387097070E+03  0.54304495064E+03  0.66352588774E+03  0.00000000000E+00 0. -1.
    9900018    1    1    2    0    0 -0.40383176038E+02  0.12280572221E+02  0.43595481199E+02  0.10953245061E+03  0.91187600000E+02 0.  0.
<mgrwt>
<rscale>  0 0.27337907E+04</rscale>
<asrwt>0</asrwt>
<pdfrwt beam="1">  1        2 0.29761787E+00 0.27337907E+04</pdfrwt>
<pdfrwt beam="2">  1       -2 0.14858837E+00 0.27337907E+04</pdfrwt>
<totfact> 0.19530276E+00</totfact>
</mgrwt>
</event>
