<event>
12    1  0.1902935E-012  0.2962959E+04  0.7818608E-02  0.8254388E-01
          1   -1    0    0  501    0  0.00000000000E+00  0.00000000000E+00  0.37943589798E+04  0.37943589798E+04  0.00000000000E+00 0. -1.
         -1   -1    0    0    0  501 -0.00000000000E+00 -0.00000000000E+00 -0.57843261420E+03  0.57843261420E+03  0.00000000000E+00 0.  1.
    9900016    2    1    2    0    0  0.51693334092E+03  0.83171337316E+02  0.21374168366E+04  0.31739086329E+04  0.22871396386E+04 0.  0.
        -24    2    3    3    0    0  0.10443524999E+04  0.64789955513E+03  0.67391624888E+03  0.14045947477E+04  0.90979762475E+02 0.  0.
         23    2    3    3    0    0 -0.29804393827E+03 -0.31131489918E+03  0.68423706681E+03  0.81382914303E+03  0.91598880225E+02 0.  0.
        -15    1    3    3    0    0 -0.22888403670E+03 -0.17570005869E+03  0.78417067862E+03  0.83557289694E+03  0.00000000000E+00 0.  1.
        -15    1    5    5    0    0 -0.25951785830E+03 -0.27511698620E+03  0.64606423029E+03  0.74862398074E+03  0.00000000000E+00 0. -1.
         15    1    5    5    0    0 -0.38526079972E+02 -0.36197912976E+02  0.38172836520E+02  0.65205162294E+02  0.00000000000E+00 0.  1.
         15    1    4    4    0    0  0.86457339015E+03  0.49942586231E+03  0.52692386266E+03  0.11289650552E+04  0.00000000000E+00 0. -1.
        -16    1    4    4    0    0  0.17977910974E+03  0.14847369283E+03  0.14699238621E+03  0.27562969246E+03  0.00000000000E+00 0.  1.
         16    1    1    2    0    0 -0.51693334092E+03 -0.83171337316E+02  0.10785095290E+04  0.11988829611E+04  0.00000000000E+00 0. -1.
    9900018    1    3    3    0    0 -0.49118399736E+00 -0.77713259953E+02 -0.49071577216E+01  0.11991184522E+03  0.91187600000E+02 0.  0.
<mgrwt>
<rscale>  0 0.29629586E+04</rscale>
<asrwt>0</asrwt>
<pdfrwt beam="1">  1        1 0.58374752E+00 0.29629586E+04</pdfrwt>
<pdfrwt beam="2">  1       -1 0.88989635E-01 0.29629586E+04</pdfrwt>
<totfact> 0.15224032E-01</totfact>
</mgrwt>
</event>
<event>
12    1  0.1902935E-012  0.2999597E+04  0.7818608E-02  0.8243846E-01
          1   -1    0    0  501    0  0.00000000000E+00  0.00000000000E+00  0.34518492307E+04  0.34518492307E+04  0.00000000000E+00 0. -1.
         -1   -1    0    0    0  501 -0.00000000000E+00 -0.00000000000E+00 -0.65164961428E+03  0.65164961428E+03  0.00000000000E+00 0.  1.
    9900016    2    1    2    0    0 -0.38054073074E+03  0.50154529674E+03  0.14829401877E+04  0.26435223606E+04  0.20958864326E+04 0.  0.
        -24    2    3    3    0    0 -0.10217109819E+04  0.11001213961E+03  0.10204567249E+04  0.14523077496E+04  0.10894893541E+03 0.  0.
         23    2    3    3    0    0  0.13154623439E+03  0.24347119873E+02 -0.16065539556E+02  0.16244948973E+03  0.90744372411E+02 0.  0.
        -15    1    3    3    0    0  0.58380809264E+03  0.22856092089E+03  0.54947195255E+03  0.83366144821E+03  0.00000000000E+00 0.  1.
        -15    1    5    5    0    0  0.78849710792E+02  0.57451857716E+02 -0.21759526777E+02  0.99957340164E+02  0.00000000000E+00 0. -1.
         15    1    5    5    0    0  0.52696523599E+02 -0.33104737844E+02  0.56939872211E+01  0.62492149568E+02  0.00000000000E+00 0.  1.
         15    1    4    4    0    0 -0.58372915638E+03  0.86192822031E+01  0.57221958663E+03  0.81746515238E+03  0.00000000000E+00 0. -1.
        -16    1    4    4    0    0 -0.43798182553E+03  0.10139285741E+03  0.44823713831E+03  0.63484259718E+03  0.00000000000E+00 0.  1.
         16    1    1    2    0    0  0.38054073074E+03 -0.50154529674E+03  0.13172594287E+04  0.14599764844E+04  0.00000000000E+00 0. -1.
    9900018    1    3    3    0    0 -0.74184075861E+02  0.13862511636E+03 -0.70922950226E+02  0.19510367311E+03  0.91187600000E+02 0.  0.
<mgrwt>
<rscale>  0 0.29995975E+04</rscale>
<asrwt>0</asrwt>
<pdfrwt beam="1">  1        1 0.53105372E+00 0.29995975E+04</pdfrwt>
<pdfrwt beam="2">  1       -1 0.10025379E+00 0.29995975E+04</pdfrwt>
<totfact> 0.21968776E-01</totfact>
</mgrwt>
</event>
<event>
12    1  0.1902935E-012  0.3017052E+04  0.7818608E-02  0.8238878E-01
         -2   -1    0    0    0  501 -0.00000000000E+00  0.00000000000E+00  0.82603902252E+03  0.82603902252E+03  0.00000000000E+00 0.  1.
          2   -1    0    0  501    0  0.00000000000E+00 -0.00000000000E+00 -0.27548950502E+04  0.27548950502E+04  0.00000000000E+00 0. -1.
    9900016    2    1    2    0    0  0.17543181137E+03  0.68861992963E+03 -0.11526561579E+04  0.25285748347E+04  0.21354392402E+04 0.  0.
        -24    2    3    3    0    0  0.58089107149E+03 -0.37527850079E+03 -0.26310378404E+03  0.74250408346E+03  0.61808758993E+02 0.  0.
         23    2    3    3    0    0  0.19083719545E+03  0.78125803221E+02 -0.41953899823E+03  0.47682242396E+03  0.93937088871E+02 0.  0.
        -15    1    3    3    0    0 -0.44397192593E+03  0.80427627497E+03 -0.51229549343E+03  0.10518640930E+04  0.00000000000E+00 0.  1.
        -15    1    5    5    0    0  0.13136361232E+03  0.51604519352E+02 -0.36683159873E+03  0.39304560408E+03  0.00000000000E+00 0.  1.
         15    1    4    4    0    0  0.42881220048E+03 -0.25261538812E+03 -0.20880912545E+03  0.53971815651E+03  0.00000000000E+00 0. -1.
         15    1    5    5    0    0  0.59473583124E+02  0.26521283869E+02 -0.52707399494E+02  0.83776819880E+02  0.00000000000E+00 0. -1.
        -16    1    4    4    0    0  0.15207887101E+03 -0.12266311268E+03 -0.54294658590E+02  0.20278592695E+03  0.00000000000E+00 0.  1.
         16    1    1    2    0    0 -0.17543181137E+03 -0.68861992963E+03 -0.77619986976E+03  0.10523592380E+04  0.00000000000E+00 0. -1.
    9900018    1    3    3    0    0 -0.15232452964E+03  0.18149635223E+03  0.42282117796E+02  0.25738423433E+03  0.91187600000E+02 0.  0.
<mgrwt>
<rscale>  0 0.30170521E+04</rscale>
<asrwt>0</asrwt>
<pdfrwt beam="1">  1        2 0.42383001E+00 0.30170521E+04</pdfrwt>
<pdfrwt beam="2">  1       -2 0.12708293E+00 0.30170521E+04</pdfrwt>
<totfact> 0.96757313E-01</totfact>
</mgrwt>
</event>
