<event>
11    1  0.5963577E-011  0.2877572E+04  0.7818608E-02  0.8450829E-01
         -2   -1    0    0    0  501 -0.00000000000E+00  0.00000000000E+00  0.20104811421E+04  0.20104811421E+04  0.00000000000E+00 0.  1.
          2   -1    0    0  501    0  0.00000000000E+00 -0.00000000000E+00 -0.22710640603E+04  0.22710640603E+04  0.00000000000E+00 0. -1.
         24    2    1    2    0    0  0.12442220290E+04 -0.44545672430E+03 -0.44826600959E+03  0.13978586005E+04  0.80907977603E+02 0.  0.
    9900016    2    1    2    0    0 -0.90618933182E+03  0.28027769465E+03 -0.42893976175E+03  0.21613473747E+04  0.18941220825E+04 0.  0.
        -15    1    4    4    0    0 -0.95361337748E+03  0.75024100349E+03 -0.75664998874E+03  0.14299507832E+04  0.00000000000E+00 0.  1.
        -15    1    3    3    0    0  0.10167596108E+04 -0.33617887545E+03 -0.34365841130E+03  0.11246854877E+04  0.00000000000E+00 0.  1.
         15    1    1    2    0    0 -0.33803269718E+03  0.16517902966E+03  0.61662285321E+03  0.72233922730E+03  0.00000000000E+00 0. -1.
         15    1    4    4    0    0  0.57604244488E+02 -0.16313231768E+03  0.36097134487E+02  0.17672975180E+03  0.00000000000E+00 0. -1.
        -16    1    4    4    0    0  0.72227327681E+02 -0.32853915183E+03  0.26203553509E+03  0.42640049578E+03  0.00000000000E+00 0.  1.
         16    1    3    3    0    0  0.22746241815E+03 -0.10927784885E+03 -0.10460759829E+03  0.27317311277E+03  0.00000000000E+00 0. -1.
    9900018    1    4    4    0    0 -0.82407526502E+02  0.21708160666E+02  0.29577557403E+02  0.12826634383E+03  0.91187600000E+02 0.  0.
<mgrwt>
<rscale>  0 0.23699790E+04</rscale>
<asrwt>0</asrwt>
<pdfrwt beam="1">  1        2 0.34939447E+00 0.28775725E+04</pdfrwt>
<pdfrwt beam="2">  1       -2 0.30930479E+00 0.28775725E+04</pdfrwt>
<totfact> 0.10881495E-01</totfact>
</mgrwt>
</event>
<event>
12    1  0.5963577E-011  0.2677842E+04  0.7818608E-02  0.8473451E-01
         -1   -1    0    0    0  501 -0.00000000000E+00  0.00000000000E+00  0.12200937013E+04  0.12200937013E+04  0.00000000000E+00 0.  1.
          1   -1    0    0  501    0  0.00000000000E+00 -0.00000000000E+00 -0.37893931428E+04  0.37893931428E+04  0.00000000000E+00 0. -1.
        -24    2    1    2    0    0 -0.24288874096E+03 -0.14642933279E+04 -0.33904327374E+03  0.15245364299E+04  0.78173485853E+02 0.  0.
    9900016    2    1    2    0    0  0.15667324110E+03  0.86409196434E+03 -0.17858403674E+04  0.26870433619E+04  0.18054846396E+04 0.  0.
         24    2    4    4    0    0 -0.32737296306E+03  0.33611939248E+03  0.24194168719E+03  0.53647231565E+03  0.95485404702E+02 0.  0.
        -15    1    5    5    0    0 -0.28598621200E+03  0.29869273170E+03  0.24488013467E+03  0.48059519533E+03  0.00000000000E+00 0.  1.
        -15    1    1    2    0    0  0.95683834517E+02  0.52636901203E+03 -0.30644446388E+03  0.61654516660E+03  0.00000000000E+00 0.  1.
         15    1    3    3    0    0 -0.12896111301E+03 -0.63738543419E+03 -0.11641775241E+03  0.66063927636E+03  0.00000000000E+00 0. -1.
         15    1    4    4    0    0  0.48404620416E+03  0.52797257187E+03 -0.20277820546E+04  0.21505710463E+04  0.00000000000E+00 0. -1.
        -16    1    3    3    0    0 -0.11392762795E+03 -0.82690789373E+03 -0.22262552133E+03  0.86389715352E+03  0.00000000000E+00 0.  1.
         16    1    5    5    0    0 -0.41386751064E+02  0.37426660779E+02 -0.29384474816E+01  0.55877120311E+02  0.00000000000E+00 0. -1.
    9900018    1    1    2    0    0 -0.94683346529E+01  0.73832351545E+02 -0.13797133648E+03  0.18136188569E+03  0.91187600000E+02 0.  0.
<mgrwt>
<rscale>  0 0.23113708E+04</rscale>
<asrwt>0</asrwt>
<pdfrwt beam="1">  1        1 0.58298355E+00 0.26778418E+04</pdfrwt>
<pdfrwt beam="2">  1       -1 0.18770673E+00 0.26778418E+04</pdfrwt>
<totfact> 0.22453181E-02</totfact>
</mgrwt>
</event>
<event>
12    1  0.5963577E-011  0.3251212E+04  0.7818608E-02  0.8453458E-01
          1   -1    0    0  501    0  0.00000000000E+00  0.00000000000E+00  0.26783370380E+04  0.26783370380E+04  0.00000000000E+00 0. -1.
         -1   -1    0    0    0  501 -0.00000000000E+00 -0.00000000000E+00 -0.25266392399E+04  0.25266392399E+04  0.00000000000E+00 0.  1.
        -24    2    1    2    0    0  0.78224479072E+03 -0.45248303968E+03  0.14447693918E+04  0.17060603935E+04  0.81459542078E+02 0.  0.
    9900016    2    1    2    0    0 -0.72232761706E+03 -0.32970187880E+03 -0.15754012756E+04  0.25221473143E+04  0.18024642523E+04 0.  0.
         24    2    4    4    0    0 -0.11121083981E+04 -0.52161351057E+03 -0.44406702693E+03  0.13102577509E+04  0.10350896613E+03 0.  0.
        -15    1    5    5    0    0 -0.52333504767E+03 -0.30225564658E+03 -0.22386788123E+03  0.64448031487E+03  0.00000000000E+00 0.  1.
        -15    1    1    2    0    0 -0.81015852054E+01  0.78256806541E+03  0.34424443787E+03  0.85497523104E+03  0.00000000000E+00 0.  1.
         15    1    3    3    0    0  0.35220090011E+03 -0.23390671116E+03  0.61650236961E+03  0.74755133289E+03  0.00000000000E+00 0. -1.
         15    1    4    4    0    0  0.38978078100E+03  0.19191163177E+03 -0.11313342487E+04  0.12118895634E+04  0.00000000000E+00 0. -1.
        -16    1    3    3    0    0  0.43004389061E+03 -0.21857632852E+03  0.82826702222E+03  0.95850906065E+03  0.00000000000E+00 0.  1.
         16    1    5    5    0    0 -0.58877335039E+03 -0.21935786399E+03 -0.22019914570E+03  0.66577743608E+03  0.00000000000E+00 0. -1.
    9900018    1    1    2    0    0 -0.51815588455E+02 -0.38314693290E+00 -0.61914756052E+02  0.12179333898E+03  0.91187600000E+02 0.  0.
<mgrwt>
<rscale>  0 0.23630756E+04</rscale>
<asrwt>0</asrwt>
<pdfrwt beam="1">  1        1 0.41205185E+00 0.32512118E+04</pdfrwt>
<pdfrwt beam="2">  1       -1 0.38871373E+00 0.32512118E+04</pdfrwt>
<totfact> 0.68481847E-03</totfact>
</mgrwt>
</event>
<event>
12    1  0.5963577E-011  0.2794097E+04  0.7818608E-02  0.8574872E-01
         -1   -1    0    0    0  501 -0.00000000000E+00  0.00000000000E+00  0.19151644637E+04  0.19151644637E+04  0.00000000000E+00 0.  1.
          1   -1    0    0  501    0  0.00000000000E+00 -0.00000000000E+00 -0.20018233904E+04  0.20018233904E+04  0.00000000000E+00 0. -1.
        -24    2    1    2    0    0 -0.14121004612E+03 -0.82481123286E+03 -0.65499364738E+03  0.10656751939E+04  0.79956824420E+02 0.  0.
    9900016    2    1    2    0    0  0.21994403672E+03  0.48408159969E+03  0.10668361512E+04  0.22423796586E+04  0.18993200850E+04 0.  0.
         24    2    4    4    0    0 -0.38403484459E+03  0.61395517613E+02  0.12536201205E+04  0.13137943476E+04  0.56921083861E+02 0.  0.
        -15    1    1    2    0    0 -0.78733990597E+02  0.34072963317E+03 -0.49850143056E+03  0.60893300162E+03  0.00000000000E+00 0.  1.
        -15    1    5    5    0    0 -0.18551053739E+03  0.50969676787E+02  0.55260803324E+03  0.58513904829E+03  0.00000000000E+00 0.  1.
         15    1    4    4    0    0  0.64403241573E+03  0.43664796499E+03 -0.24069408448E+03  0.81447703476E+03  0.00000000000E+00 0. -1.
         15    1    3    3    0    0 -0.13155935895E+03 -0.60899458183E+03 -0.51405079835E+03  0.80773169364E+03  0.00000000000E+00 0. -1.
        -16    1    3    3    0    0 -0.96506871707E+01 -0.21581665104E+03 -0.14094284903E+03  0.25794350025E+03  0.00000000000E+00 0.  1.
         16    1    5    5    0    0 -0.19852430720E+03  0.10425840826E+02  0.70101208730E+03  0.72865529933E+03  0.00000000000E+00 0. -1.
    9900018    1    4    4    0    0 -0.40053534423E+02 -0.13961882911E+02  0.53910115114E+02  0.11410827621E+03  0.91187600000E+02 0.  0.
<mgrwt>
<rscale>  0 0.20693381E+04</rscale>
<asrwt>0</asrwt>
<pdfrwt beam="1">  1        1 0.30797283E+00 0.27940973E+04</pdfrwt>
<pdfrwt beam="2">  1       -1 0.29464069E+00 0.27940973E+04</pdfrwt>
<totfact> 0.89116720E-02</totfact>
</mgrwt>
</event>
<event>
12    1  0.5963577E-011  0.2678057E+04  0.7818608E-02  0.8501254E-01
         -2   -1    0    0    0  501 -0.00000000000E+00  0.00000000000E+00  0.17035527675E+04  0.17035527675E+04  0.00000000000E+00 0.  1.
          2   -1    0    0  501    0  0.00000000000E+00 -0.00000000000E+00 -0.23398005624E+04  0.23398005624E+04  0.00000000000E+00 0. -1.
         24    2    1    2    0    0 -0.11508932322E+04 -0.63113261545E+03 -0.19891357423E+03  0.13298224743E+04  0.77314895297E+02 0.  0.
    9900016    2    1    2    0    0  0.77472202247E+03  0.15447752782E+03 -0.15686840066E+03  0.19724967137E+04  0.18005771496E+04 0.  0.
        -24    2    4    4    0    0  0.12832205780E+04  0.28880865216E+03  0.20654724538E+03  0.13332107341E+04  0.68728505158E+02 0.  0.
        -15    1    3    3    0    0 -0.71786583357E+03 -0.42983414972E+03 -0.14624902986E+03  0.84939833412E+03  0.00000000000E+00 0.  1.
        -15    1    4    4    0    0 -0.50849855554E+03 -0.13433112433E+03 -0.36341564604E+03  0.63928597962E+03  0.00000000000E+00 0.  1.
         15    1    5    5    0    0  0.52355690819E+03  0.14323493907E+03  0.10851207886E+03  0.55353676945E+03  0.00000000000E+00 0. -1.
         15    1    1    2    0    0  0.35581190402E+03  0.46300547026E+03 -0.27761904171E+03  0.64656670874E+03  0.00000000000E+00 0. -1.
        -16    1    5    5    0    0  0.75966366983E+03  0.14557371309E+03  0.98035166517E+02  0.77967396460E+03  0.00000000000E+00 0.  1.
         16    1    3    3    0    0 -0.43302739864E+03 -0.20129846573E+03 -0.52664544368E+02  0.48042414023E+03  0.00000000000E+00 0. -1.
    9900018    1    1    2    0    0  0.20359305714E+02  0.13649617369E+02 -0.28467783196E+01  0.94467433140E+02  0.91187600000E+02 0.  0.
<mgrwt>
<rscale>  0 0.22417383E+04</rscale>
<asrwt>0</asrwt>
<pdfrwt beam="1">  1        2 0.35996931E+00 0.26780568E+04</pdfrwt>
<pdfrwt beam="2">  1       -2 0.26208504E+00 0.26780568E+04</pdfrwt>
<totfact> 0.19712505E-01</totfact>
</mgrwt>
</event>
<event>
11    1  0.5963577E-011  0.2370911E+04  0.7818608E-02  0.8450475E-01
         -1   -1    0    0    0  501 -0.00000000000E+00  0.00000000000E+00  0.92791036254E+03  0.92791036254E+03  0.00000000000E+00 0.  1.
          1   -1    0    0  501    0  0.00000000000E+00 -0.00000000000E+00 -0.15144830307E+04  0.15144830307E+04  0.00000000000E+00 0. -1.
        -24    2    1    2    0    0  0.14928441971E+03 -0.13979559298E+03 -0.56269338919E+02  0.22783650734E+03  0.83154012461E+02 0.  0.
    9900016    2    1    2    0    0 -0.18036337973E+03  0.35227115774E+03 -0.50572888334E+03  0.19984188032E+04  0.18924296796E+04 0.  0.
        -15    1    1    2    0    0  0.31078960015E+02 -0.21247556476E+03 -0.24574445876E+02  0.21613808264E+03  0.00000000000E+00 0.  1.
        -15    1    4    4    0    0  0.40607852007E+02  0.57361921960E+03 -0.60527163969E+02  0.57823139341E+03  0.00000000000E+00 0.  1.
         15    1    4    4    0    0 -0.28781877477E+03 -0.70057740405E+03 -0.40032595237E+03  0.85668501464E+03  0.00000000000E+00 0. -1.
         15    1    3    3    0    0  0.21219024837E+02 -0.26669361428E+02 -0.45192643429E+02  0.56602799172E+02  0.00000000000E+00 0. -1.
        -16    1    3    3    0    0  0.12806539487E+03 -0.11312623155E+03 -0.11076695491E+02  0.17123370817E+03  0.00000000000E+00 0.  1.
         16    1    4    4    0    0  0.38811710585E+02  0.45769844999E+03 -0.93062943097E+01  0.45943533507E+03  0.00000000000E+00 0. -1.
    9900018    1    4    4    0    0  0.28035832449E+02  0.21530892201E+02 -0.35569472687E+02  0.10406706012E+03  0.91187600000E+02 0.  0.
<mgrwt>
<rscale>  0 0.23709108E+04</rscale>
<asrwt>0</asrwt>
<pdfrwt beam="1">  1        1 0.23299739E+00 0.23709108E+04</pdfrwt>
<pdfrwt beam="2">  1       -1 0.14275544E+00 0.23709108E+04</pdfrwt>
<totfact> 0.22868049E+00</totfact>
</mgrwt>
</event>
<event>
11    1  0.5963577E-011  0.3635964E+04  0.7818608E-02  0.8082303E-01
         -2   -1    0    0    0  501 -0.00000000000E+00  0.00000000000E+00  0.17703380812E+04  0.17703380812E+04  0.00000000000E+00 0.  1.
          2   -1    0    0  501    0  0.00000000000E+00 -0.00000000000E+00 -0.18669081778E+04  0.18669081778E+04  0.00000000000E+00 0. -1.
         24    2    1    2    0    0 -0.72375411971E+03  0.76248768798E+03  0.48296028797E+03  0.11597602019E+04  0.81151624040E+02 0.  0.
    9900016    2    1    2    0    0  0.51780387930E+03 -0.42267959681E+03 -0.48412241368E+03  0.20688447458E+04  0.18970938753E+04 0.  0.
        -15    1    3    3    0    0 -0.11799295919E+03  0.17091989061E+03  0.91954986585E+02  0.22713799106E+03  0.00000000000E+00 0.  1.
        -15    1    4    4    0    0  0.96714533708E+03  0.70646143587E+02  0.19778885563E+03  0.98968753253E+03  0.00000000000E+00 0.  1.
         15    1    1    2    0    0  0.20595024041E+03 -0.33980809116E+03 -0.95407970926E+02  0.40864131125E+03  0.00000000000E+00 0. -1.
         15    1    4    4    0    0 -0.31811197211E+03 -0.29489536485E+03 -0.35784222435E+03  0.56232513774E+03  0.00000000000E+00 0. -1.
        -16    1    4    4    0    0 -0.14813028693E+03 -0.22439488002E+03 -0.32333205403E+03  0.42052260491E+03  0.00000000000E+00 0.  1.
         16    1    3    3    0    0 -0.60576116052E+03  0.59156779736E+03  0.39100530138E+03  0.93262221086E+03  0.00000000000E+00 0. -1.
    9900018    1    4    4    0    0  0.16900801259E+02  0.25964504472E+02 -0.73699093685E+00  0.96309470589E+02  0.91187600000E+02 0.  0.
<mgrwt>
<rscale>  0 0.36359640E+04</rscale>
<asrwt>0</asrwt>
<pdfrwt beam="1">  1        2 0.28721664E+00 0.36359640E+04</pdfrwt>
<pdfrwt beam="2">  1       -2 0.27235970E+00 0.36359640E+04</pdfrwt>
<totfact> 0.30182752E-01</totfact>
</mgrwt>
</event>
<event>
12    1  0.5963577E-011  0.4433655E+04  0.7818608E-02  0.7922356E-01
         -2   -1    0    0    0  501 -0.00000000000E+00  0.00000000000E+00  0.14792387689E+04  0.14792387689E+04  0.00000000000E+00 0.  1.
          2   -1    0    0  501    0  0.00000000000E+00 -0.00000000000E+00 -0.33221982955E+04  0.33221982955E+04  0.00000000000E+00 0. -1.
         24    2    1    2    0    0  0.10924547473E+04  0.21418690129E+03 -0.15126617114E+04  0.18798837627E+04  0.80523939518E+02 0.  0.
    9900016    2    1    2    0    0 -0.12688898527E+04  0.12074024071E+03 -0.70587530132E+03  0.23882954045E+04  0.18923623686E+04 0.  0.
        -24    2    4    4    0    0 -0.29806735467E+02  0.79133795112E+03 -0.25269631538E+03  0.83612498795E+03  0.90251721820E+02 0.  0.
        -15    1    4    4    0    0 -0.12251152388E+04 -0.66017253216E+03 -0.42220153121E+03  0.14543002625E+04  0.00000000000E+00 0.  1.
        -15    1    3    3    0    0  0.43804433822E+03  0.46134874833E+02 -0.60577127399E+03  0.74897937576E+03  0.00000000000E+00 0.  1.
         15    1    5    5    0    0  0.22502018908E+02  0.76590470538E+02 -0.16220565782E+02  0.81458871748E+02  0.00000000000E+00 0. -1.
         15    1    1    2    0    0  0.17643510541E+03 -0.33492714200E+03  0.37557748606E+03  0.53325789718E+03  0.00000000000E+00 0. -1.
        -16    1    5    5    0    0 -0.52308754375E+02  0.71474748059E+03 -0.23647574960E+03  0.75466611620E+03  0.00000000000E+00 0.  1.
         16    1    3    3    0    0  0.65441040908E+03  0.16805202646E+03 -0.90689043736E+03  0.11309043870E+04  0.00000000000E+00 0. -1.
    9900018    1    4    4    0    0 -0.13967878483E+02 -0.10425178253E+02 -0.30977454733E+02  0.97870154114E+02  0.91187600000E+02 0.  0.
<mgrwt>
<rscale>  0 0.44336552E+04</rscale>
<asrwt>0</asrwt>
<pdfrwt beam="1">  1        2 0.51110742E+00 0.44336552E+04</pdfrwt>
<pdfrwt beam="2">  1       -2 0.22757520E+00 0.44336552E+04</pdfrwt>
<totfact> 0.72507328E-02</totfact>
</mgrwt>
</event>
<event>
12    1  0.5963577E-011  0.2337861E+04  0.7818608E-02  0.8699320E-01
         -5   -1    0    0    0  501 -0.00000000000E+00  0.00000000000E+00  0.22068518323E+04  0.22068518323E+04  0.00000000000E+00 0.  1.
          5   -1    0    0  501    0  0.00000000000E+00 -0.00000000000E+00 -0.15441783063E+04  0.15441783063E+04  0.00000000000E+00 0. -1.
        -24    2    1    2    0    0 -0.22134542705E+03  0.81234236534E+03 -0.65279509880E+03  0.10684845737E+04  0.81387508494E+02 0.  0.
    9900016    2    1    2    0    0  0.13491484977E+03 -0.91395156770E+03  0.91201580703E+03  0.22126588611E+04  0.17918082818E+04 0.  0.
         24    2    4    4    0    0  0.88562704665E+02 -0.12559498235E+04  0.12169159603E+04  0.17521423774E+04  0.62170286355E+02 0.  0.
        -15    1    1    2    0    0  0.52775859200E+02  0.11281684718E+03  0.31206333338E+03  0.33600067911E+03  0.00000000000E+00 0.  1.
        -15    1    5    5    0    0  0.52838201367E+02 -0.76962726986E+03  0.70322700894E+03  0.10438612150E+04  0.00000000000E+00 0.  1.
         15    1    3    3    0    0 -0.19985339254E+02  0.75769915147E+02 -0.93339977357E+02  0.12187224951E+03  0.00000000000E+00 0. -1.
         15    1    4    4    0    0  0.46352145103E+02  0.34199825576E+03 -0.30490015329E+03  0.46051648372E+03  0.00000000000E+00 0. -1.
        -16    1    3    3    0    0 -0.20136008779E+03  0.73657245019E+03 -0.55945512144E+03  0.94661232416E+03  0.00000000000E+00 0.  1.
         16    1    5    5    0    0  0.35724503298E+02 -0.48632255361E+03  0.51368895137E+03  0.70828116242E+03  0.00000000000E+00 0. -1.
    9900018    1    1    2    0    0  0.33654718079E+02 -0.11207644815E+02  0.91389484388E+02  0.13388602467E+03  0.91187600000E+02 0.  0.
<mgrwt>
<rscale>  0 0.18131826E+04</rscale>
<asrwt>0</asrwt>
<pdfrwt beam="1">  1        5 0.23756589E+00 0.23378608E+04</pdfrwt>
<pdfrwt beam="2">  1       -5 0.33951567E+00 0.23378608E+04</pdfrwt>
<totfact> 0.63239952E-04</totfact>
</mgrwt>
</event>
<event>
12    1  0.5963577E-011  0.3488417E+04  0.7818608E-02  0.8534470E-01
         -1   -1    0    0    0  501 -0.00000000000E+00  0.00000000000E+00  0.26494588334E+04  0.26494588334E+04  0.00000000000E+00 0.  1.
          1   -1    0    0  501    0  0.00000000000E+00 -0.00000000000E+00 -0.15178243367E+04  0.15178243367E+04  0.00000000000E+00 0. -1.
         24    2    1    2    0    0  0.48422858549E+03  0.15470483608E+03  0.60359178572E+02  0.51808006633E+03  0.79704550547E+02 0.  0.
    9900016    2    1    2    0    0  0.57624675251E+03  0.23662322177E+03  0.13479343573E+04  0.23298432362E+04  0.17953249302E+04 0.  0.
        -24    2    4    4    0    0 -0.63355969708E+03  0.25487898267E+03  0.41020747278E+03  0.79906022472E+03  0.62176252973E+02 0.  0.
        -15    1    4    4    0    0  0.12098064496E+04 -0.18255760894E+02  0.93772688452E+03  0.15307830115E+04  0.00000000000E+00 0.  1.
        -15    1    3    3    0    0  0.30171121297E+03  0.10541110824E+03 -0.86943375921E-01  0.31959531494E+03  0.00000000000E+00 0.  1.
         15    1    1    2    0    0 -0.10731847570E+04 -0.37313373525E+03 -0.36203539805E+03  0.11924864513E+04  0.00000000000E+00 0. -1.
         15    1    5    5    0    0 -0.15879743760E+03  0.79399068938E+02  0.80108032893E+02  0.19477714258E+03  0.00000000000E+00 0. -1.
        -16    1    5    5    0    0 -0.47476225948E+03  0.17547991373E+03  0.33009943989E+03  0.60428308215E+03  0.00000000000E+00 0.  1.
         16    1    3    3    0    0  0.18251737252E+03  0.49293727847E+02  0.60446121948E+02  0.19848475139E+03  0.00000000000E+00 0. -1.
    9900018    1    1    2    0    0  0.12709418998E+02 -0.18194322604E+02  0.85376358881E+02  0.12687341627E+03  0.91187600000E+02 0.  0.
<mgrwt>
<rscale>  0 0.21618654E+04</rscale>
<asrwt>0</asrwt>
<pdfrwt beam="1">  1        1 0.23351144E+00 0.34884169E+04</pdfrwt>
<pdfrwt beam="2">  1       -1 0.40760905E+00 0.34884169E+04</pdfrwt>
<totfact> 0.32365667E-02</totfact>
</mgrwt>
</event>
<event>
12    1  0.5963577E-011  0.3311650E+04  0.7818608E-02  0.8557687E-01
          2   -1    0    0  501    0  0.00000000000E+00  0.00000000000E+00  0.40516433855E+04  0.40516433855E+04  0.00000000000E+00 0. -1.
         -2   -1    0    0    0  501 -0.00000000000E+00 -0.00000000000E+00 -0.97396693141E+03  0.97396693141E+03  0.00000000000E+00 0.  1.
         24    2    1    2    0    0 -0.36029686366E+03 -0.39946829577E+03  0.63220163225E+02  0.54744388983E+03  0.79430939700E+02 0.  0.
    9900016    2    1    2    0    0 -0.78286159791E+03  0.10421809116E+03  0.14263320910E+04  0.24333073603E+04  0.18063299211E+04 0.  0.
        -24    2    4    4    0    0 -0.11306569110E+04  0.34668130477E+03  0.15866265161E+04  0.19800477300E+04  0.68061252678E+02 0.  0.
        -15    1    4    4    0    0  0.34779531309E+03 -0.24246321361E+03 -0.16029442506E+03  0.45325963031E+03  0.00000000000E+00 0.  1.
        -15    1    3    3    0    0 -0.26662800186E+03 -0.34279742193E+03  0.48537513630E+02  0.43698564518E+03  0.00000000000E+00 0.  1.
         15    1    1    2    0    0  0.11585561850E+04  0.27835828218E+03  0.15032829366E+04  0.19182271384E+04  0.00000000000E+00 0. -1.
         15    1    5    5    0    0 -0.38822453098E+03  0.85580376624E+02  0.53759715933E+03  0.66862021585E+03  0.00000000000E+00 0. -1.
        -16    1    5    5    0    0 -0.74243238002E+03  0.26110092815E+03  0.10490293568E+04  0.13114275142E+04  0.00000000000E+00 0.  1.
         16    1    3    3    0    0 -0.93668861799E+02 -0.56670873835E+02  0.14682649595E+02  0.11045824465E+03  0.00000000000E+00 0. -1.
    9900018    1    1    2    0    0 -0.15397723430E+02  0.16891922435E+02  0.84841263224E+02  0.12663192832E+03  0.91187600000E+02 0.  0.
<mgrwt>
<rscale>  0 0.21080915E+04</rscale>
<asrwt>0</asrwt>
<pdfrwt beam="1">  1        2 0.62332974E+00 0.33116503E+04</pdfrwt>
<pdfrwt beam="2">  1       -2 0.14984107E+00 0.33116503E+04</pdfrwt>
<totfact> 0.76178849E-02</totfact>
</mgrwt>
</event>
<event>
11    1  0.5963577E-011  0.3022321E+04  0.7818608E-02  0.8434257E-01
          2   -1    0    0  501    0  0.00000000000E+00  0.00000000000E+00  0.52183043478E+04  0.52183043478E+04  0.00000000000E+00 0. -1.
         -2   -1    0    0    0  501 -0.00000000000E+00 -0.00000000000E+00 -0.87095865722E+03  0.87095865722E+03  0.00000000000E+00 0.  1.
         24    2    1    2    0    0 -0.71977779753E+03 -0.99426075248E+03  0.10618922711E+04  0.16251136533E+04  0.82125932808E+02 0.  0.
    9900016    2    1    2    0    0  0.79073202586E+03  0.35363900867E+02  0.22885832784E+04  0.30791339177E+04  0.19018266268E+04 0.  0.
        -15    1    4    4    0    0  0.86188970731E+03  0.48532898095E+03  0.23049568109E+04  0.25082312468E+04  0.00000000000E+00 0.  1.
        -15    1    3    3    0    0 -0.10119698550E+03 -0.19314397234E+03  0.18660022414E+03  0.28699314900E+03  0.00000000000E+00 0.  1.
         15    1    1    2    0    0 -0.70954228334E+02  0.95889685161E+03  0.99687014106E+03  0.13850154341E+04  0.00000000000E+00 0. -1.
         15    1    4    4    0    0 -0.31245857466E+02 -0.13969212450E+03 -0.26720906103E+02  0.14561662020E+03  0.00000000000E+00 0. -1.
        -16    1    4    4    0    0 -0.17269795868E+02 -0.29364369880E+03 -0.67902356900E+02  0.30188673003E+03  0.00000000000E+00 0.  1.
         16    1    3    3    0    0 -0.61858081203E+03 -0.80111678014E+03  0.87529204696E+03  0.13381205043E+04  0.00000000000E+00 0. -1.
    9900018    1    4    4    0    0 -0.22642028113E+02 -0.16629256777E+02  0.78249730576E+02  0.12339932069E+03  0.91187600000E+02 0.  0.
<mgrwt>
<rscale>  0 0.24140651E+04</rscale>
<asrwt>0</asrwt>
<pdfrwt beam="1">  1        2 0.80281603E+00 0.30223212E+04</pdfrwt>
<pdfrwt beam="2">  1       -2 0.13399364E+00 0.30223212E+04</pdfrwt>
<totfact> 0.57779225E-03</totfact>
</mgrwt>
</event>
<event>
11    1  0.5963577E-011  0.3522483E+04  0.7818608E-02  0.8493316E-01
         -2   -1    0    0    0  501 -0.00000000000E+00  0.00000000000E+00  0.21077763024E+04  0.21077763024E+04  0.00000000000E+00 0.  1.
          2   -1    0    0  501    0  0.00000000000E+00 -0.00000000000E+00 -0.33662378791E+04  0.33662378791E+04  0.00000000000E+00 0. -1.
         24    2    1    2    0    0  0.50616482697E+03  0.30924336979E+03  0.10879213746E+04  0.12415915879E+04  0.78373847889E+02 0.  0.
    9900016    2    1    2    0    0 -0.13635173386E+04 -0.66712401504E+03 -0.19868636697E+04  0.30810351041E+04  0.18002544505E+04 0.  0.
        -15    1    4    4    0    0  0.25769953752E+03 -0.57278256950E+03 -0.18947177109E+03  0.65603999543E+03  0.00000000000E+00 0.  1.
        -15    1    3    3    0    0  0.20677377933E+03  0.13071983499E+03  0.37055791680E+03  0.44402279309E+03  0.00000000000E+00 0.  1.
         15    1    4    4    0    0 -0.14278774817E+04 -0.89151440814E+02 -0.15262603713E+04  0.20919495221E+04  0.00000000000E+00 0. -1.
         15    1    1    2    0    0  0.88979759341E+03  0.40705910875E+03 -0.28308144924E+03  0.10186127734E+04  0.00000000000E+00 0. -1.
        -16    1    4    4    0    0 -0.19333939451E+03 -0.51900047228E+01 -0.27113152737E+03  0.33304558660E+03  0.00000000000E+00 0.  1.
         16    1    3    3    0    0  0.29939104764E+03  0.17852353480E+03  0.71736345783E+03  0.79756879484E+03  0.00000000000E+00 0. -1.
    9900018    1    1    2    0    0 -0.32445081745E+02 -0.49178463499E+02 -0.76437832325E+02  0.13277471599E+03  0.91187600000E+02 0.  0.
<mgrwt>
<rscale>  0 0.22613543E+04</rscale>
<asrwt>0</asrwt>
<pdfrwt beam="1">  1        2 0.51788274E+00 0.35224832E+04</pdfrwt>
<pdfrwt beam="2">  1       -2 0.32427328E+00 0.35224832E+04</pdfrwt>
<totfact> 0.17574411E-02</totfact>
</mgrwt>
</event>
<event>
12    1  0.6373897E-011  0.3076136E+04  0.7818608E-02  0.8582351E-01
          2   -1    0    0  501    0  0.00000000000E+00  0.00000000000E+00  0.21093801427E+04  0.21093801427E+04  0.00000000000E+00 0. -1.
         -2   -1    0    0    0  501 -0.00000000000E+00 -0.00000000000E+00 -0.17179061860E+04  0.17179061860E+04  0.00000000000E+00 0.  1.
        -24    2    1    2    0    0  0.58177030358E+03 -0.16410813791E+03  0.43774407947E+03  0.75080278599E+03  0.81833839442E+02 0.  0.
    9900016    2    1    2    0    0  0.25819948443E+03  0.43070321521E+03  0.47013494866E+03  0.19272891833E+04  0.18003456593E+04 0.  0.
         24    2    4    4    0    0 -0.16603813823E+03  0.10738124437E+04  0.17529072852E+03  0.11023648508E+04  0.61964482956E+02 0.  0.
        -15    1    1    2    0    0 -0.87313409129E+03 -0.26193611949E+03 -0.52452442662E+03  0.10517126728E+04  0.00000000000E+00 0.  1.
        -15    1    5    5    0    0 -0.71941365042E+02  0.45237961813E+03  0.43010762071E+02  0.46007912859E+03  0.00000000000E+00 0.  1.
         15    1    3    3    0    0  0.35700242637E+03 -0.62505266839E+02  0.24045333698E+03  0.43494304005E+03  0.00000000000E+00 0. -1.
         15    1    4    4    0    0  0.42423762266E+03 -0.64310922851E+03  0.29484422014E+03  0.82492433255E+03  0.00000000000E+00 0. -1.
        -16    1    3    3    0    0  0.22476787721E+03 -0.10160287107E+03  0.19729074249E+03  0.31585974594E+03  0.00000000000E+00 0.  1.
         16    1    5    5    0    0 -0.94096773191E+02  0.62143282558E+03  0.13227996645E+03  0.64228572222E+03  0.00000000000E+00 0. -1.
    9900018    1    1    2    0    0  0.33164303274E+02 -0.46589578118E+01  0.81193552089E+01  0.97481686600E+02  0.91187600000E+02 0.  0.
<mgrwt>
<rscale>  0 0.20527422E+04</rscale>
<asrwt>0</asrwt>
<pdfrwt beam="1">  1        2 0.32452002E+00 0.30761356E+04</pdfrwt>
<pdfrwt beam="2">  1       -2 0.26429326E+00 0.30761356E+04</pdfrwt>
<totfact> 0.25305681E-01</totfact>
</mgrwt>
</event>
