<event>
11    1  0.1475793E-012  0.5509763E+04  0.7818608E-02  0.7754347E-01
          1   -1    0    0  501    0  0.00000000000E+00  0.00000000000E+00  0.30633442239E+04  0.30633442239E+04  0.00000000000E+00 0. -1.
         -1   -1    0    0    0  501 -0.00000000000E+00 -0.00000000000E+00 -0.24774793742E+04  0.24774793742E+04  0.00000000000E+00 0.  1.
    9900016    2    1    2    0    0  0.88527347790E+03 -0.13747126833E+03 -0.10125689383E+03  0.11529236426E+04  0.71859062531E+03 0.  0.
         23    2    3    3    0    0  0.14446904176E+03 -0.47958216612E+02 -0.33151013684E+03  0.37201368942E+03  0.72965195300E+02 0.  0.
        -15    1    4    4    0    0  0.60153766480E+02 -0.58112533084E+02 -0.17443804887E+03  0.19345328898E+03  0.00000000000E+00 0.  1.
        -15    1    1    2    0    0  0.25625947056E+03  0.36039848742E+03 -0.35655227822E+03  0.56805414626E+03  0.00000000000E+00 0.  1.
         15    1    1    2    0    0  0.92966124919E+03 -0.18179150009E+03  0.83508992860E+03  0.12628116948E+04  0.00000000000E+00 0. -1.
         15    1    4    4    0    0  0.84315275284E+02  0.10154316472E+02 -0.15707208797E+03  0.17856040045E+03  0.00000000000E+00 0. -1.
        -16    1    1    2    0    0 -0.22799626165E+04 -0.15643205925E+03  0.24777425199E+03  0.22987154242E+04  0.00000000000E+00 0.  1.
         16    1    3    3    0    0  0.74080443614E+03 -0.89513051719E+02  0.23025324301E+03  0.78090995316E+03  0.00000000000E+00 0. -1.
    9900018    1    1    2    0    0  0.20876841880E+03  0.11529634026E+03 -0.39190158848E+02  0.25831869020E+03  0.91187600000E+02 0.  0.
<mgrwt>
<rscale>  0 0.55097630E+04</rscale>
<asrwt>0</asrwt>
<pdfrwt beam="1">  1        1 0.47128373E+00 0.55097630E+04</pdfrwt>
<pdfrwt beam="2">  1       -1 0.38115067E+00 0.55097630E+04</pdfrwt>
<totfact> 0.35810970E-03</totfact>
</mgrwt>
</event>
<event>
11    1  0.1475793E-012  0.1635275E+04  0.7818608E-02  0.8979765E-01
          2   -1    0    0  501    0  0.00000000000E+00  0.00000000000E+00  0.19984934661E+04  0.19984934661E+04  0.00000000000E+00 0. -1.
         -2   -1    0    0    0  501 -0.00000000000E+00 -0.00000000000E+00 -0.98002697294E+03  0.98002697294E+03  0.00000000000E+00 0.  1.
    9900016    2    1    2    0    0  0.35804535593E+03 -0.41684012711E+03  0.40361415223E+03  0.97731274587E+03  0.70020257847E+03 0.  0.
         23    2    3    3    0    0 -0.17558562216E+03 -0.62193005351E+02  0.22473039997E+03  0.31207895346E+03  0.11041394793E+03 0.  0.
        -15    1    1    2    0    0 -0.46456307574E+03  0.12669511741E+03  0.56453723013E+03  0.74200592203E+03  0.00000000000E+00 0.  1.
        -15    1    4    4    0    0 -0.12686035158E+03 -0.29949575786E+02  0.72796652271E+02  0.14929795201E+03  0.00000000000E+00 0. -1.
         15    1    1    2    0    0  0.26341182518E+02  0.30171401780E+03  0.51793828169E+03  0.59998772493E+03  0.00000000000E+00 0. -1.
         15    1    4    4    0    0 -0.48725270583E+02 -0.32243429565E+02  0.15193374770E+03  0.16278100145E+03  0.00000000000E+00 0.  1.
        -16    1    1    2    0    0  0.23510923711E+03  0.77175490623E+02 -0.34372799076E+03  0.42353434496E+03  0.00000000000E+00 0.  1.
         16    1    3    3    0    0  0.53363097809E+03 -0.35464712175E+03  0.17888375225E+03  0.66523379241E+03  0.00000000000E+00 0. -1.
    9900018    1    1    2    0    0 -0.15493269982E+03 -0.88744498727E+02 -0.12389518012E+03  0.23567970124E+03  0.91187600000E+02 0.  0.
<mgrwt>
<rscale>  0 0.13647121E+04</rscale>
<asrwt>0</asrwt>
<pdfrwt beam="1">  1        2 0.30746053E+00 0.16352745E+04</pdfrwt>
<pdfrwt beam="2">  1       -2 0.15077338E+00 0.16352745E+04</pdfrwt>
<totfact> 0.18473801E+00</totfact>
</mgrwt>
</event>
<event>
11    1  0.1475793E-012  0.1539997E+04  0.7818608E-02  0.9022167E-01
          1   -1    0    0  501    0  0.00000000000E+00  0.00000000000E+00  0.10442940566E+04  0.10442940566E+04  0.00000000000E+00 0. -1.
         -1   -1    0    0    0  501 -0.00000000000E+00 -0.00000000000E+00 -0.17950905937E+04  0.17950905937E+04  0.00000000000E+00 0.  1.
    9900016    2    1    2    0    0  0.28119221646E+03 -0.56425407202E+03  0.21241057800E+03  0.96074296335E+03  0.69315010466E+03 0.  0.
         23    2    3    3    0    0 -0.52383000918E+02  0.21459198590E+02 -0.16298723317E+03  0.18921462450E+03  0.77671487419E+02 0.  0.
        -15    1    1    2    0    0  0.21603390213E+03  0.27407307767E+03  0.16504578917E+03  0.38603990894E+03  0.00000000000E+00 0.  1.
        -15    1    4    4    0    0 -0.47383537409E+01  0.39925963890E+02 -0.10207396743E+03  0.10970701625E+03  0.00000000000E+00 0. -1.
         15    1    4    4    0    0 -0.47644647177E+02 -0.18466765300E+02 -0.60913265743E+02  0.79507608245E+02  0.00000000000E+00 0.  1.
         15    1    1    2    0    0 -0.28798822199E+03  0.42959863196E+03 -0.45938059751E+03  0.69175337654E+03  0.00000000000E+00 0. -1.
        -16    1    1    2    0    0 -0.97797812063E+02 -0.22182844089E+03 -0.53605346423E+03  0.58832438820E+03  0.00000000000E+00 0.  1.
         16    1    3    3    0    0  0.33357521738E+03 -0.58571327061E+03  0.37539781117E+03  0.77152833885E+03  0.00000000000E+00 0. -1.
    9900018    1    1    2    0    0 -0.11144008453E+03  0.82410803276E+02 -0.13281884251E+03  0.21252401337E+03  0.91187600000E+02 0.  0.
<mgrwt>
<rscale>  0 0.13093704E+04</rscale>
<asrwt>0</asrwt>
<pdfrwt beam="1">  1        1 0.16066062E+00 0.15399969E+04</pdfrwt>
<pdfrwt beam="2">  1       -1 0.27616778E+00 0.15399969E+04</pdfrwt>
<totfact> 0.62385058E-01</totfact>
</mgrwt>
</event>
<event>
10    1  0.1475794E-012  0.3959099E+04  0.7818608E-02  0.8012849E-01
          1   -1    0    0  501    0  0.00000000000E+00  0.00000000000E+00  0.32264349614E+04  0.32264349614E+04  0.00000000000E+00 0. -1.
         -1   -1    0    0    0  501 -0.00000000000E+00 -0.00000000000E+00 -0.12145345573E+04  0.12145345573E+04  0.00000000000E+00 0.  1.
    9900016    2    1    2    0    0  0.11140441354E+04 -0.14952565498E+03  0.39520569121E+03  0.13832496001E+04  0.70266610911E+03 0.  0.
        -15    1    1    2    0    0  0.30174023458E+03  0.63687809700E+03  0.55932286522E+03  0.89972381716E+03  0.00000000000E+00 0.  1.
        -15    1    3    3    0    0  0.19813396346E+03 -0.47980551194E+02 -0.14823546206E+03  0.25205743985E+03  0.00000000000E+00 0.  1.
         15    1    3    3    0    0  0.62757946127E+02  0.12052597487E+02 -0.53844514144E+02  0.83564685195E+02  0.00000000000E+00 0. -1.
         15    1    1    2    0    0  0.48467185716E+01 -0.39236411932E+03  0.40219841996E+03  0.56190449529E+03  0.00000000000E+00 0. -1.
        -16    1    3    3    0    0  0.85315222577E+03 -0.11359770127E+03  0.59728566742E+03  0.10476274751E+04  0.00000000000E+00 0.  1.
         16    1    1    2    0    0 -0.12444354762E+04 -0.57174981155E+02  0.50410800334E+03  0.13438800214E+04  0.00000000000E+00 0. -1.
    9900018    1    1    2    0    0 -0.17619561231E+03 -0.37813341548E+02  0.15106542437E+03  0.25221158465E+03  0.91187600000E+02 0.  0.
<mgrwt>
<rscale>  0 0.39590993E+04</rscale>
<asrwt>0</asrwt>
<pdfrwt beam="1">  1        1 0.49637461E+00 0.39590993E+04</pdfrwt>
<pdfrwt beam="2">  1       -1 0.18685147E+00 0.39590993E+04</pdfrwt>
<totfact> 0.59240076E-02</totfact>
</mgrwt>
</event>
