<event>
11    1  0.5615800E-008  0.3633098E+04  0.7818608E-02  0.8724718E-01
          2   -1    0    0  501    0  0.00000000000E+00  0.00000000000E+00  0.24749531809E+04  0.24749531809E+04  0.00000000000E+00 0. -1.
         -2   -1    0    0    0  501 -0.00000000000E+00 -0.00000000000E+00 -0.14924026084E+04  0.14924026084E+04  0.00000000000E+00 0.  1.
        -24    2    1    2    0    0 -0.29263731860E+03  0.67720623597E+03 -0.40095720980E+03  0.84359245700E+03  0.81465717517E+02 0.  0.
         23    2    1    2    0    0 -0.30347062859E+02  0.17951128735E+03  0.11123565608E+03  0.23123608048E+03  0.89171224174E+02 0.  0.
        -15    1    4    4    0    0  0.36445460125E+01  0.92617395411E+02  0.10145274944E+03  0.13741879426E+03  0.00000000000E+00 0. -1.
        -15    1    1    2    0    0  0.60166175925E+03  0.16485548545E+03 -0.75071957316E+02  0.62833908234E+03  0.00000000000E+00 0.  1.
         15    1    3    3    0    0 -0.13281646217E+03  0.40813922470E+03 -0.22682409729E+03  0.48545546704E+03  0.00000000000E+00 0. -1.
         15    1    4    4    0    0 -0.33991608872E+02  0.86893891941E+02  0.97829066413E+01  0.93817286215E+02  0.00000000000E+00 0.  1.
        -16    1    3    3    0    0 -0.15982085643E+03  0.26906701127E+03 -0.17413311252E+03  0.35813698996E+03  0.00000000000E+00 0.  1.
         16    1    1    2    0    0 -0.13882814995E+02 -0.47963861752E+03  0.15490651777E+04  0.16216808752E+04  0.00000000000E+00 0. -1.
    9900018    1    1    2    0    0 -0.26479456279E+03 -0.54193439125E+03 -0.20172109422E+03  0.64250729424E+03  0.91187600000E+02 0.  0.
<mgrwt>
<rscale>  0 0.17657685E+04</rscale>
<asrwt>0</asrwt>
<pdfrwt beam="1">  1        2 0.38076203E+00 0.36330980E+04</pdfrwt>
<pdfrwt beam="2">  1       -2 0.22960040E+00 0.36330980E+04</pdfrwt>
<totfact> 0.24962744E-01</totfact>
</mgrwt>
</event>
<event>
11    1  0.5615800E-008  0.2517550E+04  0.7818608E-02  0.8853070E-01
         -2   -1    0    0    0  501 -0.00000000000E+00  0.00000000000E+00  0.13478099180E+04  0.13478099180E+04  0.00000000000E+00 0. -1.
          2   -1    0    0  501    0  0.00000000000E+00 -0.00000000000E+00 -0.15536228034E+04  0.15536228034E+04  0.00000000000E+00 0.  1.
        -24    2    1    2    0    0 -0.25879721025E+03  0.23644501145E+03 -0.13001362240E+03  0.38274233007E+03  0.81889619284E+02 0.  0.
         23    2    1    2    0    0  0.39328629956E+03  0.31365636891E+03  0.44802720994E+01  0.51080639597E+03  0.88592720635E+02 0.  0.
        -15    1    4    4    0    0  0.35268443387E+03  0.30982880164E+03 -0.23729972241E+01  0.46945268913E+03  0.00000000000E+00 0.  1.
        -15    1    1    2    0    0 -0.67657784053E+03 -0.48644681193E+03 -0.41491523948E+03  0.93088276979E+03  0.00000000000E+00 0.  1.
         15    1    3    3    0    0 -0.36365146268E+02  0.34465312035E+02 -0.52248046275E+02  0.72388810850E+02  0.00000000000E+00 0. -1.
         15    1    4    4    0    0  0.40601865697E+02  0.38275672694E+01  0.68532693235E+01  0.41353706844E+02  0.00000000000E+00 0. -1.
        -16    1    3    3    0    0 -0.22243206398E+03  0.20197969942E+03 -0.77765576127E+02  0.31035351922E+03  0.00000000000E+00 0.  1.
         16    1    1    2    0    0  0.78603736712E+02  0.10148605642E+03  0.52586217991E+03  0.54130305683E+03  0.00000000000E+00 0. -1.
    9900018    1    1    2    0    0  0.46348501451E+03 -0.16514062485E+03 -0.19122647555E+03  0.53569816875E+03  0.91187600000E+02 0.  0.
<mgrwt>
<rscale>  0 0.15481186E+04</rscale>
<asrwt>0</asrwt>
<pdfrwt beam="1">  1        2 0.23901889E+00 0.25175496E+04</pdfrwt>
<pdfrwt beam="2">  1       -2 0.20735537E+00 0.25175496E+04</pdfrwt>
<totfact> 0.12399350E+00</totfact>
</mgrwt>
</event>
<event>
11    1  0.5615800E-008  0.2226931E+04  0.7818608E-02  0.9095020E-01
         -1   -1    0    0    0  501 -0.00000000000E+00  0.00000000000E+00  0.22050618276E+04  0.22050618276E+04  0.00000000000E+00 0.  1.
          1   -1    0    0  501    0  0.00000000000E+00 -0.00000000000E+00 -0.94328103667E+03  0.94328103667E+03  0.00000000000E+00 0. -1.
         24    2    1    2    0    0  0.89327184620E+02  0.34879559639E+03  0.65681193139E+03  0.75253470090E+03  0.72586836717E+02 0.  0.
         23    2    1    2    0    0 -0.44093613710E+02 -0.17356665951E+03 -0.34705955088E+03  0.40105523858E+03  0.91243303693E+02 0.  0.
        -15    1    4    4    0    0  0.23514408924E+02 -0.50850928895E+02 -0.62901573073E+02  0.84233914142E+02  0.00000000000E+00 0. -1.
        -15    1    3    3    0    0  0.23145452809E+01  0.78807861622E+02  0.97375398772E+02  0.12529167753E+03  0.00000000000E+00 0.  1.
         15    1    1    2    0    0 -0.33853457342E+03  0.43473997536E+02  0.22358664511E+03  0.40802773648E+03  0.00000000000E+00 0. -1.
         15    1    4    4    0    0 -0.67608022634E+02 -0.12271573061E+03 -0.28415797781E+03  0.31682132443E+03  0.00000000000E+00 0.  1.
        -16    1    1    2    0    0 -0.54699443486E+03 -0.91743598381E+02  0.27100654698E+03  0.61730409695E+03  0.00000000000E+00 0.  1.
         16    1    3    3    0    0  0.87012639340E+02  0.26998773477E+03  0.55943653262E+03  0.62724302336E+03  0.00000000000E+00 0. -1.
    9900018    1    1    2    0    0  0.84029543737E+03 -0.12695933604E+03  0.45743521838E+03  0.96942109142E+03  0.91187600000E+02 0.  0.
<mgrwt>
<rscale>  0 0.12205933E+04</rscale>
<asrwt>0</asrwt>
<pdfrwt beam="1">  1        1 0.14512016E+00 0.22269311E+04</pdfrwt>
<pdfrwt beam="2">  1       -1 0.33924028E+00 0.22269311E+04</pdfrwt>
<totfact> 0.27483652E-01</totfact>
</mgrwt>
</event>
<event>
12    1  0.5615800E-008  0.3448545E+04  0.7818608E-02  0.8563993E-01
          1   -1    0    0  501    0  0.00000000000E+00  0.00000000000E+00  0.31314984454E+04  0.31314984454E+04  0.00000000000E+00 0. -1.
         -1   -1    0    0    0  501 -0.00000000000E+00 -0.00000000000E+00 -0.12359838687E+04  0.12359838687E+04  0.00000000000E+00 0.  1.
         24    2    1    2    0    0 -0.21793980816E+03  0.40711040914E+03  0.98616872291E+02  0.47886987388E+03  0.79714637289E+02 0.  0.
    9900016    2    1    2    0    0  0.59498197383E+03 -0.10989910157E+04  0.16363202405E+04  0.30844702325E+04  0.22966558044E+04 0.  0.
         23    2    4    4    0    0  0.26513396368E+03  0.32805059779E+03 -0.24947536484E+03  0.49869871755E+03  0.92462099362E+02 0.  0.
        -15    1    5    5    0    0  0.15119095430E+03  0.16427657047E+03 -0.18213268737E+03  0.28812811747E+03  0.00000000000E+00 0. -1.
        -15    1    3    3    0    0 -0.14541832814E+02  0.63360840227E+02 -0.79176887819E+01  0.65488554508E+02  0.00000000000E+00 0.  1.
         15    1    5    5    0    0  0.11394300938E+03  0.16377402732E+03 -0.67342677477E+02  0.21057060009E+03  0.00000000000E+00 0.  1.
         15    1    1    2    0    0 -0.37704216567E+03  0.69188060658E+03  0.16057746389E+03  0.80414220780E+03  0.00000000000E+00 0. -1.
        -16    1    4    4    0    0  0.32032606804E+03 -0.14349181827E+04  0.12110902537E+04  0.19048198297E+04  0.00000000000E+00 0.  1.
         16    1    3    3    0    0 -0.20339797535E+03  0.34374956892E+03  0.10653456107E+03  0.41338131938E+03  0.00000000000E+00 0. -1.
    9900018    1    4    4    0    0  0.95219421181E+01  0.78765692089E+01  0.67470535163E+03  0.68095168524E+03  0.91187600000E+02 0.  0.
<mgrwt>
<rscale>  0 0.20937691E+04</rscale>
<asrwt>0</asrwt>
<pdfrwt beam="1">  1        1 0.48176899E+00 0.34485454E+04</pdfrwt>
<pdfrwt beam="2">  1       -1 0.19015137E+00 0.34485454E+04</pdfrwt>
<totfact> 0.67956227E-02</totfact>
</mgrwt>
</event>
<event>
11    1  0.5615800E-008  0.5271046E+04  0.7818608E-02  0.8468408E-01
         -2   -1    0    0    0  501 -0.00000000000E+00  0.00000000000E+00  0.23662335085E+04  0.23662335085E+04  0.00000000000E+00 0.  1.
          2   -1    0    0  501    0  0.00000000000E+00 -0.00000000000E+00 -0.33692373044E+04  0.33692373044E+04  0.00000000000E+00 0. -1.
         24    2    1    2    0    0 -0.58228558400E+03 -0.62664289234E+03 -0.20347563226E+04  0.22086894351E+04  0.79611007841E+02 0.  0.
         23    2    1    2    0    0 -0.17115992370E+03  0.42272771936E+02  0.24786079236E+03  0.31803710603E+03  0.92897371852E+02 0.  0.
        -15    1    3    3    0    0 -0.55848256591E+02 -0.53693033104E+02 -0.24928200530E+03  0.26104307640E+03  0.00000000000E+00 0.  1.
        -15    1    4    4    0    0 -0.97974514136E+02  0.64572649742E+02  0.11253549258E+03  0.16258188584E+03  0.00000000000E+00 0. -1.
         15    1    4    4    0    0 -0.73185409566E+02 -0.22299877805E+02  0.13532529978E+03  0.15545522019E+03  0.00000000000E+00 0.  1.
         15    1    1    2    0    0 -0.37436722520E+03 -0.18170117038E+03  0.22724513861E+03  0.47413762521E+03  0.00000000000E+00 0. -1.
        -16    1    1    2    0    0 -0.25149737525E+03  0.11328956899E+04  0.59460170168E+03  0.13039381725E+04  0.00000000000E+00 0.  1.
         16    1    3    3    0    0 -0.52643732741E+03 -0.57294985923E+03 -0.17854743173E+04  0.19476463587E+04  0.00000000000E+00 0. -1.
    9900018    1    1    2    0    0  0.13793101082E+04 -0.36682439913E+03 -0.37955105965E+02  0.14306684741E+04  0.91187600000E+02 0.  0.
<mgrwt>
<rscale>  0 0.23242813E+04</rscale>
<asrwt>0</asrwt>
<pdfrwt beam="1">  1        2 0.51834420E+00 0.52710460E+04</pdfrwt>
<pdfrwt beam="2">  1       -2 0.36403592E+00 0.52710460E+04</pdfrwt>
<totfact> 0.89001638E-03</totfact>
</mgrwt>
</event>
