<event>
12    1  0.2991605E-014  0.2857953E+04  0.7818608E-02  0.8850675E-01
         -2   -1    0    0    0  501 -0.00000000000E+00  0.00000000000E+00  0.11173939212E+04  0.11173939212E+04  0.00000000000E+00 0.  1.
          2   -1    0    0  501    0  0.00000000000E+00 -0.00000000000E+00 -0.21860960484E+04  0.21860960484E+04  0.00000000000E+00 0. -1.
         23    2    1    2    0    0 -0.17200279421E+03 -0.16174978932E+03  0.10203718152E+02  0.24866888410E+03  0.77357239449E+02 0.  0.
    9900016    2    1    2    0    0  0.21423660871E+03  0.42575528535E+03 -0.35241259082E+03  0.22806925135E+04  0.22023166937E+04 0.  0.
        -24    2    4    4    0    0  0.25483758746E+03  0.80140025929E+03  0.15493300939E+03  0.85708576890E+03  0.58371279536E+02 0.  0.
        -15    1    4    4    0    0 -0.54954021219E+02 -0.78256673052E+03 -0.23712566654E+02  0.78485216314E+03  0.00000000000E+00 0.  1.
        -15    1    3    3    0    0 -0.88083556089E+02 -0.64283041159E+02  0.40859132660E+02  0.11644952106E+03  0.00000000000E+00 0.  1.
         15    1    5    5    0    0  0.13326418281E+03  0.44419820212E+03  0.56906198872E+02  0.46723623646E+03  0.00000000000E+00 0. -1.
         15    1    3    3    0    0 -0.83919238118E+02 -0.97466748157E+02 -0.30655414508E+02  0.13221936303E+03  0.00000000000E+00 0. -1.
        -16    1    5    5    0    0  0.12157340465E+03  0.35720205717E+03  0.98026810522E+02  0.38984953244E+03  0.00000000000E+00 0.  1.
         16    1    1    2    0    0 -0.42233814501E+02 -0.26400549604E+03 -0.72649325455E+03  0.77412857196E+03  0.00000000000E+00 0. -1.
    9900018    1    4    4    0    0  0.14353042468E+02  0.40692175658E+03 -0.48363303356E+03  0.63875458147E+03  0.91187600000E+02 0.  0.
<mgrwt>
<rscale>  0 0.15518694E+04</rscale>
<asrwt>0</asrwt>
<pdfrwt beam="1">  1        2 0.33632247E+00 0.28579528E+04</pdfrwt>
<pdfrwt beam="2">  1       -2 0.17190676E+00 0.28579528E+04</pdfrwt>
<totfact> 0.93199487E-01</totfact>
</mgrwt>
</event>
<event>
11    1  0.2991604E-014  0.3744628E+04  0.7818608E-02  0.8562590E-01
          1   -1    0    0  501    0  0.00000000000E+00  0.00000000000E+00  0.16123080724E+04  0.16123080724E+04  0.00000000000E+00 0. -1.
         -1   -1    0    0    0  501 -0.00000000000E+00 -0.00000000000E+00 -0.26232049247E+04  0.26232049247E+04  0.00000000000E+00 0.  1.
         23    2    1    2    0    0  0.29647327885E+03  0.18504566907E+03 -0.77291707081E+02  0.37625718257E+03  0.11600497721E+03 0.  0.
    9900016    2    1    2    0    0  0.60007832635E+03 -0.50409010716E+03  0.26423560880E+03  0.23294137945E+04  0.21776472017E+04 0.  0.
        -15    1    4    4    0    0  0.45830813445E+02 -0.10443910851E+03  0.25195609879E+03  0.27656801435E+03  0.00000000000E+00 0.  1.
        -15    1    3    3    0    0  0.16400061124E+03  0.62214483203E+02 -0.86078820153E+02  0.19538783403E+03  0.00000000000E+00 0. -1.
         15    1    4    4    0    0  0.59981975254E+02  0.26474602207E+03 -0.64704517530E+03  0.70168066272E+03  0.00000000000E+00 0. -1.
         15    1    3    3    0    0  0.13247266761E+03  0.12283118586E+03  0.87871130727E+01  0.18086934854E+03  0.00000000000E+00 0.  1.
        -16    1    1    2    0    0 -0.89655160520E+03  0.31904443809E+03 -0.11978407540E+04  0.15298420200E+04  0.00000000000E+00 0.  1.
         16    1    4    4    0    0  0.15553856508E+03 -0.78002942117E+03  0.54622531635E+03  0.96488353667E+03  0.00000000000E+00 0. -1.
    9900018    1    4    4    0    0  0.33872697257E+03  0.11563240046E+03  0.11309936897E+03  0.38628158076E+03  0.91187600000E+02 0.  0.
<mgrwt>
<rscale>  0 0.20969454E+04</rscale>
<asrwt>0</asrwt>
<pdfrwt beam="1">  1        1 0.24804740E+00 0.37446277E+04</pdfrwt>
<pdfrwt beam="2">  1       -1 0.40356998E+00 0.37446277E+04</pdfrwt>
<totfact> 0.29197885E-02</totfact>
</mgrwt>
</event>
<event>
12    1  0.2991604E-014  0.2952333E+04  0.7818608E-02  0.8257475E-01
          2   -1    0    0  501    0  0.00000000000E+00  0.00000000000E+00  0.18991431899E+04  0.18991431899E+04  0.00000000000E+00 0. -1.
         -2   -1    0    0    0  501 -0.00000000000E+00 -0.00000000000E+00 -0.11473952902E+04  0.11473952902E+04  0.00000000000E+00 0.  1.
         23    2    1    2    0    0 -0.71968164555E+02  0.42962406473E+03 -0.44190972538E+02  0.45028484767E+03  0.10510636652E+03 0.  0.
    9900016    2    1    2    0    0  0.17636948826E+03 -0.21322232898E+03  0.74367502317E+03  0.23503657361E+04  0.22123735207E+04 0.  0.
        -24    2    4    4    0    0  0.48506584062E+03 -0.86068688291E+03  0.74685363567E+02  0.99508063250E+03  0.92394704921E+02 0.  0.
        -15    1    3    3    0    0  0.10700868770E+02  0.22083686016E+03 -0.45470499561E+02  0.22572326803E+03  0.00000000000E+00 0.  1.
        -15    1    4    4    0    0 -0.38463951767E+03  0.37090229985E+03  0.85007026309E+03  0.10040595235E+04  0.00000000000E+00 0.  1.
         15    1    5    5    0    0  0.30269546318E+03 -0.47968800901E+03  0.78854449024E+02  0.57266321128E+03  0.00000000000E+00 0. -1.
         15    1    3    3    0    0 -0.82669033325E+02  0.20878720457E+03  0.12795270224E+01  0.22456157964E+03  0.00000000000E+00 0. -1.
        -16    1    5    5    0    0  0.18237037744E+03 -0.38099887390E+03 -0.41690854569E+01  0.42241742122E+03  0.00000000000E+00 0.  1.
         16    1    1    2    0    0 -0.10440132370E+03 -0.21640173575E+03  0.52263849100E+02  0.24588789630E+03  0.00000000000E+00 0. -1.
    9900018    1    4    4    0    0  0.75943165306E+02  0.27656225407E+03 -0.18108060349E+03  0.35122558006E+03  0.91187600000E+02 0.  0.
<mgrwt>
<rscale>  0 0.29523333E+04</rscale>
<asrwt>0</asrwt>
<pdfrwt beam="1">  1        2 0.29217587E+00 0.29523333E+04</pdfrwt>
<pdfrwt beam="2">  1       -2 0.17652235E+00 0.29523333E+04</pdfrwt>
<totfact> 0.12525363E+00</totfact>
</mgrwt>
</event>
<event>
11    1  0.2991604E-014  0.3305796E+04  0.7818608E-02  0.8606008E-01
          1   -1    0    0  501    0  0.00000000000E+00  0.00000000000E+00  0.20903969751E+04  0.20903969751E+04  0.00000000000E+00 0. -1.
         -1   -1    0    0    0  501 -0.00000000000E+00 -0.00000000000E+00 -0.16819634716E+04  0.16819634716E+04  0.00000000000E+00 0.  1.
    9900016    2    1    2    0    0  0.81903076604E+03 -0.17427606481E+03  0.97640281061E+03  0.25440514614E+04  0.21949149977E+04 0.  0.
         24    2    3    3    0    0 -0.16771912873E+03  0.38967936717E+03 -0.42744921710E+03  0.60605812152E+03  0.67925680797E+02 0.  0.
        -15    1    1    2    0    0 -0.49597996606E+03  0.85739455250E+02 -0.59993152109E+03  0.78311251485E+03  0.00000000000E+00 0.  1.
        -15    1    4    4    0    0 -0.11154105951E+03  0.32650764974E+03 -0.34768220501E+03  0.48982810146E+03  0.00000000000E+00 0.  1.
         15    1    1    2    0    0 -0.36883541313E+03  0.63325653650E+02 -0.15559647339E+02  0.37455547388E+03  0.00000000000E+00 0. -1.
         15    1    3    3    0    0  0.43280086893E+02 -0.33481870464E+03  0.53104632581E+03  0.62927492486E+03  0.00000000000E+00 0. -1.
        -16    1    1    2    0    0  0.45784613152E+02  0.25210955909E+02  0.47521861254E+02  0.70640996570E+02  0.00000000000E+00 0.  1.
         16    1    4    4    0    0 -0.56178069224E+02  0.63171717432E+02 -0.79767012092E+02  0.11623002006E+03  0.00000000000E+00 0. -1.
    9900018    1    3    3    0    0  0.94346980787E+03 -0.22913672734E+03  0.87280570190E+03  0.13087184150E+04  0.91187600000E+02 0.  0.
<mgrwt>
<rscale>  0 0.20013107E+04</rscale>
<asrwt>0</asrwt>
<pdfrwt beam="1">  1        1 0.32159953E+00 0.33057963E+04</pdfrwt>
<pdfrwt beam="2">  1       -1 0.25876361E+00 0.33057963E+04</pdfrwt>
<totfact> 0.12917766E-01</totfact>
</mgrwt>
</event>
