<event>
11    1  0.2567073E-012  0.1482134E+04  0.7818608E-02  0.9028272E-01
          2   -1    0    0  501    0  0.00000000000E+00  0.00000000000E+00  0.94441410740E+03  0.94441410740E+03  0.00000000000E+00 0. -1.
         -2   -1    0    0    0  501 -0.00000000000E+00 -0.00000000000E+00 -0.22677689040E+04  0.22677689040E+04  0.00000000000E+00 0.  1.
    9900016    2    1    2    0    0  0.16954017191E+03  0.56078732800E+02 -0.51262492697E+02  0.76954044763E+03  0.74677705055E+03 0.  0.
         23    2    3    3    0    0 -0.18782350408E+03 -0.19843337939E+03 -0.15264975931E+03  0.31924655472E+03  0.62951878017E+02 0.  0.
        -15    1    4    4    0    0 -0.86187325000E+02 -0.81300404559E+02 -0.10130553043E+03  0.15588720687E+03  0.00000000000E+00 0.  1.
        -15    1    1    2    0    0 -0.48825847145E+03 -0.26078438691E+03 -0.12053878227E+04  0.13264104322E+04  0.00000000000E+00 0.  1.
         15    1    4    4    0    0 -0.10163617908E+03 -0.11713297483E+03 -0.51344228880E+02  0.16335934785E+03  0.00000000000E+00 0. -1.
         15    1    1    2    0    0 -0.17306542284E+03  0.22705995200E+03 -0.27367560917E+03  0.39548223910E+03  0.00000000000E+00 0. -1.
        -16    1    3    3    0    0  0.35736367598E+03  0.25451211219E+03  0.10138726661E+03  0.45029389291E+03  0.00000000000E+00 0.  1.
         16    1    1    2    0    0  0.49265816212E+03 -0.15307581681E+03  0.21997739297E+03  0.56083359726E+03  0.00000000000E+00 0. -1.
    9900018    1    1    2    0    0 -0.87443974317E+00  0.13072151891E+03 -0.13006264950E+02  0.15991629521E+03  0.91187600000E+02 0.  0.
<mgrwt>
<rscale>  0 0.13016317E+04</rscale>
<asrwt>0</asrwt>
<pdfrwt beam="1">  1        2 0.14529448E+00 0.14821336E+04</pdfrwt>
<pdfrwt beam="2">  1       -2 0.34888752E+00 0.14821336E+04</pdfrwt>
<totfact> 0.41220293E-01</totfact>
</mgrwt>
</event>
<event>
11    1  0.2567073E-012  0.2970962E+04  0.7818608E-02  0.8252072E-01
          1   -1    0    0  501    0  0.00000000000E+00  0.00000000000E+00  0.16023105981E+04  0.16023105981E+04  0.00000000000E+00 0. -1.
         -1   -1    0    0    0  501 -0.00000000000E+00 -0.00000000000E+00 -0.13771693601E+04  0.13771693601E+04  0.00000000000E+00 0.  1.
    9900016    2    1    2    0    0 -0.33433489168E+01  0.17031321483E+03  0.29150256747E+03  0.76833488785E+03  0.69017895065E+03 0.  0.
         23    2    3    3    0    0 -0.33674493707E+02  0.21806184645E+03 -0.17890800984E+03  0.29453532958E+03  0.77833437426E+02 0.  0.
        -15    1    1    2    0    0 -0.93372057756E+02 -0.81197112267E+02 -0.12947399914E+03  0.17909446855E+03  0.00000000000E+00 0.  1.
        -15    1    4    4    0    0  0.17288607261E+02  0.81889710336E+02 -0.95220748914E+02  0.12677464898E+03  0.00000000000E+00 0. -1.
         15    1    4    4    0    0 -0.50963100969E+02  0.13617213611E+03 -0.83687260930E+02  0.16776068060E+03  0.00000000000E+00 0.  1.
         15    1    1    2    0    0 -0.32472361675E+03  0.84689651428E+03  0.26642988918E+03  0.94533804484E+03  0.00000000000E+00 0. -1.
        -16    1    1    2    0    0  0.41968443904E+03 -0.79364258824E+03 -0.15696218576E+03  0.91139492757E+03  0.00000000000E+00 0.  1.
         16    1    3    3    0    0  0.30331144791E+02 -0.47748631618E+02  0.47041057732E+03  0.47379955827E+03  0.00000000000E+00 0. -1.
    9900018    1    1    2    0    0  0.17545843810E+01 -0.14237002860E+03 -0.46355033757E+02  0.17531762934E+03  0.91187600000E+02 0.  0.
<mgrwt>
<rscale>  0 0.29709615E+04</rscale>
<asrwt>0</asrwt>
<pdfrwt beam="1">  1        1 0.24650932E+00 0.29709615E+04</pdfrwt>
<pdfrwt beam="2">  1       -1 0.21187221E+00 0.29709615E+04</pdfrwt>
<totfact> 0.59225578E-01</totfact>
</mgrwt>
</event>
<event>
10    1  0.2567073E-012  0.1990345E+04  0.7818608E-02  0.9185217E-01
         -2   -1    0    0    0  501 -0.00000000000E+00  0.00000000000E+00  0.11210848226E+04  0.11210848226E+04  0.00000000000E+00 0.  1.
          2   -1    0    0  501    0  0.00000000000E+00 -0.00000000000E+00 -0.11003200842E+04  0.11003200842E+04  0.00000000000E+00 0. -1.
    9900016    2    1    2    0    0  0.25402894938E+03  0.27058384702E+03 -0.34737304985E+03  0.85957617762E+03  0.69314994335E+03 0.  0.
        -15    1    1    2    0    0 -0.38163548851E+02  0.36233479766E+02  0.76737766547E+02  0.93048408538E+02  0.00000000000E+00 0. -1.
        -15    1    3    3    0    0  0.22651256773E+02  0.61880705633E+02 -0.12175016778E+03  0.13843917263E+03  0.00000000000E+00 0. -1.
         15    1    3    3    0    0  0.14965007586E+03  0.14647038616E+03 -0.43785522048E+03  0.48535132979E+03  0.00000000000E+00 0.  1.
         15    1    1    2    0    0  0.50597143736E+02  0.12133652814E+03  0.34639046957E+02  0.13595031294E+03  0.00000000000E+00 0.  1.
        -16    1    1    2    0    0 -0.12604994431E+03 -0.71092336525E+03  0.33359008814E+03  0.79535084499E+03  0.00000000000E+00 0.  1.
         16    1    3    3    0    0  0.81727616750E+02  0.62232755231E+02  0.21223233841E+03  0.23578567520E+03  0.00000000000E+00 0. -1.
    9900018    1    1    2    0    0 -0.14041259995E+03  0.28276951032E+03 -0.76829113403E+02  0.33747916270E+03  0.91187600000E+02 0.  0.
<mgrwt>
<rscale>  0 0.11207327E+04</rscale>
<asrwt>0</asrwt>
<pdfrwt beam="1">  1        2 0.16928001E+00 0.19903447E+04</pdfrwt>
<pdfrwt beam="2">  1       -2 0.17247459E+00 0.19903447E+04</pdfrwt>
<totfact> 0.41129971E+00</totfact>
</mgrwt>
</event>
<event>
11    1  0.2567073E-012  0.2130293E+04  0.7818608E-02  0.8716237E-01
         -2   -1    0    0    0  501 -0.00000000000E+00  0.00000000000E+00  0.20412496625E+04  0.20412496625E+04  0.00000000000E+00 0. -1.
          2   -1    0    0  501    0  0.00000000000E+00 -0.00000000000E+00 -0.17608658493E+04  0.17608658493E+04  0.00000000000E+00 0.  1.
    9900016    2    1    2    0    0 -0.46829183578E+03 -0.71301414729E+03  0.11214251182E+03  0.11149320591E+04  0.70909176821E+03 0.  0.
         23    2    3    3    0    0 -0.24963943523E+03 -0.85376227776E+02  0.31689323106E+03  0.41947459288E+03  0.76997833051E+02 0.  0.
        -15    1    1    2    0    0  0.24151563098E+03  0.16102903702E+03  0.76795362893E+02  0.30026268255E+03  0.00000000000E+00 0.  1.
        -15    1    4    4    0    0 -0.16001317276E+03 -0.45846316133E+02  0.14100190767E+03  0.21814591018E+03  0.00000000000E+00 0. -1.
         15    1    1    2    0    0 -0.12259436808E+03  0.64219219642E+03  0.10274310065E+04  0.12178073203E+04  0.00000000000E+00 0. -1.
         15    1    4    4    0    0 -0.89626262468E+02 -0.39529911643E+02  0.17589132338E+03  0.20132868271E+03  0.00000000000E+00 0.  1.
        -16    1    1    2    0    0  0.18451985088E+03 -0.14658159038E+03 -0.94334231541E+03  0.97233145689E+03  0.00000000000E+00 0.  1.
         16    1    3    3    0    0 -0.21865240056E+03 -0.62763791952E+03 -0.20475071924E+03  0.69545746621E+03  0.00000000000E+00 0. -1.
    9900018    1    1    2    0    0  0.16485072201E+03  0.56374504235E+02  0.73572474112E+01  0.19678199297E+03  0.91187600000E+02 0.  0.
<mgrwt>
<rscale>  0 0.17814319E+04</rscale>
<asrwt>0</asrwt>
<pdfrwt beam="1">  1        2 0.27090244E+00 0.21302928E+04</pdfrwt>
<pdfrwt beam="2">  1       -2 0.31403841E+00 0.21302928E+04</pdfrwt>
<totfact> 0.20895573E-01</totfact>
</mgrwt>
</event>
<event>
11    1  0.2567073E-012  0.2924751E+04  0.7818608E-02  0.8265551E-01
          2   -1    0    0  501    0  0.00000000000E+00  0.00000000000E+00  0.18635911618E+04  0.18635911618E+04  0.00000000000E+00 0. -1.
         -2   -1    0    0    0  501 -0.00000000000E+00 -0.00000000000E+00 -0.11475385980E+04  0.11475385980E+04  0.00000000000E+00 0.  1.
    9900016    2    1    2    0    0  0.87202308599E+01 -0.27951349790E+03  0.14987515814E+03  0.77996300460E+03  0.71251378063E+03 0.  0.
         23    2    3    3    0    0  0.24761323838E+03 -0.53940486422E+02  0.30951485901E+03  0.41467149547E+03  0.10922961735E+03 0.  0.
        -15    1    1    2    0    0  0.88307803024E+02  0.15365472720E+03 -0.62162851576E+03  0.64639775284E+03  0.00000000000E+00 0.  1.
        -15    1    4    4    0    0  0.21623732050E+03 -0.65021819676E+02  0.30727730703E+03  0.38132107105E+03  0.00000000000E+00 0.  1.
         15    1    1    2    0    0 -0.22344874637E+03  0.13078406540E+03  0.16009337045E+03  0.30440713080E+03  0.00000000000E+00 0. -1.
         15    1    4    4    0    0  0.31375917886E+02  0.11081333254E+02  0.22375519771E+01  0.33350424416E+02  0.00000000000E+00 0. -1.
        -16    1    3    3    0    0 -0.23889300752E+03 -0.22557301148E+03 -0.15963970087E+03  0.36529150914E+03  0.00000000000E+00 0.  1.
         16    1    1    2    0    0  0.33454719098E+02 -0.64748552053E+02  0.11118139782E+04  0.11142001235E+04  0.00000000000E+00 0. -1.
    9900018    1    1    2    0    0  0.92965993390E+02  0.59823257351E+02 -0.84101427236E+02  0.16616174802E+03  0.91187600000E+02 0.  0.
<mgrwt>
<rscale>  0 0.29247515E+04</rscale>
<asrwt>0</asrwt>
<pdfrwt beam="1">  1        2 0.28670633E+00 0.29247515E+04</pdfrwt>
<pdfrwt beam="2">  1       -2 0.17654440E+00 0.29247515E+04</pdfrwt>
<totfact> 0.13132817E+00</totfact>
</mgrwt>
</event>
<event>
11    1  0.2567073E-012  0.3778117E+04  0.7818608E-02  0.8050867E-01
         -2   -1    0    0    0  501 -0.00000000000E+00  0.00000000000E+00  0.73734089690E+03  0.73734089690E+03  0.00000000000E+00 0.  1.
          2   -1    0    0  501    0  0.00000000000E+00 -0.00000000000E+00 -0.48397463915E+04  0.48397463915E+04  0.00000000000E+00 0. -1.
    9900016    2    1    2    0    0 -0.71139945606E+03 -0.17102018862E+03 -0.15058619480E+04  0.18187430711E+04  0.71054138599E+03 0.  0.
         23    2    3    3    0    0 -0.16476783624E+03  0.25795171181E+03 -0.51209391744E+03  0.60614341840E+03  0.10715473810E+03 0.  0.
        -15    1    4    4    0    0 -0.99483165027E+02  0.12732120142E+03 -0.17183824161E+03  0.23587278294E+03  0.00000000000E+00 0. -1.
        -15    1    1    2    0    0  0.12620610866E+03  0.56203310220E+03 -0.21586184855E+03  0.61514675280E+03  0.00000000000E+00 0.  1.
         15    1    1    2    0    0 -0.53033861722E+03 -0.53032671633E+03 -0.56718070290E+03  0.94031878888E+03  0.00000000000E+00 0. -1.
         15    1    4    4    0    0 -0.65284671214E+02  0.13063051039E+03 -0.34025567584E+03  0.37027063546E+03  0.00000000000E+00 0.  1.
        -16    1    3    3    0    0 -0.54663161982E+03 -0.42897190043E+03 -0.99376803051E+03  0.12125996527E+04  0.00000000000E+00 0.  1.
         16    1    1    2    0    0  0.10277392893E+04  0.81325525013E+02 -0.17841377305E+04  0.20605847056E+04  0.00000000000E+00 0. -1.
    9900018    1    1    2    0    0  0.87792675281E+02  0.57988277742E+02 -0.29363264703E+02  0.14229396999E+03  0.91187600000E+02 0.  0.
<mgrwt>
<rscale>  0 0.37781175E+04</rscale>
<asrwt>0</asrwt>
<pdfrwt beam="1">  1        2 0.74457640E+00 0.37781175E+04</pdfrwt>
<pdfrwt beam="2">  1       -2 0.11343706E+00 0.37781175E+04</pdfrwt>
<totfact> 0.26025472E-02</totfact>
</mgrwt>
</event>
<event>
11    1  0.2567073E-012  0.1874885E+04  0.7818608E-02  0.8882556E-01
          1   -1    0    0  501    0  0.00000000000E+00  0.00000000000E+00  0.20872188963E+04  0.20872188963E+04  0.00000000000E+00 0. -1.
         -1   -1    0    0    0  501 -0.00000000000E+00 -0.00000000000E+00 -0.14506404354E+04  0.14506404354E+04  0.00000000000E+00 0.  1.
    9900016    2    1    2    0    0  0.42598503970E+03  0.25147131644E+03  0.38502386268E+03  0.94780892822E+03  0.71091301334E+03 0.  0.
         23    2    3    3    0    0  0.40959320836E+03  0.43944806362E+03  0.11213098742E+03  0.61603419895E+03  0.77740459069E+02 0.  0.
        -15    1    4    4    0    0  0.39047201974E+03  0.40459134581E+03  0.12133499362E+03  0.57522581304E+03  0.00000000000E+00 0. -1.
        -15    1    1    2    0    0 -0.56407762201E+03 -0.33010829341E+03 -0.74743663658E+03  0.99288296125E+03  0.00000000000E+00 0.  1.
         15    1    1    2    0    0 -0.48400660381E+02 -0.10773953049E+03 -0.99280089282E+02  0.15429506306E+03  0.00000000000E+00 0. -1.
         15    1    4    4    0    0  0.19121188621E+02  0.34856717810E+02 -0.92040061947E+01  0.40808385912E+02  0.00000000000E+00 0.  1.
        -16    1    3    3    0    0  0.16391831341E+02 -0.18797674718E+03  0.27289287526E+03  0.33177472927E+03  0.00000000000E+00 0.  1.
         16    1    1    2    0    0  0.13299241023E+03  0.37967813506E+03  0.11484780644E+04  0.12168994749E+04  0.00000000000E+00 0. -1.
    9900018    1    1    2    0    0  0.53500832458E+02 -0.19330162760E+03 -0.50206740294E+02  0.22597290428E+03  0.91187600000E+02 0.  0.
<mgrwt>
<rscale>  0 0.15028556E+04</rscale>
<asrwt>0</asrwt>
<pdfrwt beam="1">  1        1 0.32111060E+00 0.18748847E+04</pdfrwt>
<pdfrwt beam="2">  1       -1 0.22317545E+00 0.18748847E+04</pdfrwt>
<totfact> 0.24736016E-01</totfact>
</mgrwt>
</event>
