<event>
11    1  0.7570428E-017  0.1155585E+04  0.7818608E-02  0.9439043E-01
         -2   -1    0    0    0  501 -0.00000000000E+00  0.00000000000E+00  0.55185277485E+03  0.55185277485E+03  0.00000000000E+00 0.  1.
          2   -1    0    0  501    0  0.00000000000E+00 -0.00000000000E+00 -0.12478187984E+04  0.12478187984E+04  0.00000000000E+00 0. -1.
    9900016    2    1    2    0    0 -0.12433408439E+03 -0.20236202754E+02 -0.77996094027E+03  0.10968769171E+04  0.76087543958E+03 0.  0.
         23    2    3    3    0    0  0.68427699755E+02 -0.13821964101E+03 -0.73081134223E+03  0.75206349291E+03  0.87904835904E+02 0.  0.
        -15    1    1    2    0    0  0.67375954606E+02 -0.64385589360E+01  0.59262009949E+02  0.89960881073E+02  0.00000000000E+00 0.  1.
        -15    1    4    4    0    0  0.55243013924E+02 -0.11736212021E+03 -0.70307099137E+03  0.71493669423E+03  0.00000000000E+00 0. -1.
         15    1    4    4    0    0  0.13184685831E+02 -0.20857520797E+02 -0.27740350864E+02  0.37126798682E+02  0.00000000000E+00 0.  1.
         15    1    1    2    0    0  0.27679495914E+03 -0.16365202052E+03  0.13422703602E+02  0.32183474361E+03  0.00000000000E+00 0. -1.
        -16    1    3    3    0    0 -0.13201607466E+03  0.86217840490E+02  0.76370365241E+02  0.17519758182E+03  0.00000000000E+00 0.  1.
         16    1    1    2    0    0 -0.21983682935E+03  0.19032678222E+03  0.11310203212E+02  0.29099903138E+03  0.00000000000E+00 0. -1.
    9900018    1    3    3    0    0 -0.60745709483E+02  0.31765597763E+02 -0.12551996328E+03  0.16961584241E+03  0.91187600000E+02 0.  0.
<mgrwt>
<rscale>  0 0.88931075E+03</rscale>
<asrwt>0</asrwt>
<pdfrwt beam="1">  1        2 0.19197212E+00 0.11555846E+04</pdfrwt>
<pdfrwt beam="2">  1       -2 0.84900426E-01 0.11555846E+04</pdfrwt>
<totfact> 0.21081308E+01</totfact>
</mgrwt>
</event>
<event>
12    1  0.7570428E-017  0.8680576E+03  0.7818608E-02  0.9927257E-01
         -1   -1    0    0    0  501 -0.00000000000E+00  0.00000000000E+00  0.11580126960E+04  0.11580126960E+04  0.00000000000E+00 0.  1.
          1   -1    0    0  501    0  0.00000000000E+00 -0.00000000000E+00 -0.24874076884E+03  0.24874076884E+03  0.00000000000E+00 0. -1.
         23    2    1    2    0    0  0.84961600631E+02 -0.12446700515E+03  0.64982512791E+02  0.19582461655E+03  0.10683653180E+03 0.  0.
    9900016    2    1    2    0    0  0.59557642020E+00  0.13354058767E+03  0.59916364626E+03  0.91266982479E+03  0.67537818355E+03 0.  0.
         23    2    4    4    0    0 -0.72324904154E+02  0.22270876527E+03  0.70971668523E+03  0.75301289632E+03  0.92198496947E+02 0.  0.
        -15    1    3    3    0    0  0.44837324695E+02 -0.81681228836E+02  0.92268418765E+02  0.13113226122E+03  0.00000000000E+00 0. -1.
        -15    1    5    5    0    0 -0.21374371737E+02  0.14369080664E+03  0.53769699480E+03  0.55697573547E+03  0.00000000000E+00 0.  1.
         15    1    3    3    0    0  0.40124275936E+02 -0.42785776315E+02 -0.27285905974E+02  0.64692355337E+02  0.00000000000E+00 0.  1.
         15    1    5    5    0    0 -0.50950532416E+02  0.79017958633E+02  0.17201969043E+03  0.19603716085E+03  0.00000000000E+00 0. -1.
        -16    1    1    2    0    0 -0.70155635435E+02 -0.16646290364E+01  0.14881724197E+03  0.16453314463E+03  0.00000000000E+00 0.  1.
         16    1    4    4    0    0  0.72920480574E+02 -0.89168177600E+02 -0.11055303897E+03  0.15965692847E+03  0.00000000000E+00 0. -1.
    9900018    1    1    2    0    0 -0.15401541616E+02 -0.74089534837E+01  0.96308526116E+02  0.13372587884E+03  0.91187600000E+02 0.  0.
<mgrwt>
<rscale>  0 0.58958278E+03</rscale>
<asrwt>0</asrwt>
<pdfrwt beam="1">  1        1 0.38267811E-01 0.86805764E+03</pdfrwt>
<pdfrwt beam="2">  1       -1 0.17815580E+00 0.86805764E+03</pdfrwt>
<totfact> 0.24350388E+01</totfact>
</mgrwt>
</event>
<event>
12    1  0.7570428E-017  0.1569554E+04  0.7818608E-02  0.8839474E-01
         -3   -1    0    0    0  501 -0.00000000000E+00  0.00000000000E+00  0.59311031888E+03  0.59311031888E+03  0.00000000000E+00 0.  1.
          3   -1    0    0  501    0  0.00000000000E+00 -0.00000000000E+00 -0.10383811789E+04  0.10383811789E+04  0.00000000000E+00 0. -1.
         23    2    1    2    0    0 -0.36830494956E+02  0.41746342541E+03 -0.94134040685E+01  0.42617223426E+03  0.76824242048E+02 0.  0.
    9900016    2    1    2    0    0 -0.63188293821E+02 -0.18833040804E+03 -0.15224929871E+03  0.70608429912E+03  0.66023790064E+03 0.  0.
         23    2    4    4    0    0  0.63084251155E+02 -0.41389482534E+02  0.23970943320E+03  0.26885662533E+03  0.95553967004E+02 0.  0.
        -15    1    3    3    0    0 -0.83422012067E+01  0.32894107945E+03  0.17045011334E+02  0.32948802479E+03  0.00000000000E+00 0. -1.
        -15    1    5    5    0    0  0.14719335544E+02  0.29783454440E+02  0.93217324368E+02  0.98960510101E+02  0.00000000000E+00 0. -1.
         15    1    3    3    0    0 -0.28488293750E+02  0.88522345956E+02 -0.26458415403E+02  0.96684209466E+02  0.00000000000E+00 0.  1.
         15    1    5    5    0    0  0.48364915611E+02 -0.71172936974E+02  0.14649210883E+03  0.16989611523E+03  0.00000000000E+00 0.  1.
        -16    1    4    4    0    0 -0.12627254498E+03 -0.14694092551E+03 -0.39195873191E+03  0.43722767379E+03  0.00000000000E+00 0.  1.
         16    1    1    2    0    0  0.13420970328E+03 -0.19963522992E+03 -0.31164541761E+03  0.39368684992E+03  0.00000000000E+00 0. -1.
    9900018    1    1    2    0    0 -0.34190914503E+02 -0.29497787442E+02  0.28037260408E+02  0.10554811445E+03  0.91187600000E+02 0.  0.
<mgrwt>
<rscale>  0 0.15695536E+04</rscale>
<asrwt>0</asrwt>
<pdfrwt beam="1">  1        3 0.15975095E+00 0.15695536E+04</pdfrwt>
<pdfrwt beam="2">  1       -3 0.91247742E-01 0.15695536E+04</pdfrwt>
<totfact> 0.74584319E-01</totfact>
</mgrwt>
</event>
<event>
12    1  0.7570428E-017  0.1572001E+04  0.7818608E-02  0.8837936E-01
         -2   -1    0    0    0  501 -0.00000000000E+00  0.00000000000E+00  0.28230737214E+03  0.28230737214E+03  0.00000000000E+00 0.  1.
          2   -1    0    0  501    0  0.00000000000E+00 -0.00000000000E+00 -0.21883843058E+04  0.21883843058E+04  0.00000000000E+00 0. -1.
         23    2    1    2    0    0  0.81947529946E+02  0.29382655558E+03 -0.17303719232E+03  0.35837365159E+03  0.73758808283E+02 0.  0.
    9900016    2    1    2    0    0 -0.86047357814E+02 -0.16821723415E+03 -0.14680529203E+04  0.16192907838E+04  0.65667501869E+03 0.  0.
         23    2    4    4    0    0 -0.63307130359E+02 -0.41464743156E+03 -0.82006278994E+03  0.92565098597E+03  0.91577743691E+02 0.  0.
        -15    1    3    3    0    0  0.66124363990E+02  0.23645343792E+03 -0.17028110358E+03  0.29879476912E+03  0.00000000000E+00 0. -1.
        -15    1    5    5    0    0 -0.38995855736E+02 -0.27526872239E+03 -0.44406868398E+03  0.52391845013E+03  0.00000000000E+00 0. -1.
         15    1    5    5    0    0 -0.24311274623E+02 -0.13937870917E+03 -0.37599410595E+03  0.40173253584E+03  0.00000000000E+00 0.  1.
         15    1    3    3    0    0  0.15823165956E+02  0.57373117667E+02 -0.27560887381E+01  0.59578882474E+02  0.00000000000E+00 0.  1.
        -16    1    4    4    0    0 -0.22740227455E+02  0.24643019740E+03 -0.64799013037E+03  0.69363979787E+03  0.00000000000E+00 0.  1.
         16    1    1    2    0    0 -0.12355071266E+02 -0.12618989644E+03  0.70433596032E+02  0.14504285298E+03  0.00000000000E+00 0. -1.
    9900018    1    1    2    0    0  0.16454899133E+02  0.58057500872E+00 -0.33542041702E+03  0.34798438948E+03  0.91187600000E+02 0.  0.
<mgrwt>
<rscale>  0 0.15720013E+04</rscale>
<asrwt>0</asrwt>
<pdfrwt beam="1">  1        2 0.33667450E+00 0.15720013E+04</pdfrwt>
<pdfrwt beam="2">  1       -2 0.43431905E-01 0.15720013E+04</pdfrwt>
<totfact> 0.25343234E+01</totfact>
</mgrwt>
</event>
<event>
12    1  0.7570428E-017  0.1253085E+04  0.7818608E-02  0.9499993E-01
          4   -1    0    0  501    0  0.00000000000E+00  0.00000000000E+00  0.74009033102E+03  0.74009033102E+03  0.00000000000E+00 0.  1.
         -4   -1    0    0    0  501 -0.00000000000E+00 -0.00000000000E+00 -0.88642074546E+03  0.88642074546E+03  0.00000000000E+00 0. -1.
         23    2    1    2    0    0 -0.24742210568E+03  0.21152293070E+02 -0.26380606458E+03  0.36793136384E+03  0.64146168296E+02 0.  0.
    9900016    2    1    2    0    0  0.21165897084E+03  0.52123793562E+02 -0.28933751330E+03  0.84367570370E+03  0.76194231187E+03 0.  0.
         23    2    4    4    0    0 -0.94945387181E+02  0.18745363818E+03  0.12555149150E+03  0.26031753618E+03  0.88592040335E+02 0.  0.
        -15    1    3    3    0    0 -0.16787827591E+03  0.21018431266E+02 -0.13458223634E+03  0.21618803925E+03  0.00000000000E+00 0.  1.
        -15    1    5    5    0    0 -0.51779409993E+02  0.29134692981E+02  0.11600715653E+02  0.60535231378E+02  0.00000000000E+00 0.  1.
         15    1    3    3    0    0 -0.79543829769E+02  0.13386180334E+00 -0.12922382824E+03  0.15174332459E+03  0.00000000000E+00 0. -1.
         15    1    5    5    0    0 -0.43165977188E+02  0.15831894520E+03  0.11395077585E+03  0.19978230480E+03  0.00000000000E+00 0. -1.
        -16    1    1    2    0    0  0.35763134839E+02 -0.73276086632E+02  0.40681316344E+03  0.41490400894E+03  0.00000000000E+00 0.  1.
         16    1    4    4    0    0  0.23170901176E+03 -0.15885458906E+03 -0.34233842284E+03  0.44285374827E+03  0.00000000000E+00 0. -1.
    9900018    1    4    4    0    0  0.74895346259E+02  0.23524744443E+02 -0.72550581955E+02  0.14050441925E+03  0.91187600000E+02 0.  0.
<mgrwt>
<rscale>  0 0.84284370E+03</rscale>
<asrwt>0</asrwt>
<pdfrwt beam="1">  1        4 0.11386005E+00 0.12530851E+04</pdfrwt>
<pdfrwt beam="2">  1       -4 0.13637242E+00 0.12530851E+04</pdfrwt>
<totfact> 0.44496249E-01</totfact>
</mgrwt>
</event>
<event>
12    1  0.7570428E-017  0.1273776E+04  0.7818608E-02  0.9306122E-01
          1   -1    0    0  501    0  0.00000000000E+00  0.00000000000E+00  0.29985739048E+04  0.29985739048E+04  0.00000000000E+00 0. -1.
         -1   -1    0    0    0  501 -0.00000000000E+00 -0.00000000000E+00 -0.25890225167E+03  0.25890225167E+03  0.00000000000E+00 0.  1.
         23    2    1    2    0    0  0.29840156239E+03 -0.37149014403E+03  0.73382574631E+03  0.88136123921E+03  0.10606124876E+03 0.  0.
    9900016    2    1    2    0    0  0.67983429387E+02  0.31401624714E+03  0.10980843260E+04  0.13159590957E+04  0.65017782534E+03 0.  0.
         23    2    4    4    0    0 -0.65267164153E+02 -0.61022726545E+02 -0.14272208719E+02  0.13454172125E+03  0.99570090610E+02 0.  0.
        -15    1    5    5    0    0 -0.34166252582E+02  0.24077096163E+02  0.44138860765E+01  0.42030010295E+02  0.00000000000E+00 0.  1.
        -15    1    3    3    0    0  0.21169421152E+03 -0.32992667762E+03  0.58912950295E+03  0.70762958039E+03  0.00000000000E+00 0. -1.
         15    1    5    5    0    0 -0.31100911572E+02 -0.85099822708E+02 -0.18686094795E+02  0.92511710957E+02  0.00000000000E+00 0. -1.
         15    1    3    3    0    0  0.86707350865E+02 -0.41563466412E+02  0.14469624336E+03  0.17373165882E+03  0.00000000000E+00 0.  1.
        -16    1    1    2    0    0 -0.41203911086E+03  0.14937216293E+02  0.56102003949E+03  0.69623475496E+03  0.00000000000E+00 0.  1.
         16    1    4    4    0    0  0.13325059354E+03  0.37503897368E+03  0.11123565347E+04  0.11814173745E+04  0.00000000000E+00 0. -1.
    9900018    1    1    2    0    0  0.45654119087E+02  0.42536680602E+02  0.34674154138E+03  0.36392106658E+03  0.91187600000E+02 0.  0.
<mgrwt>
<rscale>  0 0.10022120E+04</rscale>
<asrwt>0</asrwt>
<pdfrwt beam="1">  1        1 0.46131904E+00 0.12737756E+04</pdfrwt>
<pdfrwt beam="2">  1       -1 0.39831118E-01 0.12737756E+04</pdfrwt>
<totfact> 0.36518559E+00</totfact>
</mgrwt>
</event>
<event>
12    1  0.7570428E-017  0.9692678E+03  0.7818608E-02  0.9934438E-01
         -1   -1    0    0    0  501 -0.00000000000E+00  0.00000000000E+00  0.69753860558E+03  0.69753860558E+03  0.00000000000E+00 0.  1.
          1   -1    0    0  501    0  0.00000000000E+00 -0.00000000000E+00 -0.43425589883E+03  0.43425589883E+03  0.00000000000E+00 0. -1.
         23    2    1    2    0    0 -0.17060579238E+01  0.58012649300E+02  0.10498350171E+02  0.13010594015E+03  0.11596966066E+03 0.  0.
    9900016    2    1    2    0    0  0.77637733219E+02 -0.99806652735E+01  0.15169291759E+03  0.67462992823E+03  0.65267723073E+03 0.  0.
         23    2    4    4    0    0  0.28549497242E+02  0.29507348821E+03 -0.38411598778E+02  0.31185256039E+03  0.88843296122E+02 0.  0.
        -15    1    5    5    0    0 -0.39111071967E+01  0.14667654092E+02 -0.25009702902E+02  0.29256145941E+02  0.00000000000E+00 0.  1.
        -15    1    3    3    0    0  0.14108706389E+02 -0.17273874770E+02 -0.34426190154E+02  0.41019567453E+02  0.00000000000E+00 0. -1.
         15    1    3    3    0    0 -0.15814764313E+02  0.75286524070E+02  0.44924540324E+02  0.89086372696E+02  0.00000000000E+00 0.  1.
         15    1    5    5    0    0  0.32460604439E+02  0.28040583412E+03 -0.13401895876E+02  0.28259641445E+03  0.00000000000E+00 0. -1.
        -16    1    4    4    0    0  0.49088235977E+02 -0.30505415349E+03  0.19010451637E+03  0.36277736784E+03  0.00000000000E+00 0.  1.
         16    1    1    2    0    0 -0.14901137322E+03 -0.67908935691E+02  0.12515248996E+03  0.20610472736E+03  0.00000000000E+00 0. -1.
    9900018    1    1    2    0    0  0.73079697928E+02  0.19876951665E+02 -0.24061050971E+02  0.12095390868E+03  0.91187600000E+02 0.  0.
<mgrwt>
<rscale>  0 0.58620902E+03</rscale>
<asrwt>0</asrwt>
<pdfrwt beam="1">  1        1 0.66808600E-01 0.96926779E+03</pdfrwt>
<pdfrwt beam="2">  1       -1 0.10731363E+00 0.96926779E+03</pdfrwt>
<totfact> 0.43689662E+01</totfact>
</mgrwt>
</event>
<event>
12    1  0.7570428E-017  0.1209028E+04  0.7818608E-02  0.9384249E-01
         -2   -1    0    0    0  501 -0.00000000000E+00  0.00000000000E+00  0.62251014008E+03  0.62251014008E+03  0.00000000000E+00 0.  1.
          2   -1    0    0  501    0  0.00000000000E+00 -0.00000000000E+00 -0.10820829847E+04  0.10820829847E+04  0.00000000000E+00 0. -1.
         23    2    1    2    0    0 -0.16420957152E+03  0.38365775062E+03 -0.82559106703E+02  0.43814579303E+03  0.10486980911E+03 0.  0.
    9900016    2    1    2    0    0 -0.22727739747E+02 -0.48498241983E+03 -0.48540471239E+03  0.10277826082E+04  0.76484956510E+03 0.  0.
         23    2    4    4    0    0 -0.21928804269E+03 -0.33849204984E+03 -0.51892306247E+02  0.41668993488E+03  0.90959204651E+02 0.  0.
        -15    1    3    3    0    0 -0.96338374317E+02  0.11251281589E+03 -0.51932710893E+02  0.15696248777E+03  0.00000000000E+00 0.  1.
        -15    1    5    5    0    0  0.81944622078E+01 -0.17900435533E+02  0.25004339569E+01  0.19845074279E+02  0.00000000000E+00 0. -1.
         15    1    5    5    0    0 -0.22748250490E+03 -0.32059161430E+03 -0.54392740204E+02  0.39684486060E+03  0.00000000000E+00 0.  1.
         15    1    3    3    0    0 -0.67871197199E+02  0.27114493473E+03 -0.30626395810E+02  0.28118330526E+03  0.00000000000E+00 0. -1.
        -16    1    1    2    0    0  0.18693731126E+03  0.10132466921E+03  0.10839097446E+03  0.23866472357E+03  0.00000000000E+00 0.  1.
         16    1    4    4    0    0  0.22001033606E+03 -0.66585916357E+02 -0.42996315242E+03  0.48755158155E+03  0.00000000000E+00 0. -1.
    9900018    1    4    4    0    0 -0.23450033117E+02 -0.79904453636E+02 -0.35492537295E+01  0.12354109179E+03  0.91187600000E+02 0.  0.
<mgrwt>
<rscale>  0 0.93383361E+03</rscale>
<asrwt>0</asrwt>
<pdfrwt beam="1">  1        2 0.16647430E+00 0.12090283E+04</pdfrwt>
<pdfrwt beam="2">  1       -2 0.95770792E-01 0.12090283E+04</pdfrwt>
<totfact> 0.20020520E+01</totfact>
</mgrwt>
</event>
<event>
12    1  0.7570428E-017  0.1256895E+04  0.7818608E-02  0.9064464E-01
         -2   -1    0    0    0  501 -0.00000000000E+00  0.00000000000E+00  0.61433132958E+03  0.61433132958E+03  0.00000000000E+00 0.  1.
          2   -1    0    0  501    0  0.00000000000E+00 -0.00000000000E+00 -0.64288779925E+03  0.64288779925E+03  0.00000000000E+00 0. -1.
         23    2    1    2    0    0  0.86470383231E+02  0.33848627684E+02  0.62556042472E+02  0.12594918436E+03  0.57680861800E+02 0.  0.
    9900016    2    1    2    0    0 -0.38983393025E+02 -0.34976550030E+02 -0.32272528162E+03  0.74174814554E+03  0.66580450586E+03 0.  0.
         23    2    4    4    0    0  0.84979472604E+02  0.27972484826E+03 -0.56802955656E+02  0.31149421402E+03  0.91293855769E+02 0.  0.
        -15    1    3    3    0    0  0.26391684779E+02  0.37941085630E+02  0.41620580191E+02  0.62195817381E+02  0.00000000000E+00 0.  1.
        -15    1    5    5    0    0  0.60565362384E+02  0.70455063944E+02  0.13789850909E+01  0.92919216290E+02  0.00000000000E+00 0.  1.
         15    1    3    3    0    0  0.60078698452E+02 -0.40924579460E+01  0.20935462281E+02  0.63753366975E+02  0.00000000000E+00 0. -1.
         15    1    5    5    0    0  0.24414110220E+02  0.20926978431E+03 -0.58181940747E+02  0.21857499773E+03  0.00000000000E+00 0. -1.
        -16    1    4    4    0    0 -0.12396286563E+03 -0.31470139829E+03 -0.26592232597E+03  0.43025393152E+03  0.00000000000E+00 0.  1.
         16    1    1    2    0    0  0.11107035591E+02 -0.35340836259E+01  0.27311537731E+03  0.27336397954E+03  0.00000000000E+00 0. -1.
    9900018    1    1    2    0    0 -0.58594025797E+02  0.46620059714E+01 -0.41502607824E+02  0.11615781940E+03  0.91187600000E+02 0.  0.
<mgrwt>
<rscale>  0 0.12568948E+04</rscale>
<asrwt>0</asrwt>
<pdfrwt beam="1">  1        2 0.98905815E-01 0.12568948E+04</pdfrwt>
<pdfrwt beam="2">  1       -2 0.94512512E-01 0.12568948E+04</pdfrwt>
<totfact> 0.42279491E+01</totfact>
</mgrwt>
</event>
<event>
12    1  0.7570428E-017  0.1807432E+04  0.7818608E-02  0.8702357E-01
         -2   -1    0    0    0  501 -0.00000000000E+00  0.00000000000E+00  0.36023531964E+03  0.36023531964E+03  0.00000000000E+00 0.  1.
          2   -1    0    0  501    0  0.00000000000E+00 -0.00000000000E+00 -0.22671367527E+04  0.22671367527E+04  0.00000000000E+00 0. -1.
         23    2    1    2    0    0 -0.22810192054E+03 -0.19205600299E+03 -0.43838143382E+03  0.54070705167E+03  0.10615950157E+03 0.  0.
    9900016    2    1    2    0    0  0.43095415628E+03  0.38521917114E+03 -0.10200726589E+04  0.13432308626E+04  0.65544307630E+03 0.  0.
         23    2    4    4    0    0  0.27926293362E+03  0.55440789803E+03 -0.86288211813E+03  0.10669268300E+04  0.91713724646E+02 0.  0.
        -15    1    3    3    0    0 -0.20865546848E+03 -0.11797295698E+03 -0.34091705912E+03  0.41674832250E+03  0.00000000000E+00 0. -1.
        -15    1    5    5    0    0  0.10252746806E+02  0.90666826684E+02 -0.13376717730E+03  0.16192359310E+03  0.00000000000E+00 0.  1.
         15    1    5    5    0    0  0.26901018682E+03  0.46374107135E+03 -0.72911494083E+03  0.90500323690E+03  0.00000000000E+00 0. -1.
         15    1    3    3    0    0 -0.19446452061E+02 -0.74083046010E+02 -0.97464374701E+02  0.12395872918E+03  0.00000000000E+00 0.  1.
        -16    1    4    4    0    0  0.15169122265E+03 -0.16918872689E+03 -0.15719054074E+03  0.27630403261E+03  0.00000000000E+00 0.  1.
         16    1    1    2    0    0 -0.30342298545E+03 -0.29499651887E+03 -0.32471007362E+03  0.53340892958E+03  0.00000000000E+00 0. -1.
    9900018    1    1    2    0    0  0.10057074972E+03  0.10183335073E+03 -0.12373726676E+03  0.21002522848E+03  0.91187600000E+02 0.  0.
<mgrwt>
<rscale>  0 0.18074321E+04</rscale>
<asrwt>0</asrwt>
<pdfrwt beam="1">  1        2 0.34879027E+00 0.18074321E+04</pdfrwt>
<pdfrwt beam="2">  1       -2 0.55420818E-01 0.18074321E+04</pdfrwt>
<totfact> 0.13668695E+01</totfact>
</mgrwt>
</event>
<event>
12    1  0.7570428E-017  0.1297806E+04  0.7818608E-02  0.9207266E-01
          2   -1    0    0  501    0  0.00000000000E+00  0.00000000000E+00  0.69101523879E+03  0.69101523879E+03  0.00000000000E+00 0. -1.
         -2   -1    0    0    0  501 -0.00000000000E+00 -0.00000000000E+00 -0.14987817565E+04  0.14987817565E+04  0.00000000000E+00 0.  1.
         23    2    1    2    0    0  0.63747010682E+03 -0.15031764333E+03 -0.55879668941E+03  0.86832548289E+03  0.11301271230E+03 0.  0.
    9900016    2    1    2    0    0 -0.47466122793E+03  0.28747279504E+03 -0.98830874031E+02  0.86398986879E+03  0.65480307156E+03 0.  0.
         23    2    4    4    0    0 -0.21606420750E+02 -0.10476092076E+01 -0.28166509529E+03  0.29660020159E+03  0.90379858259E+02 0.  0.
        -15    1    5    5    0    0 -0.26017636913E+02 -0.39050101250E+02 -0.93834627775E+02  0.10491313172E+03  0.00000000000E+00 0.  1.
        -15    1    3    3    0    0  0.48587480065E+03 -0.16274546396E+03 -0.42386150054E+03  0.66499547335E+03  0.00000000000E+00 0.  1.
         15    1    5    5    0    0  0.44112161632E+01  0.38002492042E+02 -0.18783046751E+03  0.19168706987E+03  0.00000000000E+00 0. -1.
         15    1    3    3    0    0  0.15159530618E+03  0.12427820627E+02 -0.13493518887E+03  0.20333000953E+03  0.00000000000E+00 0. -1.
        -16    1    1    2    0    0 -0.12123797776E+03 -0.24083781942E+03 -0.15898042846E+03  0.31301162781E+03  0.00000000000E+00 0.  1.
         16    1    4    4    0    0 -0.45305480718E+03  0.28852040425E+03  0.18283422126E+03  0.56738966719E+03  0.00000000000E+00 0. -1.
    9900018    1    1    2    0    0 -0.41570901140E+02  0.10368266770E+03  0.88414742012E+01  0.14447001579E+03  0.91187600000E+02 0.  0.
<mgrwt>
<rscale>  0 0.10978744E+04</rscale>
<asrwt>0</asrwt>
<pdfrwt beam="1">  1        2 0.10631004E+00 0.12978062E+04</pdfrwt>
<pdfrwt beam="2">  1       -2 0.23058181E+00 0.12978062E+04</pdfrwt>
<totfact> 0.34234492E+00</totfact>
</mgrwt>
</event>
<event>
12    1  0.7570428E-017  0.9636279E+03  0.7818608E-02  0.9632020E-01
          2   -1    0    0  501    0  0.00000000000E+00  0.00000000000E+00  0.20221975102E+04  0.20221975102E+04  0.00000000000E+00 0. -1.
         -2   -1    0    0    0  501 -0.00000000000E+00 -0.00000000000E+00 -0.21718039816E+03  0.21718039816E+03  0.00000000000E+00 0.  1.
         23    2    1    2    0    0 -0.22865067412E+03  0.26431942961E+03  0.56996571575E+03  0.67287519737E+03  0.75856591460E+02 0.  0.
    9900016    2    1    2    0    0  0.66427041791E+02 -0.17098896926E+03  0.90407460457E+03  0.11334879417E+04  0.65863058229E+03 0.  0.
         23    2    4    4    0    0  0.27392247467E+03 -0.25296155970E+03  0.80006632774E+03  0.88733436793E+03  0.90736315249E+02 0.  0.
        -15    1    5    5    0    0  0.92181230533E+02 -0.74771364300E+02  0.35883112512E+03  0.37795226224E+03  0.00000000000E+00 0.  1.
        -15    1    3    3    0    0 -0.16290607503E+03  0.13453462871E+03  0.36029902160E+03  0.41767611922E+03  0.00000000000E+00 0. -1.
         15    1    5    5    0    0  0.18174124413E+03 -0.17819019540E+03  0.44123520262E+03  0.50938210568E+03  0.00000000000E+00 0. -1.
         15    1    3    3    0    0 -0.65744599090E+02  0.12978480090E+03  0.20966669415E+03  0.25519907815E+03  0.00000000000E+00 0.  1.
        -16    1    4    4    0    0 -0.20749543288E+03  0.81972590434E+02  0.10400827683E+03  0.24615357380E+03  0.00000000000E+00 0.  1.
         16    1    1    2    0    0  0.13205818425E+03 -0.21792931758E+02  0.82620373140E+02  0.15729088327E+03  0.00000000000E+00 0. -1.
    9900018    1    1    2    0    0  0.30165448075E+02 -0.71537528587E+02  0.24835641855E+03  0.27572388595E+03  0.91187600000E+02 0.  0.
<mgrwt>
<rscale>  0 0.75212652E+03</rscale>
<asrwt>0</asrwt>
<pdfrwt beam="1">  1        2 0.31110730E+00 0.96362793E+03</pdfrwt>
<pdfrwt beam="2">  1       -2 0.33412370E-01 0.96362793E+03</pdfrwt>
<totfact> 0.54739642E+01</totfact>
</mgrwt>
</event>
<event>
12    1  0.7570428E-017  0.1376662E+04  0.7818608E-02  0.9386010E-01
          2   -1    0    0  501    0  0.00000000000E+00  0.00000000000E+00  0.76121786597E+03  0.76121786597E+03  0.00000000000E+00 0.  1.
         -2   -1    0    0    0  501 -0.00000000000E+00 -0.00000000000E+00 -0.10284126201E+04  0.10284126201E+04  0.00000000000E+00 0. -1.
         23    2    1    2    0    0 -0.37866471503E+01  0.26970142609E+03 -0.29400438197E+03  0.41270755946E+03  0.10552608725E+03 0.  0.
    9900016    2    1    2    0    0 -0.44549365834E+03 -0.54616898615E+02  0.37150746973E+02  0.87870501684E+03  0.75451621811E+03 0.  0.
         23    2    4    4    0    0  0.22895592859E+02  0.23243694959E+03  0.18909252256E+00  0.24870156205E+03  0.85447571673E+02 0.  0.
        -15    1    5    5    0    0 -0.21421349301E+02  0.15015689505E+03  0.20522525645E+02  0.15305927413E+03  0.00000000000E+00 0.  1.
        -15    1    3    3    0    0  0.34995770024E+02  0.11271629897E+03 -0.72693326652E+02  0.13861452923E+03  0.00000000000E+00 0.  1.
         15    1    5    5    0    0  0.44316942160E+02  0.82280054534E+02 -0.20333433123E+02  0.95642287922E+02  0.00000000000E+00 0. -1.
         15    1    3    3    0    0 -0.38782417175E+02  0.15698512712E+03 -0.22131105532E+03  0.27409303024E+03  0.00000000000E+00 0. -1.
        -16    1    4    4    0    0 -0.37767425478E+03 -0.32112080798E+03  0.24107458284E+02  0.49632407314E+03  0.00000000000E+00 0.  1.
         16    1    1    2    0    0  0.44928030549E+03 -0.21508452748E+03 -0.10341119133E+02  0.49821790976E+03  0.00000000000E+00 0. -1.
    9900018    1    4    4    0    0 -0.90714996427E+02  0.34066959777E+02  0.12854196167E+02  0.13367938165E+03  0.91187600000E+02 0.  0.
<mgrwt>
<rscale>  0 0.93235986E+03</rscale>
<asrwt>0</asrwt>
<pdfrwt beam="1">  1        2 0.11711044E+00 0.13766619E+04</pdfrwt>
<pdfrwt beam="2">  1       -2 0.15821733E+00 0.13766619E+04</pdfrwt>
<totfact> 0.92253902E+00</totfact>
</mgrwt>
</event>
<event>
12    1  0.7570428E-017  0.1087504E+04  0.7818608E-02  0.9665561E-01
         -2   -1    0    0    0  501 -0.00000000000E+00  0.00000000000E+00  0.65676304591E+03  0.65676304591E+03  0.00000000000E+00 0.  1.
          2   -1    0    0  501    0  0.00000000000E+00 -0.00000000000E+00 -0.65998658493E+03  0.65998658493E+03  0.00000000000E+00 0. -1.
         23    2    1    2    0    0  0.18508978256E+03  0.98463523861E+02  0.51158352483E+02  0.22788719077E+03  0.73226371937E+02 0.  0.
    9900016    2    1    2    0    0  0.10172597882E+03 -0.12212031662E+03 -0.14531909287E+03  0.78704710014E+03  0.75700987615E+03 0.  0.
         23    2    4    4    0    0 -0.20644433824E+03 -0.11190711965E+02 -0.24535178051E+03  0.33350224602E+03  0.91004148648E+02 0.  0.
        -15    1    5    5    0    0 -0.10433220975E+03  0.39904675935E+02 -0.12029566978E+03  0.16416041338E+03  0.00000000000E+00 0. -1.
        -15    1    3    3    0    0  0.10732749774E+03  0.87207044497E+02  0.55923548104E+02  0.14917004932E+03  0.00000000000E+00 0. -1.
         15    1    5    5    0    0 -0.10211212849E+03 -0.51095387899E+02 -0.12505611073E+03  0.16934183264E+03  0.00000000000E+00 0.  1.
         15    1    3    3    0    0  0.77762284828E+02  0.11256479364E+02 -0.47651956203E+01  0.78717141454E+02  0.00000000000E+00 0.  1.
        -16    1    4    4    0    0  0.27488175565E+03 -0.10227920864E+03  0.16490115076E+03  0.33647199829E+03  0.00000000000E+00 0.  1.
         16    1    1    2    0    0 -0.28681576139E+03  0.23656792755E+02  0.90937201363E+02  0.30181533993E+03  0.00000000000E+00 0. -1.
    9900018    1    4    4    0    0  0.33288561414E+02 -0.86503960147E+01 -0.64868463120E+02  0.11707285584E+03  0.91187600000E+02 0.  0.
<mgrwt>
<rscale>  0 0.73104790E+03</rscale>
<asrwt>0</asrwt>
<pdfrwt beam="1">  1        2 0.10153640E+00 0.10875036E+04</pdfrwt>
<pdfrwt beam="2">  1       -2 0.10104047E+00 0.10875036E+04</pdfrwt>
<totfact> 0.35221662E+01</totfact>
</mgrwt>
</event>
