<event>
10    1  0.2258746E-014  0.1955085E+04  0.7818608E-02  0.8627913E-01
          2   -1    0    0  501    0  0.00000000000E+00  0.00000000000E+00  0.15779923454E+04  0.15779923454E+04  0.00000000000E+00 0.  1.
         -2   -1    0    0    0  501 -0.00000000000E+00 -0.00000000000E+00 -0.60557283935E+03  0.60557283935E+03  0.00000000000E+00 0. -1.
    9900016    2    1    2    0    0  0.99663306345E+02 -0.58033253456E+03  0.83161075116E+03  0.12453519180E+04  0.71596531544E+03 0.  0.
        -15    1    1    2    0    0  0.95925983253E+02  0.15835853254E+03  0.37376271450E+03  0.41710644426E+03  0.00000000000E+00 0.  1.
        -15    1    3    3    0    0 -0.51031117686E+02 -0.70394148036E+01  0.38740671924E+02  0.64455938393E+02  0.00000000000E+00 0. -1.
         15    1    1    2    0    0 -0.11235235016E+03  0.27459335041E+03 -0.15541053684E+03  0.33492834105E+03  0.00000000000E+00 0. -1.
         15    1    3    3    0    0 -0.14216889010E+03 -0.28389782022E+03  0.50437795301E+03  0.59599252103E+03  0.00000000000E+00 0.  1.
        -16    1    1    2    0    0 -0.83236939439E+02  0.14738065161E+03 -0.77543422729E+02  0.18617848148E+03  0.00000000000E+00 0.  1.
         16    1    3    3    0    0  0.18552486967E+03 -0.13984709377E+03  0.29965587868E+03  0.37917058500E+03  0.00000000000E+00 0. -1.
    9900018    1    3    3    0    0  0.10733844447E+03 -0.14954820577E+03 -0.11163752452E+02  0.20573287358E+03  0.91187600000E+02 0.  0.
<mgrwt>
<rscale>  0 0.19550850E+04</rscale>
<asrwt>0</asrwt>
<pdfrwt beam="1">  1        2 0.24276805E+00 0.19550850E+04</pdfrwt>
<pdfrwt beam="2">  1       -2 0.93165053E-01 0.19550850E+04</pdfrwt>
<totfact> 0.10435407E+01</totfact>
</mgrwt>
</event>
<event>
11    1  0.2258746E-014  0.1178208E+04  0.7818608E-02  0.9417351E-01
         -1   -1    0    0    0  501 -0.00000000000E+00  0.00000000000E+00  0.32935146505E+03  0.32935146505E+03  0.00000000000E+00 0.  1.
          1   -1    0    0  501    0  0.00000000000E+00 -0.00000000000E+00 -0.19245659347E+04  0.19245659347E+04  0.00000000000E+00 0. -1.
    9900016    2    1    2    0    0  0.35742646170E+03 -0.77174083792E+02 -0.76297390663E+03  0.10987417793E+04  0.70099557814E+03 0.  0.
         23    2    3    3    0    0  0.14729033312E+03 -0.53399825887E+02 -0.40715481487E+02  0.17144206937E+03  0.56468124478E+02 0.  0.
        -15    1    4    4    0    0  0.60726625548E+02 -0.24263520644E+02  0.11254676221E+02  0.66355928306E+02  0.00000000000E+00 0. -1.
        -15    1    1    2    0    0 -0.13053067038E+03 -0.86329155004E+02 -0.29765199063E+03  0.33628512670E+03  0.00000000000E+00 0. -1.
         15    1    4    4    0    0  0.86563707575E+02 -0.29136305243E+02 -0.51970157707E+02  0.10508614107E+03  0.00000000000E+00 0.  1.
         15    1    1    2    0    0 -0.10321410322E+03 -0.20377410132E+03 -0.15240674748E+03  0.27459943946E+03  0.00000000000E+00 0.  1.
        -16    1    3    3    0    0 -0.26640758713E+02  0.40919903580E+02  0.74243651859E+02  0.88861062200E+02  0.00000000000E+00 0.  1.
         16    1    1    2    0    0 -0.12368168810E+03  0.36727734011E+03 -0.38218182490E+03  0.54429105432E+03  0.00000000000E+00 0. -1.
    9900018    1    3    3    0    0  0.23677688729E+03 -0.64694161484E+02 -0.79650207700E+03  0.83843864769E+03  0.91187600000E+02 0.  0.
<mgrwt>
<rscale>  0 0.90661439E+03</rscale>
<asrwt>0</asrwt>
<pdfrwt beam="1">  1        1 0.29608706E+00 0.11782085E+04</pdfrwt>
<pdfrwt beam="2">  1       -1 0.50669458E-01 0.11782085E+04</pdfrwt>
<totfact> 0.13017301E+01</totfact>
</mgrwt>
</event>
<event>
11    1  0.2258746E-014  0.1262573E+04  0.7818608E-02  0.9318550E-01
         -1   -1    0    0    0  501 -0.00000000000E+00  0.00000000000E+00  0.39733907978E+03  0.39733907978E+03  0.00000000000E+00 0.  1.
          1   -1    0    0  501    0  0.00000000000E+00 -0.00000000000E+00 -0.20823400117E+04  0.20823400117E+04  0.00000000000E+00 0. -1.
    9900016    2    1    2    0    0  0.16349919107E+03  0.11217255472E+03 -0.59627809429E+03  0.94941742888E+03  0.71171006809E+03 0.  0.
         23    2    3    3    0    0 -0.34258105402E+02 -0.18611228177E+03 -0.29553849605E+03  0.37127478590E+03  0.12120464013E+03 0.  0.
        -15    1    1    2    0    0  0.19747022694E+03  0.16889151149E+03  0.51309280306E+02  0.26486123806E+03  0.00000000000E+00 0.  1.
        -15    1    4    4    0    0 -0.47261076691E+02 -0.17961190641E+03 -0.30264864113E+03  0.35509188427E+03  0.00000000000E+00 0.  1.
         15    1    1    2    0    0 -0.28683938128E+03 -0.34657396415E+03 -0.91687938383E+03  0.10213021824E+04  0.00000000000E+00 0. -1.
         15    1    4    4    0    0  0.13002971289E+02 -0.65003753647E+01  0.71101450849E+01  0.16182901636E+02  0.00000000000E+00 0. -1.
        -16    1    3    3    0    0  0.23951198083E+03  0.29278541352E+03 -0.17384738006E+03  0.41630781747E+03  0.00000000000E+00 0.  1.
         16    1    1    2    0    0 -0.74130036732E+02  0.65509897940E+02 -0.22315273413E+03  0.24409824216E+03  0.00000000000E+00 0. -1.
    9900018    1    3    3    0    0 -0.41754684351E+02  0.54994229625E+01 -0.12689221818E+03  0.16183482551E+03  0.91187600000E+02 0.  0.
<mgrwt>
<rscale>  0 0.99092878E+03</rscale>
<asrwt>0</asrwt>
<pdfrwt beam="1">  1        1 0.32036001E+00 0.12625729E+04</pdfrwt>
<pdfrwt beam="2">  1       -1 0.61129089E-01 0.12625729E+04</pdfrwt>
<totfact> 0.69978708E+00</totfact>
</mgrwt>
</event>
<event>
10    1  0.2258746E-014  0.2052043E+04  0.7818608E-02  0.8582668E-01
          1   -1    0    0  501    0  0.00000000000E+00  0.00000000000E+00  0.11481721538E+04  0.11481721538E+04  0.00000000000E+00 0. -1.
         -1   -1    0    0    0  501 -0.00000000000E+00 -0.00000000000E+00 -0.91686651862E+03  0.91686651862E+03  0.00000000000E+00 0.  1.
    9900016    2    1    2    0    0  0.17008114278E+03 -0.46599547146E+03 -0.43605515232E+03  0.96421904912E+03  0.70249192470E+03 0.  0.
        -15    1    3    3    0    0  0.31079398974E+02 -0.64129450301E+02 -0.83093419349E+02  0.10946703511E+03  0.00000000000E+00 0. -1.
        -15    1    1    2    0    0 -0.27776584851E+03  0.38014174973E+03  0.46721955529E+03  0.66329158696E+03  0.00000000000E+00 0.  1.
         15    1    1    2    0    0  0.77566922804E+02 -0.11881260982E+03 -0.10514791793E+02  0.14228009212E+03  0.00000000000E+00 0. -1.
         15    1    3    3    0    0 -0.13823162704E+03 -0.24553948007E+03 -0.26822846599E+03  0.38902972760E+03  0.00000000000E+00 0.  1.
        -16    1    3    3    0    0  0.28983329399E+03 -0.11118532437E+03 -0.14939748937E+03  0.34450707466E+03  0.00000000000E+00 0.  1.
         16    1    1    2    0    0  0.30117782926E+02  0.20466633156E+03  0.21065602401E+03  0.29524794423E+03  0.00000000000E+00 0. -1.
    9900018    1    3    3    0    0 -0.12599923140E+02 -0.45141216712E+02  0.64664222387E+02  0.12121521175E+03  0.91187600000E+02 0.  0.
<mgrwt>
<rscale>  0 0.20520435E+04</rscale>
<asrwt>0</asrwt>
<pdfrwt beam="1">  1        1 0.17664187E+00 0.20520435E+04</pdfrwt>
<pdfrwt beam="2">  1       -1 0.14105639E+00 0.20520435E+04</pdfrwt>
<totfact> 0.44291037E+00</totfact>
</mgrwt>
</event>
<event>
11    1  0.2258746E-014  0.2197404E+04  0.7818608E-02  0.8519510E-01
          2   -1    0    0  501    0  0.00000000000E+00  0.00000000000E+00  0.10397104814E+04  0.10397104814E+04  0.00000000000E+00 0. -1.
         -2   -1    0    0    0  501 -0.00000000000E+00 -0.00000000000E+00 -0.11610402164E+04  0.11610402164E+04  0.00000000000E+00 0.  1.
    9900016    2    1    2    0    0  0.57295670415E+03  0.22899429877E+03  0.51057976237E+03  0.10698388676E+04  0.70932766419E+03 0.  0.
         23    2    3    3    0    0  0.75884888091E+02 -0.16114472413E+03  0.47530584626E+02  0.21386372922E+03  0.10840848603E+03 0.  0.
        -15    1    1    2    0    0 -0.86532286950E+02 -0.20953308642E+03 -0.35644403419E+03  0.42242668062E+03  0.00000000000E+00 0. -1.
        -15    1    4    4    0    0  0.84183930483E+02 -0.12515205813E+03  0.74404980316E+02  0.16818463931E+03  0.00000000000E+00 0.  1.
         15    1    1    2    0    0 -0.46818272132E+03 -0.16968481403E+03 -0.24122298538E+03  0.55333220160E+03  0.00000000000E+00 0.  1.
         15    1    4    4    0    0 -0.82990423917E+01 -0.35992666002E+02 -0.26874395690E+02  0.45679089902E+02  0.00000000000E+00 0. -1.
        -16    1    1    2    0    0 -0.18241695886E+02  0.15022360168E+03 -0.34242477809E+02  0.15515294795E+03  0.00000000000E+00 0.  1.
         16    1    3    3    0    0  0.24587846532E+03  0.29984404233E+01  0.11904672187E+03  0.27319833884E+03  0.00000000000E+00 0. -1.
    9900018    1    3    3    0    0  0.25119335074E+03  0.38714058248E+03  0.34400245587E+03  0.58277679955E+03  0.91187600000E+02 0.  0.
<mgrwt>
<rscale>  0 0.21974036E+04</rscale>
<asrwt>0</asrwt>
<pdfrwt beam="1">  1        2 0.15995546E+00 0.21974036E+04</pdfrwt>
<pdfrwt beam="2">  1       -2 0.17862157E+00 0.21974036E+04</pdfrwt>
<totfact> 0.40260123E+00</totfact>
</mgrwt>
</event>
<event>
10    1  0.2258746E-014  0.1521663E+04  0.7818608E-02  0.9292329E-01
          2   -1    0    0  501    0  0.00000000000E+00  0.00000000000E+00  0.24191190364E+04  0.24191190364E+04  0.00000000000E+00 0. -1.
         -2   -1    0    0    0  501 -0.00000000000E+00 -0.00000000000E+00 -0.34670324455E+03  0.34670324455E+03  0.00000000000E+00 0.  1.
    9900016    2    1    2    0    0 -0.35940042102E+03  0.42874629304E+03  0.12735500022E+04  0.15615031027E+04  0.70948593020E+03 0.  0.
        -15    1    1    2    0    0  0.56147614182E+03 -0.21026887817E+03  0.55090074396E+03  0.81422361096E+03  0.00000000000E+00 0.  1.
        -15    1    3    3    0    0 -0.49787375854E+01  0.12506068003E+03  0.15815071921E+03  0.20168443545E+03  0.00000000000E+00 0. -1.
         15    1    3    3    0    0 -0.19783147237E+03  0.33942898967E+03  0.29789855927E+03  0.49304450316E+03  0.00000000000E+00 0.  1.
         15    1    1    2    0    0 -0.47647092590E+02 -0.31093502785E+02  0.32862948457E+02  0.65704069349E+02  0.00000000000E+00 0. -1.
        -16    1    1    2    0    0 -0.15442862820E+03 -0.18738391209E+03  0.21510209724E+03  0.32439149797E+03  0.00000000000E+00 0.  1.
         16    1    3    3    0    0 -0.11842790607E+03 -0.91136093518E+02  0.63179882939E+03  0.64923086595E+03  0.00000000000E+00 0. -1.
    9900018    1    3    3    0    0 -0.38162305005E+02  0.55392716866E+02  0.18570189433E+03  0.21754329812E+03  0.91187600000E+02 0.  0.
<mgrwt>
<rscale>  0 0.10149214E+04</rscale>
<asrwt>0</asrwt>
<pdfrwt beam="1">  1        2 0.37217215E+00 0.15216625E+04</pdfrwt>
<pdfrwt beam="2">  1       -2 0.53338962E-01 0.15216625E+04</pdfrwt>
<totfact> 0.12362242E+01</totfact>
</mgrwt>
</event>
<event>
10    1  0.2258746E-014  0.3647715E+04  0.7818608E-02  0.8079649E-01
         -1   -1    0    0    0  501 -0.00000000000E+00  0.00000000000E+00  0.16021746093E+04  0.16021746093E+04  0.00000000000E+00 0.  1.
          1   -1    0    0  501    0  0.00000000000E+00 -0.00000000000E+00 -0.20762132161E+04  0.20762132161E+04  0.00000000000E+00 0. -1.
    9900016    2    1    2    0    0  0.27289354235E+03 -0.21741165575E+03  0.46714345781E+02  0.78535057832E+03  0.70203602988E+03 0.  0.
        -15    1    3    3    0    0  0.13164664849E+03 -0.59461820534E+02 -0.35396754726E+02  0.14872618601E+03  0.00000000000E+00 0. -1.
        -15    1    1    2    0    0 -0.29161114717E+03  0.69894139983E+03  0.18553577183E+03  0.77973050740E+03  0.00000000000E+00 0.  1.
         15    1    1    2    0    0  0.67701867885E+03 -0.83735405973E+03 -0.82384645273E+03  0.13558167614E+04  0.00000000000E+00 0. -1.
         15    1    3    3    0    0  0.21369850767E+03 -0.28627926926E+03  0.11538302010E+03  0.37541458884E+03  0.00000000000E+00 0.  1.
        -16    1    1    2    0    0 -0.65830107403E+03  0.35582431566E+03  0.11755772835E+03  0.75748997827E+03  0.00000000000E+00 0.  1.
         16    1    3    3    0    0 -0.12581258467E+02  0.14505924604E+03 -0.38883532128E+02  0.15070634358E+03  0.00000000000E+00 0. -1.
    9900018    1    3    3    0    0 -0.59870355340E+02 -0.16729811993E+02  0.56116125350E+01  0.11050345989E+03  0.91187600000E+02 0.  0.
<mgrwt>
<rscale>  0 0.36477150E+04</rscale>
<asrwt>0</asrwt>
<pdfrwt beam="1">  1        1 0.31941742E+00 0.36477150E+04</pdfrwt>
<pdfrwt beam="2">  1       -1 0.24648840E+00 0.36477150E+04</pdfrwt>
<totfact> 0.15669632E-01</totfact>
</mgrwt>
</event>
<event>
11    1  0.2258746E-014  0.2300851E+04  0.7818608E-02  0.8477586E-01
          1   -1    0    0  501    0  0.00000000000E+00  0.00000000000E+00  0.84490015502E+03  0.84490015502E+03  0.00000000000E+00 0. -1.
         -1   -1    0    0    0  501 -0.00000000000E+00 -0.00000000000E+00 -0.15664319890E+04  0.15664319890E+04  0.00000000000E+00 0.  1.
    9900016    2    1    2    0    0 -0.16321158100E+03  0.12667147260E+01 -0.17148896745E+03  0.75275262229E+03  0.71455470026E+03 0.  0.
         23    2    3    3    0    0 -0.61758736456E+02 -0.14473294218E+03 -0.19140578073E+03  0.25969166362E+03  0.77729152689E+02 0.  0.
        -15    1    4    4    0    0 -0.29288606743E+02 -0.77866198177E+02 -0.42856768625E+02  0.93582423138E+02  0.00000000000E+00 0. -1.
        -15    1    1    2    0    0  0.38251421684E+03  0.10241419315E+03 -0.64121629461E+03  0.75363394928E+03  0.00000000000E+00 0.  1.
         15    1    1    2    0    0  0.51721561497E+02 -0.44991331323E+03 -0.13062860431E+02  0.45306483826E+03  0.00000000000E+00 0.  1.
         15    1    4    4    0    0 -0.32470129713E+02 -0.66866744003E+02 -0.14854901210E+03  0.16610924048E+03  0.00000000000E+00 0. -1.
        -16    1    1    2    0    0 -0.27102419733E+03  0.34623240535E+03  0.10423628854E+03  0.45188073416E+03  0.00000000000E+00 0.  1.
         16    1    3    3    0    0 -0.91293906012E+02  0.19387862135E+03 -0.17215366403E+03  0.27488248604E+03  0.00000000000E+00 0. -1.
    9900018    1    3    3    0    0 -0.10158938537E+02 -0.47878964444E+02  0.19207047731E+03  0.21817847263E+03  0.91187600000E+02 0.  0.
<mgrwt>
<rscale>  0 0.23008508E+04</rscale>
<asrwt>0</asrwt>
<pdfrwt beam="1">  1        1 0.12998464E+00 0.23008508E+04</pdfrwt>
<pdfrwt beam="2">  1       -1 0.24098954E+00 0.23008508E+04</pdfrwt>
<totfact> 0.14600941E+00</totfact>
</mgrwt>
</event>
<event>
10    1  0.2258746E-014  0.1685525E+04  0.7818608E-02  0.8769663E-01
          1   -1    0    0  501    0  0.00000000000E+00  0.00000000000E+00  0.28270455827E+04  0.28270455827E+04  0.00000000000E+00 0.  1.
         -1   -1    0    0    0  501 -0.00000000000E+00 -0.00000000000E+00 -0.25123359865E+03  0.25123359865E+03  0.00000000000E+00 0. -1.
    9900016    2    1    2    0    0 -0.67585871683E+02 -0.31043604854E+03  0.79998302296E+03  0.11147555021E+04  0.70835626780E+03 0.  0.
        -15    1    3    3    0    0 -0.22352376096E+02  0.75486319884E+02  0.17071413952E+03  0.18799236856E+03  0.00000000000E+00 0.  1.
        -15    1    1    2    0    0  0.93097977301E+02  0.25109259015E+03  0.15151209529E+04  0.15386052853E+04  0.00000000000E+00 0.  1.
         15    1    3    3    0    0  0.11753806697E+03  0.28671212095E+02  0.30314656602E+03  0.32639711408E+03  0.00000000000E+00 0. -1.
         15    1    1    2    0    0  0.12386360335E+03  0.63829237526E+02  0.18845822368E+02  0.14061126846E+03  0.00000000000E+00 0. -1.
        -16    1    1    2    0    0 -0.14937570897E+03 -0.44857791366E+01  0.24186218581E+03  0.28430712543E+03  0.00000000000E+00 0.  1.
         16    1    3    3    0    0 -0.11992684439E+03 -0.29540117696E+03  0.30792291367E+03  0.44323901466E+03  0.00000000000E+00 0. -1.
    9900018    1    3    3    0    0 -0.42844718170E+02 -0.11919240356E+03  0.18199403749E+02  0.15712700479E+03  0.91187600000E+02 0.  0.
<mgrwt>
<rscale>  0 0.16855252E+04</rscale>
<asrwt>0</asrwt>
<pdfrwt beam="1">  1        1 0.43493007E+00 0.16855252E+04</pdfrwt>
<pdfrwt beam="2">  1       -1 0.38651325E-01 0.16855252E+04</pdfrwt>
<totfact> 0.49404558E+00</totfact>
</mgrwt>
</event>
<event>
11    1  0.2258746E-014  0.1428538E+04  0.7818608E-02  0.9364444E-01
          2   -1    0    0  501    0  0.00000000000E+00  0.00000000000E+00  0.25626799708E+04  0.25626799708E+04  0.00000000000E+00 0.  1.
         -2   -1    0    0    0  501 -0.00000000000E+00 -0.00000000000E+00 -0.29344028559E+03  0.29344028559E+03  0.00000000000E+00 0. -1.
    9900016    2    1    2    0    0  0.18865728479E+03 -0.27321245267E+03  0.50598492648E+03  0.92757009492E+03  0.70294304162E+03 0.  0.
         23    2    3    3    0    0  0.43367308589E+01  0.16124600530E+02 -0.43322778273E+02  0.12080795229E+03  0.11152976393E+03 0.  0.
        -15    1    4    4    0    0 -0.40991669486E+01  0.59245506165E+02 -0.48353454975E+02  0.76582568372E+02  0.00000000000E+00 0.  1.
        -15    1    1    2    0    0 -0.86786536448E+02  0.26923831108E+03  0.15523689278E+04  0.15779323367E+04  0.00000000000E+00 0.  1.
         15    1    4    4    0    0  0.84358978075E+01 -0.43120905634E+02  0.50306767022E+01  0.44225383917E+02  0.00000000000E+00 0. -1.
         15    1    1    2    0    0 -0.18454913252E+03  0.41626709522E+02  0.14620458813E+03  0.23909610379E+03  0.00000000000E+00 0. -1.
        -16    1    1    2    0    0  0.82678384179E+02 -0.37652567928E+02  0.64681242718E+02  0.11152172094E+03  0.00000000000E+00 0.  1.
         16    1    3    3    0    0 -0.21332624429E+02 -0.76462842967E+02  0.48370388732E+03  0.49017455853E+03  0.00000000000E+00 0. -1.
    9900018    1    3    3    0    0  0.20565317836E+03 -0.21287421024E+03  0.65603817432E+02  0.31658758410E+03  0.91187600000E+02 0.  0.
<mgrwt>
<rscale>  0 0.95060476E+03</rscale>
<asrwt>0</asrwt>
<pdfrwt beam="1">  1        2 0.39425844E+00 0.14285384E+04</pdfrwt>
<pdfrwt beam="2">  1       -2 0.45144661E-01 0.14285384E+04</pdfrwt>
<totfact> 0.14477062E+01</totfact>
</mgrwt>
</event>
<event>
11    1  0.2258746E-014  0.3545959E+04  0.7818608E-02  0.8102984E-01
         -2   -1    0    0    0  501 -0.00000000000E+00  0.00000000000E+00  0.79672743950E+03  0.79672743950E+03  0.00000000000E+00 0.  1.
          2   -1    0    0  501    0  0.00000000000E+00 -0.00000000000E+00 -0.39454591277E+04  0.39454591277E+04  0.00000000000E+00 0. -1.
    9900016    2    1    2    0    0 -0.11247051139E+03 -0.10186857339E+04 -0.79372461645E+03  0.14750162724E+04  0.70377837186E+03 0.  0.
         23    2    3    3    0    0  0.51298323748E+02 -0.23361162579E+03  0.66438395903E+02  0.27804454263E+03  0.12525493008E+03 0.  0.
        -15    1    4    4    0    0 -0.20101190431E+02 -0.14286440020E+03  0.74354881142E+02  0.16230509250E+03  0.00000000000E+00 0.  1.
        -15    1    1    2    0    0  0.32717819094E+03  0.73361767702E+03 -0.14025629769E+04  0.16162992820E+04  0.00000000000E+00 0.  1.
         15    1    1    2    0    0  0.49648823021E+03 -0.13296391699E+02 -0.66009042915E+03  0.82607307875E+03  0.00000000000E+00 0. -1.
         15    1    4    4    0    0  0.71399514179E+02 -0.90747225586E+02 -0.79164852392E+01  0.11573945012E+03  0.00000000000E+00 0. -1.
        -16    1    3    3    0    0 -0.77007391458E+01 -0.18351474957E+03 -0.31793627503E+03  0.36717902945E+03  0.00000000000E+00 0.  1.
         16    1    1    2    0    0 -0.71119590976E+03  0.29836444856E+03 -0.29235366563E+03  0.82479793406E+03  0.00000000000E+00 0. -1.
    9900018    1    3    3    0    0 -0.15606809599E+03 -0.60155935853E+03 -0.54222673733E+03  0.82979270031E+03  0.91187600000E+02 0.  0.
<mgrwt>
<rscale>  0 0.35459586E+04</rscale>
<asrwt>0</asrwt>
<pdfrwt beam="1">  1        2 0.60699371E+00 0.35459586E+04</pdfrwt>
<pdfrwt beam="2">  1       -2 0.12257345E+00 0.35459586E+04</pdfrwt>
<totfact> 0.15560956E-01</totfact>
</mgrwt>
</event>
<event>
11    1  0.2258746E-014  0.3403023E+04  0.7818608E-02  0.8137165E-01
         -1   -1    0    0    0  501 -0.00000000000E+00  0.00000000000E+00  0.65132854918E+03  0.65132854918E+03  0.00000000000E+00 0.  1.
          1   -1    0    0  501    0  0.00000000000E+00 -0.00000000000E+00 -0.44449772560E+04  0.44449772560E+04  0.00000000000E+00 0. -1.
    9900016    2    1    2    0    0 -0.34161652008E+03  0.35823400347E+03 -0.29955056206E+04  0.31202961678E+04  0.71983387225E+03 0.  0.
         23    2    3    3    0    0 -0.15415712040E+03  0.44952087788E+03 -0.16053895312E+04  0.16782145530E+04  0.11530438747E+03 0.  0.
        -15    1    1    2    0    0  0.14224445182E+03 -0.43818768575E+03  0.29253223358E+00  0.46069731668E+03  0.00000000000E+00 0.  1.
        -15    1    4    4    0    0 -0.98886079260E+02  0.33520052123E+03 -0.99039192176E+03  0.10502447357E+04  0.00000000000E+00 0. -1.
         15    1    4    4    0    0 -0.55271041138E+02  0.11432035665E+03 -0.61499760943E+03  0.62796981737E+03  0.00000000000E+00 0.  1.
         15    1    1    2    0    0 -0.33014798009E+03 -0.31050920216E+02  0.19457778183E+03  0.38447673738E+03  0.00000000000E+00 0. -1.
        -16    1    3    3    0    0 -0.21145938716E+03 -0.14743278920E+03 -0.11427530676E+04  0.11714674871E+04  0.00000000000E+00 0.  1.
         16    1    1    2    0    0  0.52952004835E+03  0.11100460250E+03 -0.99301340033E+03  0.11308355834E+04  0.00000000000E+00 0. -1.
    9900018    1    3    3    0    0  0.23999987475E+02  0.56145914785E+02 -0.24736302178E+03  0.27061412765E+03  0.91187600000E+02 0.  0.
<mgrwt>
<rscale>  0 0.34030225E+04</rscale>
<asrwt>0</asrwt>
<pdfrwt beam="1">  1        1 0.68384265E+00 0.34030225E+04</pdfrwt>
<pdfrwt beam="2">  1       -1 0.10020439E+00 0.34030225E+04</pdfrwt>
<totfact> 0.28502193E-02</totfact>
</mgrwt>
</event>
<event>
11    1  0.2258746E-014  0.2875703E+04  0.7818608E-02  0.8280143E-01
         -2   -1    0    0    0  501 -0.00000000000E+00  0.00000000000E+00  0.80384002468E+03  0.80384002468E+03  0.00000000000E+00 0.  1.
          2   -1    0    0  501    0  0.00000000000E+00 -0.00000000000E+00 -0.25719264861E+04  0.25719264861E+04  0.00000000000E+00 0. -1.
    9900016    2    1    2    0    0  0.27894902653E+02 -0.53818379393E+03 -0.26125630965E+03  0.92736067259E+03  0.70804169093E+03 0.  0.
         23    2    3    3    0    0 -0.18132257582E+03 -0.10574392231E+03  0.11042378640E+03  0.26625420919E+03  0.12098858501E+03 0.  0.
        -15    1    1    2    0    0 -0.35057594987E+02  0.55948331938E+03  0.29382374321E+03  0.63291627543E+03  0.00000000000E+00 0.  1.
        -15    1    4    4    0    0 -0.56225802107E+02 -0.28686642563E+02  0.10090447293E+03  0.11902090968E+03  0.00000000000E+00 0.  1.
         15    1    4    4    0    0 -0.12509677371E+03 -0.77057279750E+02  0.95193134714E+01  0.14723329951E+03  0.00000000000E+00 0. -1.
         15    1    1    2    0    0  0.36406857225E+01  0.89602426678E+02 -0.37702421757E+03  0.38754239781E+03  0.00000000000E+00 0. -1.
        -16    1    3    3    0    0  0.21319181779E+03 -0.35373966561E+03 -0.34385259047E+03  0.53741706911E+03  0.00000000000E+00 0.  1.
         16    1    1    2    0    0  0.35220066119E+01 -0.11090195212E+03 -0.14236296774E+04  0.14279471649E+04  0.00000000000E+00 0. -1.
    9900018    1    3    3    0    0 -0.39743393148E+01 -0.78700206007E+02 -0.27827505585E+02  0.12368939429E+03  0.91187600000E+02 0.  0.
<mgrwt>
<rscale>  0 0.28757034E+04</rscale>
<asrwt>0</asrwt>
<pdfrwt beam="1">  1        2 0.39568100E+00 0.28757034E+04</pdfrwt>
<pdfrwt beam="2">  1       -2 0.12366770E+00 0.28757034E+04</pdfrwt>
<totfact> 0.13459821E+00</totfact>
</mgrwt>
</event>
<event>
11    1  0.2258746E-014  0.3230983E+04  0.7818608E-02  0.8180682E-01
          2   -1    0    0  501    0  0.00000000000E+00  0.00000000000E+00  0.20290395203E+04  0.20290395203E+04  0.00000000000E+00 0. -1.
         -2   -1    0    0    0  501 -0.00000000000E+00 -0.00000000000E+00 -0.12862310112E+04  0.12862310112E+04  0.00000000000E+00 0.  1.
    9900016    2    1    2    0    0 -0.50737358337E+02  0.25865470541E+03  0.29208429968E+03  0.81239704144E+03  0.71077364798E+03 0.  0.
         23    2    3    3    0    0 -0.11403942569E+03  0.14807838699E+03  0.42739448496E+03  0.46961616619E+03  0.54231895245E+02 0.  0.
        -15    1    1    2    0    0 -0.59852867604E+03 -0.21570958899E+03  0.27913460731E+02  0.63682522258E+03  0.00000000000E+00 0.  1.
        -15    1    4    4    0    0 -0.69636029791E+02  0.47249333951E+02  0.19774701119E+03  0.21490825167E+03  0.00000000000E+00 0.  1.
         15    1    4    4    0    0 -0.44403395897E+02  0.10082905304E+03  0.22964747378E+03  0.25470791451E+03  0.00000000000E+00 0. -1.
         15    1    1    2    0    0  0.97612881924E+03 -0.12479310218E+03  0.86493625738E+03  0.13101585856E+04  0.00000000000E+00 0. -1.
        -16    1    1    2    0    0 -0.32686278486E+03  0.81847985771E+02 -0.44212550871E+03  0.55588968182E+03  0.00000000000E+00 0.  1.
         16    1    3    3    0    0 -0.81327705021E+02  0.11843175486E+03 -0.57035664123E+02  0.15457471703E+03  0.00000000000E+00 0. -1.
    9900018    1    3    3    0    0  0.14462977237E+03 -0.78554364410E+01 -0.78274521160E+02  0.18820615823E+03  0.91187600000E+02 0.  0.
<mgrwt>
<rscale>  0 0.32309835E+04</rscale>
<asrwt>0</asrwt>
<pdfrwt beam="1">  1        2 0.31215993E+00 0.32309835E+04</pdfrwt>
<pdfrwt beam="2">  1       -2 0.19788169E+00 0.32309835E+04</pdfrwt>
<totfact> 0.74260151E-01</totfact>
</mgrwt>
</event>
<event>
11    1  0.2258746E-014  0.1229576E+04  0.7818608E-02  0.9209014E-01
         -1   -1    0    0    0  501 -0.00000000000E+00  0.00000000000E+00  0.99540826350E+03  0.99540826350E+03  0.00000000000E+00 0.  1.
          1   -1    0    0  501    0  0.00000000000E+00 -0.00000000000E+00 -0.10215161421E+04  0.10215161421E+04  0.00000000000E+00 0. -1.
    9900016    2    1    2    0    0  0.10238858958E+03  0.19326107855E+03 -0.27010865057E+03  0.79475834508E+03  0.71473692797E+03 0.  0.
         23    2    3    3    0    0  0.29208025243E+03  0.77084899988E+02 -0.23201832456E+02  0.31159125277E+03  0.72786180735E+02 0.  0.
        -15    1    1    2    0    0 -0.14772132023E+03 -0.39994029100E+03 -0.93825053429E+02  0.43655121746E+03  0.00000000000E+00 0.  1.
        -15    1    4    4    0    0  0.21240606236E+03  0.86758304264E+02 -0.28246812342E+02  0.23117357352E+03  0.00000000000E+00 0.  1.
         15    1    4    4    0    0  0.79674190072E+02 -0.96734042758E+01  0.50449798863E+01  0.80417679251E+02  0.00000000000E+00 0. -1.
         15    1    1    2    0    0  0.24807081056E+03 -0.15312509854E+03  0.18491518697E+03  0.34522463589E+03  0.00000000000E+00 0. -1.
        -16    1    3    3    0    0 -0.24010112324E+03  0.55958016691E+01 -0.22603396735E+03  0.32980481618E+03  0.00000000000E+00 0.  1.
         16    1    1    2    0    0 -0.20273807990E+03  0.35980431099E+03  0.15291063841E+03  0.44039020719E+03  0.00000000000E+00 0. -1.
    9900018    1    3    3    0    0  0.50409460390E+02  0.11058037689E+03 -0.20872850766E+02  0.15336227614E+03  0.91187600000E+02 0.  0.
<mgrwt>
<rscale>  0 0.10960869E+04</rscale>
<asrwt>0</asrwt>
<pdfrwt beam="1">  1        1 0.15715633E+00 0.12295758E+04</pdfrwt>
<pdfrwt beam="2">  1       -1 0.15313973E+00 0.12295758E+04</pdfrwt>
<totfact> 0.47020383E+00</totfact>
</mgrwt>
</event>
