<event>
11    1  0.5973918E-016  0.1985791E+04  0.7818608E-02  0.8613293E-01
         -1   -1    0    0    0  501 -0.00000000000E+00  0.00000000000E+00  0.92602509750E+03  0.92602509750E+03  0.00000000000E+00 0.  1.
          1   -1    0    0  501    0  0.00000000000E+00 -0.00000000000E+00 -0.10645946902E+04  0.10645946902E+04  0.00000000000E+00 0. -1.
    9900016    2    1    2    0    0 -0.20316719190E+03 -0.63543857006E+02 -0.45972927230E+03  0.86770213490E+03  0.70444393777E+03 0.  0.
         24    2    3    3    0    0  0.99995699792E+02 -0.11406698932E+03  0.12177415241E+03  0.20997380287E+03  0.79054637224E+02 0.  0.
        -15    1    4    4    0    0  0.15667617801E+02 -0.36223513143E+02  0.46767936434E+02  0.61195236990E+02  0.00000000000E+00 0.  1.
        -15    1    4    4    0    0  0.17535068936E+02 -0.26550500284E+02  0.11590484896E+02  0.33863653791E+02  0.00000000000E+00 0.  1.
         15    1    3    3    0    0 -0.30316289170E+03  0.50523132311E+02 -0.58150342471E+03  0.65772833203E+03  0.00000000000E+00 0. -1.
         15    1    4    4    0    0  0.57523778457E+02 -0.17255420919E+02  0.34204873576E+02  0.69113732467E+02  0.00000000000E+00 0. -1.
        -16    1    1    2    0    0 -0.19085964000E+03 -0.16184021238E+03  0.55162334604E+03  0.60572928972E+03  0.00000000000E+00 0.  1.
         16    1    4    4    0    0  0.92692345976E+01 -0.34037554972E+02  0.29210857505E+02  0.45801179621E+02  0.00000000000E+00 0. -1.
    9900018    1    1    2    0    0  0.39402683191E+03  0.22538406938E+03 -0.23046366647E+03  0.51718836312E+03  0.91187600000E+02 0.  0.
<mgrwt>
<rscale>  0 0.19857909E+04</rscale>
<asrwt>0</asrwt>
<pdfrwt beam="1">  1        1 0.16378380E+00 0.19857909E+04</pdfrwt>
<pdfrwt beam="2">  1       -1 0.14246540E+00 0.19857909E+04</pdfrwt>
<totfact> 0.50158173E+00</totfact>
</mgrwt>
</event>
<event>
11    1  0.5973918E-016  0.1018678E+04  0.7818608E-02  0.9288293E-01
          4   -1    0    0  501    0  0.00000000000E+00  0.00000000000E+00  0.28351188382E+03  0.28351188382E+03  0.00000000000E+00 0. -1.
         -4   -1    0    0    0  501 -0.00000000000E+00 -0.00000000000E+00 -0.91504510977E+03  0.91504510977E+03  0.00000000000E+00 0.  1.
    9900016    2    1    2    0    0 -0.93850671644E+02  0.11347793161E+03 -0.35371987645E+03  0.80338692383E+03  0.70613568729E+03 0.  0.
         24    2    3    3    0    0  0.69056037219E+02 -0.12430438407E+03 -0.46596945441E+03  0.49406671241E+03  0.82183135095E+02 0.  0.
        -15    1    4    4    0    0  0.27447188756E+02 -0.30144222799E+02 -0.19314205433E+03  0.19739775959E+03  0.00000000000E+00 0. -1.
        -15    1    4    4    0    0  0.30428977907E+02 -0.73291683015E+02 -0.22864523332E+03  0.24202528012E+03  0.00000000000E+00 0.  1.
         15    1    4    4    0    0  0.17124592265E+02 -0.13016867961E+02 -0.24277199714E+02  0.32435673844E+02  0.00000000000E+00 0.  1.
         15    1    3    3    0    0 -0.16290670886E+03  0.23778231568E+03  0.11224957796E+03  0.30932021143E+03  0.00000000000E+00 0. -1.
        -16    1    1    2    0    0  0.13357185491E+03 -0.10271485441E+03 -0.22773259422E+03  0.28329122156E+03  0.00000000000E+00 0.  1.
         16    1    4    4    0    0 -0.59447217098E+01 -0.78516102972E+01 -0.19904967044E+02  0.22207998863E+02  0.00000000000E+00 0. -1.
    9900018    1    1    2    0    0 -0.39721183270E+02 -0.10763077205E+02 -0.50080755272E+02  0.11187884820E+03  0.91187600000E+02 0.  0.
<mgrwt>
<rscale>  0 0.10186779E+04</rscale>
<asrwt>0</asrwt>
<pdfrwt beam="1">  1        4 0.43617213E-01 0.10186779E+04</pdfrwt>
<pdfrwt beam="2">  1       -4 0.14077617E+00 0.10186779E+04</pdfrwt>
<totfact> 0.35751916E+00</totfact>
</mgrwt>
</event>
<event>
11    1  0.5973918E-016  0.1193769E+04  0.7818608E-02  0.9118328E-01
          2   -1    0    0  501    0  0.00000000000E+00  0.00000000000E+00  0.11197806554E+04  0.11197806554E+04  0.00000000000E+00 0. -1.
         -2   -1    0    0    0  501 -0.00000000000E+00 -0.00000000000E+00 -0.31816137136E+03  0.31816137136E+03  0.00000000000E+00 0.  1.
    9900016    2    1    2    0    0  0.75130132166E+02 -0.20521182287E+03  0.32526563837E+03  0.79543328825E+03  0.69221380480E+03 0.  0.
        -24    2    3    3    0    0 -0.53916539001E+02  0.21600064850E+03 -0.18462803759E+02  0.23666479299E+03  0.78141383322E+02 0.  0.
        -15    1    3    3    0    0  0.12904667117E+03 -0.42121247136E+03  0.34372844213E+03  0.55876849526E+03  0.00000000000E+00 0.  1.
        -15    1    4    4    0    0 -0.49796502103E+02  0.13700680605E+03 -0.30947864548E+01  0.14580855335E+03  0.00000000000E+00 0. -1.
         15    1    4    4    0    0  0.56004332534E+01  0.40627703575E+02 -0.11920307001E+02  0.42709119277E+02  0.00000000000E+00 0.  1.
         15    1    4    4    0    0 -0.50943501164E+01  0.13216800652E+02 -0.14517291793E+02  0.20282701585E+02  0.00000000000E+00 0. -1.
        -16    1    4    4    0    0 -0.46261200348E+01  0.25149338223E+02  0.11069581489E+02  0.27864418780E+02  0.00000000000E+00 0.  1.
         16    1    1    2    0    0 -0.12555393864E+03  0.27734017475E+03  0.33711902811E+03  0.45423628560E+03  0.00000000000E+00 0. -1.
    9900018    1    1    2    0    0  0.50423806471E+02 -0.72128351884E+02  0.13923461760E+03  0.18827245294E+03  0.91187600000E+02 0.  0.
<mgrwt>
<rscale>  0 0.11937687E+04</rscale>
<asrwt>0</asrwt>
<pdfrwt beam="1">  1        2 0.17227394E+00 0.11937687E+04</pdfrwt>
<pdfrwt beam="2">  1       -2 0.48947904E-01 0.11937687E+04</pdfrwt>
<totfact> 0.82616064E+01</totfact>
</mgrwt>
</event>
<event>
11    1  0.5973918E-016  0.2430751E+04  0.7818608E-02  0.8428080E-01
          1   -1    0    0  501    0  0.00000000000E+00  0.00000000000E+00  0.28193274707E+04  0.28193274707E+04  0.00000000000E+00 0. -1.
         -1   -1    0    0    0  501 -0.00000000000E+00 -0.00000000000E+00 -0.52393274937E+03  0.52393274937E+03  0.00000000000E+00 0.  1.
    9900016    2    1    2    0    0  0.20600487040E+03 -0.34088433788E+03  0.94666447994E+03  0.12513618480E+04  0.71490747550E+03 0.  0.
        -24    2    3    3    0    0 -0.22297726804E+02  0.16378625513E+03  0.38217839473E+02  0.18736477000E+03  0.79509922603E+02 0.  0.
        -15    1    3    3    0    0  0.22830259720E+03 -0.50467059302E+03  0.90844664047E+03  0.10639970780E+04  0.00000000000E+00 0.  1.
        -15    1    4    4    0    0 -0.10926210049E+02  0.92771775469E+00  0.46741014909E+01  0.11920148951E+02  0.00000000000E+00 0.  1.
         15    1    4    4    0    0  0.19564988716E+01  0.10914632943E+03  0.40839083955E+02  0.11655290599E+03  0.00000000000E+00 0. -1.
         15    1    4    4    0    0  0.32696244002E+00  0.34276844889E+02 -0.77124899544E+01  0.35135331239E+02  0.00000000000E+00 0. -1.
        -16    1    4    4    0    0 -0.13654978066E+02  0.19435363059E+02  0.41714398170E+00  0.23756383822E+02  0.00000000000E+00 0.  1.
         16    1    1    2    0    0 -0.75328052632E+03  0.38309199914E+03  0.12763721709E+04  0.15307896491E+04  0.00000000000E+00 0. -1.
    9900018    1    1    2    0    0  0.54727565592E+03 -0.42207661256E+02  0.72358070450E+02  0.56110872296E+03  0.91187600000E+02 0.  0.
<mgrwt>
<rscale>  0 0.24307513E+04</rscale>
<asrwt>0</asrwt>
<pdfrwt beam="1">  1        1 0.43374268E+00 0.24307513E+04</pdfrwt>
<pdfrwt beam="2">  1       -1 0.80605040E-01 0.24307513E+04</pdfrwt>
<totfact> 0.11074930E+00</totfact>
</mgrwt>
</event>
<event>
11    1  0.5973918E-016  0.1267835E+04  0.7818608E-02  0.9055469E-01
          1   -1    0    0  501    0  0.00000000000E+00  0.00000000000E+00  0.18771652572E+04  0.18771652572E+04  0.00000000000E+00 0. -1.
         -1   -1    0    0    0  501 -0.00000000000E+00 -0.00000000000E+00 -0.21407344892E+03  0.21407344892E+03  0.00000000000E+00 0.  1.
    9900016    2    1    2    0    0  0.27560527467E+03  0.36894373254E+01  0.11791036992E+04  0.14040344622E+04  0.71067246899E+03 0.  0.
         24    2    3    3    0    0  0.93190356389E+02 -0.24410487343E+03  0.10230236291E+04  0.10590153162E+04  0.81636158740E+02 0.  0.
        -15    1    4    4    0    0  0.77282645449E+01 -0.30066666540E+02  0.13162610298E+03  0.13523742639E+03  0.00000000000E+00 0. -1.
        -15    1    4    4    0    0 -0.76675899132E+01 -0.22228037537E+02  0.70492597549E+02  0.74310725316E+02  0.00000000000E+00 0.  1.
         15    1    3    3    0    0  0.18241491828E+03  0.24779431075E+03  0.15608007013E+03  0.34501914605E+03  0.00000000000E+00 0. -1.
         15    1    4    4    0    0  0.14973317549E+02 -0.27105875914E+02  0.66647802347E+02  0.73490532079E+02  0.00000000000E+00 0.  1.
        -16    1    1    2    0    0 -0.31000265474E+03 -0.12217690218E+03  0.30830201924E+03  0.45395922332E+03  0.00000000000E+00 0.  1.
         16    1    4    4    0    0  0.78156364209E+02 -0.16470429343E+03  0.75425712621E+03  0.77597663237E+03  0.00000000000E+00 0. -1.
    9900018    1    1    2    0    0  0.34397380069E+02  0.11848746486E+03  0.17568608982E+03  0.23324502060E+03  0.91187600000E+02 0.  0.
<mgrwt>
<rscale>  0 0.12678348E+04</rscale>
<asrwt>0</asrwt>
<pdfrwt beam="1">  1        1 0.28879464E+00 0.12678348E+04</pdfrwt>
<pdfrwt beam="2">  1       -1 0.32934378E-01 0.12678348E+04</pdfrwt>
<totfact> 0.30790374E+01</totfact>
</mgrwt>
</event>
<event>
11    1  0.5973918E-016  0.1960666E+04  0.7818608E-02  0.8625234E-01
         -1   -1    0    0    0  501 -0.00000000000E+00  0.00000000000E+00  0.54940551686E+03  0.54940551686E+03  0.00000000000E+00 0.  1.
          1   -1    0    0  501    0  0.00000000000E+00 -0.00000000000E+00 -0.17492601506E+04  0.17492601506E+04  0.00000000000E+00 0. -1.
    9900016    2    1    2    0    0  0.69369108009E+02  0.46779156209E+03  0.21401204826E+02  0.84990448012E+03  0.70586018095E+03 0.  0.
         24    2    3    3    0    0 -0.58671982506E+02  0.27651050186E+03 -0.32245846970E+03  0.43611414598E+03  0.79470903297E+02 0.  0.
        -15    1    4    4    0    0  0.30419516862E+01  0.35959928837E+02 -0.43196655982E+02  0.56287840961E+02  0.00000000000E+00 0.  1.
        -15    1    4    4    0    0 -0.16352057439E+02  0.30077071890E+02 -0.19626143972E+02  0.39461444008E+02  0.00000000000E+00 0.  1.
         15    1    4    4    0    0 -0.47866284879E+02  0.13988981715E+03 -0.15582683754E+03  0.21480769415E+03  0.00000000000E+00 0. -1.
         15    1    3    3    0    0  0.12804109051E+03  0.19128106024E+03  0.34385967452E+03  0.41379033414E+03  0.00000000000E+00 0. -1.
        -16    1    1    2    0    0  0.83652716851E+01 -0.38609297329E+03 -0.12434571954E+04  0.13020459126E+04  0.00000000000E+00 0.  1.
         16    1    4    4    0    0  0.25044081267E+01  0.70583683986E+02 -0.10380883220E+03  0.12555716685E+03  0.00000000000E+00 0. -1.
    9900018    1    1    2    0    0 -0.77734379694E+02 -0.81698588806E+02  0.22201356827E+02  0.14671527473E+03  0.91187600000E+02 0.  0.
<mgrwt>
<rscale>  0 0.19606664E+04</rscale>
<asrwt>0</asrwt>
<pdfrwt beam="1">  1        1 0.26911695E+00 0.19606664E+04</pdfrwt>
<pdfrwt beam="2">  1       -1 0.84523926E-01 0.19606664E+04</pdfrwt>
<totfact> 0.56896845E+00</totfact>
</mgrwt>
</event>
<event>
11    1  0.5973918E-016  0.1601997E+04  0.7818608E-02  0.8819322E-01
         -2   -1    0    0    0  501 -0.00000000000E+00  0.00000000000E+00  0.27387243685E+03  0.27387243685E+03  0.00000000000E+00 0.  1.
          2   -1    0    0  501    0  0.00000000000E+00 -0.00000000000E+00 -0.23426906830E+04  0.23426906830E+04  0.00000000000E+00 0. -1.
    9900016    2    1    2    0    0 -0.14245672781E+03 -0.43182432660E+03 -0.11120677989E+04  0.13937607742E+04  0.70647585816E+03 0.  0.
        -24    2    3    3    0    0 -0.10538167097E+03  0.18227792459E+03 -0.31770929188E+03  0.38902121973E+03  0.77895936255E+02 0.  0.
        -15    1    3    3    0    0 -0.37075056840E+02 -0.61410225119E+03 -0.79435850699E+03  0.10047395545E+04  0.00000000000E+00 0.  1.
        -15    1    4    4    0    0 -0.95990360574E+01  0.29356812321E+02 -0.13600356733E+02  0.33748090703E+02  0.00000000000E+00 0. -1.
         15    1    4    4    0    0 -0.52879260294E+01  0.22534869374E+02 -0.24335880213E+02  0.33585972743E+02  0.00000000000E+00 0.  1.
         15    1    4    4    0    0 -0.28743542783E+02  0.39467549964E+02 -0.82586142449E+02  0.95939302043E+02  0.00000000000E+00 0. -1.
        -16    1    4    4    0    0 -0.61751166104E+02  0.90918692929E+02 -0.19718691249E+03  0.22574785424E+03  0.00000000000E+00 0.  1.
         16    1    1    2    0    0  0.96838926197E+02  0.57424101294E+03 -0.78567102998E+03  0.97796190412E+03  0.00000000000E+00 0. -1.
    9900018    1    1    2    0    0  0.45617801617E+02 -0.14241668634E+03 -0.17107941725E+03  0.24484044146E+03  0.91187600000E+02 0.  0.
<mgrwt>
<rscale>  0 0.16019968E+04</rscale>
<asrwt>0</asrwt>
<pdfrwt beam="1">  1        2 0.36041394E+00 0.16019968E+04</pdfrwt>
<pdfrwt beam="2">  1       -2 0.42134222E-01 0.16019968E+04</pdfrwt>
<totfact> 0.21973183E+01</totfact>
</mgrwt>
</event>
<event>
11    1  0.5973918E-016  0.1497259E+04  0.7818608E-02  0.8886278E-01
          2   -1    0    0  501    0  0.00000000000E+00  0.00000000000E+00  0.16496797548E+04  0.16496797548E+04  0.00000000000E+00 0. -1.
         -2   -1    0    0    0  501 -0.00000000000E+00 -0.00000000000E+00 -0.33973009374E+03  0.33973009374E+03  0.00000000000E+00 0.  1.
    9900016    2    1    2    0    0  0.36478577850E+03 -0.52392751483E+02  0.38748551978E+03  0.88399368553E+03  0.70390776627E+03 0.  0.
        -24    2    3    3    0    0  0.25147021009E+03  0.30310075822E+03  0.10490421564E+03  0.41594641555E+03  0.83061362593E+02 0.  0.
        -15    1    3    3    0    0  0.11331556841E+03 -0.35549350971E+03  0.28258130414E+03  0.46804726998E+03  0.00000000000E+00 0.  1.
        -15    1    4    4    0    0  0.18472920604E+02  0.11449295878E+02 -0.63019186223E+01  0.22628507465E+02  0.00000000000E+00 0. -1.
         15    1    4    4    0    0  0.36106023737E+02  0.48795717512E+02 -0.28126664672E+00  0.60702109589E+02  0.00000000000E+00 0.  1.
         15    1    4    4    0    0  0.19831230590E+02  0.15599739363E+02  0.10673416920E+02  0.27396193233E+02  0.00000000000E+00 0. -1.
        -16    1    4    4    0    0  0.17706003516E+03  0.22725600547E+03  0.10081398399E+03  0.30521960527E+03  0.00000000000E+00 0.  1.
         16    1    1    2    0    0  0.11965239167E+02 -0.16255418825E+03  0.29761426493E+03  0.33932474380E+03  0.00000000000E+00 0. -1.
    9900018    1    1    2    0    0 -0.37675101767E+03  0.21494693974E+03  0.62484987640E+03  0.76609141925E+03  0.91187600000E+02 0.  0.
<mgrwt>
<rscale>  0 0.14972586E+04</rscale>
<asrwt>0</asrwt>
<pdfrwt beam="1">  1        2 0.25379688E+00 0.14972586E+04</pdfrwt>
<pdfrwt beam="2">  1       -2 0.52266169E-01 0.14972586E+04</pdfrwt>
<totfact> 0.34925611E+01</totfact>
</mgrwt>
</event>
<event>
11    1  0.5973918E-016  0.2309076E+04  0.7818608E-02  0.8474351E-01
          1   -1    0    0  501    0  0.00000000000E+00  0.00000000000E+00  0.18352692629E+04  0.18352692629E+04  0.00000000000E+00 0. -1.
         -1   -1    0    0    0  501 -0.00000000000E+00 -0.00000000000E+00 -0.72630135366E+03  0.72630135366E+03  0.00000000000E+00 0.  1.
    9900016    2    1    2    0    0 -0.54860341585E+03 -0.32268529533E+03  0.37237707401E+03  0.10265403373E+04  0.71416305635E+03 0.  0.
         24    2    3    3    0    0 -0.15038973582E+03 -0.12303545531E+03 -0.20742001563E+03  0.29537766127E+03  0.80436956633E+02 0.  0.
        -15    1    4    4    0    0 -0.10627613597E+02 -0.14249775786E+02 -0.19538691082E+02  0.26415198843E+02  0.00000000000E+00 0.  1.
        -15    1    4    4    0    0 -0.10623467446E+03 -0.61187365371E+02 -0.12468568620E+03  0.17486057326E+03  0.00000000000E+00 0.  1.
         15    1    3    3    0    0 -0.39821368004E+03 -0.19964984001E+03  0.57979708964E+03  0.73116267598E+03  0.00000000000E+00 0. -1.
         15    1    4    4    0    0 -0.25190518046E+02 -0.44848568571E+02 -0.29534337512E+02  0.59314697964E+02  0.00000000000E+00 0. -1.
        -16    1    1    2    0    0  0.61804818079E+03  0.14636345462E+03 -0.12570281783E+03  0.64746197806E+03  0.00000000000E+00 0.  1.
         16    1    4    4    0    0 -0.83369297158E+01 -0.27497455858E+01 -0.33661300842E+02  0.34787191209E+02  0.00000000000E+00 0. -1.
    9900018    1    1    2    0    0 -0.69444764934E+02  0.17632184071E+03  0.86229365304E+03  0.88756830124E+03  0.91187600000E+02 0.  0.
<mgrwt>
<rscale>  0 0.23090765E+04</rscale>
<asrwt>0</asrwt>
<pdfrwt beam="1">  1        1 0.28234912E+00 0.23090765E+04</pdfrwt>
<pdfrwt beam="2">  1       -1 0.11173867E+00 0.23090765E+04</pdfrwt>
<totfact> 0.25598989E+00</totfact>
</mgrwt>
</event>
<event>
11    1  0.5973918E-016  0.1810218E+04  0.7818608E-02  0.8700884E-01
          1   -1    0    0  501    0  0.00000000000E+00  0.00000000000E+00  0.18277514953E+04  0.18277514953E+04  0.00000000000E+00 0. -1.
         -1   -1    0    0    0  501 -0.00000000000E+00 -0.00000000000E+00 -0.44821334091E+03  0.44821334091E+03  0.00000000000E+00 0.  1.
    9900016    2    1    2    0    0 -0.16125653904E+03  0.45450147294E+03  0.66372984243E+03  0.10878048561E+04  0.71428764586E+03 0.  0.
         24    2    3    3    0    0  0.23227567755E+03  0.35620245674E+03  0.21889548772E+03  0.48580161262E+03  0.85180935124E+02 0.  0.
        -15    1    4    4    0    0  0.10174137700E+03  0.20198845215E+03  0.10910946326E+03  0.25110857725E+03  0.00000000000E+00 0.  1.
        -15    1    4    4    0    0  0.22012057130E+02  0.20506494197E+02  0.32167585821E+02  0.44043166790E+02  0.00000000000E+00 0. -1.
         15    1    4    4    0    0  0.10931986009E+02  0.15792901717E+02  0.39529757362E+00  0.19211463320E+02  0.00000000000E+00 0.  1.
         15    1    3    3    0    0 -0.39353221660E+03  0.98299016198E+02  0.44483435470E+03  0.60200324352E+03  0.00000000000E+00 0. -1.
        -16    1    1    2    0    0  0.64533659336E+02  0.99888738243E+02 -0.12484845399E+03  0.17242241641E+03  0.00000000000E+00 0.  1.
         16    1    4    4    0    0  0.97590257417E+02  0.11791460868E+03  0.77223141073E+02  0.17143840527E+03  0.00000000000E+00 0. -1.
    9900018    1    1    2    0    0  0.96722879707E+02 -0.55439021118E+03  0.84065676599E+03  0.10157375637E+04  0.91187600000E+02 0.  0.
<mgrwt>
<rscale>  0 0.18102183E+04</rscale>
<asrwt>0</asrwt>
<pdfrwt beam="1">  1        1 0.28119253E+00 0.18102183E+04</pdfrwt>
<pdfrwt beam="2">  1       -1 0.68955899E-01 0.18102183E+04</pdfrwt>
<totfact> 0.78254198E+00</totfact>
</mgrwt>
</event>
<event>
11    1  0.5973918E-016  0.2268130E+04  0.7818608E-02  0.8490594E-01
          1   -1    0    0  501    0  0.00000000000E+00  0.00000000000E+00  0.24017821726E+04  0.24017821726E+04  0.00000000000E+00 0. -1.
         -1   -1    0    0    0  501 -0.00000000000E+00 -0.00000000000E+00 -0.53547858807E+03  0.53547858807E+03  0.00000000000E+00 0.  1.
    9900016    2    1    2    0    0 -0.43842038322E+03  0.16781700186E+03  0.55059304272E+03  0.10122455842E+04  0.70789366817E+03 0.  0.
         24    2    3    3    0    0 -0.50542463821E+01  0.11640739137E+03  0.55731729733E+03  0.57578897440E+03  0.85756323199E+02 0.  0.
        -15    1    4    4    0    0  0.71933514600E+01  0.70299782228E+02  0.20737834469E+03  0.21908806798E+03  0.00000000000E+00 0.  1.
        -15    1    4    4    0    0  0.92788478902E+01  0.41007835970E+01  0.37105997026E+02  0.38467758702E+02  0.00000000000E+00 0. -1.
         15    1    3    3    0    0 -0.43336613684E+03  0.51409610493E+02 -0.67242546077E+01  0.43645660977E+03  0.00000000000E+00 0. -1.
         15    1    4    4    0    0 -0.30264807864E+01  0.37543456157E+02  0.16898217664E+03  0.17312898864E+03  0.00000000000E+00 0.  1.
        -16    1    1    2    0    0 -0.43518203972E+03  0.11578324585E+02  0.16326652311E+03  0.46494453741E+03  0.00000000000E+00 0.  1.
         16    1    4    4    0    0 -0.18499964946E+02  0.44633693870E+01  0.14385077898E+03  0.14510415908E+03  0.00000000000E+00 0. -1.
    9900018    1    1    2    0    0  0.87360242294E+03 -0.17939532645E+03  0.11524440187E+04  0.14600706391E+04  0.91187600000E+02 0.  0.
<mgrwt>
<rscale>  0 0.22681296E+04</rscale>
<asrwt>0</asrwt>
<pdfrwt beam="1">  1        1 0.36950494E+00 0.22681296E+04</pdfrwt>
<pdfrwt beam="2">  1       -1 0.82381323E-01 0.22681296E+04</pdfrwt>
<totfact> 0.21031393E+00</totfact>
</mgrwt>
</event>
<event>
11    1  0.5973918E-016  0.1389007E+04  0.7818608E-02  0.8961815E-01
         -2   -1    0    0    0  501 -0.00000000000E+00  0.00000000000E+00  0.32236469972E+03  0.32236469972E+03  0.00000000000E+00 0.  1.
          2   -1    0    0  501    0  0.00000000000E+00 -0.00000000000E+00 -0.14962397619E+04  0.14962397619E+04  0.00000000000E+00 0. -1.
    9900016    2    1    2    0    0 -0.26848071501E+03 -0.94145398707E+02 -0.81813858052E+03  0.11205791561E+04  0.71091606946E+03 0.  0.
        -24    2    3    3    0    0  0.74416219948E+02 -0.16584592127E+03 -0.73361496787E+03  0.76021335029E+03  0.81797148334E+02 0.  0.
        -15    1    3    3    0    0 -0.34289693495E+03  0.71700522566E+02 -0.84523612652E+02  0.36036580586E+03  0.00000000000E+00 0.  1.
        -15    1    4    4    0    0  0.46527435583E+02 -0.62795199740E+02 -0.35698506614E+03  0.36543997705E+03  0.00000000000E+00 0. -1.
         15    1    4    4    0    0 -0.45450109364E+01 -0.12346469926E+02 -0.72211718124E+02  0.73400440587E+02  0.00000000000E+00 0. -1.
         15    1    4    4    0    0  0.14551689513E+02 -0.60685486747E+01 -0.62355136549E+02  0.64317509317E+02  0.00000000000E+00 0.  1.
        -16    1    4    4    0    0  0.17882105788E+02 -0.84635702932E+02 -0.24206304705E+03  0.25705542334E+03  0.00000000000E+00 0.  1.
         16    1    1    2    0    0  0.38209132104E+03  0.14529645750E+03 -0.35833123318E+03  0.54360473770E+03  0.00000000000E+00 0. -1.
    9900018    1    1    2    0    0 -0.11361060603E+03 -0.51151058789E+02  0.25947515376E+01  0.15442056776E+03  0.91187600000E+02 0.  0.
<mgrwt>
<rscale>  0 0.13890067E+04</rscale>
<asrwt>0</asrwt>
<pdfrwt beam="1">  1        2 0.23019073E+00 0.13890067E+04</pdfrwt>
<pdfrwt beam="2">  1       -2 0.49594569E-01 0.13890067E+04</pdfrwt>
<totfact> 0.47797590E+01</totfact>
</mgrwt>
</event>
<event>
11    1  0.5973918E-016  0.1225248E+04  0.7818608E-02  0.9091039E-01
         -1   -1    0    0    0  501 -0.00000000000E+00  0.00000000000E+00  0.48243990319E+03  0.48243990319E+03  0.00000000000E+00 0.  1.
          1   -1    0    0  501    0  0.00000000000E+00 -0.00000000000E+00 -0.77793816642E+03  0.77793816642E+03  0.00000000000E+00 0. -1.
    9900016    2    1    2    0    0  0.48863322191E+02  0.66294056690E+02 -0.18962406335E+03  0.75714856135E+03  0.72837774015E+03 0.  0.
         24    2    3    3    0    0  0.23286179193E+03 -0.61965590668E+02  0.18942433101E+03  0.31671280069E+03  0.79756331225E+02 0.  0.
        -15    1    4    4    0    0  0.17013678062E+02 -0.20414125141E+01  0.12742161097E+01  0.17183021647E+02  0.00000000000E+00 0.  1.
        -15    1    4    4    0    0  0.50306091471E+02  0.10283291899E+02  0.47237211657E+02  0.69769643087E+02  0.00000000000E+00 0. -1.
         15    1    4    4    0    0  0.10865924942E+03 -0.33287318880E+02  0.89794033954E+02  0.14483731086E+03  0.00000000000E+00 0.  1.
         15    1    3    3    0    0 -0.18399846974E+03  0.12825964736E+03 -0.37904839436E+03  0.44043576067E+03  0.00000000000E+00 0. -1.
        -16    1    1    2    0    0  0.18831385205E+03  0.72408031010E+02 -0.30141405779E+02  0.20399395621E+03  0.00000000000E+00 0.  1.
         16    1    4    4    0    0  0.56882772981E+02 -0.36920151172E+02  0.51118869290E+02  0.84922825095E+02  0.00000000000E+00 0. -1.
    9900018    1    1    2    0    0 -0.23717717424E+03 -0.13870208770E+03 -0.75732794100E+02  0.29923555205E+03  0.91187600000E+02 0.  0.
<mgrwt>
<rscale>  0 0.12252484E+04</rscale>
<asrwt>0</asrwt>
<pdfrwt beam="1">  1        1 0.11968279E+00 0.12252484E+04</pdfrwt>
<pdfrwt beam="2">  1       -1 0.74221524E-01 0.12252484E+04</pdfrwt>
<totfact> 0.41755743E+01</totfact>
</mgrwt>
</event>
<event>
11    1  0.5973918E-016  0.1420387E+04  0.7818608E-02  0.8939192E-01
          2   -1    0    0  501    0  0.00000000000E+00  0.00000000000E+00  0.34361917622E+04  0.34361917622E+04  0.00000000000E+00 0.  1.
         -2   -1    0    0    0  501 -0.00000000000E+00 -0.00000000000E+00 -0.14678310882E+03  0.14678310882E+03  0.00000000000E+00 0. -1.
    9900016    2    1    2    0    0  0.19153522762E+03  0.31017231458E+03  0.22532293777E+04  0.23889472319E+04  0.70507704554E+03 0.  0.
        -24    2    3    3    0    0 -0.84873272343E+02 -0.16195069642E+03  0.29754626137E+03  0.35818426004E+03  0.79565608524E+02 0.  0.
        -15    1    4    4    0    0 -0.44364493929E+02 -0.38973982009E+02  0.70127565297E+02  0.91679087091E+02  0.00000000000E+00 0. -1.
        -15    1    3    3    0    0  0.27640849997E+03  0.47212301100E+03  0.19556831164E+04  0.20307629719E+04  0.00000000000E+00 0.  1.
         15    1    4    4    0    0 -0.28796099670E+02 -0.75196375993E+02  0.16985658065E+03  0.18797597801E+03  0.00000000000E+00 0. -1.
         15    1    4    4    0    0 -0.13000137190E+02 -0.49242939717E+02  0.52685835387E+02  0.73278018050E+02  0.00000000000E+00 0.  1.
        -16    1    4    4    0    0  0.12874584463E+01  0.14626012966E+01  0.48762800380E+01  0.52511768979E+01  0.00000000000E+00 0.  1.
         16    1    1    2    0    0 -0.21106722889E+03 -0.23703130890E+03  0.26407065841E+03  0.41287592464E+03  0.00000000000E+00 0. -1.
    9900018    1    1    2    0    0  0.19532001268E+02 -0.73141005673E+02  0.77210861719E+03  0.78115171440E+03  0.91187600000E+02 0.  0.
<mgrwt>
<rscale>  0 0.14203871E+04</rscale>
<asrwt>0</asrwt>
<pdfrwt beam="1">  1        2 0.52864482E+00 0.14203871E+04</pdfrwt>
<pdfrwt beam="2">  1       -2 0.22582019E-01 0.14203871E+04</pdfrwt>
<totfact> 0.15314192E+01</totfact>
</mgrwt>
</event>
<event>
11    1  0.5973918E-016  0.1675056E+04  0.7818608E-02  0.8775720E-01
          2   -1    0    0  501    0  0.00000000000E+00  0.00000000000E+00  0.59627785137E+03  0.59627785137E+03  0.00000000000E+00 0. -1.
         -2   -1    0    0    0  501 -0.00000000000E+00 -0.00000000000E+00 -0.11763870378E+04  0.11763870378E+04  0.00000000000E+00 0.  1.
    9900016    2    1    2    0    0 -0.18732760132E+03 -0.12436408868E+03 -0.22971295774E+03  0.75088736383E+03  0.67860572753E+03 0.  0.
        -24    2    3    3    0    0 -0.52080121607E+02  0.11878948708E+03 -0.39762619324E+03  0.42590983102E+03  0.80432041502E+02 0.  0.
        -15    1    3    3    0    0 -0.13524747971E+03 -0.24315357575E+03  0.16791323550E+03  0.32497753280E+03  0.00000000000E+00 0.  1.
        -15    1    4    4    0    0  0.86128804574E+01  0.10747639452E+02 -0.25705325970E+02  0.29162600137E+02  0.00000000000E+00 0.  1.
         15    1    4    4    0    0 -0.15807818949E+02  0.48444557124E+02 -0.13141295861E+03  0.14094725235E+03  0.00000000000E+00 0. -1.
         15    1    4    4    0    0 -0.43956166814E+02  0.31710366982E+02 -0.11369026358E+03  0.12594906910E+03  0.00000000000E+00 0. -1.
        -16    1    4    4    0    0 -0.92901630066E+00  0.27886923518E+02 -0.12681764509E+03  0.12985090943E+03  0.00000000000E+00 0.  1.
         16    1    1    2    0    0 -0.36482338753E+03  0.12193700299E+03 -0.53803699943E+02  0.38840645581E+03  0.00000000000E+00 0. -1.
    9900018    1    1    2    0    0  0.55215098885E+03  0.24270856919E+01 -0.29659252875E+03  0.63337106954E+03  0.91187600000E+02 0.  0.
<mgrwt>
<rscale>  0 0.16750565E+04</rscale>
<asrwt>0</asrwt>
<pdfrwt beam="1">  1        2 0.91735053E-01 0.16750565E+04</pdfrwt>
<pdfrwt beam="2">  1       -2 0.18098262E+00 0.16750565E+04</pdfrwt>
<totfact> 0.84972190E+00</totfact>
</mgrwt>
</event>
<event>
11    1  0.5973918E-016  0.1840520E+04  0.7818608E-02  0.8685043E-01
          2   -1    0    0  501    0  0.00000000000E+00  0.00000000000E+00  0.22473652404E+04  0.22473652404E+04  0.00000000000E+00 0. -1.
         -2   -1    0    0    0  501 -0.00000000000E+00 -0.00000000000E+00 -0.37683162542E+03  0.37683162542E+03  0.00000000000E+00 0.  1.
    9900016    2    1    2    0    0 -0.95007780885E+02 -0.39534167822E+03  0.68747677173E+03  0.10606446084E+04  0.69786900827E+03 0.  0.
        -24    2    3    3    0    0  0.14401735912E+03  0.51191271187E+02 -0.37677189449E+02  0.17612611800E+03  0.78989194590E+02 0.  0.
        -15    1    4    4    0    0  0.60559055535E+02  0.16909097864E+02 -0.10827349545E+01  0.62884728773E+02  0.00000000000E+00 0. -1.
        -15    1    3    3    0    0 -0.23902514001E+03 -0.44653294940E+03  0.72515396117E+03  0.88451849040E+03  0.00000000000E+00 0.  1.
         15    1    4    4    0    0  0.58771640787E+02 -0.45501994511E+01 -0.30328460265E+02  0.66291972198E+02  0.00000000000E+00 0. -1.
         15    1    4    4    0    0  0.11831391033E+02  0.12563381874E+02 -0.30859728219E+01  0.17531218045E+02  0.00000000000E+00 0.  1.
        -16    1    4    4    0    0  0.12855271765E+02  0.26268990901E+02 -0.31800214070E+01  0.29418198981E+02  0.00000000000E+00 0.  1.
         16    1    1    2    0    0 -0.33901937157E+03 -0.83898206644E+02  0.56644284262E+03  0.66545513548E+03  0.00000000000E+00 0. -1.
    9900018    1    1    2    0    0  0.43402715245E+03  0.47923988486E+03  0.61661400068E+03  0.89809712200E+03  0.91187600000E+02 0.  0.
<mgrwt>
<rscale>  0 0.18405198E+04</rscale>
<asrwt>0</asrwt>
<pdfrwt beam="1">  1        2 0.34574849E+00 0.18405198E+04</pdfrwt>
<pdfrwt beam="2">  1       -2 0.57974098E-01 0.18405198E+04</pdfrwt>
<totfact> 0.12727653E+01</totfact>
</mgrwt>
</event>
<event>
11    1  0.5973918E-016  0.1233708E+04  0.7818608E-02  0.9083853E-01
         -2   -1    0    0    0  501 -0.00000000000E+00  0.00000000000E+00  0.59783001646E+03  0.59783001646E+03  0.00000000000E+00 0.  1.
          2   -1    0    0  501    0  0.00000000000E+00 -0.00000000000E+00 -0.63648291570E+03  0.63648291570E+03  0.00000000000E+00 0. -1.
    9900016    2    1    2    0    0 -0.23360644216E+03  0.18647617364E+03 -0.14372343565E+03  0.77559697504E+03  0.70110549034E+03 0.  0.
         24    2    3    3    0    0 -0.11764158704E+03  0.69782333805E+02  0.27909411432E+03  0.32190106318E+03  0.83771431367E+02 0.  0.
        -15    1    4    4    0    0 -0.34861077960E+02 -0.45077835543E+01  0.60788287271E+02  0.70219874241E+02  0.00000000000E+00 0.  1.
        -15    1    4    4    0    0 -0.24060039120E+02  0.15239361988E+02  0.17677557547E+02  0.33520436708E+02  0.00000000000E+00 0. -1.
         15    1    3    3    0    0 -0.11596485512E+03  0.11669383983E+03 -0.42281754998E+03  0.45369591187E+03  0.00000000000E+00 0. -1.
         15    1    4    4    0    0 -0.47166988190E+02  0.38886752584E+02  0.12689494350E+03  0.14085180505E+03  0.00000000000E+00 0.  1.
        -16    1    1    2    0    0  0.17562007173E+03 -0.79043534252E+02  0.20122521700E+03  0.27853523630E+03  0.00000000000E+00 0.  1.
         16    1    4    4    0    0 -0.11553481767E+02  0.20164002788E+02  0.73733326003E+02  0.77308947172E+02  0.00000000000E+00 0. -1.
    9900018    1    1    2    0    0  0.57986370431E+02 -0.10743263938E+03 -0.96154680593E+02  0.18018072082E+03  0.91187600000E+02 0.  0.
<mgrwt>
<rscale>  0 0.12337076E+04</rscale>
<asrwt>0</asrwt>
<pdfrwt beam="1">  1        2 0.97920449E-01 0.12337076E+04</pdfrwt>
<pdfrwt beam="2">  1       -2 0.91973849E-01 0.12337076E+04</pdfrwt>
<totfact> 0.45679785E+01</totfact>
</mgrwt>
</event>
<event>
12    1  0.5973918E-016  0.1461360E+04  0.7818608E-02  0.8910563E-01
         -2   -1    0    0    0  501 -0.00000000000E+00  0.00000000000E+00  0.10248302147E+04  0.10248302147E+04  0.00000000000E+00 0. -1.
          2   -1    0    0  501    0  0.00000000000E+00 -0.00000000000E+00 -0.52095765526E+03  0.52095765526E+03  0.00000000000E+00 0.  1.
    9900016    2    1    2    0    0 -0.65365448757E+02  0.31022242358E+03  0.56040971231E+03  0.95926551072E+03  0.71107009529E+03 0.  0.
        -24    2    3    3    0    0  0.11059467958E+03 -0.86545662590E+02  0.49359683858E+03  0.52011765286E+03  0.84635683291E+02 0.  0.
         23    2    4    4    0    0  0.64503736982E+02 -0.55191218406E+02  0.32107401357E+03  0.33802728253E+03  0.62985068642E+02 0.  0.
        -15    1    5    5    0    0  0.10803233466E+02  0.79851340953E+01  0.11961869495E+02  0.17987733088E+02  0.00000000000E+00 0.  1.
        -15    1    3    3    0    0 -0.17596012834E+03  0.39676808617E+03  0.66812873726E+02  0.43914785786E+03  0.00000000000E+00 0.  1.
         15    1    4    4    0    0  0.12600110119E+02 -0.77616543451E+01  0.72652114655E+02  0.74144020778E+02  0.00000000000E+00 0. -1.
         15    1    5    5    0    0  0.53700503516E+02 -0.63176352501E+02  0.30911214407E+03  0.32003954944E+03  0.00000000000E+00 0. -1.
        -16    1    4    4    0    0  0.33490832483E+02 -0.23592789839E+02  0.99870710360E+02  0.10794634955E+03  0.00000000000E+00 0.  1.
         16    1    1    2    0    0  0.96201617093E+02 -0.41846219747E+03 -0.87977329368E+02  0.43829826867E+03  0.00000000000E+00 0. -1.
    9900018    1    1    2    0    0 -0.30836168336E+02  0.10823977389E+03  0.31440176470E+02  0.14822409055E+03  0.91187600000E+02 0.  0.
<mgrwt>
<rscale>  0 0.14613598E+04</rscale>
<asrwt>0</asrwt>
<pdfrwt beam="1">  1        2 0.80147331E-01 0.14613598E+04</pdfrwt>
<pdfrwt beam="2">  1       -2 0.15766619E+00 0.14613598E+04</pdfrwt>
<totfact> 0.14895098E+01</totfact>
</mgrwt>
</event>
<event>
11    1  0.5973918E-016  0.1727418E+04  0.7818608E-02  0.8745879E-01
         -1   -1    0    0    0  501 -0.00000000000E+00  0.00000000000E+00  0.53397180883E+03  0.53397180883E+03  0.00000000000E+00 0.  1.
          1   -1    0    0  501    0  0.00000000000E+00 -0.00000000000E+00 -0.13970652223E+04  0.13970652223E+04  0.00000000000E+00 0. -1.
    9900016    2    1    2    0    0 -0.32090121778E+03  0.80881934856E+02 -0.86146890908E+03  0.11740885140E+04  0.72583447035E+03 0.  0.
         24    2    3    3    0    0  0.16317497969E+03  0.18897805448E+03 -0.48558304413E+03  0.55175040689E+03  0.79365229720E+02 0.  0.
        -15    1    4    4    0    0  0.21620528804E+02  0.15119549117E+02 -0.74922128706E+02  0.79431564262E+02  0.00000000000E+00 0.  1.
        -15    1    4    4    0    0  0.39455843515E+02  0.61403513951E+02 -0.15598089366E+03  0.17221264268E+03  0.00000000000E+00 0.  1.
         15    1    4    4    0    0  0.10962363781E+01  0.25346731240E+02 -0.41460910969E+02  0.48607259305E+02  0.00000000000E+00 0. -1.
         15    1    3    3    0    0 -0.48407619747E+03 -0.10809611963E+03 -0.37588586495E+03  0.62233810707E+03  0.00000000000E+00 0. -1.
        -16    1    1    2    0    0  0.31487966808E+03  0.19897451295E+03  0.17721401452E+03  0.41248620476E+03  0.00000000000E+00 0.  1.
         16    1    4    4    0    0  0.10100237100E+03  0.87108260175E+02 -0.21321911080E+03  0.25149894065E+03  0.00000000000E+00 0. -1.
    9900018    1    1    2    0    0  0.60215496946E+01 -0.27985644781E+03 -0.17883851896E+03  0.34446231245E+03  0.91187600000E+02 0.  0.
<mgrwt>
<rscale>  0 0.17274182E+04</rscale>
<asrwt>0</asrwt>
<pdfrwt beam="1">  1        1 0.21493311E+00 0.17274182E+04</pdfrwt>
<pdfrwt beam="2">  1       -1 0.82149510E-01 0.17274182E+04</pdfrwt>
<totfact> 0.10801556E+01</totfact>
</mgrwt>
</event>
<event>
11    1  0.5973918E-016  0.2225339E+04  0.7818608E-02  0.8507955E-01
          2   -1    0    0  501    0  0.00000000000E+00  0.00000000000E+00  0.58639202482E+03  0.58639202482E+03  0.00000000000E+00 0. -1.
         -2   -1    0    0    0  501 -0.00000000000E+00 -0.00000000000E+00 -0.21112719704E+04  0.21112719704E+04  0.00000000000E+00 0.  1.
    9900016    2    1    2    0    0  0.20582080751E+03  0.45085540633E+03 -0.13027493998E+04  0.15700859153E+04  0.72275928261E+03 0.  0.
        -24    2    3    3    0    0  0.15727782223E+03 -0.14073404812E+03 -0.64917048800E+03  0.68719300110E+03  0.79180253894E+02 0.  0.
        -15    1    3    3    0    0  0.48542985281E+02  0.59158945445E+03 -0.65357891178E+03  0.88289291421E+03  0.00000000000E+00 0.  1.
        -15    1    4    4    0    0  0.47987491667E+02 -0.33584855812E+02 -0.25000224732E+03  0.25677201086E+03  0.00000000000E+00 0. -1.
         15    1    4    4    0    0  0.16185919288E+02 -0.26302433141E+02 -0.82091214313E+02  0.87708434256E+02  0.00000000000E+00 0.  1.
         15    1    4    4    0    0  0.28454337789E+00 -0.14434540817E+02 -0.54975990339E+02  0.56840095420E+02  0.00000000000E+00 0. -1.
        -16    1    4    4    0    0  0.92819867894E+02 -0.66412218347E+02 -0.26210103603E+03  0.28587246056E+03  0.00000000000E+00 0.  1.
         16    1    1    2    0    0 -0.43469493524E+02 -0.59922197102E+03 -0.48557431014E+03  0.77248882069E+03  0.00000000000E+00 0. -1.
    9900018    1    1    2    0    0 -0.16235131398E+03  0.14836656469E+03  0.26344376433E+03  0.35508925924E+03  0.91187600000E+02 0.  0.
<mgrwt>
<rscale>  0 0.22253387E+04</rscale>
<asrwt>0</asrwt>
<pdfrwt beam="1">  1        2 0.90214158E-01 0.22253387E+04</pdfrwt>
<pdfrwt beam="2">  1       -2 0.32481107E+00 0.22253387E+04</pdfrwt>
<totfact> 0.10408217E+00</totfact>
</mgrwt>
</event>
<event>
11    1  0.5973918E-016  0.1152103E+04  0.7818608E-02  0.9155845E-01
          2   -1    0    0  501    0  0.00000000000E+00  0.00000000000E+00  0.80328599623E+03  0.80328599623E+03  0.00000000000E+00 0. -1.
         -2   -1    0    0    0  501 -0.00000000000E+00 -0.00000000000E+00 -0.41309769243E+03  0.41309769243E+03  0.00000000000E+00 0.  1.
    9900016    2    1    2    0    0 -0.21617090305E+03  0.48025734286E+02  0.45766209014E+03  0.87382394520E+03  0.71068795400E+03 0.  0.
        -24    2    3    3    0    0 -0.11838934706E+03 -0.30726333138E+03  0.35650393064E+03  0.49169238917E+03  0.78990889977E+02 0.  0.
        -15    1    4    4    0    0 -0.31810600064E+02 -0.10092940128E+03  0.10332944390E+03  0.14790413212E+03  0.00000000000E+00 0. -1.
        -15    1    3    3    0    0 -0.97781555996E+02  0.35528906567E+03  0.10115815950E+03  0.38213155602E+03  0.00000000000E+00 0.  1.
         15    1    4    4    0    0 -0.12983969814E+02 -0.39983166209E+02  0.19209092776E+02  0.46219328181E+02  0.00000000000E+00 0. -1.
         15    1    4    4    0    0 -0.10766915569E+02 -0.77456369009E+01  0.16137707571E+02  0.20888919731E+02  0.00000000000E+00 0.  1.
        -16    1    4    4    0    0 -0.62827861610E+02 -0.15860512699E+03  0.21782768639E+03  0.27668000914E+03  0.00000000000E+00 0.  1.
         16    1    1    2    0    0  0.17234313744E+03 -0.12076727070E+03 -0.30948730791E+02  0.21270805023E+03  0.00000000000E+00 0. -1.
    9900018    1    1    2    0    0  0.43827765612E+02  0.72741536411E+02 -0.36525055547E+02  0.12985169323E+03  0.91187600000E+02 0.  0.
<mgrwt>
<rscale>  0 0.11521035E+04</rscale>
<asrwt>0</asrwt>
<pdfrwt beam="1">  1        2 0.12358246E+00 0.11521035E+04</pdfrwt>
<pdfrwt beam="2">  1       -2 0.63553491E-01 0.11521035E+04</pdfrwt>
<totfact> 0.77719246E+01</totfact>
</mgrwt>
</event>
<event>
12    1  0.5973918E-016  0.1874577E+04  0.7818608E-02  0.8667615E-01
         -2   -1    0    0    0  501 -0.00000000000E+00  0.00000000000E+00  0.92869341799E+03  0.92869341799E+03  0.00000000000E+00 0.  1.
          2   -1    0    0  501    0  0.00000000000E+00 -0.00000000000E+00 -0.94596348203E+03  0.94596348203E+03  0.00000000000E+00 0. -1.
    9900016    2    1    2    0    0 -0.36110363227E+03 -0.34345444896E+02  0.26261070639E+03  0.84404705612E+03  0.71545482528E+03 0.  0.
        -24    2    3    3    0    0 -0.26410820250E+03 -0.32822659991E+03 -0.11566216533E+02  0.43058940202E+03  0.88247449005E+02 0.  0.
         23    2    4    4    0    0 -0.16657052273E+03 -0.23636356210E+03  0.14404455536E+01  0.29412222800E+03  0.53780457297E+02 0.  0.
        -15    1    3    3    0    0 -0.96995429771E+02  0.29388115501E+03  0.27417692293E+03  0.41345765410E+03  0.00000000000E+00 0.  1.
        -15    1    5    5    0    0 -0.97507709322E+02 -0.18044652828E+03 -0.33165249053E+01  0.20513337681E+03  0.00000000000E+00 0. -1.
         15    1    5    5    0    0 -0.69062813405E+02 -0.55917033821E+02  0.47569704589E+01  0.88988851182E+02  0.00000000000E+00 0. -1.
         15    1    4    4    0    0 -0.11691750399E+02 -0.36938237645E+01 -0.46916239260E+01  0.13128316589E+02  0.00000000000E+00 0.  1.
        -16    1    4    4    0    0 -0.85845929372E+02 -0.88169214043E+02 -0.83150381607E+01  0.12333885744E+03  0.00000000000E+00 0.  1.
         16    1    1    2    0    0  0.65765258537E+03  0.11138777186E+03 -0.23797861364E+03  0.70820052197E+03  0.00000000000E+00 0. -1.
    9900018    1    1    2    0    0 -0.29654895310E+03 -0.77042326963E+02 -0.41902156786E+02  0.32240932193E+03  0.91187600000E+02 0.  0.
<mgrwt>
<rscale>  0 0.18745773E+04</rscale>
<asrwt>0</asrwt>
<pdfrwt beam="1">  1        2 0.14553284E+00 0.18745773E+04</pdfrwt>
<pdfrwt beam="2">  1       -2 0.14287591E+00 0.18745773E+04</pdfrwt>
<totfact> 0.87306512E+00</totfact>
</mgrwt>
</event>
<event>
11    1  0.5973918E-016  0.1244195E+04  0.7818608E-02  0.9075029E-01
          1   -1    0    0  501    0  0.00000000000E+00  0.00000000000E+00  0.16047950403E+04  0.16047950403E+04  0.00000000000E+00 0. -1.
         -1   -1    0    0    0  501 -0.00000000000E+00 -0.00000000000E+00 -0.24115548298E+03  0.24115548298E+03  0.00000000000E+00 0.  1.
    9900016    2    1    2    0    0 -0.34052262296E+03 -0.16075216801E+03  0.77141148010E+03  0.10824254381E+04  0.65937261178E+03 0.  0.
        -24    2    3    3    0    0 -0.33382361843E+03  0.66071197566E+02  0.85380849239E+02  0.35983859743E+03  0.79939448451E+02 0.  0.
        -15    1    3    3    0    0 -0.66990045289E+01 -0.22682336557E+03  0.68603063086E+03  0.72258684067E+03  0.00000000000E+00 0.  1.
        -15    1    4    4    0    0 -0.10761041562E+02  0.21118107973E+01  0.15278750344E+02  0.18806912889E+02  0.00000000000E+00 0.  1.
         15    1    4    4    0    0 -0.63751284879E+02  0.34309263756E+02  0.14776237643E+02  0.73889709040E+02  0.00000000000E+00 0. -1.
         15    1    4    4    0    0 -0.35338984859E+02  0.35976916204E+01  0.12302165550E+02  0.37591628231E+02  0.00000000000E+00 0. -1.
        -16    1    4    4    0    0 -0.22397230713E+03  0.26052431393E+02  0.43023695702E+02  0.22955034727E+03  0.00000000000E+00 0.  1.
         16    1    1    2    0    0  0.11382116912E+03 -0.68351933449E+02  0.25898482401E+03  0.29103330465E+03  0.00000000000E+00 0. -1.
    9900018    1    1    2    0    0  0.22670145383E+03  0.22910410146E+03  0.33324325326E+03  0.47249178057E+03  0.91187600000E+02 0.  0.
<mgrwt>
<rscale>  0 0.12441947E+04</rscale>
<asrwt>0</asrwt>
<pdfrwt beam="1">  1        1 0.24689154E+00 0.12441947E+04</pdfrwt>
<pdfrwt beam="2">  1       -1 0.37100845E-01 0.12441947E+04</pdfrwt>
<totfact> 0.38166677E+01</totfact>
</mgrwt>
</event>
<event>
11    1  0.5973918E-016  0.1722710E+04  0.7818608E-02  0.8748517E-01
          2   -1    0    0  501    0  0.00000000000E+00  0.00000000000E+00  0.11950524812E+04  0.11950524812E+04  0.00000000000E+00 0. -1.
         -2   -1    0    0    0  501 -0.00000000000E+00 -0.00000000000E+00 -0.62083705666E+03  0.62083705666E+03  0.00000000000E+00 0.  1.
    9900016    2    1    2    0    0  0.25017517357E+03 -0.16075645505E+03  0.48935122899E+02  0.76686247799E+03  0.70516179603E+03 0.  0.
        -24    2    3    3    0    0 -0.43029409216E+02 -0.30159102686E+03  0.23466826802E+03  0.39229592158E+03  0.77577164986E+02 0.  0.
        -15    1    4    4    0    0 -0.28511076368E+02 -0.57896458637E+02  0.52621806738E+02  0.83270258452E+02  0.00000000000E+00 0.  1.
        -15    1    3    3    0    0  0.29320458279E+03  0.14083457181E+03 -0.18573314513E+03  0.37456655641E+03  0.00000000000E+00 0.  1.
         15    1    4    4    0    0 -0.23735106048E+01 -0.36864679434E+02  0.51547878375E+02  0.63417835877E+02  0.00000000000E+00 0. -1.
         15    1    4    4    0    0  0.33401276597E+01 -0.13738838476E+02  0.11851658606E+02  0.18449226195E+02  0.00000000000E+00 0. -1.
        -16    1    4    4    0    0 -0.15484949903E+02 -0.19309105032E+03  0.11864692430E+03  0.22715860105E+03  0.00000000000E+00 0.  1.
         16    1    1    2    0    0  0.19866100543E+03 -0.12400177555E+03  0.44623694310E+03  0.50395440747E+03  0.00000000000E+00 0. -1.
    9900018    1    1    2    0    0 -0.44883617900E+03  0.28475823060E+03  0.79043358547E+02  0.54507265241E+03  0.91187600000E+02 0.  0.
<mgrwt>
<rscale>  0 0.17227105E+04</rscale>
<asrwt>0</asrwt>
<pdfrwt beam="1">  1        2 0.18385423E+00 0.17227105E+04</pdfrwt>
<pdfrwt beam="2">  1       -2 0.95513394E-01 0.17227105E+04</pdfrwt>
<totfact> 0.16673865E+01</totfact>
</mgrwt>
</event>
<event>
11    1  0.5973918E-016  0.1815602E+04  0.7818608E-02  0.8698046E-01
          1   -1    0    0  501    0  0.00000000000E+00  0.00000000000E+00  0.15121934951E+04  0.15121934951E+04  0.00000000000E+00 0. -1.
         -1   -1    0    0    0  501 -0.00000000000E+00 -0.00000000000E+00 -0.54497167926E+03  0.54497167926E+03  0.00000000000E+00 0.  1.
    9900016    2    1    2    0    0 -0.23736508490E+03  0.41580442918E+03  0.67119502843E+03  0.10866436915E+04  0.70785326112E+03 0.  0.
        -24    2    3    3    0    0 -0.42936216876E+03  0.20913227536E+03  0.64058607063E+03  0.80289526831E+03  0.78753523294E+02 0.  0.
        -15    1    3    3    0    0  0.19199708386E+03  0.20667215382E+03  0.30608957804E+02  0.28374842321E+03  0.00000000000E+00 0.  1.
        -15    1    4    4    0    0 -0.10058432801E+03  0.56950409111E+02  0.18047910950E+03  0.21432047290E+03  0.00000000000E+00 0. -1.
         15    1    4    4    0    0 -0.18465062674E+02  0.88588079874E+01  0.17533048486E+02  0.26960059491E+02  0.00000000000E+00 0.  1.
         15    1    4    4    0    0 -0.13841197772E+02  0.94847333999E+01  0.44398108416E+02  0.47462942959E+02  0.00000000000E+00 0. -1.
        -16    1    4    4    0    0 -0.29647158031E+03  0.13383832486E+03  0.39817580423E+03  0.51415179296E+03  0.00000000000E+00 0.  1.
         16    1    1    2    0    0 -0.28441359666E+03 -0.21024577112E+03  0.79682696654E+02  0.36255166582E+03  0.00000000000E+00 0. -1.
    9900018    1    1    2    0    0  0.52177868156E+03 -0.20555865806E+03  0.21634409079E+03  0.60796981705E+03  0.91187600000E+02 0.  0.
<mgrwt>
<rscale>  0 0.18156020E+04</rscale>
<asrwt>0</asrwt>
<pdfrwt beam="1">  1        1 0.23264515E+00 0.18156020E+04</pdfrwt>
<pdfrwt beam="2">  1       -1 0.83841797E-01 0.18156020E+04</pdfrwt>
<totfact> 0.85265074E+00</totfact>
</mgrwt>
</event>
<event>
11    1  0.5973918E-016  0.2783174E+04  0.7818608E-02  0.8308511E-01
         -2   -1    0    0    0  501 -0.00000000000E+00  0.00000000000E+00  0.15659778294E+04  0.15659778294E+04  0.00000000000E+00 0.  1.
          2   -1    0    0  501    0  0.00000000000E+00 -0.00000000000E+00 -0.12366164869E+04  0.12366164869E+04  0.00000000000E+00 0. -1.
    9900016    2    1    2    0    0  0.11429992414E+03 -0.51569101651E+03 -0.38547762363E+03  0.96920530777E+03  0.71537698672E+03 0.  0.
         24    2    3    3    0    0  0.19675215268E+03 -0.33528209521E+00  0.11922365479E+03  0.24317963093E+03  0.78806922557E+02 0.  0.
        -15    1    4    4    0    0  0.29509742249E+02  0.10778176598E+02  0.20803280544E+02  0.37679841557E+02  0.00000000000E+00 0.  1.
        -15    1    4    4    0    0  0.10702208641E+03 -0.78227961511E+00  0.43515047454E+02  0.11553310476E+03  0.00000000000E+00 0.  1.
         15    1    3    3    0    0 -0.82452228539E+02 -0.51535573441E+03 -0.50470127842E+03  0.72602567684E+03  0.00000000000E+00 0. -1.
         15    1    4    4    0    0  0.46402975148E+02 -0.13460599128E+02  0.57976981614E+02  0.75470220807E+02  0.00000000000E+00 0. -1.
        -16    1    1    2    0    0 -0.89774204213E+02  0.20186172620E+03  0.12152736883E+04  0.12351913624E+04  0.00000000000E+00 0.  1.
         16    1    4    4    0    0  0.13817348867E+02  0.31294200505E+01 -0.30716548217E+01  0.14496463807E+02  0.00000000000E+00 0. -1.
    9900018    1    1    2    0    0 -0.24525719925E+02  0.31382929030E+03 -0.50043472212E+03  0.59819764617E+03  0.91187600000E+02 0.  0.
<mgrwt>
<rscale>  0 0.27831737E+04</rscale>
<asrwt>0</asrwt>
<pdfrwt beam="1">  1        2 0.19024869E+00 0.27831737E+04</pdfrwt>
<pdfrwt beam="2">  1       -2 0.24091967E+00 0.27831737E+04</pdfrwt>
<totfact> 0.11475198E+00</totfact>
</mgrwt>
</event>
<event>
11    1  0.5973918E-016  0.1210918E+04  0.7818608E-02  0.9103354E-01
         -2   -1    0    0    0  501 -0.00000000000E+00  0.00000000000E+00  0.20924926348E+04  0.20924926348E+04  0.00000000000E+00 0.  1.
          2   -1    0    0  501    0  0.00000000000E+00 -0.00000000000E+00 -0.17518839897E+03  0.17518839897E+03  0.00000000000E+00 0. -1.
    9900016    2    1    2    0    0 -0.95398899370E+02 -0.67639451424E+02  0.78373473256E+03  0.10616267725E+04  0.70649503023E+03 0.  0.
         24    2    3    3    0    0  0.18932478786E+03 -0.11628596413E+03  0.11352794100E+02  0.23700084513E+03  0.81695862238E+02 0.  0.
        -15    1    4    4    0    0  0.27907113956E+02 -0.21250057391E+02 -0.13658090069E+02  0.37641936359E+02  0.00000000000E+00 0. -1.
        -15    1    4    4    0    0  0.85079176008E+02 -0.29810643105E+02 -0.10574786902E+02  0.90768754264E+02  0.00000000000E+00 0.  1.
         15    1    3    3    0    0 -0.28472368723E+03  0.48646512705E+02  0.77238193846E+03  0.82462592740E+03  0.00000000000E+00 0. -1.
         15    1    4    4    0    0  0.14284980997E+02 -0.24061566668E+02  0.71620839996E+01  0.28884513495E+02  0.00000000000E+00 0.  1.
        -16    1    1    2    0    0  0.15241083930E+03  0.19345590116E+03  0.68270225694E+03  0.72576623045E+03  0.00000000000E+00 0.  1.
         16    1    4    4    0    0  0.62053516902E+02 -0.41163696965E+02  0.28423587072E+02  0.79705641016E+02  0.00000000000E+00 0. -1.
    9900018    1    1    2    0    0 -0.57011939932E+02 -0.12581644974E+03  0.45086724636E+03  0.48028803082E+03  0.91187600000E+02 0.  0.
<mgrwt>
<rscale>  0 0.12109177E+04</rscale>
<asrwt>0</asrwt>
<pdfrwt beam="1">  1        2 0.26952063E-01 0.12109177E+04</pdfrwt>
<pdfrwt beam="2">  1       -2 0.32192193E+00 0.12109177E+04</pdfrwt>
<totfact> 0.46726574E+00</totfact>
</mgrwt>
</event>
<event>
11    1  0.5973918E-016  0.1555032E+04  0.7818608E-02  0.8848660E-01
          2   -1    0    0  501    0  0.00000000000E+00  0.00000000000E+00  0.15201552222E+04  0.15201552222E+04  0.00000000000E+00 0. -1.
         -2   -1    0    0    0  501 -0.00000000000E+00 -0.00000000000E+00 -0.39767708564E+03  0.39767708564E+03  0.00000000000E+00 0.  1.
    9900016    2    1    2    0    0 -0.51364613687E+03  0.29431347795E+03  0.58140027297E+03  0.10973565003E+04  0.71813107026E+03 0.  0.
        -24    2    3    3    0    0 -0.17745550026E+03  0.55724658854E+02  0.64871486630E+03  0.67964844049E+03  0.80593627056E+02 0.  0.
        -15    1    3    3    0    0 -0.33619063661E+03  0.23858881909E+03 -0.67314593333E+02  0.41770805979E+03  0.00000000000E+00 0.  1.
        -15    1    4    4    0    0 -0.11846690967E+02  0.10027773841E+02  0.56993621661E+02  0.59069224179E+02  0.00000000000E+00 0. -1.
         15    1    4    4    0    0 -0.12704802525E+02  0.55891594439E+01  0.12937558658E+02  0.18974486410E+02  0.00000000000E+00 0. -1.
         15    1    4    4    0    0 -0.46380746326E+02  0.15703492731E+02  0.11265795831E+03  0.12283968774E+03  0.00000000000E+00 0.  1.
        -16    1    4    4    0    0 -0.10652326044E+03  0.24404232838E+02  0.46612572767E+03  0.47876504216E+03  0.00000000000E+00 0.  1.
         16    1    1    2    0    0  0.17778489645E+03 -0.17287633919E+03  0.22790157302E+03  0.33679789940E+03  0.00000000000E+00 0. -1.
    9900018    1    1    2    0    0  0.33586124042E+03 -0.12143713876E+03  0.31317629061E+03  0.48367790820E+03  0.91187600000E+02 0.  0.
<mgrwt>
<rscale>  0 0.15550317E+04</rscale>
<asrwt>0</asrwt>
<pdfrwt beam="1">  1        2 0.23387003E+00 0.15550317E+04</pdfrwt>
<pdfrwt beam="2">  1       -2 0.61181091E-01 0.15550317E+04</pdfrwt>
<totfact> 0.29563627E+01</totfact>
</mgrwt>
</event>
<event>
11    1  0.5973918E-016  0.1367782E+04  0.7818608E-02  0.8977475E-01
         -2   -1    0    0    0  501 -0.00000000000E+00  0.00000000000E+00  0.35285778539E+03  0.35285778539E+03  0.00000000000E+00 0. -1.
          2   -1    0    0  501    0  0.00000000000E+00 -0.00000000000E+00 -0.13254834438E+04  0.13254834438E+04  0.00000000000E+00 0.  1.
    9900016    2    1    2    0    0 -0.15143388458E+03 -0.39931304492E+02 -0.54485318366E+03  0.90677244550E+03  0.70770371321E+03 0.  0.
         24    2    3    3    0    0  0.14723463325E+03  0.23611847200E+03 -0.35419114685E+03  0.45759722922E+03  0.80708646558E+02 0.  0.
        -15    1    4    4    0    0  0.26916657455E+02  0.79495154724E+02 -0.12696417017E+03  0.15219686784E+03  0.00000000000E+00 0.  1.
        -15    1    4    4    0    0  0.13695168738E+02  0.97642112445E+01 -0.16293045527E+02  0.23417104871E+02  0.00000000000E+00 0.  1.
         15    1    4    4    0    0  0.12585262186E+02  0.42161338649E+02 -0.32341969152E+02  0.54607419547E+02  0.00000000000E+00 0. -1.
         15    1    3    3    0    0 -0.29866851782E+03 -0.27604977650E+03 -0.19066203681E+03  0.44917521628E+03  0.00000000000E+00 0. -1.
        -16    1    1    2    0    0  0.15103998696E+03 -0.17935877219E+03 -0.47472529567E+03  0.52947781179E+03  0.00000000000E+00 0.  1.
         16    1    4    4    0    0  0.94037544869E+02  0.10469776739E+03 -0.17859196200E+03  0.22737583696E+03  0.00000000000E+00 0. -1.
    9900018    1    1    2    0    0  0.39389761894E+00  0.21929007668E+03  0.46952820935E+02  0.24209097190E+03  0.91187600000E+02 0.  0.
<mgrwt>
<rscale>  0 0.13677824E+04</rscale>
<asrwt>0</asrwt>
<pdfrwt beam="1">  1        2 0.20392053E+00 0.13677824E+04</pdfrwt>
<pdfrwt beam="2">  1       -2 0.54285812E-01 0.13677824E+04</pdfrwt>
<totfact> 0.49781227E+01</totfact>
</mgrwt>
</event>
<event>
11    1  0.5973918E-016  0.1327867E+04  0.7818608E-02  0.9007753E-01
          2   -1    0    0  501    0  0.00000000000E+00  0.00000000000E+00  0.14527156885E+04  0.14527156885E+04  0.00000000000E+00 0. -1.
         -2   -1    0    0    0  501 -0.00000000000E+00 -0.00000000000E+00 -0.30343718056E+03  0.30343718056E+03  0.00000000000E+00 0.  1.
    9900016    2    1    2    0    0  0.72591691005E+02 -0.18740566666E+03  0.65568878696E+03  0.97326150917E+03  0.69059376074E+03 0.  0.
         24    2    3    3    0    0 -0.13359927096E+03 -0.38941458753E+03  0.47083025569E+03  0.63048608196E+03  0.79618362756E+02 0.  0.
        -15    1    4    4    0    0 -0.10038156552E+02 -0.70964808362E+02  0.89535784578E+02  0.11468838360E+03  0.00000000000E+00 0.  1.
        -15    1    4    4    0    0  0.31257998898E+01 -0.96957306268E+01  0.15808166147E+02  0.18806273801E+02  0.00000000000E+00 0.  1.
         15    1    3    3    0    0  0.20619096197E+03  0.20200892088E+03  0.18485853127E+03  0.34277542720E+03  0.00000000000E+00 0. -1.
         15    1    4    4    0    0 -0.26579168913E+02 -0.44136798028E+02  0.79286527232E+02  0.94556134443E+02  0.00000000000E+00 0. -1.
        -16    1    1    2    0    0  0.31677036299E+02  0.22038743090E+03 -0.43832546160E+02  0.22692586108E+03  0.00000000000E+00 0.  1.
         16    1    4    4    0    0 -0.10010774539E+03 -0.26461725052E+03  0.28619977774E+03  0.40243529012E+03  0.00000000000E+00 0. -1.
    9900018    1    1    2    0    0 -0.10426872730E+03 -0.32981764241E+02  0.53742226709E+03  0.55596549878E+03  0.91187600000E+02 0.  0.
<mgrwt>
<rscale>  0 0.13278674E+04</rscale>
<asrwt>0</asrwt>
<pdfrwt beam="1">  1        2 0.22349472E+00 0.13278674E+04</pdfrwt>
<pdfrwt beam="2">  1       -2 0.46682644E-01 0.13278674E+04</pdfrwt>
<totfact> 0.57441491E+01</totfact>
</mgrwt>
</event>
<event>
11    1  0.5973918E-016  0.2211075E+04  0.7818608E-02  0.8513832E-01
          2   -1    0    0  501    0  0.00000000000E+00  0.00000000000E+00  0.17286640880E+04  0.17286640880E+04  0.00000000000E+00 0. -1.
         -2   -1    0    0    0  501 -0.00000000000E+00 -0.00000000000E+00 -0.70702768535E+03  0.70702768535E+03  0.00000000000E+00 0.  1.
    9900016    2    1    2    0    0 -0.50442585302E+03 -0.57254961437E+03 -0.29209099921E+02  0.10421332218E+04  0.70917556246E+03 0.  0.
        -24    2    3    3    0    0  0.11490578089E+03 -0.11949645642E+03 -0.18277528286E+03  0.25956603030E+03  0.80529364111E+02 0.  0.
        -15    1    3    3    0    0 -0.61933163391E+03 -0.45305315795E+03  0.15356618294E+03  0.78256719152E+03  0.00000000000E+00 0.  1.
        -15    1    4    4    0    0  0.98954123291E+01 -0.10167148040E+02 -0.34343108528E+02  0.37158299044E+02  0.00000000000E+00 0.  1.
         15    1    4    4    0    0  0.30113935038E+02 -0.10231106401E+02 -0.26198845721E+02  0.41205632367E+02  0.00000000000E+00 0. -1.
         15    1    4    4    0    0  0.47724305552E+02 -0.38763186025E+02 -0.32017682057E+02  0.69320457987E+02  0.00000000000E+00 0. -1.
        -16    1    4    4    0    0  0.27172127969E+02 -0.60335015950E+02 -0.90215646556E+02  0.11188164091E+03  0.00000000000E+00 0.  1.
         16    1    1    2    0    0  0.53871393703E+03  0.58319302626E+03  0.10162982500E+04  0.12896468295E+04  0.00000000000E+00 0. -1.
    9900018    1    1    2    0    0 -0.34288084001E+02 -0.10643411897E+02  0.34547252539E+02  0.10391172202E+03  0.91187600000E+02 0.  0.
<mgrwt>
<rscale>  0 0.22110752E+04</rscale>
<asrwt>0</asrwt>
<pdfrwt beam="1">  1        2 0.26594832E+00 0.22110752E+04</pdfrwt>
<pdfrwt beam="2">  1       -2 0.10877349E+00 0.22110752E+04</pdfrwt>
<totfact> 0.58284160E+00</totfact>
</mgrwt>
</event>
<event>
11    1  0.5973918E-016  0.1271568E+04  0.7818608E-02  0.9052421E-01
          2   -1    0    0  501    0  0.00000000000E+00  0.00000000000E+00  0.52699336634E+03  0.52699336634E+03  0.00000000000E+00 0. -1.
         -2   -1    0    0    0  501 -0.00000000000E+00 -0.00000000000E+00 -0.76703263721E+03  0.76703263721E+03  0.00000000000E+00 0.  1.
    9900016    2    1    2    0    0 -0.16865060218E+03  0.83534484362E+02 -0.16597681919E+03  0.72171060191E+03  0.67668076130E+03 0.  0.
         24    2    3    3    0    0  0.11358424218E+03 -0.16573090014E+02  0.20280935237E+03  0.24665136966E+03  0.80803572702E+02 0.  0.
        -15    1    4    4    0    0  0.13172336738E+02  0.50511527934E+01  0.44190548302E+02  0.46387812612E+02  0.00000000000E+00 0.  1.
        -15    1    4    4    0    0  0.41583801501E+02 -0.29272766475E+02  0.10135649986E+03  0.11339862198E+03  0.00000000000E+00 0.  1.
         15    1    4    4    0    0  0.35473851459E+02 -0.89686202909E+01  0.34040911995E+02  0.49976134071E+02  0.00000000000E+00 0. -1.
         15    1    3    3    0    0 -0.28223484435E+03  0.10010757438E+03 -0.36878617156E+03  0.47505923225E+03  0.00000000000E+00 0. -1.
        -16    1    1    2    0    0  0.25898493392E+03  0.14855809736E+03 -0.65656071998E+01  0.29863993619E+03  0.00000000000E+00 0.  1.
         16    1    4    4    0    0  0.23354252476E+02  0.16617143959E+02  0.23221392222E+02  0.36888800995E+02  0.00000000000E+00 0. -1.
    9900018    1    1    2    0    0 -0.90334331742E+02 -0.23209258172E+03 -0.67496844475E+02  0.27367546545E+03  0.91187600000E+02 0.  0.
<mgrwt>
<rscale>  0 0.12715677E+04</rscale>
<asrwt>0</asrwt>
<pdfrwt beam="1">  1        2 0.81075903E-01 0.12715677E+04</pdfrwt>
<pdfrwt beam="2">  1       -2 0.11800502E+00 0.12715677E+04</pdfrwt>
<totfact> 0.31469855E+01</totfact>
</mgrwt>
</event>
<event>
11    1  0.5973918E-016  0.1481021E+04  0.7818608E-02  0.8897173E-01
          1   -1    0    0  501    0  0.00000000000E+00  0.00000000000E+00  0.37622810050E+03  0.37622810050E+03  0.00000000000E+00 0. -1.
         -1   -1    0    0    0  501 -0.00000000000E+00 -0.00000000000E+00 -0.14575087357E+04  0.14575087357E+04  0.00000000000E+00 0.  1.
    9900016    2    1    2    0    0 -0.50267666101E+02  0.12091049797E+03 -0.12414257096E+03  0.73682968854E+03  0.71439514641E+03 0.  0.
         24    2    3    3    0    0  0.15703984515E+03  0.81789796934E+02  0.24404577471E+03  0.31248373138E+03  0.82077148941E+02 0.  0.
        -15    1    4    4    0    0  0.36162777773E+02  0.41316546911E+02  0.11897873318E+03  0.13103717981E+03  0.00000000000E+00 0.  1.
        -15    1    4    4    0    0  0.12440613014E+02  0.59928444607E+01  0.61383460119E+01  0.15111662009E+02  0.00000000000E+00 0. -1.
         15    1    3    3    0    0 -0.20730751125E+03  0.39120701033E+02 -0.36818834567E+03  0.42434595716E+03  0.00000000000E+00 0. -1.
         15    1    4    4    0    0  0.61347977135E+02  0.31647822100E+02  0.67494579775E+02  0.96543654588E+02  0.00000000000E+00 0.  1.
        -16    1    1    2    0    0  0.91981399469E+02 -0.10373730800E+03 -0.98235703591E+03  0.99209241149E+03  0.00000000000E+00 0.  1.
         16    1    4    4    0    0  0.47088477225E+02  0.28325834627E+01  0.51434115746E+02  0.69791234973E+02  0.00000000000E+00 0. -1.
    9900018    1    1    2    0    0 -0.41713733368E+02 -0.17173189967E+02  0.25218971633E+02  0.10481473622E+03  0.91187600000E+02 0.  0.
<mgrwt>
<rscale>  0 0.14810209E+04</rscale>
<asrwt>0</asrwt>
<pdfrwt beam="1">  1        1 0.57881247E-01 0.14810209E+04</pdfrwt>
<pdfrwt beam="2">  1       -1 0.22423211E+00 0.14810209E+04</pdfrwt>
<totfact> 0.65030098E+00</totfact>
</mgrwt>
</event>
<event>
11    1  0.5973918E-016  0.1454764E+04  0.7818608E-02  0.8915105E-01
          2   -1    0    0  501    0  0.00000000000E+00  0.00000000000E+00  0.57921171307E+03  0.57921171307E+03  0.00000000000E+00 0. -1.
         -2   -1    0    0    0  501 -0.00000000000E+00 -0.00000000000E+00 -0.91345587823E+03  0.91345587823E+03  0.00000000000E+00 0.  1.
    9900016    2    1    2    0    0 -0.30021760651E+03 -0.20584164675E+03  0.34607018699E+02  0.80304455237E+03  0.71496958855E+03 0.  0.
         24    2    3    3    0    0 -0.17856954959E+03  0.24711015255E+03  0.96789785846E+02  0.32993750447E+03  0.80870159371E+02 0.  0.
        -15    1    4    4    0    0 -0.10909493352E+02  0.16860878136E+01  0.93948074183E+00  0.11078924198E+02  0.00000000000E+00 0. -1.
        -15    1    4    4    0    0 -0.27331756238E+00  0.19833382528E+02  0.41013699649E+01  0.20254851285E+02  0.00000000000E+00 0.  1.
         15    1    3    3    0    0 -0.12164805692E+03 -0.45295179930E+03 -0.62182767147E+02  0.47310704790E+03  0.00000000000E+00 0. -1.
         15    1    4    4    0    0 -0.72936215758E+02  0.74251365827E+02  0.49610640361E+02  0.11530035791E+03  0.00000000000E+00 0.  1.
        -16    1    1    2    0    0 -0.69850418082E+02  0.15895517325E+03 -0.21397796562E+03  0.27555833825E+03  0.00000000000E+00 0.  1.
         16    1    4    4    0    0 -0.94450522918E+02  0.15133931638E+03  0.42138294778E+02  0.18330337108E+03  0.00000000000E+00 0. -1.
    9900018    1    1    2    0    0  0.37006802459E+03  0.46886473498E+02 -0.15487321824E+03  0.41406470068E+03  0.91187600000E+02 0.  0.
<mgrwt>
<rscale>  0 0.14547637E+04</rscale>
<asrwt>0</asrwt>
<pdfrwt beam="1">  1        2 0.89109494E-01 0.14547637E+04</pdfrwt>
<pdfrwt beam="2">  1       -2 0.14053167E+00 0.14547637E+04</pdfrwt>
<totfact> 0.17831253E+01</totfact>
</mgrwt>
</event>
<event>
11    1  0.5973918E-016  0.2130178E+04  0.7818608E-02  0.8548065E-01
         -2   -1    0    0    0  501 -0.00000000000E+00  0.00000000000E+00  0.67035142178E+03  0.67035142178E+03  0.00000000000E+00 0.  1.
          2   -1    0    0  501    0  0.00000000000E+00 -0.00000000000E+00 -0.16922685037E+04  0.16922685037E+04  0.00000000000E+00 0. -1.
    9900016    2    1    2    0    0  0.38839617931E+03 -0.14809688121E+03 -0.27277711273E+03  0.86433250846E+03  0.70702125401E+03 0.  0.
        -24    2    3    3    0    0 -0.14707778623E+03 -0.10578216452E+03 -0.26034873310E+03  0.32704546447E+03  0.79721587223E+02 0.  0.
        -15    1    3    3    0    0  0.53547396554E+03 -0.42314716688E+02 -0.12428379627E+02  0.53728704399E+03  0.00000000000E+00 0.  1.
        -15    1    4    4    0    0 -0.28678926464E+02 -0.24031690113E+02 -0.65858754298E+02  0.75745484819E+02  0.00000000000E+00 0. -1.
         15    1    4    4    0    0 -0.21060918852E+02  0.90670324988E+01 -0.37008326432E+02  0.43536072475E+02  0.00000000000E+00 0. -1.
         15    1    4    4    0    0 -0.41470983822E+02 -0.23789628305E+02 -0.47790507952E+02  0.67599715712E+02  0.00000000000E+00 0.  1.
        -16    1    4    4    0    0 -0.55866957093E+02 -0.67027878601E+02 -0.10969114442E+03  0.14016419146E+03  0.00000000000E+00 0.  1.
         16    1    1    2    0    0 -0.73962238098E+03  0.31275393082E+03 -0.75146743330E+03  0.10997997959E+04  0.00000000000E+00 0. -1.
    9900018    1    1    2    0    0  0.35122620167E+03 -0.16465704961E+03  0.23274641124E+01  0.39848762115E+03  0.91187600000E+02 0.  0.
<mgrwt>
<rscale>  0 0.21301780E+04</rscale>
<asrwt>0</asrwt>
<pdfrwt beam="1">  1        2 0.26034900E+00 0.21301780E+04</pdfrwt>
<pdfrwt beam="2">  1       -2 0.10313099E+00 0.21301780E+04</pdfrwt>
<totfact> 0.69880397E+00</totfact>
</mgrwt>
</event>
<event>
11    1  0.5973918E-016  0.1401627E+04  0.7818608E-02  0.8952641E-01
          2   -1    0    0  501    0  0.00000000000E+00  0.00000000000E+00  0.23759607418E+04  0.23759607418E+04  0.00000000000E+00 0. -1.
         -2   -1    0    0    0  501 -0.00000000000E+00 -0.00000000000E+00 -0.20671208876E+03  0.20671208876E+03  0.00000000000E+00 0.  1.
    9900016    2    1    2    0    0  0.20312897550E+03  0.11936435927E+03  0.11749724816E+04  0.13896517685E+04  0.70360676090E+03 0.  0.
         24    2    3    3    0    0  0.72261859429E+02 -0.48934397221E+02 -0.64759607196E+02  0.13172238823E+03  0.74435403391E+02 0.  0.
        -15    1    4    4    0    0  0.27571432577E+02 -0.72077571067E+01 -0.96673159391E+01  0.30093066549E+02  0.00000000000E+00 0.  1.
        -15    1    4    4    0    0  0.17252859478E+02 -0.91258834844E+01 -0.17801211803E+02  0.26416397392E+02  0.00000000000E+00 0. -1.
         15    1    3    3    0    0  0.13086711607E+03  0.16829875649E+03  0.12397320888E+04  0.12579293802E+04  0.00000000000E+00 0. -1.
         15    1    4    4    0    0  0.16022415819E+02  0.10042569716E+02 -0.26400816954E+01  0.19092958036E+02  0.00000000000E+00 0.  1.
        -16    1    1    2    0    0 -0.12609492583E+03 -0.12444718412E+03 -0.13976087182E+02  0.17771427339E+03  0.00000000000E+00 0.  1.
         16    1    4    4    0    0  0.11415151555E+02 -0.42643326346E+02 -0.34650997759E+02  0.56119966256E+02  0.00000000000E+00 0. -1.
    9900018    1    1    2    0    0 -0.77034049670E+02  0.50828248483E+01  0.10082522585E+04  0.10153067887E+04  0.91187600000E+02 0.  0.
<mgrwt>
<rscale>  0 0.14016274E+04</rscale>
<asrwt>0</asrwt>
<pdfrwt beam="1">  1        2 0.36553240E+00 0.14016274E+04</pdfrwt>
<pdfrwt beam="2">  1       -2 0.31801862E-01 0.14016274E+04</pdfrwt>
<totfact> 0.36803508E+01</totfact>
</mgrwt>
</event>
<event>
11    1  0.5973918E-016  0.1430879E+04  0.7818608E-02  0.8931765E-01
          1   -1    0    0  501    0  0.00000000000E+00  0.00000000000E+00  0.15101095976E+04  0.15101095976E+04  0.00000000000E+00 0. -1.
         -1   -1    0    0    0  501 -0.00000000000E+00 -0.00000000000E+00 -0.33895119993E+03  0.33895119993E+03  0.00000000000E+00 0.  1.
    9900016    2    1    2    0    0 -0.82646309807E+02  0.26646263831E+03  0.85192667201E+03  0.11349288809E+04  0.69602568916E+03 0.  0.
         24    2    3    3    0    0  0.18408157196E+03  0.25758589777E+03  0.10667327891E+03  0.34333227945E+03  0.79128666205E+02 0.  0.
        -15    1    4    4    0    0  0.36006595530E+02  0.90694997489E+02  0.20490724712E+02  0.99709213668E+02  0.00000000000E+00 0.  1.
        -15    1    4    4    0    0  0.16146146108E+02  0.64492190879E+01  0.35199651126E+01  0.17739239425E+02  0.00000000000E+00 0. -1.
         15    1    3    3    0    0 -0.26672788176E+03  0.88767405477E+01  0.74525339309E+03  0.79159660140E+03  0.00000000000E+00 0. -1.
         15    1    4    4    0    0  0.52707271953E+02  0.73990078867E+02  0.52029752123E+02  0.10468850650E+03  0.00000000000E+00 0.  1.
        -16    1    1    2    0    0 -0.78416453942E+02 -0.35199935047E+02 -0.14199338369E+03  0.16598282046E+03  0.00000000000E+00 0.  1.
         16    1    4    4    0    0  0.79221558365E+02  0.86451602323E+02  0.30632836968E+02  0.12119531986E+03  0.00000000000E+00 0. -1.
    9900018    1    1    2    0    0  0.16106276375E+03 -0.23126270327E+03  0.46122510939E+03  0.54814909624E+03  0.91187600000E+02 0.  0.
<mgrwt>
<rscale>  0 0.14308787E+04</rscale>
<asrwt>0</asrwt>
<pdfrwt beam="1">  1        1 0.23232455E+00 0.14308787E+04</pdfrwt>
<pdfrwt beam="2">  1       -1 0.52146340E-01 0.14308787E+04</pdfrwt>
<totfact> 0.23186902E+01</totfact>
</mgrwt>
</event>
<event>
11    1  0.5973918E-016  0.1631120E+04  0.7818608E-02  0.8801655E-01
          1   -1    0    0  501    0  0.00000000000E+00  0.00000000000E+00  0.22514092061E+04  0.22514092061E+04  0.00000000000E+00 0. -1.
         -1   -1    0    0    0  501 -0.00000000000E+00 -0.00000000000E+00 -0.29543180991E+03  0.29543180991E+03  0.00000000000E+00 0.  1.
    9900016    2    1    2    0    0 -0.89206584260E+00 -0.88178121168E+02  0.65275092189E+03  0.96583721086E+03  0.70638627890E+03 0.  0.
        -24    2    3    3    0    0 -0.20032850347E+03 -0.12469842912E+03  0.71162808788E+03  0.75470894126E+03  0.86543879210E+02 0.  0.
        -15    1    4    4    0    0 -0.12375810991E+02 -0.15475005735E+01  0.50465922459E+02  0.51984274404E+02  0.00000000000E+00 0.  1.
        -15    1    3    3    0    0  0.19943643763E+03  0.36520307950E+02 -0.58877165997E+02  0.21112826959E+03  0.00000000000E+00 0.  1.
         15    1    4    4    0    0 -0.29956732439E+02 -0.21326692377E+02  0.87151104805E+02  0.94591483205E+02  0.00000000000E+00 0. -1.
         15    1    4    4    0    0 -0.77328277329E+02 -0.52786399148E+02  0.39282458307E+03  0.40382820539E+03  0.00000000000E+00 0. -1.
        -16    1    4    4    0    0 -0.80667682711E+02 -0.49037837020E+02  0.18118647756E+03  0.20430497826E+03  0.00000000000E+00 0.  1.
         16    1    1    2    0    0  0.10404117168E+03 -0.35140208245E+03  0.88875124535E+03  0.96134632940E+03  0.00000000000E+00 0. -1.
    9900018    1    1    2    0    0 -0.10314910584E+03  0.43958020362E+03  0.41447522898E+03  0.61965747577E+03  0.91187600000E+02 0.  0.
<mgrwt>
<rscale>  0 0.16311197E+04</rscale>
<asrwt>0</asrwt>
<pdfrwt beam="1">  1        1 0.34637064E+00 0.16311197E+04</pdfrwt>
<pdfrwt beam="2">  1       -1 0.45451049E-01 0.16311197E+04</pdfrwt>
<totfact> 0.92530016E+00</totfact>
</mgrwt>
</event>
<event>
11    1  0.5973918E-016  0.1479040E+04  0.7818608E-02  0.8898512E-01
         -1   -1    0    0    0  501 -0.00000000000E+00  0.00000000000E+00  0.46685849899E+03  0.46685849899E+03  0.00000000000E+00 0.  1.
          1   -1    0    0  501    0  0.00000000000E+00 -0.00000000000E+00 -0.11714257682E+04  0.11714257682E+04  0.00000000000E+00 0. -1.
    9900016    2    1    2    0    0  0.76990959830E+02 -0.26366440033E+03 -0.47413613706E+03  0.93330510262E+03  0.75551758035E+03 0.  0.
        -24    2    3    3    0    0 -0.37203393501E+02 -0.37343789215E+03 -0.61272888991E+03  0.72283296437E+03  0.78808946676E+02 0.  0.
        -15    1    3    3    0    0  0.11419435333E+03  0.10977349182E+03  0.13859275285E+03  0.21047213825E+03  0.00000000000E+00 0.  1.
        -15    1    4    4    0    0 -0.96465867035E+01 -0.13806198435E+02 -0.18397752890E+02  0.24942835878E+02  0.00000000000E+00 0.  1.
         15    1    4    4    0    0  0.15874751911E+02 -0.41814163289E+02 -0.81419909333E+02  0.92895821411E+02  0.00000000000E+00 0. -1.
         15    1    4    4    0    0 -0.34939444766E+02 -0.26499562417E+03 -0.42318671337E+03  0.50053015893E+03  0.00000000000E+00 0. -1.
        -16    1    4    4    0    0 -0.84921139425E+01 -0.52821906251E+02 -0.89724514313E+02  0.10446414815E+03  0.00000000000E+00 0.  1.
         16    1    1    2    0    0  0.20929409309E+03  0.27250759175E+03 -0.32634264916E+02  0.34515127149E+03  0.00000000000E+00 0. -1.
    9900018    1    1    2    0    0 -0.28628505292E+03 -0.88431914233E+01 -0.19779686724E+03  0.35982789308E+03  0.91187600000E+02 0.  0.
<mgrwt>
<rscale>  0 0.14790403E+04</rscale>
<asrwt>0</asrwt>
<pdfrwt beam="1">  1        1 0.18021935E+00 0.14790403E+04</pdfrwt>
<pdfrwt beam="2">  1       -1 0.71824385E-01 0.14790403E+04</pdfrwt>
<totfact> 0.21263710E+01</totfact>
</mgrwt>
</event>
<event>
11    1  0.5973918E-016  0.1591949E+04  0.7818608E-02  0.8825509E-01
         -2   -1    0    0    0  501 -0.00000000000E+00  0.00000000000E+00  0.86488102552E+03  0.86488102552E+03  0.00000000000E+00 0.  1.
          2   -1    0    0  501    0  0.00000000000E+00 -0.00000000000E+00 -0.73255788508E+03  0.73255788508E+03  0.00000000000E+00 0. -1.
    9900016    2    1    2    0    0 -0.17345313550E+03  0.15259733757E+03 -0.40960172852E+03  0.84671970203E+03  0.70412267408E+03 0.  0.
         24    2    3    3    0    0  0.13627788489E+03 -0.98366714051E+02 -0.40756291095E+03  0.44807146488E+03  0.80080203032E+02 0.  0.
        -15    1    4    4    0    0  0.24563952288E+02  0.55059985958E+00 -0.29862327777E+02  0.38671042557E+02  0.00000000000E+00 0.  1.
        -15    1    4    4    0    0  0.13106947917E+02 -0.12427787970E+02 -0.66243321258E+02  0.68661631271E+02  0.00000000000E+00 0.  1.
         15    1    3    3    0    0 -0.30973102039E+03  0.25096405163E+03 -0.20388175691E+01  0.39864823714E+03  0.00000000000E+00 0. -1.
         15    1    4    4    0    0  0.46522212216E+02 -0.48331859253E+02 -0.10664030259E+03  0.12598586820E+03  0.00000000000E+00 0. -1.
        -16    1    1    2    0    0  0.18813037158E+03 -0.20073150858E+03  0.57829571504E+03  0.64039996041E+03  0.00000000000E+00 0.  1.
         16    1    4    4    0    0  0.52084772474E+02 -0.38157666687E+02 -0.20481695932E+03  0.21475292286E+03  0.00000000000E+00 0. -1.
    9900018    1    1    2    0    0 -0.14677236081E+02  0.48134171009E+02 -0.36370846083E+02  0.11031924817E+03  0.91187600000E+02 0.  0.
<mgrwt>
<rscale>  0 0.15919490E+04</rscale>
<asrwt>0</asrwt>
<pdfrwt beam="1">  1        2 0.11270121E+00 0.15919490E+04</pdfrwt>
<pdfrwt beam="2">  1       -2 0.13305862E+00 0.15919490E+04</pdfrwt>
<totfact> 0.15181038E+01</totfact>
</mgrwt>
</event>
<event>
11    1  0.5973918E-016  0.1524414E+04  0.7818608E-02  0.8868378E-01
          1   -1    0    0  501    0  0.00000000000E+00  0.00000000000E+00  0.31843593996E+04  0.31843593996E+04  0.00000000000E+00 0. -1.
         -1   -1    0    0    0  501 -0.00000000000E+00 -0.00000000000E+00 -0.18244153127E+03  0.18244153127E+03  0.00000000000E+00 0.  1.
    9900016    2    1    2    0    0  0.89802251880E+02 -0.16463493846E+03  0.16015804663E+04  0.17697921035E+04  0.72933873633E+03 0.  0.
         24    2    3    3    0    0  0.22882730064E+03  0.12989647943E+03  0.12906646392E+04  0.13195195507E+04  0.77984644901E+02 0.  0.
        -15    1    4    4    0    0  0.14130436641E+02  0.16736200518E+02  0.62403632288E+02  0.66136094307E+02  0.00000000000E+00 0.  1.
        -15    1    4    4    0    0  0.37437076192E+02  0.45221459948E+02  0.28765107599E+03  0.29358074976E+03  0.00000000000E+00 0.  1.
         15    1    4    4    0    0  0.15450352931E+02  0.95520014352E+01  0.67067636401E+02  0.69483969299E+02  0.00000000000E+00 0. -1.
         15    1    3    3    0    0 -0.13902504876E+03 -0.29453141789E+03  0.31091582701E+03  0.45027255279E+03  0.00000000000E+00 0. -1.
        -16    1    1    2    0    0 -0.42426420302E+02  0.29171473671E+03  0.14039109481E+03  0.32650750108E+03  0.00000000000E+00 0.  1.
         16    1    4    4    0    0  0.16180943487E+03  0.58386817526E+02  0.87354229457E+03  0.89031873735E+03  0.00000000000E+00 0. -1.
    9900018    1    1    2    0    0 -0.47375831578E+02 -0.12707979826E+03  0.12599463072E+04  0.12705013262E+04  0.91187600000E+02 0.  0.
<mgrwt>
<rscale>  0 0.15244139E+04</rscale>
<asrwt>0</asrwt>
<pdfrwt beam="1">  1        1 0.48990140E+00 0.15244139E+04</pdfrwt>
<pdfrwt beam="2">  1       -1 0.28067930E-01 0.15244139E+04</pdfrwt>
<totfact> 0.48706539E+00</totfact>
</mgrwt>
</event>
<event>
11    1  0.5973918E-016  0.1510419E+04  0.7818608E-02  0.8877554E-01
         -1   -1    0    0    0  501 -0.00000000000E+00  0.00000000000E+00  0.63552755260E+03  0.63552755260E+03  0.00000000000E+00 0.  1.
          1   -1    0    0  501    0  0.00000000000E+00 -0.00000000000E+00 -0.89742966401E+03  0.89742966401E+03  0.00000000000E+00 0. -1.
    9900016    2    1    2    0    0 -0.29172026402E+03  0.18909667950E+03 -0.72267544972E+02  0.77606122725E+03  0.69006533295E+03 0.  0.
         24    2    3    3    0    0 -0.12336909667E+03  0.23088181803E+03  0.27495684350E+03  0.38792093135E+03  0.79718475155E+02 0.  0.
        -15    1    4    4    0    0 -0.10056577794E+02  0.83445237638E+01  0.10642846059E+02  0.16853367794E+02  0.00000000000E+00 0. -1.
        -15    1    4    4    0    0 -0.21595938916E+02  0.44635622987E+02  0.21557392917E+02  0.54068887602E+02  0.00000000000E+00 0.  1.
         15    1    3    3    0    0 -0.16835116735E+03 -0.41785138523E+02 -0.34722438847E+03  0.38814029590E+03  0.00000000000E+00 0. -1.
         15    1    4    4    0    0 -0.53677044077E+01  0.32525576930E+02  0.25385525108E+02  0.41607094229E+02  0.00000000000E+00 0.  1.
        -16    1    1    2    0    0  0.52278016648E+02  0.89165925089E+02  0.19295035455E+03  0.21889128019E+03  0.00000000000E+00 0.  1.
         16    1    4    4    0    0 -0.86348875551E+02  0.14537609435E+03  0.21737107942E+03  0.27539158172E+03  0.00000000000E+00 0. -1.
    9900018    1    1    2    0    0  0.23944224737E+03 -0.27826260459E+03 -0.38258492098E+03  0.53800470917E+03  0.91187600000E+02 0.  0.
<mgrwt>
<rscale>  0 0.15104189E+04</rscale>
<asrwt>0</asrwt>
<pdfrwt beam="1">  1        1 0.13806610E+00 0.15104189E+04</pdfrwt>
<pdfrwt beam="2">  1       -1 0.97773469E-01 0.15104189E+04</pdfrwt>
<totfact> 0.17738055E+01</totfact>
</mgrwt>
</event>
<event>
11    1  0.5973918E-016  0.1158803E+04  0.7818608E-02  0.9149701E-01
         -2   -1    0    0    0  501 -0.00000000000E+00  0.00000000000E+00  0.60174722141E+03  0.60174722141E+03  0.00000000000E+00 0.  1.
          2   -1    0    0  501    0  0.00000000000E+00 -0.00000000000E+00 -0.55788542142E+03  0.55788542142E+03  0.00000000000E+00 0. -1.
    9900016    2    1    2    0    0  0.91418327136E+02  0.63552994172E+01 -0.72311463768E+02  0.73411326345E+03  0.72477281642E+03 0.  0.
         24    2    3    3    0    0 -0.26782069197E+03  0.71597657051E+01 -0.20889499761E+03  0.34978478191E+03  0.83265168800E+02 0.  0.
        -15    1    4    4    0    0 -0.88078165819E+01 -0.75795424371E+01 -0.20659467682E+02  0.23703179141E+02  0.00000000000E+00 0.  1.
        -15    1    4    4    0    0 -0.20492183608E+02 -0.42515637409E+01 -0.15604408211E+02  0.26105611252E+02  0.00000000000E+00 0. -1.
         15    1    4    4    0    0 -0.38700439727E+02  0.66210357147E+00 -0.55398425908E+02  0.67580677780E+02  0.00000000000E+00 0.  1.
         15    1    3    3    0    0  0.35923901911E+03 -0.80446628792E+00  0.13658353384E+03  0.38432848155E+03  0.00000000000E+00 0. -1.
        -16    1    1    2    0    0 -0.15865440974E+03 -0.68178646764E+02  0.20560174741E+03  0.26849884198E+03  0.00000000000E+00 0.  1.
         16    1    4    4    0    0 -0.19982025205E+03  0.18328768312E+02 -0.11723269581E+03  0.23239531373E+03  0.00000000000E+00 0. -1.
    9900018    1    1    2    0    0  0.67236082602E+02  0.61823347347E+02 -0.89428483656E+02  0.15702053739E+03  0.91187600000E+02 0.  0.
<mgrwt>
<rscale>  0 0.11588028E+04</rscale>
<asrwt>0</asrwt>
<pdfrwt beam="1">  1        2 0.85828527E-01 0.11588028E+04</pdfrwt>
<pdfrwt beam="2">  1       -2 0.92576495E-01 0.11588028E+04</pdfrwt>
<totfact> 0.53030712E+01</totfact>
</mgrwt>
</event>
<event>
11    1  0.5973918E-016  0.1423758E+04  0.7818608E-02  0.8936798E-01
         -1   -1    0    0    0  501 -0.00000000000E+00  0.00000000000E+00  0.34754748985E+03  0.34754748985E+03  0.00000000000E+00 0.  1.
          1   -1    0    0  501    0  0.00000000000E+00 -0.00000000000E+00 -0.14581371250E+04  0.14581371250E+04  0.00000000000E+00 0. -1.
    9900016    2    1    2    0    0 -0.25503027063E+02 -0.37517494818E+03 -0.88729902084E+03  0.12048265406E+04  0.72311879694E+03 0.  0.
         24    2    3    3    0    0 -0.23412463152E+03 -0.19927460882E+03 -0.47590872895E+02  0.32189184488E+03  0.82612080303E+02 0.  0.
        -15    1    4    4    0    0 -0.18779159364E+02 -0.17568163904E+01 -0.91589436053E+01  0.20967343137E+02  0.00000000000E+00 0.  1.
        -15    1    4    4    0    0 -0.41477837277E+02 -0.55457578297E+02 -0.23514296657E+02  0.73136011123E+02  0.00000000000E+00 0.  1.
         15    1    3    3    0    0  0.20862160446E+03 -0.17590033936E+03 -0.83970814795E+03  0.88293469575E+03  0.00000000000E+00 0. -1.
         15    1    4    4    0    0 -0.80755701023E+02 -0.43672662678E+02 -0.78157163056E+01  0.92140491286E+02  0.00000000000E+00 0. -1.
        -16    1    1    2    0    0 -0.76049171363E+02  0.36480989621E+03 -0.43926350820E+02  0.37523227625E+03  0.00000000000E+00 0.  1.
         16    1    4    4    0    0 -0.93111933856E+02 -0.98387551451E+02 -0.71019163273E+01  0.13564799933E+03  0.00000000000E+00 0. -1.
    9900018    1    1    2    0    0  0.10155219843E+03  0.10365051963E+02 -0.17936426351E+03  0.22562579801E+03  0.91187600000E+02 0.  0.
<mgrwt>
<rscale>  0 0.14237583E+04</rscale>
<asrwt>0</asrwt>
<pdfrwt beam="1">  1        1 0.22432878E+00 0.14237583E+04</pdfrwt>
<pdfrwt beam="2">  1       -1 0.53468846E-01 0.14237583E+04</pdfrwt>
<totfact> 0.24024164E+01</totfact>
</mgrwt>
</event>
<event>
11    1  0.5973918E-016  0.1070514E+04  0.7818608E-02  0.9234417E-01
         -2   -1    0    0    0  501 -0.00000000000E+00  0.00000000000E+00  0.46908329170E+03  0.46908329170E+03  0.00000000000E+00 0.  1.
          2   -1    0    0  501    0  0.00000000000E+00 -0.00000000000E+00 -0.61076621281E+03  0.61076621281E+03  0.00000000000E+00 0. -1.
    9900016    2    1    2    0    0 -0.10804186954E+03  0.59335460870E+02 -0.25112468974E+03  0.75321952100E+03  0.69934418889E+03 0.  0.
         24    2    3    3    0    0 -0.30089786665E+03 -0.59071073917E+02 -0.37830856280E+03  0.49362506677E+03  0.80742924893E+02 0.  0.
        -15    1    4    4    0    0 -0.15356256972E+03 -0.16973246428E+02 -0.17481899789E+03  0.23330502768E+03  0.00000000000E+00 0.  1.
        -15    1    4    4    0    0 -0.22549887182E+02 -0.16477921946E+02 -0.18807979602E+02  0.33671344201E+02  0.00000000000E+00 0.  1.
         15    1    4    4    0    0 -0.27703585462E+02  0.76812918937E+01 -0.39787393352E+02  0.49086938817E+02  0.00000000000E+00 0. -1.
         15    1    3    3    0    0  0.19285599711E+03  0.11840653479E+03  0.12718387306E+03  0.25959445423E+03  0.00000000000E+00 0. -1.
        -16    1    1    2    0    0 -0.58720365202E+02 -0.94967276672E+02  0.61197310527E+02  0.12732625709E+03  0.00000000000E+00 0.  1.
         16    1    4    4    0    0 -0.97081824282E+02 -0.33301197436E+02 -0.14489419196E+03  0.17756175607E+03  0.00000000000E+00 0. -1.
    9900018    1    1    2    0    0  0.16676223474E+03  0.35631815802E+02  0.48244458105E+02  0.19930372642E+03  0.91187600000E+02 0.  0.
<mgrwt>
<rscale>  0 0.10705143E+04</rscale>
<asrwt>0</asrwt>
<pdfrwt beam="1">  1        2 0.93964033E-01 0.10705143E+04</pdfrwt>
<pdfrwt beam="2">  1       -2 0.72166660E-01 0.10705143E+04</pdfrwt>
<totfact> 0.83987048E+01</totfact>
</mgrwt>
</event>
<event>
11    1  0.5973918E-016  0.1945208E+04  0.7818608E-02  0.8632675E-01
          1   -1    0    0  501    0  0.00000000000E+00  0.00000000000E+00  0.11543354977E+04  0.11543354977E+04  0.00000000000E+00 0. -1.
         -1   -1    0    0    0  501 -0.00000000000E+00 -0.00000000000E+00 -0.81948331243E+03  0.81948331243E+03  0.00000000000E+00 0.  1.
    9900016    2    1    2    0    0  0.21445853615E+03 -0.27779995952E+03  0.27686268567E+03  0.83745975932E+03  0.70818120599E+03 0.  0.
         24    2    3    3    0    0  0.30201389474E+03 -0.22387926053E+03 -0.13928049150E+03  0.40880077305E+03  0.79904322942E+02 0.  0.
        -15    1    4    4    0    0  0.31984617156E+02 -0.10764085767E+02 -0.25970452097E+02  0.42583396520E+02  0.00000000000E+00 0.  1.
        -15    1    4    4    0    0  0.17997185948E+02 -0.16162640652E+02 -0.22796220292E+02  0.33238491459E+02  0.00000000000E+00 0. -1.
         15    1    4    4    0    0  0.78863436323E+02 -0.60892708646E+02 -0.37517390559E+02  0.10646557260E+03  0.00000000000E+00 0.  1.
         15    1    3    3    0    0 -0.87555358582E+02 -0.53920698995E+02  0.41614317718E+03  0.42865898627E+03  0.00000000000E+00 0. -1.
        -16    1    1    2    0    0 -0.40057826220E+03  0.20955030722E+03 -0.41612686018E+03  0.61443945118E+03  0.00000000000E+00 0.  1.
         16    1    4    4    0    0  0.17316865531E+03 -0.13605982546E+03 -0.52996428556E+02  0.22651331247E+03  0.00000000000E+00 0. -1.
    9900018    1    1    2    0    0  0.18611972605E+03  0.68249652309E+02  0.47411635975E+03  0.52191959959E+03  0.91187600000E+02 0.  0.
<mgrwt>
<rscale>  0 0.19452081E+04</rscale>
<asrwt>0</asrwt>
<pdfrwt beam="1">  1        1 0.17759008E+00 0.19452081E+04</pdfrwt>
<pdfrwt beam="2">  1       -1 0.12607436E+00 0.19452081E+04</pdfrwt>
<totfact> 0.58957853E+00</totfact>
</mgrwt>
</event>
<event>
11    1  0.5973918E-016  0.2141167E+04  0.7818608E-02  0.8543323E-01
         -1   -1    0    0    0  501 -0.00000000000E+00  0.00000000000E+00  0.13607091490E+04  0.13607091490E+04  0.00000000000E+00 0.  1.
          1   -1    0    0  501    0  0.00000000000E+00 -0.00000000000E+00 -0.84231728555E+03  0.84231728555E+03  0.00000000000E+00 0. -1.
    9900016    2    1    2    0    0 -0.18284870579E+02  0.14175615112E+03  0.30426529787E+03  0.78171226423E+03  0.70573900961E+03 0.  0.
        -24    2    3    3    0    0  0.30992519022E+03 -0.66855584491E+02  0.94330575168E+02  0.33976963443E+03  0.77600607974E+02 0.  0.
        -15    1    4    4    0    0  0.10122360454E+02  0.46134768888E+01  0.73954627811E+01  0.13358114385E+02  0.00000000000E+00 0. -1.
        -15    1    3    3    0    0 -0.32821006080E+03  0.20861173561E+03  0.20993472271E+03  0.44194262981E+03  0.00000000000E+00 0.  1.
         15    1    4    4    0    0  0.37361829769E+02 -0.47269598282E+01  0.11440678154E+02  0.39359110630E+02  0.00000000000E+00 0.  1.
         15    1    4    4    0    0  0.14528499926E+02 -0.10889898992E+02  0.19857796953E+02  0.26907235272E+02  0.00000000000E+00 0. -1.
        -16    1    4    4    0    0  0.24791250007E+03 -0.55852202560E+02  0.55636637281E+02  0.26014517414E+03  0.00000000000E+00 0.  1.
         16    1    1    2    0    0  0.18783949879E+03 -0.25412992943E+03 -0.54507786893E+03  0.63005998249E+03  0.00000000000E+00 0. -1.
    9900018    1    1    2    0    0 -0.16955462821E+03  0.11237377831E+03  0.75920443451E+03  0.79125418784E+03  0.91187600000E+02 0.  0.
<mgrwt>
<rscale>  0 0.21411668E+04</rscale>
<asrwt>0</asrwt>
<pdfrwt beam="1">  1        1 0.12958727E+00 0.21411668E+04</pdfrwt>
<pdfrwt beam="2">  1       -1 0.20933987E+00 0.21411668E+04</pdfrwt>
<totfact> 0.24197779E+00</totfact>
</mgrwt>
</event>
<event>
11    1  0.5973918E-016  0.2686797E+04  0.7818608E-02  0.8339302E-01
          2   -1    0    0  501    0  0.00000000000E+00  0.00000000000E+00  0.81827115142E+03  0.81827115142E+03  0.00000000000E+00 0. -1.
         -2   -1    0    0    0  501 -0.00000000000E+00 -0.00000000000E+00 -0.22055277628E+04  0.22055277628E+04  0.00000000000E+00 0.  1.
    9900016    2    1    2    0    0  0.33185910578E+02  0.67061176275E+02 -0.35301824639E+03  0.79516437680E+03  0.70856615627E+03 0.  0.
         24    2    3    3    0    0 -0.14815935047E+03 -0.25611596304E+03 -0.28304208364E+03  0.41803544602E+03  0.84227272087E+02 0.  0.
        -15    1    4    4    0    0  0.16214222105E+01 -0.28158554392E+02 -0.43576164607E+02  0.51907757775E+02  0.00000000000E+00 0.  1.
        -15    1    4    4    0    0 -0.13597229657E+02 -0.38005917757E+02 -0.37298124588E+02  0.54958935003E+02  0.00000000000E+00 0.  1.
         15    1    3    3    0    0  0.18134526104E+03  0.32317713931E+03 -0.69976162756E+02  0.37712893078E+03  0.00000000000E+00 0. -1.
         15    1    4    4    0    0 -0.19375790874E+02 -0.19717709110E+02 -0.10849614209E+02  0.29697196046E+02  0.00000000000E+00 0. -1.
        -16    1    1    2    0    0  0.89777077972E+03 -0.20410421966E+03 -0.87456402807E+03  0.12698476856E+04  0.00000000000E+00 0.  1.
         16    1    4    4    0    0 -0.11680775215E+03 -0.17023378178E+03 -0.19131818023E+03  0.28147155719E+03  0.00000000000E+00 0. -1.
    9900018    1    1    2    0    0 -0.93095669030E+03  0.13704304338E+03 -0.15967433690E+03  0.95878685181E+03  0.91187600000E+02 0.  0.
<mgrwt>
<rscale>  0 0.26867972E+04</rscale>
<asrwt>0</asrwt>
<pdfrwt beam="1">  1        2 0.12588787E+00 0.26867972E+04</pdfrwt>
<pdfrwt beam="2">  1       -2 0.33931196E+00 0.26867972E+04</pdfrwt>
<totfact> 0.53307400E-01</totfact>
</mgrwt>
</event>
<event>
11    1  0.5973918E-016  0.1357739E+04  0.7818608E-02  0.8984990E-01
          2   -1    0    0  501    0  0.00000000000E+00  0.00000000000E+00  0.11060594544E+04  0.11060594544E+04  0.00000000000E+00 0.  1.
         -2   -1    0    0    0  501 -0.00000000000E+00 -0.00000000000E+00 -0.41667176001E+03  0.41667176001E+03  0.00000000000E+00 0. -1.
    9900016    2    1    2    0    0 -0.75614412374E+02 -0.37367189793E+03  0.29259911112E+03  0.85389409354E+03  0.70581347146E+03 0.  0.
         24    2    3    3    0    0  0.84455264747E+02 -0.26338027545E+03 -0.18247295533E+03  0.34059105260E+03  0.78765629840E+02 0.  0.
        -15    1    4    4    0    0  0.27565957577E+02 -0.30331444783E+02 -0.30559801240E+02  0.51125140700E+02  0.00000000000E+00 0.  1.
        -15    1    4    4    0    0  0.94168685494E+01 -0.22932425533E+02 -0.34852672726E+02  0.42770110477E+02  0.00000000000E+00 0.  1.
         15    1    3    3    0    0 -0.16006967712E+03 -0.11029162248E+03  0.47507206645E+03  0.51330304094E+03  0.00000000000E+00 0. -1.
         15    1    4    4    0    0  0.19110742806E+02 -0.65502978321E+02 -0.51058805815E+02  0.85222428449E+02  0.00000000000E+00 0. -1.
        -16    1    1    2    0    0  0.90125135897E+01  0.26894876890E+03  0.43376197073E+03  0.51045480989E+03  0.00000000000E+00 0.  1.
         16    1    4    4    0    0  0.28361695815E+02 -0.14461342681E+03 -0.66001675549E+02  0.16147337297E+03  0.00000000000E+00 0. -1.
    9900018    1    1    2    0    0  0.66601898784E+02  0.10472312903E+03 -0.36973387408E+02  0.15838231102E+03  0.91187600000E+02 0.  0.
<mgrwt>
<rscale>  0 0.13577389E+04</rscale>
<asrwt>0</asrwt>
<pdfrwt beam="1">  1        2 0.17016299E+00 0.13577389E+04</pdfrwt>
<pdfrwt beam="2">  1       -2 0.64103348E-01 0.13577389E+04</pdfrwt>
<totfact> 0.47434294E+01</totfact>
</mgrwt>
</event>
<event>
11    1  0.5973918E-016  0.1163699E+04  0.7818608E-02  0.9145238E-01
         -2   -1    0    0    0  501 -0.00000000000E+00  0.00000000000E+00  0.36817151667E+03  0.36817151667E+03  0.00000000000E+00 0.  1.
          2   -1    0    0  501    0  0.00000000000E+00 -0.00000000000E+00 -0.91954166681E+03  0.91954166681E+03  0.00000000000E+00 0. -1.
    9900016    2    1    2    0    0  0.24000912783E+03 -0.85440544507E+01 -0.34810329511E+03  0.82952765147E+03  0.71362653971E+03 0.  0.
         24    2    3    3    0    0  0.30357548627E+03  0.46732475266E+02  0.13068870433E+03  0.34338162876E+03  0.80556845888E+02 0.  0.
        -15    1    4    4    0    0  0.45358102638E+02 -0.24210327376E+01  0.24026644253E+01  0.45486170105E+02  0.00000000000E+00 0. -1.
        -15    1    4    4    0    0  0.41571864226E+01  0.11154428210E+02  0.53110764968E+01  0.13034991416E+02  0.00000000000E+00 0.  1.
         15    1    3    3    0    0 -0.63566358442E+02 -0.55276529716E+02 -0.47879199945E+03  0.48614602271E+03  0.00000000000E+00 0. -1.
         15    1    4    4    0    0  0.18103975754E+03  0.26177177330E+02  0.84884957887E+02  0.20165836084E+03  0.00000000000E+00 0.  1.
        -16    1    1    2    0    0 -0.27834829943E+03  0.35956952963E+02 -0.21680653594E+03  0.35464877314E+03  0.00000000000E+00 0.  1.
         16    1    4    4    0    0  0.73020439672E+02  0.11821902463E+02  0.38090005525E+02  0.83202106395E+02  0.00000000000E+00 0. -1.
    9900018    1    1    2    0    0  0.38339171604E+02 -0.27412898513E+02  0.13539680912E+02  0.10353675887E+03  0.91187600000E+02 0.  0.
<mgrwt>
<rscale>  0 0.11636994E+04</rscale>
<asrwt>0</asrwt>
<pdfrwt beam="1">  1        2 0.14146795E+00 0.11636994E+04</pdfrwt>
<pdfrwt beam="2">  1       -2 0.56641772E-01 0.11636994E+04</pdfrwt>
<totfact> 0.82266282E+01</totfact>
</mgrwt>
</event>
<event>
11    1  0.5973918E-016  0.1290685E+04  0.7818608E-02  0.9036985E-01
          1   -1    0    0  501    0  0.00000000000E+00  0.00000000000E+00  0.20897697746E+04  0.20897697746E+04  0.00000000000E+00 0. -1.
         -1   -1    0    0    0  501 -0.00000000000E+00 -0.00000000000E+00 -0.19928833547E+03  0.19928833547E+03  0.00000000000E+00 0.  1.
    9900016    2    1    2    0    0  0.10532787993E+03  0.22972751014E+03  0.10102444347E+04  0.12509911073E+04  0.69319278807E+03 0.  0.
         24    2    3    3    0    0 -0.71056810422E+02  0.60519202352E+02 -0.71337488098E+02  0.14213472968E+03  0.80009999460E+02 0.  0.
        -15    1    4    4    0    0 -0.42090486369E+01  0.14641705872E+02 -0.23305660253E+02  0.27843301548E+02  0.00000000000E+00 0.  1.
        -15    1    4    4    0    0 -0.47837210233E+02  0.53075547462E+02 -0.36610218124E+02  0.80285244550E+02  0.00000000000E+00 0.  1.
         15    1    4    4    0    0 -0.14518164208E+02 -0.90602194512E+00  0.53813930629E+01  0.15509911638E+02  0.00000000000E+00 0. -1.
         15    1    3    3    0    0  0.17638469035E+03  0.16920830778E+03  0.10815819228E+04  0.11088563776E+04  0.00000000000E+00 0. -1.
        -16    1    1    2    0    0 -0.18375499593E+03 -0.52580009400E+02  0.75784315192E+02  0.20560597839E+03  0.00000000000E+00 0.  1.
         16    1    4    4    0    0 -0.44923873448E+01 -0.62920290369E+01 -0.16803002783E+02  0.18496271948E+02  0.00000000000E+00 0. -1.
    9900018    1    1    2    0    0  0.78427116008E+02 -0.17714750074E+03  0.80445268928E+03  0.83246102445E+03  0.91187600000E+02 0.  0.
<mgrwt>
<rscale>  0 0.12906847E+04</rscale>
<asrwt>0</asrwt>
<pdfrwt beam="1">  1        1 0.32150303E+00 0.12906847E+04</pdfrwt>
<pdfrwt beam="2">  1       -1 0.30659745E-01 0.12906847E+04</pdfrwt>
<totfact> 0.25049225E+01</totfact>
</mgrwt>
</event>
<event>
11    1  0.5973918E-016  0.1773988E+04  0.7818608E-02  0.8720256E-01
          3   -1    0    0  501    0  0.00000000000E+00  0.00000000000E+00  0.98306827645E+03  0.98306827645E+03  0.00000000000E+00 0. -1.
         -3   -1    0    0    0  501 -0.00000000000E+00 -0.00000000000E+00 -0.80030921295E+03  0.80030921295E+03  0.00000000000E+00 0.  1.
    9900016    2    1    2    0    0 -0.12734642072E+03  0.18987941695E+03  0.65992748819E+02  0.74721196735E+03  0.70830740318E+03 0.  0.
        -24    2    3    3    0    0  0.11259120935E+03  0.79110004550E+02  0.33430081902E+03  0.37060985691E+03  0.81605485109E+02 0.  0.
        -15    1    4    4    0    0  0.20456716798E+02  0.25096224170E+02  0.44050843329E+02  0.54669685638E+02  0.00000000000E+00 0. -1.
        -15    1    3    3    0    0 -0.23993763007E+03  0.11076941240E+03 -0.26830807020E+03  0.37660211043E+03  0.00000000000E+00 0.  1.
         15    1    4    4    0    0  0.69065669222E+02  0.54220086534E+02  0.17652195431E+03  0.19715446939E+03  0.00000000000E+00 0.  1.
         15    1    4    4    0    0  0.27995709593E+02  0.33710179472E+01  0.94368440187E+02  0.98491248448E+02  0.00000000000E+00 0. -1.
        -16    1    4    4    0    0 -0.49268862652E+01 -0.35773241017E+01  0.19359581201E+02  0.20294453437E+02  0.00000000000E+00 0.  1.
         16    1    1    2    0    0  0.36902531119E+03 -0.29925452461E+03  0.41203582661E+03  0.62889305387E+03  0.00000000000E+00 0. -1.
    9900018    1    1    2    0    0 -0.24167889047E+03  0.10937510766E+03 -0.29526951193E+03  0.40727246818E+03  0.91187600000E+02 0.  0.
<mgrwt>
<rscale>  0 0.17739883E+04</rscale>
<asrwt>0</asrwt>
<pdfrwt beam="1">  1        3 0.15124127E+00 0.17739883E+04</pdfrwt>
<pdfrwt beam="2">  1       -3 0.12312449E+00 0.17739883E+04</pdfrwt>
<totfact> 0.41609523E-01</totfact>
</mgrwt>
</event>
<event>
11    1  0.5973918E-016  0.1113207E+04  0.7818608E-02  0.9192414E-01
         -1   -1    0    0    0  501 -0.00000000000E+00  0.00000000000E+00  0.37590972118E+03  0.37590972118E+03  0.00000000000E+00 0.  1.
          1   -1    0    0  501    0  0.00000000000E+00 -0.00000000000E+00 -0.82415436518E+03  0.82415436518E+03  0.00000000000E+00 0. -1.
    9900016    2    1    2    0    0  0.12671913979E+03 -0.12492049987E+03 -0.20455125964E+03  0.75795861710E+03  0.70781153970E+03 0.  0.
         24    2    3    3    0    0 -0.99583026704E+02 -0.21757968205E+03  0.17461022641E+03  0.30678035176E+03  0.79798219322E+02 0.  0.
        -15    1    4    4    0    0 -0.41047835820E+02 -0.40460901342E+02  0.48592161484E+02  0.75387051412E+02  0.00000000000E+00 0.  1.
        -15    1    4    4    0    0 -0.20411087480E+00 -0.18424979799E+02  0.60238321300E+01  0.19385770435E+02  0.00000000000E+00 0.  1.
         15    1    3    3    0    0  0.22630216649E+03  0.92659182186E+02 -0.37916148606E+03  0.45117826534E+03  0.00000000000E+00 0. -1.
         15    1    4    4    0    0 -0.59202758115E+02 -0.16084654017E+03  0.11472290052E+03  0.20624723018E+03  0.00000000000E+00 0. -1.
        -16    1    1    2    0    0 -0.61029850057E+02  0.19142261713E+02  0.68578383443E+02  0.93776667979E+02  0.00000000000E+00 0.  1.
         16    1    4    4    0    0  0.87167810562E+00  0.21527392554E+01  0.52713322786E+01  0.57602997329E+01  0.00000000000E+00 0. -1.
    9900018    1    1    2    0    0 -0.65689289730E+02  0.10577823815E+03 -0.31227176780E+03  0.34832880129E+03  0.91187600000E+02 0.  0.
<mgrwt>
<rscale>  0 0.11132073E+04</rscale>
<asrwt>0</asrwt>
<pdfrwt beam="1">  1        1 0.12679298E+00 0.11132073E+04</pdfrwt>
<pdfrwt beam="2">  1       -1 0.57832265E-01 0.11132073E+04</pdfrwt>
<totfact> 0.63535360E+01</totfact>
</mgrwt>
</event>
<event>
11    1  0.5973918E-016  0.1575493E+04  0.7818608E-02  0.8835746E-01
          2   -1    0    0  501    0  0.00000000000E+00  0.00000000000E+00  0.20089847820E+04  0.20089847820E+04  0.00000000000E+00 0. -1.
         -2   -1    0    0    0  501 -0.00000000000E+00 -0.00000000000E+00 -0.30888483317E+03  0.30888483317E+03  0.00000000000E+00 0.  1.
    9900016    2    1    2    0    0  0.23327893099E+03  0.23470652151E+03  0.55956314115E+03  0.96481247965E+03  0.71291374027E+03 0.  0.
        -24    2    3    3    0    0  0.29653249708E+03 -0.18303771181E+03  0.19715903965E+03  0.40817256833E+03  0.79365186644E+02 0.  0.
        -15    1    3    3    0    0 -0.63253566085E+02  0.41774423332E+03  0.36240410150E+03  0.55663991132E+03  0.00000000000E+00 0.  1.
        -15    1    4    4    0    0  0.23143749880E+02 -0.19209380248E+02  0.62594394516E+01  0.30721556443E+02  0.00000000000E+00 0. -1.
         15    1    4    4    0    0  0.59528632283E+01 -0.15347601883E+02  0.93569151790E+01  0.18935081881E+02  0.00000000000E+00 0.  1.
         15    1    4    4    0    0  0.61452838801E+02 -0.13699028768E+02  0.39051063359E+02  0.74088462903E+02  0.00000000000E+00 0. -1.
        -16    1    4    4    0    0  0.20598304517E+03 -0.13478170091E+03  0.14249162166E+03  0.28442746710E+03  0.00000000000E+00 0.  1.
         16    1    1    2    0    0 -0.47719577243E+02 -0.34610978246E+03  0.10408399554E+04  0.10979148202E+04  0.00000000000E+00 0. -1.
    9900018    1    1    2    0    0 -0.18555935375E+03  0.11140326096E+03  0.99696852216E+02  0.25514231529E+03  0.91187600000E+02 0.  0.
<mgrwt>
<rscale>  0 0.15754935E+04</rscale>
<asrwt>0</asrwt>
<pdfrwt beam="1">  1        2 0.30907457E+00 0.15754935E+04</pdfrwt>
<pdfrwt beam="2">  1       -2 0.47520745E-01 0.15754935E+04</pdfrwt>
<totfact> 0.26635480E+01</totfact>
</mgrwt>
</event>
<event>
11    1  0.5973918E-016  0.9946364E+03  0.7818608E-02  0.9314447E-01
          1   -1    0    0  501    0  0.00000000000E+00  0.00000000000E+00  0.92910417340E+03  0.92910417340E+03  0.00000000000E+00 0. -1.
         -1   -1    0    0    0  501 -0.00000000000E+00 -0.00000000000E+00 -0.26619768544E+03  0.26619768544E+03  0.00000000000E+00 0.  1.
    9900016    2    1    2    0    0 -0.17690011554E+03  0.45099557277E+02  0.40637559463E+03  0.83525170286E+03  0.70652435363E+03 0.  0.
         24    2    3    3    0    0 -0.10158038067E+03  0.13394596428E+03 -0.16723225321E+03  0.24993750552E+03  0.79006550772E+02 0.  0.
        -15    1    4    4    0    0  0.11641130742E+01  0.25538461862E+02 -0.41855485731E+02  0.49045385913E+02  0.00000000000E+00 0.  1.
        -15    1    4    4    0    0 -0.10420542539E+02  0.23153509895E+01 -0.83610036614E+01  0.13559311901E+02  0.00000000000E+00 0.  1.
         15    1    4    4    0    0 -0.37775544782E+02  0.71129211062E+02 -0.75420729961E+02  0.11033876453E+03  0.00000000000E+00 0. -1.
         15    1    3    3    0    0 -0.75319734872E+02 -0.88846407002E+02  0.57360784785E+03  0.58531419734E+03  0.00000000000E+00 0. -1.
        -16    1    1    2    0    0  0.74341738820E+02 -0.55714795205E+02  0.35073924751E+02  0.99302632055E+02  0.00000000000E+00 0.  1.
         16    1    4    4    0    0 -0.54548406423E+02  0.34962940365E+02 -0.41595033860E+02  0.76994043173E+02  0.00000000000E+00 0. -1.
    9900018    1    1    2    0    0  0.10255837672E+03  0.10615237928E+02  0.22145696857E+03  0.26074752393E+03  0.91187600000E+02 0.  0.
<mgrwt>
<rscale>  0 0.99463638E+03</rscale>
<asrwt>0</asrwt>
<pdfrwt beam="1">  1        1 0.14293910E+00 0.99463638E+03</pdfrwt>
<pdfrwt beam="2">  1       -1 0.40953491E-01 0.99463638E+03</pdfrwt>
<totfact> 0.10069946E+02</totfact>
</mgrwt>
</event>
<event>
11    1  0.5973918E-016  0.1025909E+04  0.7818608E-02  0.9280576E-01
          2   -1    0    0  501    0  0.00000000000E+00  0.00000000000E+00  0.19556795351E+04  0.19556795351E+04  0.00000000000E+00 0. -1.
         -2   -1    0    0    0  501 -0.00000000000E+00 -0.00000000000E+00 -0.13454267125E+03  0.13454267125E+03  0.00000000000E+00 0.  1.
    9900016    2    1    2    0    0 -0.16108110302E+03 -0.16391409129E+02  0.11431838515E+04  0.13572846148E+04  0.71353795084E+03 0.  0.
        -24    2    3    3    0    0 -0.32493448458E+03  0.20219291605E+03  0.37377523726E+03  0.54081866115E+03  0.79451253543E+02 0.  0.
        -15    1    3    3    0    0  0.16385338156E+03 -0.21858432517E+03  0.76940861422E+03  0.81646595366E+03  0.00000000000E+00 0.  1.
        -15    1    4    4    0    0 -0.70839666300E+02  0.43815834570E+02  0.79025375528E+02  0.11481766266E+03  0.00000000000E+00 0.  1.
         15    1    4    4    0    0 -0.10072852627E+02  0.31159047604E+00  0.22358018541E+02  0.24524282696E+02  0.00000000000E+00 0. -1.
         15    1    4    4    0    0 -0.21001225471E+02  0.33105172941E+02  0.32971853142E+02  0.51226429178E+02  0.00000000000E+00 0. -1.
        -16    1    4    4    0    0 -0.22302074019E+03  0.12496031806E+03  0.23941999005E+03  0.35025028662E+03  0.00000000000E+00 0.  1.
         16    1    1    2    0    0  0.59273226397E+02  0.90062575865E+02  0.40300748210E+03  0.41718055272E+03  0.00000000000E+00 0. -1.
    9900018    1    1    2    0    0  0.10180787662E+03 -0.73671166736E+02  0.27494553030E+03  0.31575703884E+03  0.91187600000E+02 0.  0.
<mgrwt>
<rscale>  0 0.10259091E+04</rscale>
<asrwt>0</asrwt>
<pdfrwt beam="1">  1        2 0.30087375E+00 0.10259091E+04</pdfrwt>
<pdfrwt beam="2">  1       -2 0.20698874E-01 0.10259091E+04</pdfrwt>
<totfact> 0.14222576E+02</totfact>
</mgrwt>
</event>
<event>
11    1  0.5973918E-016  0.1835161E+04  0.7818608E-02  0.8687822E-01
          1   -1    0    0  501    0  0.00000000000E+00  0.00000000000E+00  0.15422849917E+04  0.15422849917E+04  0.00000000000E+00 0. -1.
         -1   -1    0    0    0  501 -0.00000000000E+00 -0.00000000000E+00 -0.54591332208E+03  0.54591332208E+03  0.00000000000E+00 0.  1.
    9900016    2    1    2    0    0  0.17306971483E+03 -0.32920546117E+01  0.22570636341E+03  0.77482073156E+03  0.72072174919E+03 0.  0.
         24    2    3    3    0    0  0.16572813906E+03 -0.30729479692E+03 -0.53145350474E+02  0.36223153586E+03  0.80568908435E+02 0.  0.
        -15    1    4    4    0    0  0.25662021207E+02 -0.39334230883E+02 -0.27545551023E+02  0.54447024095E+02  0.00000000000E+00 0.  1.
        -15    1    4    4    0    0  0.70578924343E+02 -0.89354261140E+02 -0.61824406943E+01  0.11403416645E+03  0.00000000000E+00 0.  1.
         15    1    4    4    0    0  0.42269350092E+01 -0.17746780844E+02  0.37293715463E+01  0.18620510788E+02  0.00000000000E+00 0. -1.
         15    1    3    3    0    0  0.73415757716E+01  0.30400274231E+03  0.27885171389E+03  0.41258919570E+03  0.00000000000E+00 0. -1.
        -16    1    1    2    0    0  0.14123876581E+03  0.45577838678E+03  0.50566925179E+03  0.69525802335E+03  0.00000000000E+00 0.  1.
         16    1    4    4    0    0  0.65260258496E+02 -0.16085952405E+03 -0.23146730303E+02  0.17512983453E+03  0.00000000000E+00 0. -1.
    9900018    1    1    2    0    0 -0.31430848064E+03 -0.45248633217E+03  0.26499605439E+03  0.61811955885E+03  0.91187600000E+02 0.  0.
<mgrwt>
<rscale>  0 0.18351609E+04</rscale>
<asrwt>0</asrwt>
<pdfrwt beam="1">  1        1 0.23727461E+00 0.18351609E+04</pdfrwt>
<pdfrwt beam="2">  1       -1 0.83986665E-01 0.18351609E+04</pdfrwt>
<totfact> 0.80834573E+00</totfact>
</mgrwt>
</event>
<event>
11    1  0.5973918E-016  0.2232683E+04  0.7818608E-02  0.8504946E-01
          1   -1    0    0  501    0  0.00000000000E+00  0.00000000000E+00  0.15250756722E+04  0.15250756722E+04  0.00000000000E+00 0. -1.
         -1   -1    0    0    0  501 -0.00000000000E+00 -0.00000000000E+00 -0.81715215260E+03  0.81715215260E+03  0.00000000000E+00 0.  1.
    9900016    2    1    2    0    0 -0.21182398740E+03  0.34514840393E+02  0.65133523302E+03  0.98830214944E+03  0.71164800074E+03 0.  0.
         24    2    3    3    0    0 -0.16304429679E+03 -0.27541028725E+03  0.57924967999E+03  0.66638698994E+03  0.78148317707E+02 0.  0.
        -15    1    4    4    0    0 -0.11106597190E+02 -0.24342588943E+02  0.34584165609E+02  0.43726223807E+02  0.00000000000E+00 0.  1.
        -15    1    4    4    0    0 -0.58610096730E+02 -0.11858656836E+03  0.27827163958E+03  0.30811203000E+03  0.00000000000E+00 0.  1.
         15    1    3    3    0    0 -0.48779690602E+02  0.30992512764E+03  0.72085553038E+02  0.32191515950E+03  0.00000000000E+00 0. -1.
         15    1    4    4    0    0 -0.37426193819E+02 -0.22530007057E+02  0.62631412905E+02  0.76361083572E+02  0.00000000000E+00 0. -1.
        -16    1    1    2    0    0  0.80634608908E+02 -0.19089584515E+03 -0.61348604538E+03  0.64754018541E+03  0.00000000000E+00 0.  1.
         16    1    4    4    0    0 -0.55901409054E+02 -0.10995112288E+03  0.20376246189E+03  0.23818765256E+03  0.00000000000E+00 0. -1.
    9900018    1    1    2    0    0  0.13118937849E+03  0.15638100476E+03  0.67007433195E+03  0.70638548995E+03  0.91187600000E+02 0.  0.
<mgrwt>
<rscale>  0 0.22326835E+04</rscale>
<asrwt>0</asrwt>
<pdfrwt beam="1">  1        1 0.23462703E+00 0.22326835E+04</pdfrwt>
<pdfrwt beam="2">  1       -1 0.12571572E+00 0.22326835E+04</pdfrwt>
<totfact> 0.31524856E+00</totfact>
</mgrwt>
</event>
<event>
11    1  0.5973918E-016  0.1549043E+04  0.7818608E-02  0.8852479E-01
         -2   -1    0    0    0  501 -0.00000000000E+00  0.00000000000E+00  0.22244096654E+03  0.22244096654E+03  0.00000000000E+00 0.  1.
          2   -1    0    0  501    0  0.00000000000E+00 -0.00000000000E+00 -0.26968200929E+04  0.26968200929E+04  0.00000000000E+00 0. -1.
    9900016    2    1    2    0    0 -0.17923534731E+03 -0.31160351323E+03 -0.12444362920E+04  0.14747188117E+04  0.70494810412E+03 0.  0.
         24    2    3    3    0    0  0.22624511039E+02 -0.19191227547E+03 -0.16305555156E+01  0.20995025837E+03  0.82062551140E+02 0.  0.
        -15    1    4    4    0    0  0.52684629548E+01 -0.30657368483E+02  0.11045628855E+02  0.33009647999E+02  0.00000000000E+00 0.  1.
        -15    1    4    4    0    0  0.20674017570E+02 -0.23561450418E+02 -0.86650164329E+01  0.32521369253E+02  0.00000000000E+00 0.  1.
         15    1    4    4    0    0  0.97906605832E+01 -0.85045824243E+02 -0.19891041886E+02  0.87888012853E+02  0.00000000000E+00 0. -1.
         15    1    3    3    0    0 -0.20185985835E+03 -0.11969123776E+03 -0.12428057365E+04  0.12647685533E+04  0.00000000000E+00 0. -1.
        -16    1    1    2    0    0  0.25509014838E+03  0.31687539310E+03 -0.29601188639E+03  0.50309445975E+03  0.00000000000E+00 0.  1.
         16    1    4    4    0    0 -0.13108630069E+02 -0.52647632330E+02  0.15879873949E+02  0.56531228263E+02  0.00000000000E+00 0. -1.
    9900018    1    1    2    0    0 -0.75854801072E+02 -0.52718798658E+01 -0.93393094800E+03  0.94144778803E+03  0.91187600000E+02 0.  0.
<mgrwt>
<rscale>  0 0.15490426E+04</rscale>
<asrwt>0</asrwt>
<pdfrwt beam="1">  1        2 0.41489538E+00 0.15490426E+04</pdfrwt>
<pdfrwt beam="2">  1       -2 0.34221688E-01 0.15490426E+04</pdfrwt>
<totfact> 0.20612382E+01</totfact>
</mgrwt>
</event>
<event>
11    1  0.5973918E-016  0.1874103E+04  0.7818608E-02  0.8667856E-01
          2   -1    0    0  501    0  0.00000000000E+00  0.00000000000E+00  0.10685901858E+04  0.10685901858E+04  0.00000000000E+00 0. -1.
         -2   -1    0    0    0  501 -0.00000000000E+00 -0.00000000000E+00 -0.82170423192E+03  0.82170423192E+03  0.00000000000E+00 0.  1.
    9900016    2    1    2    0    0  0.38072954302E+03  0.46358941797E+02  0.48200972219E+03  0.94646025687E+03  0.71857463714E+03 0.  0.
         24    2    3    3    0    0 -0.16019828069E+03 -0.14227020404E+03  0.64180691711E+02  0.23740104649E+03  0.79597710968E+02 0.  0.
        -15    1    4    4    0    0 -0.45791889675E+02 -0.30654141341E+02  0.48007937013E+01  0.55313842404E+02  0.00000000000E+00 0.  1.
        -15    1    4    4    0    0 -0.15899040981E+02 -0.47379257262E+02  0.28040202320E+01  0.50054331004E+02  0.00000000000E+00 0.  1.
         15    1    3    3    0    0  0.54092782371E+03  0.18862914584E+03  0.41782903048E+03  0.70905921039E+03  0.00000000000E+00 0. -1.
         15    1    4    4    0    0 -0.14287789506E+02 -0.16024654880E+02  0.16335985614E+02  0.26977674454E+02  0.00000000000E+00 0. -1.
        -16    1    1    2    0    0 -0.41054638355E+03  0.27403118649E+03 -0.33292385455E+03  0.59538199262E+03  0.00000000000E+00 0.  1.
         16    1    4    4    0    0 -0.84219560526E+02 -0.48212150561E+02  0.40239892164E+02  0.10505519863E+03  0.00000000000E+00 0. -1.
    9900018    1    1    2    0    0  0.29816840528E+02 -0.32039012828E+03  0.97800086233E+02  0.34845216823E+03  0.91187600000E+02 0.  0.
<mgrwt>
<rscale>  0 0.18741025E+04</rscale>
<asrwt>0</asrwt>
<pdfrwt beam="1">  1        2 0.16439849E+00 0.18741025E+04</pdfrwt>
<pdfrwt beam="2">  1       -2 0.12641604E+00 0.18741025E+04</pdfrwt>
<totfact> 0.99687554E+00</totfact>
</mgrwt>
</event>
<event>
11    1  0.5973918E-016  0.2198168E+04  0.7818608E-02  0.8519191E-01
          1   -1    0    0  501    0  0.00000000000E+00  0.00000000000E+00  0.12495719171E+04  0.12495719171E+04  0.00000000000E+00 0. -1.
         -1   -1    0    0    0  501 -0.00000000000E+00 -0.00000000000E+00 -0.96671920590E+03  0.96671920590E+03  0.00000000000E+00 0.  1.
    9900016    2    1    2    0    0  0.81532419393E+02  0.39061603432E+02  0.61982114248E+03  0.92427774658E+03  0.67966003258E+03 0.  0.
         24    2    3    3    0    0 -0.47682017236E+01 -0.13999107620E+03 -0.91704383832E+02  0.18551104871E+03  0.79902553245E+02 0.  0.
        -15    1    4    4    0    0 -0.10332665504E+02 -0.16113890054E+02 -0.27164537793E+02  0.33231514299E+02  0.00000000000E+00 0.  1.
        -15    1    4    4    0    0  0.26089166397E+02 -0.47097958670E+02 -0.28066063855E+02  0.60717100182E+02  0.00000000000E+00 0.  1.
         15    1    4    4    0    0  0.18407015152E+01 -0.41310355964E+02 -0.24015906283E+02  0.47819425410E+02  0.00000000000E+00 0. -1.
         15    1    3    3    0    0  0.86300621117E+02  0.17905267964E+03  0.71152552631E+03  0.73876669787E+03  0.00000000000E+00 0. -1.
        -16    1    1    2    0    0 -0.31159102452E+03 -0.25517133728E+03 -0.69675858588E+03  0.80478189898E+03  0.00000000000E+00 0.  1.
         16    1    4    4    0    0 -0.22365404132E+02 -0.35468871517E+02 -0.12457875901E+02  0.43743008820E+02  0.00000000000E+00 0. -1.
    9900018    1    1    2    0    0  0.23005860513E+03  0.21610973384E+03  0.35979015457E+03  0.48723147740E+03  0.91187600000E+02 0.  0.
<mgrwt>
<rscale>  0 0.21981676E+04</rscale>
<asrwt>0</asrwt>
<pdfrwt beam="1">  1        1 0.19224183E+00 0.21981676E+04</pdfrwt>
<pdfrwt beam="2">  1       -1 0.14872603E+00 0.21981676E+04</pdfrwt>
<totfact> 0.32016496E+00</totfact>
</mgrwt>
</event>
<event>
12    1  0.5973918E-016  0.1286194E+04  0.7818608E-02  0.9040585E-01
         -2   -1    0    0    0  501 -0.00000000000E+00  0.00000000000E+00  0.30119792180E+03  0.30119792180E+03  0.00000000000E+00 0.  1.
          2   -1    0    0  501    0  0.00000000000E+00 -0.00000000000E+00 -0.13730968764E+04  0.13730968764E+04  0.00000000000E+00 0. -1.
    9900016    2    1    2    0    0  0.26686610398E+02  0.12982856457E+03 -0.62919164120E+03  0.92707640345E+03  0.66784796558E+03 0.  0.
        -24    2    3    3    0    0 -0.42869422685E+02  0.29545089673E+03 -0.40685492822E+02  0.31176486827E+03  0.80081233639E+02 0.  0.
         23    2    4    4    0    0 -0.46943310870E+02  0.25453850793E+03 -0.27368650842E+02  0.26584319552E+03  0.54129798631E+02 0.  0.
        -15    1    3    3    0    0  0.69556033083E+02 -0.16562233216E+03 -0.58850614838E+03  0.61531153518E+03  0.00000000000E+00 0.  1.
        -15    1    5    5    0    0 -0.20994754890E+02  0.20626710954E+03 -0.35780525134E+02  0.21039759075E+03  0.00000000000E+00 0. -1.
         15    1    5    5    0    0 -0.25948555980E+02  0.48271398387E+02  0.84118742919E+01  0.55445604774E+02  0.00000000000E+00 0. -1.
         15    1    4    4    0    0  0.73438612858E+01  0.23226955713E+02 -0.13668606437E+02  0.27933037289E+02  0.00000000000E+00 0.  1.
        -16    1    4    4    0    0 -0.32699731008E+01  0.17685433090E+02  0.35176445665E+00  0.17988635465E+02  0.00000000000E+00 0.  1.
         16    1    1    2    0    0  0.24402677045E+03 -0.17200767538E+03 -0.30675406162E+03  0.42805812620E+03  0.00000000000E+00 0. -1.
    9900018    1    1    2    0    0 -0.27071338084E+03  0.42179110814E+02 -0.13595325180E+03  0.31916026856E+03  0.91187600000E+02 0.  0.
<mgrwt>
<rscale>  0 0.12861943E+04</rscale>
<asrwt>0</asrwt>
<pdfrwt beam="1">  1        2 0.21124568E+00 0.12861943E+04</pdfrwt>
<pdfrwt beam="2">  1       -2 0.46338141E-01 0.12861943E+04</pdfrwt>
<totfact> 0.64934151E+01</totfact>
</mgrwt>
</event>
<event>
11    1  0.5973918E-016  0.1965394E+04  0.7818608E-02  0.8622973E-01
         -2   -1    0    0    0  501 -0.00000000000E+00  0.00000000000E+00  0.56948834046E+03  0.56948834046E+03  0.00000000000E+00 0. -1.
          2   -1    0    0  501    0  0.00000000000E+00 -0.00000000000E+00 -0.16957214030E+04  0.16957214030E+04  0.00000000000E+00 0.  1.
    9900016    2    1    2    0    0  0.71527431274E+02 -0.19165567338E+01 -0.11662348329E+03  0.71930023974E+03  0.70616708464E+03 0.  0.
         24    2    3    3    0    0 -0.20316655757E+03 -0.58927934134E+02 -0.30636439740E+03  0.38061351259E+03  0.79109736690E+02 0.  0.
        -15    1    4    4    0    0 -0.37947975087E+01 -0.93676808454E+01 -0.50600238094E+01  0.11302998430E+02  0.00000000000E+00 0.  1.
        -15    1    4    4    0    0 -0.77576241785E+02 -0.48191725131E+02 -0.13876341388E+03  0.16611983835E+03  0.00000000000E+00 0.  1.
         15    1    4    4    0    0 -0.31501997735E+02 -0.24740613208E+01 -0.40160409948E+02  0.51101422367E+02  0.00000000000E+00 0. -1.
         15    1    3    3    0    0  0.27469398884E+03  0.57011377400E+02  0.18974091411E+03  0.33868672715E+03  0.00000000000E+00 0. -1.
        -16    1    1    2    0    0 -0.78794760210E+02 -0.19607143148E+03 -0.12227987782E+04  0.12409228310E+04  0.00000000000E+00 0.  1.
         16    1    4    4    0    0 -0.90293520538E+02  0.11055331630E+01 -0.12238054976E+03  0.15208925344E+03  0.00000000000E+00 0. -1.
    9900018    1    1    2    0    0  0.72673289355E+01  0.19798798821E+03  0.21318919900E+03  0.30498667268E+03  0.91187600000E+02 0.  0.
<mgrwt>
<rscale>  0 0.19653942E+04</rscale>
<asrwt>0</asrwt>
<pdfrwt beam="1">  1        2 0.26088021E+00 0.19653942E+04</pdfrwt>
<pdfrwt beam="2">  1       -2 0.87613593E-01 0.19653942E+04</pdfrwt>
<totfact> 0.10328366E+01</totfact>
</mgrwt>
</event>
<event>
11    1  0.5973918E-016  0.1257595E+04  0.7818608E-02  0.9063886E-01
         -2   -1    0    0    0  501 -0.00000000000E+00  0.00000000000E+00  0.27330102993E+03  0.27330102993E+03  0.00000000000E+00 0.  1.
          2   -1    0    0  501    0  0.00000000000E+00 -0.00000000000E+00 -0.14467050850E+04  0.14467050850E+04  0.00000000000E+00 0. -1.
    9900016    2    1    2    0    0 -0.48432791651E+02  0.69663472387E+02 -0.86853234836E+03  0.11205474641E+04  0.70290784917E+03 0.  0.
         24    2    3    3    0    0 -0.91008298838E+02  0.28262765841E+03 -0.84814150421E+03  0.90241400753E+03  0.82741320207E+02 0.  0.
        -15    1    4    4    0    0 -0.29843922397E+02  0.57797014551E+02 -0.26322992993E+03  0.27114783902E+03  0.00000000000E+00 0.  1.
        -15    1    4    4    0    0 -0.55531689344E+02  0.13434772869E+03 -0.35814885107E+03  0.38652772248E+03  0.00000000000E+00 0. -1.
         15    1    4    4    0    0  0.44081686097E+01  0.12894573592E+02 -0.28238315964E+02  0.31354496760E+02  0.00000000000E+00 0.  1.
         15    1    3    3    0    0  0.42575507186E+02 -0.21296418602E+03 -0.20390844143E+02  0.21813345655E+03  0.00000000000E+00 0. -1.
        -16    1    1    2    0    0  0.13531341899E+03  0.72750160421E+02  0.77766586130E+02  0.17219160583E+03  0.00000000000E+00 0.  1.
         16    1    4    4    0    0 -0.10040855706E+02  0.77588341577E+02 -0.19852440725E+03  0.21338394927E+03  0.00000000000E+00 0. -1.
    9900018    1    1    2    0    0 -0.86880627337E+02 -0.14241363281E+03 -0.38263829286E+03  0.42726704504E+03  0.91187600000E+02 0.  0.
<mgrwt>
<rscale>  0 0.12575945E+04</rscale>
<asrwt>0</asrwt>
<pdfrwt beam="1">  1        2 0.22257002E+00 0.12575945E+04</pdfrwt>
<pdfrwt beam="2">  1       -2 0.42046311E-01 0.12575945E+04</pdfrwt>
<totfact> 0.71679665E+01</totfact>
</mgrwt>
</event>
<event>
11    1  0.5973918E-016  0.1381638E+04  0.7818608E-02  0.8967218E-01
          4   -1    0    0  501    0  0.00000000000E+00  0.00000000000E+00  0.11436832693E+04  0.11436832693E+04  0.00000000000E+00 0. -1.
         -4   -1    0    0    0  501 -0.00000000000E+00 -0.00000000000E+00 -0.41727520123E+03  0.41727520123E+03  0.00000000000E+00 0.  1.
    9900016    2    1    2    0    0 -0.20637079657E+03 -0.31262883471E+03  0.42221780333E+03  0.90103490630E+03  0.70233206886E+03 0.  0.
        -24    2    3    3    0    0 -0.12494033338E+03 -0.34312447913E+03 -0.87662072530E+02  0.38379377059E+03  0.79174012777E+02 0.  0.
        -15    1    3    3    0    0 -0.81430463190E+02  0.30495644424E+02  0.50987987586E+03  0.51724113571E+03  0.00000000000E+00 0.  1.
        -15    1    4    4    0    0 -0.78036269165E+01 -0.44722338919E+02 -0.23734549396E+01  0.45460064670E+02  0.00000000000E+00 0. -1.
         15    1    4    4    0    0 -0.45996168644E+02 -0.61474422450E+02 -0.47933251410E+01  0.76926771097E+02  0.00000000000E+00 0. -1.
         15    1    4    4    0    0 -0.71859978357E+01 -0.24952613917E+02 -0.17120585302E+02  0.31102828606E+02  0.00000000000E+00 0.  1.
        -16    1    4    4    0    0 -0.63954539985E+02 -0.21197510385E+03 -0.63374707147E+02  0.23030410622E+03  0.00000000000E+00 0.  1.
         16    1    1    2    0    0  0.12875165166E+03  0.14794675337E+03  0.39188645984E+03  0.43822394622E+03  0.00000000000E+00 0. -1.
    9900018    1    1    2    0    0  0.77619144906E+02  0.16468208134E+03 -0.87696195144E+02  0.22169961797E+03  0.91187600000E+02 0.  0.
<mgrwt>
<rscale>  0 0.13816377E+04</rscale>
<asrwt>0</asrwt>
<pdfrwt beam="1">  1        4 0.17595127E+00 0.13816377E+04</pdfrwt>
<pdfrwt beam="2">  1       -4 0.64196185E-01 0.13816377E+04</pdfrwt>
<totfact> 0.84625625E-01</totfact>
</mgrwt>
</event>
<event>
11    1  0.5973918E-016  0.1337725E+04  0.7818608E-02  0.9000173E-01
          2   -1    0    0  501    0  0.00000000000E+00  0.00000000000E+00  0.84634850877E+03  0.84634850877E+03  0.00000000000E+00 0. -1.
         -2   -1    0    0    0  501 -0.00000000000E+00 -0.00000000000E+00 -0.52859657176E+03  0.52859657176E+03  0.00000000000E+00 0.  1.
    9900016    2    1    2    0    0 -0.19043961903E+03  0.11072049800E+03  0.21037496763E+03  0.78239966827E+03  0.72067006093E+03 0.  0.
         24    2    3    3    0    0  0.10744230134E+03  0.32138344302E+02 -0.21621438887E+03  0.25619887727E+03  0.79451126297E+02 0.  0.
        -15    1    4    4    0    0  0.23548538004E+02 -0.83878368221E+01 -0.78665508088E+02  0.82541817350E+02  0.00000000000E+00 0.  1.
        -15    1    4    4    0    0  0.54837912517E+02  0.14897946976E+02 -0.46064781573E+02  0.73151278695E+02  0.00000000000E+00 0. -1.
         15    1    3    3    0    0 -0.29788192037E+03  0.78582153702E+02  0.42658935650E+03  0.52620079099E+03  0.00000000000E+00 0. -1.
         15    1    4    4    0    0  0.14385023588E+02  0.54605244182E+01 -0.23474928495E+02  0.28068104646E+02  0.00000000000E+00 0.  1.
        -16    1    1    2    0    0  0.13156361569E+03 -0.21260751095E+02 -0.20810885345E+03  0.24712405669E+03  0.00000000000E+00 0.  1.
         16    1    4    4    0    0  0.14670827229E+02  0.20167709730E+02 -0.68009170717E+02  0.72437676584E+02  0.00000000000E+00 0. -1.
    9900018    1    1    2    0    0  0.58876003343E+02 -0.89459746909E+02  0.31548582283E+03  0.34542135557E+03  0.91187600000E+02 0.  0.
<mgrwt>
<rscale>  0 0.13377248E+04</rscale>
<asrwt>0</asrwt>
<pdfrwt beam="1">  1        2 0.13020746E+00 0.13377248E+04</pdfrwt>
<pdfrwt beam="2">  1       -2 0.81322550E-01 0.13377248E+04</pdfrwt>
<totfact> 0.41592763E+01</totfact>
</mgrwt>
</event>
<event>
11    1  0.5973918E-016  0.1888115E+04  0.7818608E-02  0.8660795E-01
          1   -1    0    0  501    0  0.00000000000E+00  0.00000000000E+00  0.65700540335E+03  0.65700540335E+03  0.00000000000E+00 0. -1.
         -1   -1    0    0    0  501 -0.00000000000E+00 -0.00000000000E+00 -0.13565253959E+04  0.13565253959E+04  0.00000000000E+00 0.  1.
    9900016    2    1    2    0    0  0.31580639495E+03 -0.29775260553E+03 -0.35635199284E+03  0.91920795976E+03  0.72771301851E+03 0.  0.
         24    2    3    3    0    0  0.10851609378E+02  0.22304933196E+03 -0.54610447115E+02  0.24446353426E+03  0.83134570054E+02 0.  0.
        -15    1    4    4    0    0  0.10886954041E+02  0.27319918436E+02 -0.19125724192E+02  0.35081291845E+02  0.00000000000E+00 0.  1.
        -15    1    4    4    0    0  0.23969219520E+02  0.43016162804E+02 -0.95434799030E+01  0.50159662632E+02  0.00000000000E+00 0.  1.
         15    1    3    3    0    0  0.30495478557E+03 -0.52080193749E+03 -0.30174154572E+03  0.67474442550E+03  0.00000000000E+00 0. -1.
         15    1    4    4    0    0  0.40612841513E+01  0.13057224160E+02  0.26621285923E+01  0.13930974853E+02  0.00000000000E+00 0. -1.
        -16    1    1    2    0    0 -0.51040600281E+03  0.49963579000E+03 -0.11937547082E+03  0.72415517217E+03  0.00000000000E+00 0.  1.
         16    1    4    4    0    0 -0.28065848334E+02  0.13965602656E+03 -0.28603371613E+02  0.14529160493E+03  0.00000000000E+00 0. -1.
    9900018    1    1    2    0    0  0.19459960786E+03 -0.20188318447E+03 -0.22379252893E+03  0.37016766735E+03  0.91187600000E+02 0.  0.
<mgrwt>
<rscale>  0 0.18881149E+04</rscale>
<asrwt>0</asrwt>
<pdfrwt beam="1">  1        1 0.10107776E+00 0.18881149E+04</pdfrwt>
<pdfrwt beam="2">  1       -1 0.20869621E+00 0.18881149E+04</pdfrwt>
<totfact> 0.36828290E+00</totfact>
</mgrwt>
</event>
<event>
11    1  0.5973918E-016  0.1194017E+04  0.7818608E-02  0.9118110E-01
          2   -1    0    0  501    0  0.00000000000E+00  0.00000000000E+00  0.85314388077E+03  0.85314388077E+03  0.00000000000E+00 0. -1.
         -2   -1    0    0    0  501 -0.00000000000E+00 -0.00000000000E+00 -0.41777122657E+03  0.41777122657E+03  0.00000000000E+00 0.  1.
    9900016    2    1    2    0    0  0.56387884491E+02  0.56235481122E+02  0.30247132761E+03  0.75387094134E+03  0.68592307827E+03 0.  0.
         24    2    3    3    0    0  0.26006373014E+03  0.31218338803E+02 -0.10830362502E+03  0.29469148924E+03  0.80657735074E+02 0.  0.
        -15    1    4    4    0    0  0.99028380487E+01  0.10805738899E+02  0.33039795664E+01  0.15024861915E+02  0.00000000000E+00 0.  1.
        -15    1    4    4    0    0  0.13845245041E+03  0.25617051811E+02 -0.43405448875E+02  0.14734092222E+03  0.00000000000E+00 0. -1.
         15    1    3    3    0    0 -0.20367584565E+03  0.25017142318E+02  0.41077495264E+03  0.45917945209E+03  0.00000000000E+00 0. -1.
         15    1    4    4    0    0  0.53423142362E+02  0.41631900606E+01 -0.40197961094E+02  0.66986867127E+02  0.00000000000E+00 0.  1.
        -16    1    1    2    0    0 -0.11869040626E+02 -0.21324576431E+03 -0.85060792147E+02  0.22989121010E+03  0.00000000000E+00 0.  1.
         16    1    4    4    0    0  0.58285299323E+02 -0.93676419673E+01 -0.28004194619E+02  0.65338837987E+02  0.00000000000E+00 0. -1.
    9900018    1    1    2    0    0 -0.44518843865E+02  0.15701028319E+03  0.21796211874E+03  0.28715295590E+03  0.91187600000E+02 0.  0.
<mgrwt>
<rscale>  0 0.11940167E+04</rscale>
<asrwt>0</asrwt>
<pdfrwt beam="1">  1        2 0.13125290E+00 0.11940167E+04</pdfrwt>
<pdfrwt beam="2">  1       -2 0.64272497E-01 0.11940167E+04</pdfrwt>
<totfact> 0.69743744E+01</totfact>
</mgrwt>
</event>
<event>
11    1  0.5973918E-016  0.1114839E+04  0.7818608E-02  0.9190848E-01
          1   -1    0    0  501    0  0.00000000000E+00  0.00000000000E+00  0.42273375579E+03  0.42273375579E+03  0.00000000000E+00 0. -1.
         -1   -1    0    0    0  501 -0.00000000000E+00 -0.00000000000E+00 -0.73501681792E+03  0.73501681792E+03  0.00000000000E+00 0.  1.
    9900016    2    1    2    0    0 -0.67200951580E+02  0.17112187810E+03  0.19891320179E+02  0.71034975404E+03  0.68585890924E+03 0.  0.
         24    2    3    3    0    0  0.11381530446E+03  0.23399171765E+03 -0.25608482416E+03  0.37437009109E+03  0.82870262951E+02 0.  0.
        -15    1    4    4    0    0  0.66741741771E+01  0.61976613510E+02 -0.46830897074E+02  0.77966519378E+02  0.00000000000E+00 0.  1.
        -15    1    4    4    0    0  0.14422689902E+02  0.10999877636E+02 -0.24569034452E+01  0.18304307322E+02  0.00000000000E+00 0.  1.
         15    1    4    4    0    0  0.14644807916E+02  0.24094858776E+02 -0.27756288024E+02  0.39565694020E+02  0.00000000000E+00 0. -1.
         15    1    3    3    0    0 -0.18101625604E+03 -0.62869839545E+02  0.27597614433E+03  0.33597966295E+03  0.00000000000E+00 0. -1.
        -16    1    1    2    0    0  0.39447205558E+02  0.46925744935E+02 -0.58560930147E+02  0.84779066423E+02  0.00000000000E+00 0.  1.
         16    1    4    4    0    0  0.78073632461E+02  0.13692036772E+03 -0.17904073561E+03  0.23853357037E+03  0.00000000000E+00 0. -1.
    9900018    1    1    2    0    0  0.27753746023E+02 -0.21804762304E+03 -0.27361345217E+03  0.36262175325E+03  0.91187600000E+02 0.  0.
<mgrwt>
<rscale>  0 0.11148389E+04</rscale>
<asrwt>0</asrwt>
<pdfrwt beam="1">  1        1 0.65035964E-01 0.11148389E+04</pdfrwt>
<pdfrwt beam="2">  1       -1 0.11307951E+00 0.11148389E+04</pdfrwt>
<totfact> 0.39657177E+01</totfact>
</mgrwt>
</event>
<event>
11    1  0.5973918E-016  0.1709384E+04  0.7818608E-02  0.8756030E-01
          3   -1    0    0  501    0  0.00000000000E+00  0.00000000000E+00  0.61371686064E+03  0.61371686064E+03  0.00000000000E+00 0. -1.
         -3   -1    0    0    0  501 -0.00000000000E+00 -0.00000000000E+00 -0.11902856680E+04  0.11902856680E+04  0.00000000000E+00 0.  1.
    9900016    2    1    2    0    0  0.26005087238E+03  0.35438409299E+03 -0.66733538939E+03  0.10724900930E+04  0.71532086232E+03 0.  0.
         24    2    3    3    0    0  0.73227220898E+02  0.33125477217E+03 -0.77927345304E+03  0.85347371844E+03  0.77835232938E+02 0.  0.
        -15    1    4    4    0    0 -0.81889444210E+01  0.32271781405E+02 -0.76164620972E+02  0.83123860434E+02  0.00000000000E+00 0.  1.
        -15    1    4    4    0    0  0.40345968991E+01  0.29418700562E+02 -0.10527405703E+03  0.10938173978E+03  0.00000000000E+00 0.  1.
         15    1    3    3    0    0  0.18682365148E+03  0.23129320827E+02  0.11193806365E+03  0.21901637456E+03  0.00000000000E+00 0. -1.
         15    1    4    4    0    0  0.26270714351E+02  0.13576481955E+03 -0.31119133309E+03  0.34053235154E+03  0.00000000000E+00 0. -1.
        -16    1    1    2    0    0 -0.14709883441E+03 -0.24869688777E+03 -0.22637764596E+03  0.36706272987E+03  0.00000000000E+00 0.  1.
         16    1    4    4    0    0  0.51110854069E+02  0.13379947065E+03 -0.28664344196E+03  0.32043576668E+03  0.00000000000E+00 0. -1.
    9900018    1    1    2    0    0 -0.11295203797E+03 -0.10568720522E+03  0.31714422804E+03  0.36444970572E+03  0.91187600000E+02 0.  0.
<mgrwt>
<rscale>  0 0.17093840E+04</rscale>
<asrwt>0</asrwt>
<pdfrwt beam="1">  1        3 0.94417979E-01 0.17093840E+04</pdfrwt>
<pdfrwt beam="2">  1       -3 0.18312087E+00 0.17093840E+04</pdfrwt>
<totfact> 0.46856201E-01</totfact>
</mgrwt>
</event>
<event>
11    1  0.5973918E-016  0.1317507E+04  0.7818608E-02  0.9015796E-01
         -2   -1    0    0    0  501 -0.00000000000E+00  0.00000000000E+00  0.19960469749E+03  0.19960469749E+03  0.00000000000E+00 0.  1.
          2   -1    0    0  501    0  0.00000000000E+00 -0.00000000000E+00 -0.21740772151E+04  0.21740772151E+04  0.00000000000E+00 0. -1.
    9900016    2    1    2    0    0 -0.24571612426E+03 -0.68414186229E+02 -0.11564469089E+04  0.13819070168E+04  0.71220828079E+03 0.  0.
        -24    2    3    3    0    0 -0.21494918075E+03  0.20848443077E+03 -0.10306944102E+04  0.10762386673E+04  0.79308219820E+02 0.  0.
        -15    1    3    3    0    0 -0.30766943509E+02 -0.27689861700E+03 -0.12575249879E+03  0.30566834946E+03  0.00000000000E+00 0.  1.
        -15    1    4    4    0    0 -0.10323607985E+03  0.14602338433E+03 -0.55510358452E+03  0.58319851380E+03  0.00000000000E+00 0. -1.
         15    1    4    4    0    0 -0.12716918212E+02  0.33479348542E+01 -0.39226502920E+02  0.41372058299E+02  0.00000000000E+00 0. -1.
         15    1    4    4    0    0 -0.16687718308E+02  0.66227976172E+01 -0.91931465897E+02  0.93668222000E+02  0.00000000000E+00 0.  1.
        -16    1    4    4    0    0 -0.82308464385E+02  0.52490313976E+02 -0.34443285682E+03  0.35799987322E+03  0.00000000000E+00 0.  1.
         16    1    1    2    0    0  0.18330153184E+03 -0.18167023899E+03 -0.55647918787E+03  0.61341064047E+03  0.00000000000E+00 0. -1.
    9900018    1    1    2    0    0  0.62414592428E+02  0.25008442522E+03 -0.26154642079E+03  0.37836425532E+03  0.91187600000E+02 0.  0.
<mgrwt>
<rscale>  0 0.13175068E+04</rscale>
<asrwt>0</asrwt>
<pdfrwt beam="1">  1        2 0.33447341E+00 0.13175068E+04</pdfrwt>
<pdfrwt beam="2">  1       -2 0.30708416E-01 0.13175068E+04</pdfrwt>
<totfact> 0.51412110E+01</totfact>
</mgrwt>
</event>
<event>
11    1  0.5973918E-016  0.1285109E+04  0.7818608E-02  0.9041458E-01
         -2   -1    0    0    0  501 -0.00000000000E+00  0.00000000000E+00  0.44812082518E+03  0.44812082518E+03  0.00000000000E+00 0.  1.
          2   -1    0    0  501    0  0.00000000000E+00 -0.00000000000E+00 -0.92135045024E+03  0.92135045024E+03  0.00000000000E+00 0. -1.
    9900016    2    1    2    0    0 -0.18321150299E+03  0.13385718918E+03  0.16013121585E+02  0.74660598115E+03  0.71111171352E+03 0.  0.
         24    2    3    3    0    0 -0.35491592862E+03 -0.16541077991E+03 -0.16620990995E+02  0.40003894232E+03  0.80180144239E+02 0.  0.
        -15    1    4    4    0    0 -0.13542290325E+03 -0.43074795581E+02  0.70970596854E+00  0.14211018409E+03  0.00000000000E+00 0. -1.
        -15    1    4    4    0    0 -0.42791550231E+02 -0.13395578863E+02 -0.20901209713E+02  0.49471394479E+02  0.00000000000E+00 0.  1.
         15    1    4    4    0    0 -0.27184490134E+02 -0.24127144748E+02 -0.26874846763E+01  0.36446374188E+02  0.00000000000E+00 0.  1.
         15    1    3    3    0    0  0.17170442563E+03  0.29926796909E+03  0.32634112581E+02  0.34656703884E+03  0.00000000000E+00 0. -1.
        -16    1    1    2    0    0  0.13944364299E+03 -0.21056638862E+03 -0.37480328626E+03  0.45195158699E+03  0.00000000000E+00 0.  1.
         16    1    4    4    0    0 -0.14951698500E+03 -0.84813260720E+02  0.62579974252E+01  0.17201098956E+03  0.00000000000E+00 0. -1.
    9900018    1    1    2    0    0  0.43767859992E+02  0.76709199443E+02 -0.11443946038E+03  0.17091370727E+03  0.91187600000E+02 0.  0.
<mgrwt>
<rscale>  0 0.12851091E+04</rscale>
<asrwt>0</asrwt>
<pdfrwt beam="1">  1        2 0.14174622E+00 0.12851091E+04</pdfrwt>
<pdfrwt beam="2">  1       -2 0.68941667E-01 0.12851091E+04</pdfrwt>
<totfact> 0.53504173E+01</totfact>
</mgrwt>
</event>
<event>
11    1  0.5973918E-016  0.1464853E+04  0.7818608E-02  0.8908167E-01
         -1   -1    0    0    0  501 -0.00000000000E+00  0.00000000000E+00  0.36990776085E+03  0.36990776085E+03  0.00000000000E+00 0.  1.
          1   -1    0    0  501    0  0.00000000000E+00 -0.00000000000E+00 -0.14502230736E+04  0.14502230736E+04  0.00000000000E+00 0. -1.
    9900016    2    1    2    0    0  0.35260143589E+03 -0.99204738460E+02 -0.32976316273E+03  0.86559562805E+03  0.71157761002E+03 0.  0.
        -24    2    3    3    0    0  0.45343866955E+03 -0.61696447490E+02  0.53534799209E+02  0.46748465456E+03  0.79138163039E+02 0.  0.
        -15    1    4    4    0    0  0.13303540446E+03 -0.14037402471E+02  0.15435833361E+02  0.13466154781E+03  0.00000000000E+00 0. -1.
        -15    1    3    3    0    0 -0.10083723366E+03 -0.37508290970E+02 -0.38329796194E+03  0.39811097348E+03  0.00000000000E+00 0.  1.
         15    1    4    4    0    0  0.19155483326E+02 -0.39764897457E+01  0.15589756475E+02  0.25015705449E+02  0.00000000000E+00 0.  1.
         15    1    4    4    0    0  0.23414141694E+02  0.64900476127E+01 -0.22242708692E+01  0.24398568200E+02  0.00000000000E+00 0. -1.
        -16    1    4    4    0    0  0.27783364007E+03 -0.50172602886E+02  0.24733480242E+02  0.28340883310E+03  0.00000000000E+00 0.  1.
         16    1    1    2    0    0 -0.73161356285E+02 -0.14699445665E+03 -0.41019695434E+03  0.44183876662E+03  0.00000000000E+00 0. -1.
    9900018    1    1    2    0    0 -0.27944007960E+03  0.24619919511E+03 -0.34035519572E+03  0.51269643983E+03  0.91187600000E+02 0.  0.
<mgrwt>
<rscale>  0 0.14648533E+04</rscale>
<asrwt>0</asrwt>
<pdfrwt beam="1">  1        1 0.22311124E+00 0.14648533E+04</pdfrwt>
<pdfrwt beam="2">  1       -1 0.56908886E-01 0.14648533E+04</pdfrwt>
<totfact> 0.21483154E+01</totfact>
</mgrwt>
</event>
<event>
11    1  0.5973918E-016  0.1551995E+04  0.7818608E-02  0.8850595E-01
          3   -1    0    0  501    0  0.00000000000E+00  0.00000000000E+00  0.71471535535E+03  0.71471535535E+03  0.00000000000E+00 0. -1.
         -3   -1    0    0    0  501 -0.00000000000E+00 -0.00000000000E+00 -0.84253406680E+03  0.84253406680E+03  0.00000000000E+00 0.  1.
    9900016    2    1    2    0    0 -0.22668339602E+03 -0.60940725668E+02  0.14215494510E+02  0.74703168404E+03  0.70905227071E+03 0.  0.
         24    2    3    3    0    0 -0.13719988982E+03 -0.16288724068E+03 -0.31646369386E+03  0.38961160147E+03  0.79321293033E+02 0.  0.
        -15    1    4    4    0    0 -0.25409029707E+02 -0.56429441100E+02 -0.87096582217E+02  0.10684435056E+03  0.00000000000E+00 0.  1.
        -15    1    4    4    0    0 -0.39622521845E+02 -0.26947780825E+02 -0.82227605044E+02  0.95170931276E+02  0.00000000000E+00 0. -1.
         15    1    3    3    0    0 -0.89483506196E+02  0.10194651501E+03  0.33067918837E+03  0.35742008257E+03  0.00000000000E+00 0. -1.
         15    1    4    4    0    0 -0.45144990607E+02 -0.21024432372E+02 -0.46712978722E+02  0.68280299608E+02  0.00000000000E+00 0.  1.
        -16    1    1    2    0    0  0.25221616013E+03 -0.90993548406E+02 -0.40883593967E+03  0.48891680566E+03  0.00000000000E+00 0.  1.
         16    1    4    4    0    0 -0.27023347664E+02 -0.58485586381E+02 -0.10042652788E+03  0.11931602002E+03  0.00000000000E+00 0. -1.
    9900018    1    1    2    0    0 -0.25532764115E+02  0.15193427407E+03  0.26680173372E+03  0.32130093245E+03  0.91187600000E+02 0.  0.
<mgrwt>
<rscale>  0 0.15519949E+04</rscale>
<asrwt>0</asrwt>
<pdfrwt beam="1">  1        3 0.10995621E+00 0.15519949E+04</pdfrwt>
<pdfrwt beam="2">  1       -3 0.12962063E+00 0.15519949E+04</pdfrwt>
<totfact> 0.82354844E-01</totfact>
</mgrwt>
</event>
<event>
11    1  0.5973918E-016  0.1550577E+04  0.7818608E-02  0.8851499E-01
         -2   -1    0    0    0  501 -0.00000000000E+00  0.00000000000E+00  0.31082189219E+03  0.31082189219E+03  0.00000000000E+00 0. -1.
          2   -1    0    0  501    0  0.00000000000E+00 -0.00000000000E+00 -0.19338153521E+04  0.19338153521E+04  0.00000000000E+00 0.  1.
    9900016    2    1    2    0    0 -0.28866669118E+03  0.23873004187E+02 -0.65262838736E+03  0.10047473932E+04  0.70689117493E+03 0.  0.
         24    2    3    3    0    0  0.17194670259E+03  0.73088968062E+02 -0.46034126685E+03  0.50318857676E+03  0.79856095753E+02 0.  0.
        -15    1    4    4    0    0  0.17396811469E+02  0.16386025866E+02 -0.32009098903E+02  0.39946630716E+02  0.00000000000E+00 0.  1.
        -15    1    4    4    0    0  0.25362870036E+02 -0.44725915651E+01 -0.30705484179E+02  0.40076252450E+02  0.00000000000E+00 0. -1.
         15    1    3    3    0    0 -0.46061339377E+03 -0.49215963875E+02 -0.19228712051E+03  0.50155881643E+03  0.00000000000E+00 0. -1.
         15    1    4    4    0    0  0.43419497595E+02  0.96280148604E+01 -0.11128627703E+03  0.11984401069E+03  0.00000000000E+00 0.  1.
        -16    1    1    2    0    0 -0.21559911043E+03 -0.71068852263E+02 -0.47083085611E+03  0.52270015615E+03  0.00000000000E+00 0.  1.
         16    1    4    4    0    0  0.85767523493E+02  0.51547518901E+02 -0.28634040674E+03  0.30332168290E+03  0.00000000000E+00 0. -1.
    9900018    1    1    2    0    0  0.50426580161E+03  0.47195848076E+02 -0.49953421643E+03  0.71718969494E+03  0.91187600000E+02 0.  0.
<mgrwt>
<rscale>  0 0.15505769E+04</rscale>
<asrwt>0</asrwt>
<pdfrwt beam="1">  1        2 0.29751006E+00 0.15505769E+04</pdfrwt>
<pdfrwt beam="2">  1       -2 0.47818752E-01 0.15505769E+04</pdfrwt>
<totfact> 0.29008804E+01</totfact>
</mgrwt>
</event>
<event>
11    1  0.5973918E-016  0.1769821E+04  0.7818608E-02  0.8722515E-01
         -2   -1    0    0    0  501 -0.00000000000E+00  0.00000000000E+00  0.20869846650E+04  0.20869846650E+04  0.00000000000E+00 0.  1.
          2   -1    0    0  501    0  0.00000000000E+00 -0.00000000000E+00 -0.37521434025E+03  0.37521434025E+03  0.00000000000E+00 0. -1.
    9900016    2    1    2    0    0 -0.67667535737E+02 -0.84365870911E+02  0.60872651394E+03  0.95246020998E+03  0.72452466297E+03 0.  0.
         24    2    3    3    0    0  0.13580270685E+03 -0.24017670446E+03  0.63234078552E+03  0.69509900604E+03  0.84738035210E+02 0.  0.
        -15    1    4    4    0    0  0.13790331151E+02 -0.19440842199E+02  0.70696324986E+02  0.74606232617E+02  0.00000000000E+00 0.  1.
        -15    1    4    4    0    0  0.73540845718E+01 -0.12885679210E+02  0.21798042781E+02  0.26368123894E+02  0.00000000000E+00 0.  1.
         15    1    3    3    0    0 -0.20347024259E+03  0.15581083355E+03 -0.23614271580E+02  0.25736120394E+03  0.00000000000E+00 0. -1.
         15    1    4    4    0    0  0.95815012246E+01 -0.36574244708E+02  0.15997199310E+03  0.16437919309E+03  0.00000000000E+00 0. -1.
        -16    1    1    2    0    0 -0.13224809998E+03 -0.16350957644E+03  0.11553987460E+04  0.11743812004E+04  0.00000000000E+00 0.  1.
         16    1    4    4    0    0  0.10507678990E+03 -0.17127593834E+03  0.37987442465E+03  0.42974545645E+03  0.00000000000E+00 0. -1.
    9900018    1    1    2    0    0  0.19991563571E+03  0.24787544735E+03 -0.52354935216E+02  0.33535759487E+03  0.91187600000E+02 0.  0.
<mgrwt>
<rscale>  0 0.17698210E+04</rscale>
<asrwt>0</asrwt>
<pdfrwt beam="1">  1        2 0.57725284E-01 0.17698210E+04</pdfrwt>
<pdfrwt beam="2">  1       -2 0.32107456E+00 0.17698210E+04</pdfrwt>
<totfact> 0.19124959E+00</totfact>
</mgrwt>
</event>
<event>
11    1  0.5973918E-016  0.1326788E+04  0.7818608E-02  0.9008587E-01
          1   -1    0    0  501    0  0.00000000000E+00  0.00000000000E+00  0.80273123936E+03  0.80273123936E+03  0.00000000000E+00 0. -1.
         -1   -1    0    0    0  501 -0.00000000000E+00 -0.00000000000E+00 -0.54824302101E+03  0.54824302101E+03  0.00000000000E+00 0.  1.
    9900016    2    1    2    0    0  0.39374216215E+02  0.17811240879E+03  0.37490677838E+03  0.84187471931E+03  0.73138470826E+03 0.  0.
         24    2    3    3    0    0 -0.24042657557E+03 -0.11928739239E+03 -0.84960732146E+01  0.28175609667E+03  0.85322297933E+02 0.  0.
        -15    1    4    4    0    0 -0.69393488723E+02 -0.37880942202E+02  0.31222927184E+02  0.85001724930E+02  0.00000000000E+00 0.  1.
        -15    1    4    4    0    0 -0.14213941043E+03 -0.79671304347E+02 -0.27510445427E+02  0.16525118257E+03  0.00000000000E+00 0. -1.
         15    1    4    4    0    0 -0.10926022810E+02 -0.13807587967E+01 -0.56049129271E+01  0.12357164652E+02  0.00000000000E+00 0.  1.
         15    1    3    3    0    0  0.27980079179E+03  0.29739980117E+03  0.38340285160E+03  0.56011862265E+03  0.00000000000E+00 0. -1.
        -16    1    1    2    0    0 -0.21601710484E+03 -0.19559955414E+03 -0.40855346216E+02  0.29426473536E+03  0.00000000000E+00 0.  1.
         16    1    4    4    0    0 -0.17967653605E+02 -0.35438704143E+00 -0.66036420446E+01  0.19146024509E+02  0.00000000000E+00 0. -1.
    9900018    1    1    2    0    0  0.17664288862E+03  0.17487145349E+02 -0.79563213822E+02  0.21483480570E+03  0.91187600000E+02 0.  0.
<mgrwt>
<rscale>  0 0.13267883E+04</rscale>
<asrwt>0</asrwt>
<pdfrwt beam="1">  1        1 0.12349711E+00 0.13267883E+04</pdfrwt>
<pdfrwt beam="2">  1       -1 0.84345080E-01 0.13267883E+04</pdfrwt>
<totfact> 0.30030829E+01</totfact>
</mgrwt>
</event>
<event>
11    1  0.5973918E-016  0.1199970E+04  0.7818608E-02  0.9112882E-01
         -2   -1    0    0    0  501 -0.00000000000E+00  0.00000000000E+00  0.10461680302E+04  0.10461680302E+04  0.00000000000E+00 0.  1.
          2   -1    0    0  501    0  0.00000000000E+00 -0.00000000000E+00 -0.34409605388E+03  0.34409605388E+03  0.00000000000E+00 0. -1.
    9900016    2    1    2    0    0 -0.13988319273E+03 -0.34434217535E+02  0.53679490255E+03  0.89891927772E+03  0.70650837045E+03 0.  0.
        -24    2    3    3    0    0  0.99187819842E+02  0.16946509101E+01 -0.13402780465E+03  0.18585311762E+03  0.82078215502E+02 0.  0.
        -15    1    3    3    0    0 -0.23907101258E+03 -0.36128868445E+02  0.67082270720E+03  0.71306616011E+03  0.00000000000E+00 0.  1.
        -15    1    4    4    0    0  0.10128542100E+02  0.75554001985E+01 -0.42436719486E+00  0.12643240279E+02  0.00000000000E+00 0.  1.
         15    1    4    4    0    0  0.21929471756E+02  0.98579309710E+01 -0.45819178074E+02  0.51744348618E+02  0.00000000000E+00 0. -1.
         15    1    4    4    0    0  0.27057073266E+02  0.16519026942E+02 -0.25449484219E+02  0.40652671645E+02  0.00000000000E+00 0. -1.
        -16    1    4    4    0    0  0.40072732720E+02 -0.32237707202E+02 -0.62334775166E+02  0.80812857073E+02  0.00000000000E+00 0.  1.
         16    1    1    2    0    0 -0.11945930072E+03 -0.32231607782E+02 -0.52442057809E+02  0.13438590140E+03  0.00000000000E+00 0. -1.
    9900018    1    1    2    0    0  0.25934249345E+03  0.66665825317E+02  0.21771913158E+03  0.35695890495E+03  0.91187600000E+02 0.  0.
<mgrwt>
<rscale>  0 0.11999705E+04</rscale>
<asrwt>0</asrwt>
<pdfrwt beam="1">  1        2 0.52937855E-01 0.11999705E+04</pdfrwt>
<pdfrwt beam="2">  1       -2 0.16094893E+00 0.11999705E+04</pdfrwt>
<totfact> 0.23008760E+01</totfact>
</mgrwt>
</event>
<event>
11    1  0.5973918E-016  0.1576208E+04  0.7818608E-02  0.8835299E-01
          1   -1    0    0  501    0  0.00000000000E+00  0.00000000000E+00  0.13809508852E+04  0.13809508852E+04  0.00000000000E+00 0. -1.
         -1   -1    0    0    0  501 -0.00000000000E+00 -0.00000000000E+00 -0.44976828663E+03  0.44976828663E+03  0.00000000000E+00 0.  1.
    9900016    2    1    2    0    0 -0.19175777705E+03  0.36329288797E+03  0.71150518445E+03  0.10886509860E+04  0.71426085879E+03 0.  0.
        -24    2    3    3    0    0 -0.18208537850E+03  0.11324061668E+03  0.79310783707E+03  0.82544253901E+03  0.79729678716E+02 0.  0.
        -15    1    3    3    0    0 -0.96723985429E+01  0.25005227130E+03 -0.81602652610E+02  0.26320844703E+03  0.00000000000E+00 0.  1.
        -15    1    4    4    0    0 -0.23197598444E+02  0.47782706719E+02  0.17052675995E+03  0.17860764679E+03  0.00000000000E+00 0.  1.
         15    1    4    4    0    0 -0.16320415910E+02  0.84225056504E+01  0.43034608235E+02  0.46789657862E+02  0.00000000000E+00 0. -1.
         15    1    4    4    0    0 -0.20848779460E+02  0.18289831149E+02  0.99023809184E+02  0.10283435376E+03  0.00000000000E+00 0. -1.
        -16    1    4    4    0    0 -0.12171858469E+03  0.38745573158E+02  0.48052265970E+03  0.49721088060E+03  0.00000000000E+00 0.  1.
         16    1    1    2    0    0 -0.22591164760E+02 -0.28323151409E+03  0.35997673792E+03  0.45859971996E+03  0.00000000000E+00 0. -1.
    9900018    1    1    2    0    0  0.21434894181E+03 -0.80061373882E+02 -0.14029932384E+03  0.28346846581E+03  0.91187600000E+02 0.  0.
<mgrwt>
<rscale>  0 0.15762080E+04</rscale>
<asrwt>0</asrwt>
<pdfrwt beam="1">  1        1 0.21245398E+00 0.15762080E+04</pdfrwt>
<pdfrwt beam="2">  1       -1 0.69195121E-01 0.15762080E+04</pdfrwt>
<totfact> 0.16095257E+01</totfact>
</mgrwt>
</event>
<event>
11    1  0.5973918E-016  0.2142792E+04  0.7818608E-02  0.8542624E-01
          1   -1    0    0  501    0  0.00000000000E+00  0.00000000000E+00  0.10016842885E+04  0.10016842885E+04  0.00000000000E+00 0. -1.
         -1   -1    0    0    0  501 -0.00000000000E+00 -0.00000000000E+00 -0.11459595960E+04  0.11459595960E+04  0.00000000000E+00 0.  1.
    9900016    2    1    2    0    0  0.12510122094E+03  0.19092186400E+03 -0.19273609441E+03  0.78086871512E+03  0.72146190095E+03 0.  0.
         24    2    3    3    0    0  0.10599375919E+03 -0.18632031976E+03  0.14577984573E+03  0.27365100838E+03  0.87653707423E+02 0.  0.
        -15    1    4    4    0    0 -0.22364489725E+01 -0.14542606102E+02  0.65441365325E+01  0.16103254925E+02  0.00000000000E+00 0. -1.
        -15    1    4    4    0    0  0.73949636979E+01 -0.32202791036E+02  0.25197910421E+02  0.41552857040E+02  0.00000000000E+00 0.  1.
         15    1    3    3    0    0  0.19107461753E+02  0.37724218375E+03 -0.33851594014E+03  0.50721770674E+03  0.00000000000E+00 0. -1.
         15    1    4    4    0    0  0.40059253779E+02 -0.73081073145E+02  0.19868074002E+02  0.85675710852E+02  0.00000000000E+00 0.  1.
        -16    1    1    2    0    0 -0.72811610217E+03 -0.18939248786E+03 -0.23231489784E+02  0.75270331128E+03  0.00000000000E+00 0.  1.
         16    1    4    4    0    0  0.60775990683E+02 -0.66493849473E+02  0.94169724778E+02  0.13031918556E+03  0.00000000000E+00 0. -1.
    9900018    1    1    2    0    0  0.60301488123E+03 -0.15293761319E+01  0.71692276781E+02  0.61407185810E+03  0.91187600000E+02 0.  0.
<mgrwt>
<rscale>  0 0.21427923E+04</rscale>
<asrwt>0</asrwt>
<pdfrwt beam="1">  1        1 0.15410528E+00 0.21427923E+04</pdfrwt>
<pdfrwt beam="2">  1       -1 0.17630148E+00 0.21427923E+04</pdfrwt>
<totfact> 0.30590825E+00</totfact>
</mgrwt>
</event>
<event>
11    1  0.5973918E-016  0.1920720E+04  0.7818608E-02  0.8644611E-01
         -1   -1    0    0    0  501 -0.00000000000E+00  0.00000000000E+00  0.59526291706E+03  0.59526291706E+03  0.00000000000E+00 0. -1.
          1   -1    0    0  501    0  0.00000000000E+00 -0.00000000000E+00 -0.15493848816E+04  0.15493848816E+04  0.00000000000E+00 0.  1.
    9900016    2    1    2    0    0  0.13594644969E+03 -0.21843005780E+03  0.70235714616E+02  0.73118158959E+03  0.68080858838E+03 0.  0.
         24    2    3    3    0    0  0.14631329538E+03 -0.96252038039E+02  0.36484035079E+03  0.41207842185E+03  0.77640897442E+02 0.  0.
        -15    1    4    4    0    0  0.53394811895E+02 -0.10407947148E+02  0.10261462298E+03  0.11614255099E+03  0.00000000000E+00 0.  1.
        -15    1    4    4    0    0  0.20967259756E+02 -0.16993259534E+01  0.18246061998E+02  0.27846588100E+02  0.00000000000E+00 0. -1.
         15    1    4    4    0    0  0.77255722962E+01 -0.75127913860E+01  0.18028972321E+02  0.21004055433E+02  0.00000000000E+00 0.  1.
         15    1    3    3    0    0 -0.10366845690E+02 -0.12217801976E+03 -0.29460463618E+03  0.31910316774E+03  0.00000000000E+00 0. -1.
        -16    1    1    2    0    0 -0.12651801579E+03  0.36397805624E+03 -0.11418760934E+04  0.12051422515E+04  0.00000000000E+00 0.  1.
         16    1    4    4    0    0  0.64225651435E+02 -0.76631973551E+02  0.22595069349E+03  0.24708522732E+03  0.00000000000E+00 0. -1.
    9900018    1    1    2    0    0 -0.94284339048E+01 -0.14554799844E+03  0.11751841423E+03  0.20832395756E+03  0.91187600000E+02 0.  0.
<mgrwt>
<rscale>  0 0.19207200E+04</rscale>
<asrwt>0</asrwt>
<pdfrwt beam="1">  1        1 0.23836690E+00 0.19207200E+04</pdfrwt>
<pdfrwt beam="2">  1       -1 0.91578912E-01 0.19207200E+04</pdfrwt>
<totfact> 0.65632478E+00</totfact>
</mgrwt>
</event>
<event>
11    1  0.5973918E-016  0.2637741E+04  0.7818608E-02  0.8355493E-01
          1   -1    0    0  501    0  0.00000000000E+00  0.00000000000E+00  0.69522505688E+03  0.69522505688E+03  0.00000000000E+00 0. -1.
         -1   -1    0    0    0  501 -0.00000000000E+00 -0.00000000000E+00 -0.25019514126E+04  0.25019514126E+04  0.00000000000E+00 0.  1.
    9900016    2    1    2    0    0 -0.95292974819E+02  0.48435081726E+03 -0.44219596892E+03  0.96913854388E+03  0.70711793717E+03 0.  0.
         24    2    3    3    0    0  0.14640797917E+03  0.20562679657E+03 -0.52763464199E+03  0.59044843610E+03  0.80705417640E+02 0.  0.
        -15    1    4    4    0    0  0.28255966723E+02  0.14504742318E+02 -0.71429521695E+02  0.78172653625E+02  0.00000000000E+00 0.  1.
        -15    1    4    4    0    0  0.19084415438E+02  0.33438967196E+02 -0.36362274304E+02  0.52958421732E+02  0.00000000000E+00 0. -1.
         15    1    3    3    0    0 -0.24170095399E+03  0.27872402069E+03  0.85438673073E+02  0.37869010777E+03  0.00000000000E+00 0. -1.
         15    1    4    4    0    0  0.36208503276E+02  0.54475795844E+02 -0.15182812239E+03  0.16531922693E+03  0.00000000000E+00 0.  1.
        -16    1    1    2    0    0  0.24066374546E+03 -0.72868395546E+03 -0.16470093092E+04  0.18170137616E+04  0.00000000000E+00 0.  1.
         16    1    4    4    0    0  0.62859093737E+02  0.10320729121E+03 -0.26801472360E+03  0.29399813382E+03  0.00000000000E+00 0. -1.
    9900018    1    1    2    0    0 -0.14537077064E+03  0.24433313820E+03  0.28247892240E+03  0.41102416398E+03  0.91187600000E+02 0.  0.
<mgrwt>
<rscale>  0 0.26377409E+04</rscale>
<asrwt>0</asrwt>
<pdfrwt beam="1">  1        1 0.10695770E+00 0.26377409E+04</pdfrwt>
<pdfrwt beam="2">  1       -1 0.38491560E+00 0.26377409E+04</pdfrwt>
<totfact> 0.21898655E-01</totfact>
</mgrwt>
</event>
<event>
11    1  0.5973918E-016  0.1106185E+04  0.7818608E-02  0.9199184E-01
         -1   -1    0    0    0  501 -0.00000000000E+00  0.00000000000E+00  0.16274320187E+03  0.16274320187E+03  0.00000000000E+00 0.  1.
          1   -1    0    0  501    0  0.00000000000E+00 -0.00000000000E+00 -0.18797177431E+04  0.18797177431E+04  0.00000000000E+00 0. -1.
    9900016    2    1    2    0    0  0.17899127260E+03  0.32435884911E+02 -0.80274335775E+03  0.10614988008E+04  0.67029310262E+03 0.  0.
         24    2    3    3    0    0  0.38609335561E+02 -0.45373546520E+02  0.99890622256E+02  0.14470575016E+03  0.86094007907E+02 0.  0.
        -15    1    4    4    0    0 -0.61089482606E+01 -0.12271568608E+02  0.91874941137E+01  0.16502142074E+02  0.00000000000E+00 0.  1.
        -15    1    4    4    0    0  0.21472301539E+02  0.34415482469E+01  0.14355709311E+02  0.26057443803E+02  0.00000000000E+00 0.  1.
         15    1    3    3    0    0  0.14038193704E+03  0.77809431431E+02 -0.90263398001E+03  0.91679305066E+03  0.00000000000E+00 0. -1.
         15    1    4    4    0    0  0.55809361729E+01 -0.44389357975E+02  0.67277499416E+02  0.80794949580E+02  0.00000000000E+00 0. -1.
        -16    1    1    2    0    0  0.37074487968E+02  0.29766069152E+02 -0.15426775130E+02  0.49985217033E+02  0.00000000000E+00 0.  1.
         16    1    4    4    0    0  0.17665046109E+02  0.78458318162E+01  0.90699194156E+01  0.21351214699E+02  0.00000000000E+00 0. -1.
    9900018    1    1    2    0    0 -0.21606576057E+03 -0.62201954064E+02 -0.89880440830E+03  0.93097692708E+03  0.91187600000E+02 0.  0.
<mgrwt>
<rscale>  0 0.11061849E+04</rscale>
<asrwt>0</asrwt>
<pdfrwt beam="1">  1        1 0.28918737E+00 0.11061849E+04</pdfrwt>
<pdfrwt beam="2">  1       -1 0.25037413E-01 0.11061849E+04</pdfrwt>
<totfact> 0.50140589E+01</totfact>
</mgrwt>
</event>
<event>
11    1  0.5973918E-016  0.1315291E+04  0.7818608E-02  0.9017526E-01
         -1   -1    0    0    0  501 -0.00000000000E+00  0.00000000000E+00  0.98094300227E+03  0.98094300227E+03  0.00000000000E+00 0.  1.
          1   -1    0    0  501    0  0.00000000000E+00 -0.00000000000E+00 -0.44090004751E+03  0.44090004751E+03  0.00000000000E+00 0. -1.
    9900016    2    1    2    0    0  0.12430995093E+03  0.20561761781E+03  0.52104802324E+03  0.92987190484E+03  0.73173707589E+03 0.  0.
         24    2    3    3    0    0  0.16829951287E+03 -0.55698039368E+02  0.61776773224E+03  0.64778033042E+03  0.80965349804E+02 0.  0.
        -15    1    4    4    0    0  0.29457476290E+02  0.98323691712E+01  0.10155963469E+03  0.10620159034E+03  0.00000000000E+00 0.  1.
        -15    1    4    4    0    0  0.16284210047E+02 -0.10615444457E+02  0.36263410022E+02  0.41144842499E+02  0.00000000000E+00 0.  1.
         15    1    4    4    0    0  0.69266835579E+02 -0.11430923529E+02  0.19333200332E+03  0.20568379623E+03  0.00000000000E+00 0. -1.
         15    1    3    3    0    0 -0.43989561935E+02  0.26131565718E+03 -0.96719709000E+02  0.28209157442E+03  0.00000000000E+00 0. -1.
        -16    1    1    2    0    0  0.14339537706E+03 -0.70934112951E+02  0.69961008796E+02  0.17460935054E+03  0.00000000000E+00 0.  1.
         16    1    4    4    0    0  0.53290990952E+02 -0.43484040554E+02  0.28661268420E+03  0.29475010135E+03  0.00000000000E+00 0. -1.
    9900018    1    1    2    0    0 -0.26770532800E+03 -0.13468350486E+03 -0.50966077269E+02  0.31736179440E+03  0.91187600000E+02 0.  0.
<mgrwt>
<rscale>  0 0.13152913E+04</rscale>
<asrwt>0</asrwt>
<pdfrwt beam="1">  1        1 0.67830777E-01 0.13152913E+04</pdfrwt>
<pdfrwt beam="2">  1       -1 0.15091431E+00 0.13152913E+04</pdfrwt>
<totfact> 0.17732342E+01</totfact>
</mgrwt>
</event>
<event>
11    1  0.5973918E-016  0.2054420E+04  0.7818608E-02  0.8581592E-01
         -1   -1    0    0    0  501 -0.00000000000E+00  0.00000000000E+00  0.42504917641E+03  0.42504917641E+03  0.00000000000E+00 0.  1.
          1   -1    0    0  501    0  0.00000000000E+00 -0.00000000000E+00 -0.24824441040E+04  0.24824441040E+04  0.00000000000E+00 0. -1.
    9900016    2    1    2    0    0 -0.13717883948E+03 -0.35182517139E+03 -0.14776496250E+04  0.16833641391E+04  0.71250784221E+03 0.  0.
        -24    2    3    3    0    0 -0.24799360463E+03 -0.10974697985E+03 -0.13237787245E+03  0.31200063832E+03  0.79216599715E+02 0.  0.
        -15    1    3    3    0    0  0.11081476515E+03 -0.24207819154E+03 -0.13452717525E+04  0.13713635007E+04  0.00000000000E+00 0.  1.
        -15    1    4    4    0    0 -0.14089124216E+02 -0.16564783974E+01  0.34395688337E+01  0.14597190676E+02  0.00000000000E+00 0.  1.
         15    1    4    4    0    0 -0.17412924849E+03 -0.59696672747E+02 -0.88828121079E+02  0.20438963528E+03  0.00000000000E+00 0. -1.
         15    1    4    4    0    0 -0.52554684245E+02 -0.44124487736E+02 -0.49082154857E+02  0.84368377841E+02  0.00000000000E+00 0. -1.
        -16    1    4    4    0    0 -0.72205476793E+01 -0.42693409724E+01  0.20928346486E+01  0.86454345174E+01  0.00000000000E+00 0.  1.
         16    1    1    2    0    0 -0.41362293259E+03  0.83865735678E+02 -0.39458430058E+03  0.57776652919E+03  0.00000000000E+00 0. -1.
    9900018    1    1    2    0    0  0.55080177207E+03  0.26795943572E+03 -0.18516100199E+03  0.64636261213E+03  0.91187600000E+02 0.  0.
<mgrwt>
<rscale>  0 0.20544204E+04</rscale>
<asrwt>0</asrwt>
<pdfrwt beam="1">  1        1 0.38191448E+00 0.20544204E+04</pdfrwt>
<pdfrwt beam="2">  1       -1 0.65392181E-01 0.20544204E+04</pdfrwt>
<totfact> 0.30506897E+00</totfact>
</mgrwt>
</event>
<event>
11    1  0.5973918E-016  0.1348207E+04  0.7818608E-02  0.8992187E-01
          2   -1    0    0  501    0  0.00000000000E+00  0.00000000000E+00  0.55104885073E+03  0.55104885073E+03  0.00000000000E+00 0. -1.
         -2   -1    0    0    0  501 -0.00000000000E+00 -0.00000000000E+00 -0.82463709934E+03  0.82463709934E+03  0.00000000000E+00 0.  1.
    9900016    2    1    2    0    0  0.10230927771E+03 -0.34035353995E+03 -0.14590643821E+03  0.80496862565E+03  0.70737407296E+03 0.  0.
        -24    2    3    3    0    0  0.12850455617E+03 -0.69282880128E+02  0.26432810215E+03  0.31256851056E+03  0.80722919759E+02 0.  0.
        -15    1    4    4    0    0  0.21700421894E+02  0.80802931410E+01  0.16475975413E+02  0.28419310573E+02  0.00000000000E+00 0.  1.
        -15    1    3    3    0    0 -0.26195278451E+02 -0.27107065982E+03 -0.41023454036E+03  0.49240011508E+03  0.00000000000E+00 0.  1.
         15    1    4    4    0    0  0.61866646604E+01 -0.11530131639E+02  0.28406819844E+02  0.31275648176E+02  0.00000000000E+00 0. -1.
         15    1    4    4    0    0  0.18266772720E+02  0.26017605683E+01  0.28372789108E+02  0.33844634810E+02  0.00000000000E+00 0. -1.
        -16    1    4    4    0    0  0.82350696891E+02 -0.68434802199E+02  0.19107251779E+03  0.21902891700E+03  0.00000000000E+00 0.  1.
         16    1    1    2    0    0  0.61286651162E+02  0.14965825155E+03  0.12384174863E+03  0.20369198455E+03  0.00000000000E+00 0. -1.
    9900018    1    1    2    0    0 -0.16359592888E+03  0.19069528840E+03 -0.25152355904E+03  0.36702533987E+03  0.91187600000E+02 0.  0.
<mgrwt>
<rscale>  0 0.13482067E+04</rscale>
<asrwt>0</asrwt>
<pdfrwt beam="1">  1        2 0.84776746E-01 0.13482067E+04</pdfrwt>
<pdfrwt beam="2">  1       -2 0.12686725E+00 0.13482067E+04</pdfrwt>
<totfact> 0.24776007E+01</totfact>
</mgrwt>
</event>
<event>
11    1  0.5973918E-016  0.1227229E+04  0.7818608E-02  0.9089352E-01
          2   -1    0    0  501    0  0.00000000000E+00  0.00000000000E+00  0.18919528329E+04  0.18919528329E+04  0.00000000000E+00 0. -1.
         -2   -1    0    0    0  501 -0.00000000000E+00 -0.00000000000E+00 -0.19901264352E+03  0.19901264352E+03  0.00000000000E+00 0.  1.
    9900016    2    1    2    0    0 -0.14789406210E+03  0.27338249816E+03  0.76262213878E+03  0.10868516977E+04  0.70925555499E+03 0.  0.
        -24    2    3    3    0    0  0.21040997251E+03  0.22566854399E+03  0.62242867289E+03  0.69914999467E+03  0.78705869766E+02 0.  0.
        -15    1    3    3    0    0 -0.35830403461E+03  0.47713954169E+02  0.14019346589E+03  0.38770170301E+03  0.00000000000E+00 0.  1.
        -15    1    4    4    0    0  0.13341162367E+02  0.59103273566E+01  0.25997292583E+02  0.29812376699E+02  0.00000000000E+00 0.  1.
         15    1    4    4    0    0  0.27295980888E+02  0.57082291991E+02  0.17775840630E+03  0.18868362314E+03  0.00000000000E+00 0. -1.
         15    1    4    4    0    0  0.18596019373E+02  0.28095133084E+02  0.59030207844E+02  0.67968477088E+02  0.00000000000E+00 0. -1.
        -16    1    4    4    0    0  0.15117680988E+03  0.13458079156E+03  0.35964276617E+03  0.41268551775E+03  0.00000000000E+00 0.  1.
         16    1    1    2    0    0 -0.23400606007E+02 -0.11859577191E+03  0.41295561011E+03  0.43028465160E+03  0.00000000000E+00 0. -1.
    9900018    1    1    2    0    0  0.17129466811E+03 -0.15478672625E+03  0.51736244047E+03  0.57382912713E+03  0.91187600000E+02 0.  0.
<mgrwt>
<rscale>  0 0.12272286E+04</rscale>
<asrwt>0</asrwt>
<pdfrwt beam="1">  1        2 0.29106966E+00 0.12272286E+04</pdfrwt>
<pdfrwt beam="2">  1       -2 0.30617331E-01 0.12272286E+04</pdfrwt>
<totfact> 0.74637346E+01</totfact>
</mgrwt>
</event>
<event>
11    1  0.5973918E-016  0.1273608E+04  0.7818608E-02  0.9050760E-01
          1   -1    0    0  501    0  0.00000000000E+00  0.00000000000E+00  0.22647724161E+04  0.22647724161E+04  0.00000000000E+00 0. -1.
         -1   -1    0    0    0  501 -0.00000000000E+00 -0.00000000000E+00 -0.17905525881E+03  0.17905525881E+03  0.00000000000E+00 0.  1.
    9900016    2    1    2    0    0  0.30883411640E+03 -0.32702840501E+02  0.11259013862E+04  0.13599884536E+04  0.69675438671E+03 0.  0.
         24    2    3    3    0    0  0.31289398519E+02  0.87466140926E+02 -0.59240920350E+02  0.13686379064E+03  0.81196417871E+02 0.  0.
        -15    1    4    4    0    0 -0.13016730028E+00  0.39764247134E+02 -0.18914689262E+02  0.44033825220E+02  0.00000000000E+00 0.  1.
        -15    1    4    4    0    0  0.43818771943E+01  0.13666739051E+02  0.49880844123E+00  0.14360689882E+02  0.00000000000E+00 0. -1.
         15    1    4    4    0    0  0.38555061191E+02  0.32424560781E+02 -0.19192930859E+02  0.53909307918E+02  0.00000000000E+00 0.  1.
         15    1    3    3    0    0  0.27754471789E+03 -0.12016898143E+03  0.11851423065E+04  0.12231246630E+04  0.00000000000E+00 0. -1.
        -16    1    1    2    0    0 -0.29255015180E+03 -0.60911322350E+02  0.35114568337E+03  0.46108466842E+03  0.00000000000E+00 0.  1.
         16    1    4    4    0    0 -0.11517372566E+02  0.16105939602E+01 -0.21632108671E+02  0.24559967615E+02  0.00000000000E+00 0. -1.
    9900018    1    1    2    0    0 -0.16283964608E+02  0.93614162852E+02  0.60867008772E+03  0.62275455283E+03  0.91187600000E+02 0.  0.
<mgrwt>
<rscale>  0 0.12736081E+04</rscale>
<asrwt>0</asrwt>
<pdfrwt beam="1">  1        1 0.34842651E+00 0.12736081E+04</pdfrwt>
<pdfrwt beam="2">  1       -1 0.27546965E-01 0.12736081E+04</pdfrwt>
<totfact> 0.23012883E+01</totfact>
</mgrwt>
</event>
<event>
11    1  0.5973918E-016  0.1665504E+04  0.7818608E-02  0.8781287E-01
         -2   -1    0    0    0  501 -0.00000000000E+00  0.00000000000E+00  0.25392863935E+03  0.25392863935E+03  0.00000000000E+00 0.  1.
          2   -1    0    0  501    0  0.00000000000E+00 -0.00000000000E+00 -0.27309862178E+04  0.27309862178E+04  0.00000000000E+00 0. -1.
    9900016    2    1    2    0    0 -0.80925362329E+02 -0.20578599828E+03 -0.88790959825E+03  0.11559235100E+04  0.70631360954E+03 0.  0.
        -24    2    3    3    0    0 -0.23282377787E+03 -0.29966695044E+03 -0.89656819158E+03  0.97714506318E+03  0.83491075063E+02 0.  0.
        -15    1    4    4    0    0 -0.24348528527E+02 -0.28621446901E+02 -0.57778509159E+02  0.68923103418E+02  0.00000000000E+00 0. -1.
        -15    1    3    3    0    0  0.15189841554E+03  0.93880952156E+02  0.86585933320E+01  0.17877844685E+03  0.00000000000E+00 0.  1.
         15    1    4    4    0    0 -0.44746963787E+02 -0.84136660259E+02 -0.22656972766E+03  0.24579485320E+03  0.00000000000E+00 0.  1.
         15    1    4    4    0    0 -0.78343180810E+02 -0.54557870213E+02 -0.23262436468E+03  0.25145240151E+03  0.00000000000E+00 0. -1.
        -16    1    4    4    0    0 -0.85385104740E+02 -0.13235097306E+03 -0.37959559008E+03  0.41097470505E+03  0.00000000000E+00 0.  1.
         16    1    1    2    0    0  0.11325060624E+03  0.10648580169E+03 -0.16641301228E+04  0.16713748806E+04  0.00000000000E+00 0. -1.
    9900018    1    1    2    0    0 -0.32325243914E+02  0.99300196588E+02  0.74982142581E+02  0.15761646658E+03  0.91187600000E+02 0.  0.
<mgrwt>
<rscale>  0 0.16655037E+04</rscale>
<asrwt>0</asrwt>
<pdfrwt beam="1">  1        2 0.42015171E+00 0.16655037E+04</pdfrwt>
<pdfrwt beam="2">  1       -2 0.39065946E-01 0.16655037E+04</pdfrwt>
<totfact> 0.15086085E+01</totfact>
</mgrwt>
</event>
<event>
11    1  0.5973918E-016  0.1078239E+04  0.7818608E-02  0.9226665E-01
         -1   -1    0    0    0  501 -0.00000000000E+00  0.00000000000E+00  0.12511424423E+03  0.12511424423E+03  0.00000000000E+00 0.  1.
          1   -1    0    0  501    0  0.00000000000E+00 -0.00000000000E+00 -0.23230772714E+04  0.23230772714E+04  0.00000000000E+00 0. -1.
    9900016    2    1    2    0    0  0.50736664395E+02 -0.22605193439E+03 -0.15339553346E+04  0.17044427488E+04  0.70599747106E+03 0.  0.
        -24    2    3    3    0    0 -0.23108396784E+03 -0.17071074526E+03 -0.13010207042E+04  0.13346535412E+04  0.78123259747E+02 0.  0.
        -15    1    3    3    0    0  0.28182063223E+03 -0.55341189126E+02 -0.23293463046E+03  0.36978920757E+03  0.00000000000E+00 0.  1.
        -15    1    4    4    0    0 -0.15546978867E+03 -0.93054829398E+02 -0.78316634393E+03  0.80385295840E+03  0.00000000000E+00 0. -1.
         15    1    4    4    0    0 -0.10043363672E+02 -0.11838518999E+02 -0.35617937141E+02  0.38854306481E+02  0.00000000000E+00 0.  1.
         15    1    4    4    0    0 -0.35089099190E+02 -0.53475133877E+02 -0.29637170591E+03  0.30319469469E+03  0.00000000000E+00 0. -1.
        -16    1    4    4    0    0 -0.30481716305E+02 -0.12342262988E+02 -0.18586471717E+03  0.18875158164E+03  0.00000000000E+00 0.  1.
         16    1    1    2    0    0 -0.99876984369E+02  0.12696901992E+03 -0.19445081593E+03  0.25279965159E+03  0.00000000000E+00 0. -1.
    9900018    1    1    2    0    0  0.49140319974E+02  0.99082914465E+02 -0.46955687667E+03  0.49094911529E+03  0.91187600000E+02 0.  0.
<mgrwt>
<rscale>  0 0.10782394E+04</rscale>
<asrwt>0</asrwt>
<pdfrwt beam="1">  1        1 0.35739649E+00 0.10782394E+04</pdfrwt>
<pdfrwt beam="2">  1       -1 0.19248346E-01 0.10782394E+04</pdfrwt>
<totfact> 0.39328826E+01</totfact>
</mgrwt>
</event>
<event>
11    1  0.5973918E-016  0.1152250E+04  0.7818608E-02  0.9155710E-01
          2   -1    0    0  501    0  0.00000000000E+00  0.00000000000E+00  0.47804625602E+03  0.47804625602E+03  0.00000000000E+00 0. -1.
         -2   -1    0    0    0  501 -0.00000000000E+00 -0.00000000000E+00 -0.69432600279E+03  0.69432600279E+03  0.00000000000E+00 0.  1.
    9900016    2    1    2    0    0  0.22644603668E+03 -0.23849364814E+03 -0.20477861448E+03  0.80192198825E+03  0.70213073324E+03 0.  0.
         24    2    3    3    0    0 -0.12789183637E+03 -0.19970137530E+03  0.15556560827E+03  0.29506093473E+03  0.81383878143E+02 0.  0.
        -15    1    4    4    0    0 -0.17349855396E+02 -0.54417902866E+02  0.23171029463E+02  0.61637831248E+02  0.00000000000E+00 0.  1.
        -15    1    4    4    0    0 -0.14909209246E+02 -0.17166964456E+02 -0.81200693306E+00  0.22751891003E+02  0.00000000000E+00 0. -1.
         15    1    4    4    0    0 -0.78996906357E+01 -0.23693112281E+02  0.33213244260E+02  0.41555845269E+02  0.00000000000E+00 0.  1.
         15    1    3    3    0    0  0.35433787305E+03 -0.38792272840E+02 -0.36034422275E+03  0.50686105352E+03  0.00000000000E+00 0. -1.
        -16    1    1    2    0    0 -0.16009790217E+03  0.10224673521E+03 -0.31149234496E+02  0.19249937130E+03  0.00000000000E+00 0.  1.
         16    1    4    4    0    0 -0.87733081093E+02 -0.10442339570E+03  0.99993341478E+02  0.16911536721E+03  0.00000000000E+00 0. -1.
    9900018    1    1    2    0    0 -0.66348134509E+02  0.13624691292E+03  0.19648102196E+02  0.17795089926E+03  0.91187600000E+02 0.  0.
<mgrwt>
<rscale>  0 0.11522499E+04</rscale>
<asrwt>0</asrwt>
<pdfrwt beam="1">  1        2 0.73545578E-01 0.11522499E+04</pdfrwt>
<pdfrwt beam="2">  1       -2 0.10681938E+00 0.11522499E+04</pdfrwt>
<totfact> 0.45288973E+01</totfact>
</mgrwt>
</event>
<event>
11    1  0.5973918E-016  0.1637916E+04  0.7818608E-02  0.8797588E-01
          1   -1    0    0  501    0  0.00000000000E+00  0.00000000000E+00  0.13948229645E+04  0.13948229645E+04  0.00000000000E+00 0. -1.
         -1   -1    0    0    0  501 -0.00000000000E+00 -0.00000000000E+00 -0.48084376219E+03  0.48084376219E+03  0.00000000000E+00 0.  1.
    9900016    2    1    2    0    0 -0.15486013176E+03  0.10820046509E+03  0.41953707135E+03  0.83656530301E+03  0.69867098903E+03 0.  0.
         24    2    3    3    0    0 -0.12148841787E+02  0.88775560311E+02 -0.18213744780E+03  0.21789247655E+03  0.79211028169E+02 0.  0.
        -15    1    4    4    0    0  0.15208175853E+01  0.31987951936E+02 -0.21206246651E+02  0.38408942347E+02  0.00000000000E+00 0.  1.
        -15    1    4    4    0    0  0.25039357197E+01  0.24372434748E+02 -0.48025736142E+02  0.53914345045E+02  0.00000000000E+00 0. -1.
         15    1    4    4    0    0 -0.24034870759E+02  0.16810953937E+02 -0.34698756501E+02  0.45434424035E+02  0.00000000000E+00 0.  1.
         15    1    3    3    0    0 -0.14271128998E+03  0.19424904774E+02  0.60167451914E+03  0.61867282646E+03  0.00000000000E+00 0. -1.
        -16    1    1    2    0    0  0.11648576428E+03 -0.10204693309E+03 -0.24674409722E+03  0.29131625314E+03  0.00000000000E+00 0.  1.
         16    1    4    4    0    0  0.78612756667E+01  0.15604219690E+02 -0.78206708501E+02  0.80134765126E+02  0.00000000000E+00 0. -1.
    9900018    1    1    2    0    0  0.38374367480E+02 -0.61535319996E+01  0.74118622814E+03  0.74778517050E+03  0.91187600000E+02 0.  0.
<mgrwt>
<rscale>  0 0.16379157E+04</rscale>
<asrwt>0</asrwt>
<pdfrwt beam="1">  1        1 0.21458815E+00 0.16379157E+04</pdfrwt>
<pdfrwt beam="2">  1       -1 0.73975964E-01 0.16379157E+04</pdfrwt>
<totfact> 0.13636172E+01</totfact>
</mgrwt>
</event>
<event>
11    1  0.5973918E-016  0.1429484E+04  0.7818608E-02  0.8932749E-01
         -2   -1    0    0    0  501 -0.00000000000E+00  0.00000000000E+00  0.28719485752E+03  0.28719485752E+03  0.00000000000E+00 0.  1.
          2   -1    0    0  501    0  0.00000000000E+00 -0.00000000000E+00 -0.17787780488E+04  0.17787780488E+04  0.00000000000E+00 0. -1.
    9900016    2    1    2    0    0 -0.28966555157E+03  0.33388004979E+02 -0.81758248810E+03  0.11237942316E+04  0.71375868435E+03 0.  0.
         24    2    3    3    0    0 -0.11652827084E+03  0.55034512583E+02  0.10505110782E+03  0.18480656310E+03  0.80685159921E+02 0.  0.
        -15    1    4    4    0    0 -0.50617463728E+02  0.50660208776E+02  0.74114960012E+02  0.10306120359E+03  0.00000000000E+00 0.  1.
        -15    1    4    4    0    0 -0.55070194156E+02  0.80032806572E+01  0.34558290647E+02  0.65506138935E+02  0.00000000000E+00 0. -1.
         15    1    4    4    0    0 -0.78008825464E+01 -0.75516170833E+01 -0.22138220022E+01  0.11080690273E+02  0.00000000000E+00 0.  1.
         15    1    3    3    0    0 -0.17313728073E+03 -0.21646507604E+02 -0.92263359592E+03  0.93898766850E+03  0.00000000000E+00 0. -1.
        -16    1    1    2    0    0  0.25684500247E+03 -0.22899574310E+03 -0.15163653678E+03  0.37603463263E+03  0.00000000000E+00 0.  1.
         16    1    4    4    0    0 -0.30397304095E+01  0.39226402332E+01 -0.14083208351E+01  0.51585303078E+01  0.00000000000E+00 0. -1.
    9900018    1    1    2    0    0  0.32820549098E+02  0.19560773812E+03 -0.52236416642E+03  0.56614404210E+03  0.91187600000E+02 0.  0.
<mgrwt>
<rscale>  0 0.14294837E+04</rscale>
<asrwt>0</asrwt>
<pdfrwt beam="1">  1        2 0.27365816E+00 0.14294837E+04</pdfrwt>
<pdfrwt beam="2">  1       -2 0.44183825E-01 0.14294837E+04</pdfrwt>
<totfact> 0.41829807E+01</totfact>
</mgrwt>
</event>
<event>
11    1  0.5973918E-016  0.3014893E+04  0.7818608E-02  0.8239491E-01
          1   -1    0    0  501    0  0.00000000000E+00  0.00000000000E+00  0.24355538246E+04  0.24355538246E+04  0.00000000000E+00 0. -1.
         -1   -1    0    0    0  501 -0.00000000000E+00 -0.00000000000E+00 -0.93300971088E+03  0.93300971088E+03  0.00000000000E+00 0.  1.
    9900016    2    1    2    0    0  0.15745994474E+02  0.68041297351E+03 -0.21815899699E+03  0.10032967401E+04  0.70413155717E+03 0.  0.
         24    2    3    3    0    0  0.10934313368E+03  0.21223484106E+03  0.23579797553E+03  0.34448863365E+03  0.77924224780E+02 0.  0.
        -15    1    4    4    0    0  0.23257452434E+02  0.41198401569E+02  0.76200310329E+02  0.89692277705E+02  0.00000000000E+00 0.  1.
        -15    1    4    4    0    0  0.16078766531E+02  0.16155834780E+02  0.59552912340E+01  0.23558506410E+02  0.00000000000E+00 0.  1.
         15    1    3    3    0    0 -0.93597139207E+02  0.46817813245E+03 -0.45395697253E+03  0.65880810641E+03  0.00000000000E+00 0. -1.
         15    1    4    4    0    0  0.21931274994E+02  0.52927594228E+02  0.32934807401E+02  0.66083376065E+02  0.00000000000E+00 0. -1.
        -16    1    1    2    0    0  0.24272636519E+03 -0.49483385026E+02 -0.20426876904E+03  0.32107697482E+03  0.00000000000E+00 0.  1.
         16    1    4    4    0    0  0.48075639722E+02  0.10195301048E+03  0.12070756657E+03  0.16515447347E+03  0.00000000000E+00 0. -1.
    9900018    1    1    2    0    0 -0.25847235966E+03 -0.63092958848E+03  0.19249718797E+04  0.20441898206E+04  0.91187600000E+02 0.  0.
<mgrwt>
<rscale>  0 0.30148933E+04</rscale>
<asrwt>0</asrwt>
<pdfrwt beam="1">  1        1 0.37470059E+00 0.30148933E+04</pdfrwt>
<pdfrwt beam="2">  1       -1 0.14353996E+00 0.30148933E+04</pdfrwt>
<totfact> 0.50070026E-01</totfact>
</mgrwt>
</event>
<event>
11    1  0.5973918E-016  0.1358560E+04  0.7818608E-02  0.8984373E-01
         -1   -1    0    0    0  501 -0.00000000000E+00  0.00000000000E+00  0.31176295911E+03  0.31176295911E+03  0.00000000000E+00 0.  1.
          1   -1    0    0  501    0  0.00000000000E+00 -0.00000000000E+00 -0.14800394962E+04  0.14800394962E+04  0.00000000000E+00 0. -1.
    9900016    2    1    2    0    0 -0.56198643256E+02  0.19801941428E+03 -0.50018447863E+03  0.88872460204E+03  0.70517865089E+03 0.  0.
        -24    2    3    3    0    0  0.11154247047E+03 -0.12645294409E+03 -0.48906602334E+03  0.52328922796E+03  0.78828745569E+02 0.  0.
        -15    1    3    3    0    0 -0.16774111372E+03  0.32447235837E+03 -0.11118455288E+02  0.36543537408E+03  0.00000000000E+00 0.  1.
        -15    1    4    4    0    0  0.34099287967E+02 -0.43995603341E+02 -0.13305855955E+03  0.14423229466E+03  0.00000000000E+00 0.  1.
         15    1    4    4    0    0  0.72685072444E+02 -0.42132905292E+02 -0.24578039411E+03  0.25974276427E+03  0.00000000000E+00 0. -1.
         15    1    4    4    0    0 -0.74201018289E+01 -0.10716774998E+02 -0.23597121161E+02  0.26957954384E+02  0.00000000000E+00 0. -1.
        -16    1    4    4    0    0  0.12178211885E+02 -0.29607660462E+02 -0.86629948523E+02  0.92356214647E+02  0.00000000000E+00 0.  1.
         16    1    1    2    0    0  0.91148373756E+02 -0.29241328605E+03 -0.69954862714E+03  0.76366343217E+03  0.00000000000E+00 0. -1.
    9900018    1    1    2    0    0 -0.34949730500E+02  0.94393871776E+02  0.31456568719E+02  0.13941442106E+03  0.91187600000E+02 0.  0.
<mgrwt>
<rscale>  0 0.13585603E+04</rscale>
<asrwt>0</asrwt>
<pdfrwt beam="1">  1        1 0.22769838E+00 0.13585603E+04</pdfrwt>
<pdfrwt beam="2">  1       -1 0.47963533E-01 0.13585603E+04</pdfrwt>
<totfact> 0.28694191E+01</totfact>
</mgrwt>
</event>
<event>
11    1  0.5973918E-016  0.1440160E+04  0.7818608E-02  0.8925251E-01
         -2   -1    0    0    0  501 -0.00000000000E+00  0.00000000000E+00  0.14760153546E+04  0.14760153546E+04  0.00000000000E+00 0.  1.
          2   -1    0    0  501    0  0.00000000000E+00 -0.00000000000E+00 -0.35129369222E+03  0.35129369222E+03  0.00000000000E+00 0. -1.
    9900016    2    1    2    0    0 -0.93864951540E+02  0.13198362361E+03  0.54067360668E+03  0.91444145560E+03  0.71947544831E+03 0.  0.
         24    2    3    3    0    0  0.28314913276E+03 -0.23482049832E+02  0.93725218712E+02  0.30940256685E+03  0.78871374450E+02 0.  0.
        -15    1    4    4    0    0  0.18131218861E+02 -0.26482933766E+01 -0.53480811098E+01  0.19088125281E+02  0.00000000000E+00 0. -1.
        -15    1    4    4    0    0  0.38463391589E+02  0.42667359812E+01  0.29134927357E+02  0.48440494636E+02  0.00000000000E+00 0.  1.
         15    1    4    4    0    0  0.11742847935E+03 -0.17380093465E+02  0.15615716235E+02  0.11973038881E+03  0.00000000000E+00 0.  1.
         15    1    3    3    0    0 -0.37701408430E+03  0.15546567344E+03  0.44694838797E+03  0.60503888874E+03  0.00000000000E+00 0. -1.
        -16    1    1    2    0    0  0.19687611232E+03 -0.33782304799E+03  0.53140050978E+03  0.65975079929E+03  0.00000000000E+00 0.  1.
         16    1    4    4    0    0  0.10912604296E+03 -0.77203989719E+01  0.54322656230E+02  0.12214355813E+03  0.00000000000E+00 0. -1.
    9900018    1    1    2    0    0 -0.10301116078E+03  0.20583942439E+03  0.52647545916E+02  0.25311679194E+03  0.91187600000E+02 0.  0.
<mgrwt>
<rscale>  0 0.14401596E+04</rscale>
<asrwt>0</asrwt>
<pdfrwt beam="1">  1        2 0.54045184E-01 0.14401596E+04</pdfrwt>
<pdfrwt beam="2">  1       -2 0.22707928E+00 0.14401596E+04</pdfrwt>
<totfact> 0.79630511E+00</totfact>
</mgrwt>
</event>
<event>
11    1  0.5973918E-016  0.1512172E+04  0.7818608E-02  0.8876399E-01
          2   -1    0    0  501    0  0.00000000000E+00  0.00000000000E+00  0.56703432196E+03  0.56703432196E+03  0.00000000000E+00 0. -1.
         -2   -1    0    0    0  501 -0.00000000000E+00 -0.00000000000E+00 -0.10081680147E+04  0.10081680147E+04  0.00000000000E+00 0.  1.
    9900016    2    1    2    0    0  0.21313467911E+03 -0.15514546975E+03 -0.64234076342E+03  0.99246984763E+03  0.70915318083E+03 0.  0.
        -24    2    3    3    0    0  0.42849893152E+03 -0.22706594748E+03 -0.57382448365E+03  0.75530155943E+03  0.77689309503E+02 0.  0.
        -15    1    3    3    0    0 -0.21536425242E+03  0.71920477730E+02 -0.68516279762E+02  0.23716828820E+03  0.00000000000E+00 0.  1.
        -15    1    4    4    0    0  0.25493210160E+02 -0.60823861922E+01 -0.45473945414E+02  0.52485987630E+02  0.00000000000E+00 0. -1.
         15    1    4    4    0    0  0.15534710018E+02 -0.78247663418E+01 -0.81579052570E+01  0.19212121222E+02  0.00000000000E+00 0.  1.
         15    1    4    4    0    0  0.26825822391E+03 -0.15733860433E+03 -0.34522405006E+03  0.46464777612E+03  0.00000000000E+00 0. -1.
        -16    1    4    4    0    0  0.11921278743E+03 -0.55820190616E+02 -0.17496858292E+03  0.21895567446E+03  0.00000000000E+00 0.  1.
         16    1    1    2    0    0 -0.15776375698E+03  0.26168325481E+03  0.27838368901E+03  0.41335820685E+03  0.00000000000E+00 0. -1.
    9900018    1    1    2    0    0 -0.55370922129E+02 -0.10653778506E+03 -0.77176618374E+02  0.16937428223E+03  0.91187600000E+02 0.  0.
<mgrwt>
<rscale>  0 0.15121718E+04</rscale>
<asrwt>0</asrwt>
<pdfrwt beam="1">  1        2 0.87236050E-01 0.15121718E+04</pdfrwt>
<pdfrwt beam="2">  1       -2 0.15510277E+00 0.15121718E+04</pdfrwt>
<totfact> 0.14031350E+01</totfact>
</mgrwt>
</event>
<event>
11    1  0.5973918E-016  0.1385856E+04  0.7818608E-02  0.8964121E-01
          1   -1    0    0  501    0  0.00000000000E+00  0.00000000000E+00  0.21725063379E+04  0.21725063379E+04  0.00000000000E+00 0. -1.
         -1   -1    0    0    0  501 -0.00000000000E+00 -0.00000000000E+00 -0.22101152838E+03  0.22101152838E+03  0.00000000000E+00 0.  1.
    9900016    2    1    2    0    0 -0.18853275110E+03 -0.12494125102E+03  0.86171986318E+03  0.11377768748E+04  0.70768649816E+03 0.  0.
         24    2    3    3    0    0  0.17212105375E+03 -0.14229035454E+03  0.41100666270E+02  0.24123461435E+03  0.81441219634E+02 0.  0.
        -15    1    4    4    0    0  0.67958450722E+02 -0.27293759445E+02  0.22970403347E+02  0.76752457675E+02  0.00000000000E+00 0. -1.
        -15    1    4    4    0    0  0.10144206434E+03 -0.10526839635E+03  0.23363067906E+02  0.14804648131E+03  0.00000000000E+00 0.  1.
         15    1    4    4    0    0 -0.13503605473E-01 -0.10511743459E+02 -0.36345369776E-01  0.10511814966E+02  0.00000000000E+00 0.  1.
         15    1    3    3    0    0 -0.36065380484E+03  0.17349103521E+02  0.82061919691E+03  0.89654226040E+03  0.00000000000E+00 0. -1.
        -16    1    1    2    0    0  0.26577553865E+02 -0.22183548418E+03  0.48865920871E+03  0.53731291690E+03  0.00000000000E+00 0.  1.
         16    1    4    4    0    0  0.27340422917E+01  0.78354470530E+00 -0.51964596137E+01  0.59238604030E+01  0.00000000000E+00 0. -1.
    9900018    1    1    2    0    0  0.16195519723E+03  0.34677673520E+03  0.60111573759E+03  0.71842807459E+03  0.91187600000E+02 0.  0.
<mgrwt>
<rscale>  0 0.13858556E+04</rscale>
<asrwt>0</asrwt>
<pdfrwt beam="1">  1        1 0.33423173E+00 0.13858556E+04</pdfrwt>
<pdfrwt beam="2">  1       -1 0.34001775E-01 0.13858556E+04</pdfrwt>
<totfact> 0.18177254E+01</totfact>
</mgrwt>
</event>
<event>
11    1  0.5973918E-016  0.2378205E+04  0.7818608E-02  0.8447709E-01
          1   -1    0    0  501    0  0.00000000000E+00  0.00000000000E+00  0.16618275369E+04  0.16618275369E+04  0.00000000000E+00 0. -1.
         -1   -1    0    0    0  501 -0.00000000000E+00 -0.00000000000E+00 -0.85084923283E+03  0.85084923283E+03  0.00000000000E+00 0.  1.
    9900016    2    1    2    0    0 -0.29770163781E+03  0.29465706411E+02  0.24852260455E+02  0.76760758722E+03  0.70647666636E+03 0.  0.
        -24    2    3    3    0    0  0.19478282796E+03  0.83704893855E+02 -0.11505221495E+03  0.25277159322E+03  0.75561940499E+02 0.  0.
        -15    1    4    4    0    0  0.15467848329E+03  0.45237865697E+02 -0.76432922858E+02  0.17836448464E+03  0.00000000000E+00 0. -1.
        -15    1    3    3    0    0 -0.49248446577E+03 -0.54239187444E+02  0.13990447540E+03  0.51483599400E+03  0.00000000000E+00 0.  1.
         15    1    4    4    0    0  0.12340682277E+02 -0.18285885120E+01 -0.10365859257E+02  0.16219963414E+02  0.00000000000E+00 0.  1.
         15    1    4    4    0    0  0.20982938132E+01  0.13851778551E+02 -0.73634815799E+01  0.15827048585E+02  0.00000000000E+00 0. -1.
        -16    1    4    4    0    0  0.25665368583E+02  0.26443838119E+02 -0.20889951255E+02  0.42360096581E+02  0.00000000000E+00 0.  1.
         16    1    1    2    0    0  0.39187929075E+03 -0.72707799865E+03  0.56826811968E+03  0.10025669307E+04  0.00000000000E+00 0. -1.
    9900018    1    1    2    0    0 -0.94177652940E+02  0.69761229224E+03  0.21785792398E+03  0.74250225187E+03  0.91187600000E+02 0.  0.
<mgrwt>
<rscale>  0 0.23782049E+04</rscale>
<asrwt>0</asrwt>
<pdfrwt beam="1">  1        1 0.25566577E+00 0.23782049E+04</pdfrwt>
<pdfrwt beam="2">  1       -1 0.13089988E+00 0.23782049E+04</pdfrwt>
<totfact> 0.22644200E+00</totfact>
</mgrwt>
</event>
<event>
11    1  0.1097905E-015  0.1464256E+04  0.7818608E-02  0.8908577E-01
          1   -1    0    0  501    0  0.00000000000E+00  0.00000000000E+00  0.30256459839E+04  0.30256459839E+04  0.00000000000E+00 0. -1.
         -1   -1    0    0    0  501 -0.00000000000E+00 -0.00000000000E+00 -0.17715598381E+03  0.17715598381E+03  0.00000000000E+00 0.  1.
    9900016    2    1    2    0    0  0.74241526610E+02  0.40951640929E+02  0.11934336959E+04  0.13925889872E+04  0.71262280328E+03 0.  0.
        -24    2    3    3    0    0  0.29907558730E+03 -0.58266102471E+02  0.10742755303E+04  0.11194714597E+04  0.79418438029E+02 0.  0.
        -15    1    3    3    0    0 -0.22483406069E+03  0.99217743401E+02  0.11915816553E+03  0.27311752757E+03  0.00000000000E+00 0.  1.
        -15    1    4    4    0    0  0.21063360271E+02 -0.24661018645E+01  0.64428429820E+02  0.67828971490E+02  0.00000000000E+00 0. -1.
         15    1    4    4    0    0  0.61429251380E+02 -0.22230126090E+02  0.30742667244E+03  0.31429109175E+03  0.00000000000E+00 0. -1.
         15    1    4    4    0    0  0.36835381917E+02 -0.24456958249E+02  0.14580077177E+03  0.15235764903E+03  0.00000000000E+00 0.  1.
        -16    1    4    4    0    0  0.17974759373E+03 -0.91129162683E+01  0.55661965630E+03  0.58499374738E+03  0.00000000000E+00 0.  1.
         16    1    1    2    0    0 -0.14797992555E+03 -0.67238440788E+02  0.16796876509E+04  0.16875336059E+04  0.00000000000E+00 0. -1.
    9900018    1    1    2    0    0  0.73738398940E+02  0.26286799859E+02 -0.24631346678E+02  0.12267937462E+03  0.91187600000E+02 0.  0.
<mgrwt>
<rscale>  0 0.14642558E+04</rscale>
<asrwt>0</asrwt>
<pdfrwt beam="1">  1        1 0.46548396E+00 0.14642558E+04</pdfrwt>
<pdfrwt beam="2">  1       -1 0.27254769E-01 0.14642558E+04</pdfrwt>
<totfact> 0.67488888E+00</totfact>
</mgrwt>
</event>
<event>
11    1  0.5973918E-016  0.1460799E+04  0.7818608E-02  0.8910948E-01
          2   -1    0    0  501    0  0.00000000000E+00  0.00000000000E+00  0.38592254468E+03  0.38592254468E+03  0.00000000000E+00 0. -1.
         -2   -1    0    0    0  501 -0.00000000000E+00 -0.00000000000E+00 -0.13823589936E+04  0.13823589936E+04  0.00000000000E+00 0.  1.
    9900016    2    1    2    0    0 -0.34224354302E+03 -0.31601662217E+01 -0.77391596570E+03  0.11153282037E+04  0.72654693630E+03 0.  0.
         24    2    3    3    0    0  0.20689954672E+03 -0.68082324626E+02 -0.34401545027E+03  0.41490870597E+03  0.79749475854E+02 0.  0.
        -15    1    4    4    0    0  0.21920814356E+02 -0.24091644064E+01 -0.77731467563E+02  0.80799178366E+02  0.00000000000E+00 0.  1.
        -15    1    4    4    0    0  0.50452655776E+02 -0.33870517204E+02 -0.85505658297E+02  0.10489947574E+03  0.00000000000E+00 0.  1.
         15    1    4    4    0    0  0.12984052397E+03 -0.25199840487E+02 -0.17452055636E+03  0.21897720936E+03  0.00000000000E+00 0. -1.
         15    1    3    3    0    0 -0.54914308974E+03  0.64922158405E+02 -0.42990051543E+03  0.70041949775E+03  0.00000000000E+00 0. -1.
        -16    1    1    2    0    0  0.77183816882E+02  0.18764685636E+03 -0.24322593365E+03  0.31674522742E+03  0.00000000000E+00 0.  1.
         16    1    4    4    0    0  0.46855526230E+01 -0.66028025288E+01 -0.62577680496E+01  0.10232842498E+02  0.00000000000E+00 0. -1.
    9900018    1    1    2    0    0  0.26505972614E+03 -0.18448669014E+03  0.20705450402E+02  0.33620810717E+03  0.91187600000E+02 0.  0.
<mgrwt>
<rscale>  0 0.14607991E+04</rscale>
<asrwt>0</asrwt>
<pdfrwt beam="1">  1        2 0.59372699E-01 0.14607991E+04</pdfrwt>
<pdfrwt beam="2">  1       -2 0.21267061E+00 0.14607991E+04</pdfrwt>
<totfact> 0.88246661E+00</totfact>
</mgrwt>
</event>
<event>
11    1  0.5973918E-016  0.1891775E+04  0.7818608E-02  0.8658961E-01
         -2   -1    0    0    0  501 -0.00000000000E+00  0.00000000000E+00  0.13577959862E+04  0.13577959862E+04  0.00000000000E+00 0. -1.
          2   -1    0    0  501    0  0.00000000000E+00 -0.00000000000E+00 -0.65893797265E+03  0.65893797265E+03  0.00000000000E+00 0.  1.
    9900016    2    1    2    0    0  0.16055538095E+03  0.68466395302E+02  0.18302728983E+03  0.75467580005E+03  0.71103508824E+03 0.  0.
         24    2    3    3    0    0  0.59937713163E+02 -0.28011904331E+03 -0.78221202664E+02  0.30758912174E+03  0.80207876063E+02 0.  0.
        -15    1    4    4    0    0  0.85283503456E+01 -0.95861795889E+02  0.23685099849E+01  0.96269551314E+02  0.00000000000E+00 0.  1.
        -15    1    4    4    0    0  0.26192536451E+02 -0.53793016955E+02 -0.16202104779E+02  0.61985851919E+02  0.00000000000E+00 0.  1.
         15    1    4    4    0    0 -0.10219639848E+01 -0.46297827702E+02 -0.17730607485E+02  0.49587374422E+02  0.00000000000E+00 0. -1.
         15    1    3    3    0    0  0.10061766779E+03  0.34858543861E+03  0.26124849250E+03  0.44708667830E+03  0.00000000000E+00 0. -1.
        -16    1    1    2    0    0 -0.32623566704E+03 -0.16198816867E+03 -0.26679304841E+03  0.45149574518E+03  0.00000000000E+00 0.  1.
         16    1    4    4    0    0  0.26238790351E+02 -0.84166402765E+02 -0.46657000385E+02  0.99746344085E+02  0.00000000000E+00 0. -1.
    9900018    1    1    2    0    0  0.16568028608E+03  0.93521773365E+02  0.78262377211E+03  0.81056241361E+03  0.91187600000E+02 0.  0.
<mgrwt>
<rscale>  0 0.18917752E+04</rscale>
<asrwt>0</asrwt>
<pdfrwt beam="1">  1        2 0.10137507E+00 0.18917752E+04</pdfrwt>
<pdfrwt beam="2">  1       -2 0.20889169E+00 0.18917752E+04</pdfrwt>
<totfact> 0.48193287E+00</totfact>
</mgrwt>
</event>
<event>
11    1  0.5973918E-016  0.2388925E+04  0.7818608E-02  0.8443661E-01
         -1   -1    0    0    0  501 -0.00000000000E+00  0.00000000000E+00  0.72101287792E+03  0.72101287792E+03  0.00000000000E+00 0.  1.
          1   -1    0    0  501    0  0.00000000000E+00 -0.00000000000E+00 -0.19788012222E+04  0.19788012222E+04  0.00000000000E+00 0. -1.
    9900016    2    1    2    0    0 -0.45871425953E+03  0.35814145947E+03 -0.33554109291E+03  0.10023091898E+04  0.74387620616E+03 0.  0.
         24    2    3    3    0    0 -0.29592266650E+03 -0.16880379725E+03  0.12369872196E+02  0.35022449748E+03  0.80244865162E+02 0.  0.
        -15    1    4    4    0    0 -0.11595919159E+03 -0.73396520159E+02 -0.15914517585E+02  0.13815518505E+03  0.00000000000E+00 0.  1.
        -15    1    4    4    0    0 -0.52510803661E+02 -0.53500930107E+01  0.96877425058E+01  0.53664330343E+02  0.00000000000E+00 0.  1.
         15    1    4    4    0    0 -0.53633610965E+01 -0.95858717330E+01 -0.14252839173E+00  0.10985212491E+02  0.00000000000E+00 0. -1.
         15    1    3    3    0    0 -0.16279159303E+03  0.52694525672E+03 -0.34791096510E+03  0.65208469234E+03  0.00000000000E+00 0. -1.
        -16    1    1    2    0    0  0.40329078945E+03 -0.82476051953E+03 -0.44014713850E+03  0.10181369647E+04  0.00000000000E+00 0.  1.
         16    1    4    4    0    0 -0.12208931014E+03 -0.80471312351E+02  0.18739175667E+02  0.14741976960E+03  0.00000000000E+00 0. -1.
    9900018    1    1    2    0    0  0.55423470077E+02  0.46661906006E+03 -0.48210011291E+03  0.67936794560E+03  0.91187600000E+02 0.  0.
<mgrwt>
<rscale>  0 0.23889254E+04</rscale>
<asrwt>0</asrwt>
<pdfrwt beam="1">  1        1 0.30443095E+00 0.23889254E+04</pdfrwt>
<pdfrwt beam="2">  1       -1 0.11092506E+00 0.23889254E+04</pdfrwt>
<totfact> 0.20668612E+00</totfact>
</mgrwt>
</event>
<event>
11    1  0.5973918E-016  0.1104448E+04  0.7818608E-02  0.9200868E-01
         -1   -1    0    0    0  501 -0.00000000000E+00  0.00000000000E+00  0.33358571585E+03  0.33358571585E+03  0.00000000000E+00 0.  1.
          1   -1    0    0  501    0  0.00000000000E+00 -0.00000000000E+00 -0.91416109108E+03  0.91416109108E+03  0.00000000000E+00 0. -1.
    9900016    2    1    2    0    0  0.32516446342E+02 -0.26821728077E+02 -0.12532191840E+03  0.71900806119E+03  0.70674626596E+03 0.  0.
         24    2    3    3    0    0 -0.65342510588E+01  0.21767948373E+03 -0.32499592308E+03  0.40092708457E+03  0.87710450052E+02 0.  0.
        -15    1    4    4    0    0 -0.12378849202E+02  0.20411132999E+02 -0.13736545048E+02  0.27541658042E+02  0.00000000000E+00 0.  1.
        -15    1    4    4    0    0  0.55009681738E+01  0.56961285664E+02 -0.49552760047E+02  0.75698908470E+02  0.00000000000E+00 0.  1.
         15    1    3    3    0    0  0.39050697401E+02 -0.24450121181E+03  0.19967400468E+03  0.31808097662E+03  0.00000000000E+00 0. -1.
         15    1    4    4    0    0 -0.49045525098E+01  0.91923564359E+01 -0.24063076508E+02  0.26221855449E+02  0.00000000000E+00 0. -1.
        -16    1    1    2    0    0 -0.14439581679E+02 -0.93867759021E+02 -0.81561760202E+02  0.12518777269E+03  0.00000000000E+00 0.  1.
         16    1    4    4    0    0  0.52481824791E+01  0.13111470863E+03 -0.23764354148E+03  0.27146466261E+03  0.00000000000E+00 0. -1.
    9900018    1    1    2    0    0 -0.18076864663E+02  0.12068948710E+03 -0.37369169662E+03  0.40355097305E+03  0.91187600000E+02 0.  0.
<mgrwt>
<rscale>  0 0.11044475E+04</rscale>
<asrwt>0</asrwt>
<pdfrwt beam="1">  1        1 0.14064017E+00 0.11044475E+04</pdfrwt>
<pdfrwt beam="2">  1       -1 0.51320880E-01 0.11044475E+04</pdfrwt>
<totfact> 0.67381207E+01</totfact>
</mgrwt>
</event>
<event>
11    1  0.7432265E-016  0.1512374E+04  0.7818608E-02  0.8876266E-01
          1   -1    0    0  501    0  0.00000000000E+00  0.00000000000E+00  0.12914961317E+04  0.12914961317E+04  0.00000000000E+00 0. -1.
         -1   -1    0    0    0  501 -0.00000000000E+00 -0.00000000000E+00 -0.44275698171E+03  0.44275698171E+03  0.00000000000E+00 0.  1.
    9900016    2    1    2    0    0  0.13380161149E+03  0.14153688664E+03  0.62714501420E+02  0.73555069521E+03  0.70651691771E+03 0.  0.
        -24    2    3    3    0    0  0.25079113619E+03 -0.98512140645E+02 -0.21243242709E+03  0.35212414858E+03  0.79139396592E+02 0.  0.
        -15    1    3    3    0    0 -0.11698952470E+03  0.24004902728E+03  0.27514692850E+03  0.38342654662E+03  0.00000000000E+00 0.  1.
        -15    1    4    4    0    0  0.23913284298E+02 -0.13781086914E+02 -0.34712053647E+02  0.44347380879E+02  0.00000000000E+00 0.  1.
         15    1    4    4    0    0  0.84022349779E+02 -0.62766260343E+01 -0.63299472577E+02  0.10538488756E+03  0.00000000000E+00 0. -1.
         15    1    4    4    0    0  0.16993936946E+02 -0.56554963167E+01 -0.91292705061E+00  0.17933543078E+02  0.00000000000E+00 0. -1.
        -16    1    4    4    0    0  0.12586156516E+03 -0.72798931381E+02 -0.11350797381E+03  0.18445833707E+03  0.00000000000E+00 0.  1.
         16    1    1    2    0    0  0.10845901989E+03 -0.25507531853E+03  0.59829516817E+03  0.65938144148E+03  0.00000000000E+00 0. -1.
    9900018    1    1    2    0    0 -0.24226063138E+03  0.11353843189E+03  0.18772948038E+03  0.33932097670E+03  0.91187600000E+02 0.  0.
<mgrwt>
<rscale>  0 0.15123742E+04</rscale>
<asrwt>0</asrwt>
<pdfrwt beam="1">  1        1 0.19869171E+00 0.15123742E+04</pdfrwt>
<pdfrwt beam="2">  1       -1 0.68116459E-01 0.15123742E+04</pdfrwt>
<totfact> 0.19342616E+01</totfact>
</mgrwt>
</event>
<event>
11    1  0.5973918E-016  0.2000629E+04  0.7818608E-02  0.8606327E-01
          1   -1    0    0  501    0  0.00000000000E+00  0.00000000000E+00  0.72691459185E+03  0.72691459185E+03  0.00000000000E+00 0. -1.
         -1   -1    0    0    0  501 -0.00000000000E+00 -0.00000000000E+00 -0.13765423382E+04  0.13765423382E+04  0.00000000000E+00 0.  1.
    9900016    2    1    2    0    0 -0.16788050152E+03 -0.20989800338E+03 -0.50824985247E+03  0.91752333987E+03  0.71504554544E+03 0.  0.
         24    2    3    3    0    0  0.21799241309E+03 -0.89052830010E+02 -0.44295094572E+03  0.50793158046E+03  0.79610623765E+02 0.  0.
        -15    1    4    4    0    0  0.32655227827E+02 -0.46861209387E+01 -0.11655868082E+03  0.12113731758E+03  0.00000000000E+00 0.  1.
        -15    1    4    4    0    0  0.27555803038E+02 -0.25577971976E+02 -0.79197629055E+02  0.87668805053E+02  0.00000000000E+00 0. -1.
         15    1    3    3    0    0 -0.38587291461E+03 -0.12084517337E+03 -0.65298906749E+02  0.40959175941E+03  0.00000000000E+00 0. -1.
         15    1    4    4    0    0  0.17256360163E+02 -0.67755361635E+01 -0.29684843230E+02  0.34998282443E+02  0.00000000000E+00 0.  1.
        -16    1    1    2    0    0  0.25751283293E+03  0.27653118802E+03 -0.59783785961E+03  0.70724286031E+03  0.00000000000E+00 0.  1.
         16    1    4    4    0    0  0.14052502206E+03 -0.52013200932E+02 -0.21750979261E+03  0.26412717539E+03  0.00000000000E+00 0. -1.
    9900018    1    1    2    0    0 -0.89632331413E+02 -0.66633184639E+02  0.45645996574E+03  0.47869072985E+03  0.91187600000E+02 0.  0.
<mgrwt>
<rscale>  0 0.20006286E+04</rscale>
<asrwt>0</asrwt>
<pdfrwt beam="1">  1        1 0.11183302E+00 0.20006286E+04</pdfrwt>
<pdfrwt beam="2">  1       -1 0.21177574E+00 0.20006286E+04</pdfrwt>
<totfact> 0.29818395E+00</totfact>
</mgrwt>
</event>
<event>
11    1  0.5973918E-016  0.1709331E+04  0.7818608E-02  0.8756060E-01
          2   -1    0    0  501    0  0.00000000000E+00  0.00000000000E+00  0.23846110627E+04  0.23846110627E+04  0.00000000000E+00 0. -1.
         -2   -1    0    0    0  501 -0.00000000000E+00 -0.00000000000E+00 -0.30631957939E+03  0.30631957939E+03  0.00000000000E+00 0.  1.
    9900016    2    1    2    0    0 -0.32461190532E+03 -0.95036619034E+02  0.17590317664E+04  0.19249067735E+04  0.70474710599E+03 0.  0.
         24    2    3    3    0    0 -0.72241738690E+02  0.23023077281E+03  0.12223460227E+04  0.12485036654E+04  0.80040774836E+02 0.  0.
        -15    1    4    4    0    0  0.74209895984E+01  0.22668347897E+02  0.12705743030E+03  0.12927689537E+03  0.00000000000E+00 0.  1.
        -15    1    4    4    0    0 -0.37022307648E+02  0.11273981466E+03  0.71439456993E+03  0.72418265556E+03  0.00000000000E+00 0. -1.
         15    1    4    4    0    0 -0.40128342433E+02  0.77460995528E+02  0.31823981311E+03  0.32998040600E+03  0.00000000000E+00 0.  1.
         15    1    3    3    0    0 -0.25237016663E+03 -0.32526739185E+03  0.53668574369E+03  0.67640310812E+03  0.00000000000E+00 0. -1.
        -16    1    1    2    0    0  0.13030556553E+03  0.34341529714E+03  0.15087451196E+03  0.39708528690E+03  0.00000000000E+00 0.  1.
         16    1    4    4    0    0 -0.25120782079E+01  0.17361614730E+02  0.62654209389E+02  0.65063708449E+02  0.00000000000E+00 0. -1.
    9900018    1    1    2    0    0  0.19430633979E+03 -0.24837867811E+03  0.16838520494E+03  0.36893858169E+03  0.91187600000E+02 0.  0.
<mgrwt>
<rscale>  0 0.17093309E+04</rscale>
<asrwt>0</asrwt>
<pdfrwt beam="1">  1        2 0.36686323E+00 0.17093309E+04</pdfrwt>
<pdfrwt beam="2">  1       -2 0.47126091E-01 0.17093309E+04</pdfrwt>
<totfact> 0.16482075E+01</totfact>
</mgrwt>
</event>
<event>
11    1  0.5973918E-016  0.1868601E+04  0.7818608E-02  0.8670645E-01
         -1   -1    0    0    0  501 -0.00000000000E+00  0.00000000000E+00  0.54157353631E+03  0.54157353631E+03  0.00000000000E+00 0. -1.
          1   -1    0    0  501    0  0.00000000000E+00 -0.00000000000E+00 -0.16118175376E+04  0.16118175376E+04  0.00000000000E+00 0.  1.
    9900016    2    1    2    0    0 -0.76788487343E+02  0.18708459449E+03 -0.61610973711E+03  0.96806307238E+03  0.71878911139E+03 0.  0.
        -24    2    3    3    0    0  0.10172009869E+03 -0.24613523526E+03 -0.24089702363E+03  0.36778870466E+03  0.79420543748E+02 0.  0.
        -15    1    4    4    0    0  0.47770377835E+01 -0.50775887511E+02 -0.29841417026E+02  0.59089093855E+02  0.00000000000E+00 0. -1.
        -15    1    3    3    0    0 -0.17850858603E+03  0.43321982975E+03 -0.37521271348E+03  0.60027436771E+03  0.00000000000E+00 0.  1.
         15    1    4    4    0    0  0.15282733295E+02 -0.13289402843E+02 -0.28305239445E+02  0.34804550635E+02  0.00000000000E+00 0. -1.
         15    1    4    4    0    0  0.79573373090E+02 -0.13857772368E+03 -0.13415766664E+03  0.20864799717E+03  0.00000000000E+00 0.  1.
        -16    1    4    4    0    0  0.20869545179E+01 -0.43492221230E+02 -0.48592700519E+02  0.65247063003E+02  0.00000000000E+00 0.  1.
         16    1    1    2    0    0 -0.10496718703E+03  0.25054617581E+03  0.22464033909E+03  0.35249791278E+03  0.00000000000E+00 0. -1.
    9900018    1    1    2    0    0  0.18175567437E+03 -0.43763077030E+03 -0.67877460330E+03  0.83283008877E+03  0.91187600000E+02 0.  0.
<mgrwt>
<rscale>  0 0.18686013E+04</rscale>
<asrwt>0</asrwt>
<pdfrwt beam="1">  1        1 0.24797193E+00 0.18686013E+04</pdfrwt>
<pdfrwt beam="2">  1       -1 0.83319005E-01 0.18686013E+04</pdfrwt>
<totfact> 0.73445109E+00</totfact>
</mgrwt>
</event>
<event>
11    1  0.5973918E-016  0.1811113E+04  0.7818608E-02  0.8700412E-01
          1   -1    0    0  501    0  0.00000000000E+00  0.00000000000E+00  0.21488480487E+04  0.21488480487E+04  0.00000000000E+00 0. -1.
         -1   -1    0    0    0  501 -0.00000000000E+00 -0.00000000000E+00 -0.38161504730E+03  0.38161504730E+03  0.00000000000E+00 0.  1.
    9900016    2    1    2    0    0  0.17226211091E+03 -0.17538351508E+03  0.18138951971E+03  0.77238192173E+03  0.70939274238E+03 0.  0.
        -24    2    3    3    0    0 -0.60059814375E+02  0.22401979029E+02 -0.23491673031E+03  0.25623904186E+03  0.79771839804E+02 0.  0.
        -15    1    3    3    0    0  0.23232192528E+03 -0.19778549411E+03  0.41630625002E+03  0.51614287988E+03  0.00000000000E+00 0.  1.
        -15    1    4    4    0    0  0.78125147868E+01  0.84434160437E+01 -0.60693590938E+02  0.61774093621E+02  0.00000000000E+00 0. -1.
         15    1    4    4    0    0 -0.19361538854E+02  0.28971397470E+01 -0.21891575845E+02  0.29368413278E+02  0.00000000000E+00 0. -1.
         15    1    4    4    0    0 -0.98133915185E+01  0.14210822654E+02 -0.16723921757E+02  0.24040376298E+02  0.00000000000E+00 0.  1.
        -16    1    4    4    0    0 -0.38697398789E+02 -0.31493994160E+01 -0.13560764177E+03  0.14105615866E+03  0.00000000000E+00 0.  1.
         16    1    1    2    0    0 -0.13733705292E+03  0.29787521997E+03  0.15662296625E+04  0.16002082579E+04  0.00000000000E+00 0. -1.
    9900018    1    1    2    0    0 -0.34925057991E+02 -0.12249170490E+03  0.19613819199E+02  0.15787291643E+03  0.91187600000E+02 0.  0.
<mgrwt>
<rscale>  0 0.18111132E+04</rscale>
<asrwt>0</asrwt>
<pdfrwt beam="1">  1        1 0.33059200E+00 0.18111132E+04</pdfrwt>
<pdfrwt beam="2">  1       -1 0.58710008E-01 0.18111132E+04</pdfrwt>
<totfact> 0.65451793E+00</totfact>
</mgrwt>
</event>
<event>
11    1  0.6689226E-016  0.1671960E+04  0.7818608E-02  0.8777520E-01
         -1   -1    0    0    0  501 -0.00000000000E+00  0.00000000000E+00  0.31838058507E+03  0.31838058507E+03  0.00000000000E+00 0.  1.
          1   -1    0    0  501    0  0.00000000000E+00 -0.00000000000E+00 -0.21950532910E+04  0.21950532910E+04  0.00000000000E+00 0. -1.
    9900016    2    1    2    0    0  0.10528119595E+03  0.19893386985E+03 -0.10152778600E+04  0.12612745114E+04  0.71369842754E+03 0.  0.
        -24    2    3    3    0    0  0.16129702720E+03  0.40122543365E+03 -0.34495331805E+03  0.55885395249E+03  0.79538474881E+02 0.  0.
        -15    1    4    4    0    0  0.86396726054E+01  0.10102454736E+02 -0.97538907259E+01  0.16487629263E+02  0.00000000000E+00 0.  1.
        -15    1    3    3    0    0 -0.56015831248E+02 -0.20229156381E+03 -0.67032454193E+03  0.70242055896E+03  0.00000000000E+00 0.  1.
         15    1    4    4    0    0  0.61974899604E+01  0.30418056765E+02 -0.17142464937E+02  0.35461685849E+02  0.00000000000E+00 0. -1.
         15    1    4    4    0    0  0.49645864522E+02  0.14798320358E+03 -0.16717321657E+03  0.22871516072E+03  0.00000000000E+00 0. -1.
        -16    1    4    4    0    0  0.96814000108E+02  0.21272171857E+03 -0.15088374582E+03  0.27818947665E+03  0.00000000000E+00 0.  1.
         16    1    1    2    0    0 -0.39926797381E+03 -0.10161376488E+03 -0.83147883211E+03  0.92795329644E+03  0.00000000000E+00 0. -1.
    9900018    1    1    2    0    0  0.29398677786E+03 -0.97320104964E+02 -0.29916013873E+02  0.32420606822E+03  0.91187600000E+02 0.  0.
<mgrwt>
<rscale>  0 0.16719597E+04</rscale>
<asrwt>0</asrwt>
<pdfrwt beam="1">  1        1 0.33770050E+00 0.16719597E+04</pdfrwt>
<pdfrwt beam="2">  1       -1 0.48981630E-01 0.16719597E+04</pdfrwt>
<totfact> 0.87477691E+00</totfact>
</mgrwt>
</event>
<event>
11    1  0.5973918E-016  0.1475960E+04  0.7818608E-02  0.8900598E-01
          2   -1    0    0  501    0  0.00000000000E+00  0.00000000000E+00  0.20914584522E+04  0.20914584522E+04  0.00000000000E+00 0. -1.
         -2   -1    0    0    0  501 -0.00000000000E+00 -0.00000000000E+00 -0.26039941990E+03  0.26039941990E+03  0.00000000000E+00 0.  1.
    9900016    2    1    2    0    0 -0.87863531837E+02  0.76328857728E+02  0.11252970040E+04  0.13328478373E+04  0.70472967555E+03 0.  0.
         24    2    3    3    0    0 -0.13664575230E+03  0.31775443949E+03  0.27762691071E+03  0.45011877156E+03  0.76748039208E+02 0.  0.
        -15    1    4    4    0    0 -0.11877244248E+02  0.71420670810E+02  0.45274684658E+02  0.85391909574E+02  0.00000000000E+00 0. -1.
        -15    1    4    4    0    0 -0.20455932998E+02  0.15108878806E+02  0.11617711398E+02  0.27958802401E+02  0.00000000000E+00 0.  1.
         15    1    3    3    0    0  0.48782220459E+02 -0.24142558176E+03  0.84767009326E+03  0.88272906578E+03  0.00000000000E+00 0. -1.
         15    1    4    4    0    0 -0.25089755118E+02  0.38394817514E+02  0.39014164685E+02  0.60214307850E+02  0.00000000000E+00 0.  1.
        -16    1    1    2    0    0 -0.39620496107E+02 -0.15687527148E+03 -0.10264838189E+03  0.19161504330E+03  0.00000000000E+00 0.  1.
         16    1    4    4    0    0 -0.79222819933E+02  0.19283007236E+03  0.18172034997E+03  0.27655375173E+03  0.00000000000E+00 0. -1.
    9900018    1    1    2    0    0  0.12748402794E+03  0.80546413755E+02  0.80841041024E+03  0.82739499148E+03  0.91187600000E+02 0.  0.
<mgrwt>
<rscale>  0 0.14759601E+04</rscale>
<asrwt>0</asrwt>
<pdfrwt beam="1">  1        2 0.32176283E+00 0.14759601E+04</pdfrwt>
<pdfrwt beam="2">  1       -2 0.40061451E-01 0.14759601E+04</pdfrwt>
<totfact> 0.33931360E+01</totfact>
</mgrwt>
</event>
<event>
11    1  0.5973918E-016  0.1921809E+04  0.7818608E-02  0.8644076E-01
         -1   -1    0    0    0  501 -0.00000000000E+00  0.00000000000E+00  0.27226130131E+03  0.27226130131E+03  0.00000000000E+00 0. -1.
          1   -1    0    0  501    0  0.00000000000E+00 -0.00000000000E+00 -0.33913664451E+04  0.33913664451E+04  0.00000000000E+00 0.  1.
    9900016    2    1    2    0    0  0.22353926222E+03 -0.26298628018E+03 -0.78507843118E+03  0.10965995614E+04  0.68341120094E+03 0.  0.
         24    2    3    3    0    0  0.32419490730E+03  0.12753380570E+03 -0.30721181557E+03  0.47130443211E+03  0.79884658005E+02 0.  0.
        -15    1    4    4    0    0  0.29059331697E+02  0.41900107337E+00 -0.10222715514E+02  0.30807859923E+02  0.00000000000E+00 0.  1.
        -15    1    4    4    0    0  0.44456624388E+02  0.16971206929E+02 -0.41586696826E+02  0.63197046367E+02  0.00000000000E+00 0. -1.
         15    1    4    4    0    0  0.11738264673E+02  0.16920571948E+02 -0.12740345832E+02  0.24215883723E+02  0.00000000000E+00 0.  1.
         15    1    3    3    0    0 -0.10065564508E+03 -0.39052008588E+03 -0.47786661561E+03  0.62529512926E+03  0.00000000000E+00 0. -1.
        -16    1    1    2    0    0 -0.42370080977E+03  0.50456130998E+03 -0.19730811231E+04  0.20801811484E+04  0.00000000000E+00 0.  1.
         16    1    4    4    0    0  0.23894068654E+03  0.93223025745E+02 -0.24266205740E+03  0.35308364209E+03  0.00000000000E+00 0. -1.
    9900018    1    1    2    0    0  0.20016154754E+03 -0.24157502980E+03 -0.36094558953E+03  0.48684703669E+03  0.91187600000E+02 0.  0.
<mgrwt>
<rscale>  0 0.19218094E+04</rscale>
<asrwt>0</asrwt>
<pdfrwt beam="1">  1        1 0.52174868E+00 0.19218094E+04</pdfrwt>
<pdfrwt beam="2">  1       -1 0.41886354E-01 0.19218094E+04</pdfrwt>
<totfact> 0.15948450E+00</totfact>
</mgrwt>
</event>
<event>
11    1  0.5973918E-016  0.2627477E+04  0.7818608E-02  0.8358927E-01
         -2   -1    0    0    0  501 -0.00000000000E+00  0.00000000000E+00  0.11542602859E+04  0.11542602859E+04  0.00000000000E+00 0.  1.
          2   -1    0    0  501    0  0.00000000000E+00 -0.00000000000E+00 -0.14952508695E+04  0.14952508695E+04  0.00000000000E+00 0. -1.
    9900016    2    1    2    0    0  0.44707775914E+02 -0.37455381631E+03 -0.59487655167E+02  0.80262930787E+03  0.70596436043E+03 0.  0.
         24    2    3    3    0    0 -0.71664944100E+02  0.50391702322E+02  0.24169993875E+03  0.26892970089E+03  0.78924874089E+02 0.  0.
        -15    1    4    4    0    0 -0.27338298253E+02  0.64913290093E-01  0.48867527229E+02  0.55994838893E+02  0.00000000000E+00 0.  1.
        -15    1    4    4    0    0 -0.78204056445E+01  0.83019956515E+01  0.11739334775E+02  0.16367463371E+02  0.00000000000E+00 0. -1.
         15    1    3    3    0    0  0.11637272001E+03 -0.42494551863E+03 -0.30118759392E+03  0.53369960699E+03  0.00000000000E+00 0. -1.
         15    1    4    4    0    0 -0.28514597173E+02  0.17985877265E+01  0.11729086910E+03  0.12072060778E+03  0.00000000000E+00 0.  1.
        -16    1    1    2    0    0  0.25099886691E+03 -0.67498987912E+03 -0.21090442811E+03  0.75039485999E+03  0.00000000000E+00 0.  1.
         16    1    4    4    0    0 -0.79916430303E+01  0.40226205654E+02  0.63802207648E+02  0.75846790838E+02  0.00000000000E+00 0. -1.
    9900018    1    1    2    0    0 -0.29570664282E+03  0.10495436954E+04 -0.70598500300E+02  0.10964869875E+04  0.91187600000E+02 0.  0.
<mgrwt>
<rscale>  0 0.26274769E+04</rscale>
<asrwt>0</asrwt>
<pdfrwt beam="1">  1        2 0.23003860E+00 0.26274769E+04</pdfrwt>
<pdfrwt beam="2">  1       -2 0.17757850E+00 0.26274769E+04</pdfrwt>
<totfact> 0.21249851E+00</totfact>
</mgrwt>
</event>
<event>
11    1  0.5973918E-016  0.1110048E+04  0.7818608E-02  0.9195453E-01
         -1   -1    0    0    0  501 -0.00000000000E+00  0.00000000000E+00  0.21724062728E+03  0.21724062728E+03  0.00000000000E+00 0.  1.
          1   -1    0    0  501    0  0.00000000000E+00 -0.00000000000E+00 -0.14180213822E+04  0.14180213822E+04  0.00000000000E+00 0. -1.
    9900016    2    1    2    0    0  0.78626982367E+02  0.18640918496E+03 -0.85886719095E+03  0.11168429485E+04  0.68465665360E+03 0.  0.
        -24    2    3    3    0    0  0.16544054703E+03 -0.96947773360E+02 -0.90600212250E-01  0.20836895677E+03  0.81536302200E+02 0.  0.
        -15    1    4    4    0    0  0.70093530628E+01 -0.74338872020E+01 -0.14698083566E+02  0.17900485183E+02  0.00000000000E+00 0.  1.
        -15    1    3    3    0    0 -0.86813564667E+02  0.28335695832E+03 -0.85877659074E+03  0.90847399172E+03  0.00000000000E+00 0.  1.
         15    1    4    4    0    0  0.44481941928E+02 -0.17288553502E+02  0.10858936760E+02  0.48943372865E+02  0.00000000000E+00 0. -1.
         15    1    4    4    0    0  0.40415118997E+02 -0.25222496935E+02 -0.19075810533E+02  0.51317080418E+02  0.00000000000E+00 0. -1.
        -16    1    4    4    0    0  0.73534133046E+02 -0.47002835721E+02  0.22824357126E+02  0.90208018307E+02  0.00000000000E+00 0.  1.
         16    1    1    2    0    0  0.11684893071E+03 -0.27254019139E+02 -0.12823005071E+03  0.17561150325E+03  0.00000000000E+00 0. -1.
    9900018    1    1    2    0    0 -0.19547591308E+03 -0.15915516582E+03 -0.21368351323E+03  0.34280755771E+03  0.91187600000E+02 0.  0.
<mgrwt>
<rscale>  0 0.11100484E+04</rscale>
<asrwt>0</asrwt>
<pdfrwt beam="1">  1        1 0.21815712E+00 0.11100484E+04</pdfrwt>
<pdfrwt beam="2">  1       -1 0.33421637E-01 0.11100484E+04</pdfrwt>
<totfact> 0.62597704E+01</totfact>
</mgrwt>
</event>
<event>
11    1  0.5973918E-016  0.1134437E+04  0.7818608E-02  0.9172263E-01
          1   -1    0    0  501    0  0.00000000000E+00  0.00000000000E+00  0.99262651328E+03  0.99262651328E+03  0.00000000000E+00 0. -1.
         -1   -1    0    0    0  501 -0.00000000000E+00 -0.00000000000E+00 -0.32412652692E+03  0.32412652692E+03  0.00000000000E+00 0.  1.
    9900016    2    1    2    0    0 -0.56457333239E+02 -0.20259720779E+03  0.54865586472E+03  0.92593344727E+03  0.71560913339E+03 0.  0.
        -24    2    3    3    0    0  0.22359394055E+03 -0.21048426447E+03  0.88974702353E+01  0.31779691158E+03  0.81350084162E+02 0.  0.
        -15    1    4    4    0    0  0.12323190325E+02 -0.26531139175E+01 -0.60196496820E+01  0.13969116491E+02  0.00000000000E+00 0. -1.
        -15    1    3    3    0    0 -0.28005127379E+03  0.78870566868E+01  0.53975839449E+03  0.60813653568E+03  0.00000000000E+00 0.  1.
         15    1    4    4    0    0  0.72933705596E+02 -0.10869637438E+03  0.19744657496E+02  0.13237854326E+03  0.00000000000E+00 0.  1.
         15    1    4    4    0    0  0.66863148920E+02 -0.46352821224E+02 -0.12306304546E+02  0.82284323237E+02  0.00000000000E+00 0. -1.
        -16    1    4    4    0    0  0.71473895710E+02 -0.52781954950E+02  0.74787669680E+01  0.89164928597E+02  0.00000000000E+00 0.  1.
         16    1    1    2    0    0  0.41699880613E+02  0.73486241133E+02  0.19696675319E+03  0.21432454255E+03  0.00000000000E+00 0. -1.
    9900018    1    1    2    0    0  0.14757452626E+02  0.12911096665E+03 -0.77122631552E+02  0.17649505038E+03  0.91187600000E+02 0.  0.
<mgrwt>
<rscale>  0 0.11344366E+04</rscale>
<asrwt>0</asrwt>
<pdfrwt beam="1">  1        1 0.15271177E+00 0.11344366E+04</pdfrwt>
<pdfrwt beam="2">  1       -1 0.49865620E-01 0.11344366E+04</pdfrwt>
<totfact> 0.61486101E+01</totfact>
</mgrwt>
</event>
<event>
11    1  0.5973918E-016  0.1289944E+04  0.7818608E-02  0.9037578E-01
          2   -1    0    0  501    0  0.00000000000E+00  0.00000000000E+00  0.13364000710E+04  0.13364000710E+04  0.00000000000E+00 0. -1.
         -2   -1    0    0    0  501 -0.00000000000E+00 -0.00000000000E+00 -0.31127557810E+03  0.31127557810E+03  0.00000000000E+00 0.  1.
    9900016    2    1    2    0    0 -0.25188293559E+03  0.85755359064E+02  0.59584337451E+03  0.94772489886E+03  0.68728026461E+03 0.  0.
        -24    2    3    3    0    0  0.12956666005E+03  0.23706896148E+03  0.88021606192E+02  0.29482172942E+03  0.78631018616E+02 0.  0.
        -15    1    4    4    0    0  0.44597394837E+02  0.40056324453E+02  0.12659165013E+02  0.61267374791E+02  0.00000000000E+00 0.  1.
        -15    1    3    3    0    0 -0.38144959564E+03 -0.15131360241E+03  0.50782176831E+03  0.65290316944E+03  0.00000000000E+00 0.  1.
         15    1    4    4    0    0 -0.29512014396E-01  0.39972943226E+02  0.78433110434E+01  0.40735176313E+02  0.00000000000E+00 0. -1.
         15    1    4    4    0    0  0.16774024751E+02  0.44795824448E+02  0.28992204046E+02  0.55933725871E+02  0.00000000000E+00 0. -1.
        -16    1    4    4    0    0  0.68224752473E+02  0.11224386935E+03  0.38526926090E+02  0.13688545244E+03  0.00000000000E+00 0.  1.
         16    1    1    2    0    0  0.38374747295E+03 -0.45578098412E+02  0.32082646411E+03  0.50226398052E+03  0.00000000000E+00 0. -1.
    9900018    1    1    2    0    0 -0.13186453736E+03 -0.40177260652E+02  0.10845465424E+03  0.19768676968E+03  0.91187600000E+02 0.  0.
<mgrwt>
<rscale>  0 0.12899437E+04</rscale>
<asrwt>0</asrwt>
<pdfrwt beam="1">  1        2 0.20560001E+00 0.12899437E+04</pdfrwt>
<pdfrwt beam="2">  1       -2 0.47888551E-01 0.12899437E+04</pdfrwt>
<totfact> 0.63782535E+01</totfact>
</mgrwt>
</event>
