<event>
12    1  0.4231581E-012  0.3062550E+04  0.7818608E-02  0.9027233E-01
          2   -1    0    0  501    0  0.00000000000E+00  0.00000000000E+00  0.19221823284E+04  0.19221823284E+04  0.00000000000E+00 0. -1.
         -2   -1    0    0    0  501 -0.00000000000E+00 -0.00000000000E+00 -0.13012808804E+04  0.13012808804E+04  0.00000000000E+00 0.  1.
         23    2    1    2    0    0  0.42841272765E+02  0.58439167710E+01  0.13161842460E+02  0.10119526874E+03  0.90541274027E+02 0.  0.
    9900016    2    1    2    0    0  0.45051949560E+03 -0.60131361298E+03  0.49798301841E+03  0.23412202365E+04  0.21607358080E+04 0.  0.
        -24    2    4    4    0    0 -0.11242134737E+03  0.41630232236E+03  0.95618927699E+03  0.10530676296E+04  0.93313000412E+02 0.  0.
        -15    1    4    4    0    0  0.16687768584E+03 -0.55900951777E+03 -0.29642067871E+03  0.65437376304E+03  0.00000000000E+00 0.  1.
        -15    1    3    3    0    0  0.91871986494E+01 -0.38667180458E+02  0.20826166600E+02  0.44869640949E+02  0.00000000000E+00 0. -1.
         15    1    3    3    0    0  0.33654074116E+02  0.44511097229E+02 -0.76643241405E+01  0.56325627788E+02  0.00000000000E+00 0.  1.
         15    1    5    5    0    0 -0.27095931566E+02  0.26652840140E+03  0.54822188874E+03  0.61017933228E+03  0.00000000000E+00 0. -1.
        -16    1    5    5    0    0 -0.85325415803E+02  0.14977392096E+03  0.40796738825E+03  0.44288829727E+03  0.00000000000E+00 0.  1.
         16    1    1    2    0    0 -0.49336076837E+03  0.59546969621E+03  0.10975658714E+03  0.78104770359E+03  0.00000000000E+00 0. -1.
    9900018    1    4    4    0    0  0.39606315713E+03 -0.45860641757E+03 -0.16178557987E+03  0.63377884386E+03  0.91187600000E+02 0.  0.
<mgrwt>
<rscale>  0 0.13029453E+04</rscale>
<asrwt>0</asrwt>
<pdfrwt beam="1">  1        2 0.29572036E+00 0.30625495E+04</pdfrwt>
<pdfrwt beam="2">  1       -2 0.20019706E+00 0.30625495E+04</pdfrwt>
<totfact> 0.83052738E-01</totfact>
</mgrwt>
</event>
<event>
12    1  0.4231581E-012  0.2796640E+04  0.7818608E-02  0.8304312E-01
          2   -1    0    0  501    0  0.00000000000E+00  0.00000000000E+00  0.36886255907E+04  0.36886255907E+04  0.00000000000E+00 0. -1.
         -2   -1    0    0    0  501 -0.00000000000E+00 -0.00000000000E+00 -0.53008888858E+03  0.53008888858E+03  0.00000000000E+00 0.  1.
    9900016    2    1    2    0    0 -0.54998623999E+01 -0.27965852901E+03  0.19758797615E+04  0.30034299115E+04  0.22446049230E+04 0.  0.
         23    2    3    3    0    0 -0.27413469222E+02 -0.22098196820E+01  0.42222235171E+02  0.10312229290E+03  0.89972821187E+02 0.  0.
        -24    2    3    3    0    0 -0.28577019482E+02 -0.11765679743E+04  0.12481351655E+04  0.17190073077E+04  0.10961700777E+03 0.  0.
        -15    1    4    4    0    0 -0.40576382934E+01 -0.44584710654E+02  0.13088142743E+02  0.46642902280E+02  0.00000000000E+00 0.  1.
        -15    1    3    3    0    0  0.15881740822E+03  0.49224278000E+03  0.27309541094E+03  0.58489915976E+03  0.00000000000E+00 0.  1.
         15    1    4    4    0    0 -0.23355830929E+02  0.42374890972E+02  0.29134092428E+02  0.56479390620E+02  0.00000000000E+00 0. -1.
         15    1    5    5    0    0 -0.92947972187E+01 -0.60035694742E+03  0.71595049285E+03  0.93439818375E+03  0.00000000000E+00 0. -1.
        -16    1    5    5    0    0 -0.19282222263E+02 -0.57621102691E+03  0.53218467261E+03  0.78460912395E+03  0.00000000000E+00 0.  1.
         16    1    1    2    0    0  0.54998623999E+01  0.27965852901E+03  0.11826569406E+04  0.12152845677E+04  0.00000000000E+00 0. -1.
    9900018    1    3    3    0    0 -0.10832678192E+03  0.40687648501E+03  0.41242694988E+03  0.59640115117E+03  0.91187600000E+02 0.  0.
<mgrwt>
<rscale>  0 0.27966404E+04</rscale>
<asrwt>0</asrwt>
<pdfrwt beam="1">  1        2 0.56748084E+00 0.27966404E+04</pdfrwt>
<pdfrwt beam="2">  1       -2 0.81552139E-01 0.27966404E+04</pdfrwt>
<totfact> 0.68568185E-01</totfact>
</mgrwt>
</event>
<event>
12    1  0.4231581E-012  0.3243527E+04  0.7818608E-02  0.8983114E-01
          1   -1    0    0  501    0  0.00000000000E+00  0.00000000000E+00  0.27262222524E+04  0.27262222524E+04  0.00000000000E+00 0. -1.
         -1   -1    0    0    0  501 -0.00000000000E+00 -0.00000000000E+00 -0.10277838460E+04  0.10277838460E+04  0.00000000000E+00 0.  1.
         23    2    1    2    0    0 -0.33001662005E+02 -0.26643194899E+02  0.21413306481E+02  0.10258422960E+03  0.90917682214E+02 0.  0.
    9900016    2    1    2    0    0 -0.30832670474E+01 -0.85283313827E+03  0.94261308445E+03  0.25050616500E+04  0.21585830017E+04 0.  0.
        -24    2    4    4    0    0 -0.88409816778E+03 -0.18077427905E+02 -0.12402088281E+02  0.88685141463E+03  0.66296728188E+02 0.  0.
        -15    1    3    3    0    0 -0.60349836548E+02 -0.37234446624E+02  0.17062627141E+02  0.72935862453E+02  0.00000000000E+00 0.  1.
        -15    1    4    4    0    0  0.70588976481E+03 -0.55714627793E+03  0.44107508718E+03  0.10016184741E+04  0.00000000000E+00 0.  1.
         15    1    5    5    0    0 -0.56598248693E+03 -0.14936058405E+02  0.23719163808E+02  0.56667615098E+03  0.00000000000E+00 0. -1.
         15    1    3    3    0    0  0.27348174543E+02  0.10591251725E+02  0.43506793399E+01  0.29648367150E+02  0.00000000000E+00 0. -1.
        -16    1    5    5    0    0 -0.31811568085E+03 -0.31413695000E+01 -0.36121252089E+02  0.32017526365E+03  0.00000000000E+00 0.  1.
         16    1    1    2    0    0  0.36084929052E+02  0.87947633317E+03  0.73441201551E+03  0.11463602188E+04  0.00000000000E+00 0. -1.
    9900018    1    4    4    0    0  0.17512513592E+03 -0.27760943244E+03  0.51394008555E+03  0.61659176133E+03  0.91187600000E+02 0.  0.
<mgrwt>
<rscale>  0 0.13602378E+04</rscale>
<asrwt>0</asrwt>
<pdfrwt beam="1">  1        1 0.41941880E+00 0.32435272E+04</pdfrwt>
<pdfrwt beam="2">  1       -1 0.15812059E+00 0.32435272E+04</pdfrwt>
<totfact> 0.23580420E-01</totfact>
</mgrwt>
</event>
<event>
12    1  0.4231581E-012  0.2576368E+04  0.7818608E-02  0.8376273E-01
          2   -1    0    0  501    0  0.00000000000E+00  0.00000000000E+00  0.29005602459E+04  0.29005602459E+04  0.00000000000E+00 0. -1.
         -2   -1    0    0    0  501 -0.00000000000E+00 -0.00000000000E+00 -0.57210274328E+03  0.57210274328E+03  0.00000000000E+00 0.  1.
    9900016    2    1    2    0    0 -0.28171369273E+03  0.11994657666E+03  0.20961050859E+04  0.30882967166E+04  0.22472583948E+04 0.  0.
         23    2    3    3    0    0 -0.63345922273E+01  0.49019204215E+02  0.64201960706E+02  0.12332794889E+03  0.92977856380E+02 0.  0.
        -24    2    3    3    0    0 -0.26418946411E+03 -0.91675657141E+02  0.79020635467E+03  0.84083258294E+03  0.66127532205E+02 0.  0.
        -15    1    3    3    0    0 -0.46829327257E+03 -0.62297135919E+03  0.77207630889E+03  0.10970386184E+04  0.00000000000E+00 0.  1.
        -15    1    4    4    0    0  0.38898546608E+02  0.38715835051E+02  0.51422277668E+02  0.75208134218E+02  0.00000000000E+00 0. -1.
         15    1    5    5    0    0 -0.20208091224E+03 -0.82624556403E+02  0.67776609401E+03  0.71206066498E+03  0.00000000000E+00 0. -1.
         15    1    4    4    0    0 -0.45233138836E+02  0.10303369164E+02  0.12779683038E+02  0.48119814667E+02  0.00000000000E+00 0.  1.
        -16    1    5    5    0    0 -0.62108551868E+02 -0.90511007383E+01  0.11244026066E+03  0.12877191797E+03  0.00000000000E+00 0.  1.
         16    1    1    2    0    0  0.28171369273E+03 -0.11994657666E+03  0.23235241671E+03  0.38436627255E+03  0.00000000000E+00 0. -1.
    9900018    1    3    3    0    0  0.45710363618E+03  0.78557438878E+03  0.46962046164E+03  0.10270975664E+04  0.91187600000E+02 0.  0.
<mgrwt>
<rscale>  0 0.25763684E+04</rscale>
<asrwt>0</asrwt>
<pdfrwt beam="1">  1        2 0.44624003E+00 0.25763684E+04</pdfrwt>
<pdfrwt beam="2">  1       -2 0.88015809E-01 0.25763684E+04</pdfrwt>
<totfact> 0.19791370E+00</totfact>
</mgrwt>
</event>
<event>
12    1  0.4231581E-012  0.2763857E+04  0.7818608E-02  0.8314578E-01
          2   -1    0    0  501    0  0.00000000000E+00  0.00000000000E+00  0.47406090483E+04  0.47406090483E+04  0.00000000000E+00 0. -1.
         -2   -1    0    0    0  501 -0.00000000000E+00 -0.00000000000E+00 -0.40284405326E+03  0.40284405326E+03  0.00000000000E+00 0.  1.
    9900016    2    1    2    0    0 -0.18363410709E+03  0.28983555709E+03  0.41906621710E+04  0.47701363777E+04  0.22527373338E+04 0.  0.
         23    2    3    3    0    0  0.48857311300E+02 -0.12010151584E+02  0.20655360516E+03  0.23123556408E+03  0.90962704880E+02 0.  0.
         24    2    3    3    0    0  0.77842823624E+03  0.61433345013E+02  0.26907321770E+04  0.28022142127E+04  0.51383561793E+02 0.  0.
        -15    1    5    5    0    0  0.52163875957E+03  0.28951346445E+02  0.17229985958E+04  0.18004636450E+04  0.00000000000E+00 0.  1.
        -15    1    4    4    0    0  0.62318203672E+02  0.22794999074E+02  0.14013007733E+03  0.15504711885E+03  0.00000000000E+00 0. -1.
         15    1    3    3    0    0 -0.22362640709E+03  0.12087386612E+03  0.68434217668E+03  0.73002977765E+03  0.00000000000E+00 0. -1.
         15    1    4    4    0    0 -0.13460892372E+02 -0.34805150659E+02  0.66423527831E+02  0.76188445222E+02  0.00000000000E+00 0.  1.
        -16    1    1    2    0    0  0.18363410709E+03 -0.28983555709E+03  0.14710282401E+03  0.37331672381E+03  0.00000000000E+00 0.  1.
         16    1    5    5    0    0  0.25678947667E+03  0.32481998567E+02  0.96773358122E+03  0.10017505676E+04  0.00000000000E+00 0. -1.
    9900018    1    3    3    0    0 -0.78729324754E+03  0.11953849754E+03  0.60903421213E+03  0.10066568233E+04  0.91187600000E+02 0.  0.
<mgrwt>
<rscale>  0 0.27638568E+04</rscale>
<asrwt>0</asrwt>
<pdfrwt beam="1">  1        2 0.72932443E+00 0.27638568E+04</pdfrwt>
<pdfrwt beam="2">  1       -2 0.61976012E-01 0.27638568E+04</pdfrwt>
<totfact> 0.14666482E-01</totfact>
</mgrwt>
</event>
<event>
12    1  0.4231581E-012  0.3555150E+04  0.7818608E-02  0.8938898E-01
          2   -1    0    0  501    0  0.00000000000E+00  0.00000000000E+00  0.20630134801E+04  0.20630134801E+04  0.00000000000E+00 0. -1.
         -2   -1    0    0    0  501 -0.00000000000E+00 -0.00000000000E+00 -0.16115229231E+04  0.16115229231E+04  0.00000000000E+00 0.  1.
         23    2    1    2    0    0  0.10868454396E+02 -0.27170581865E+01 -0.10769079493E+01  0.90696193880E+02  0.89995189579E+02 0.  0.
    9900016    2    1    2    0    0  0.86368887050E+03 -0.55800147271E+03  0.74211156094E+03  0.25053729780E+04  0.21607498887E+04 0.  0.
        -24    2    4    4    0    0  0.39720914209E+03  0.76220149413E+03  0.77065519809E+02  0.86829729306E+03  0.96306150275E+02 0.  0.
        -15    1    3    3    0    0  0.12075358361E+02 -0.33211163821E+02 -0.31692633576E+02  0.47468080906E+02  0.00000000000E+00 0.  1.
        -15    1    4    4    0    0  0.40026711680E+03 -0.75913615443E+03  0.62833220517E+03  0.10636272025E+04  0.00000000000E+00 0.  1.
         15    1    3    3    0    0 -0.12069039653E+01  0.30494105634E+02  0.30615725627E+02  0.43228112974E+02  0.00000000000E+00 0. -1.
         15    1    5    5    0    0  0.34095039085E+03  0.59384610873E+03  0.88315162500E+02  0.69043460066E+03  0.00000000000E+00 0. -1.
        -16    1    5    5    0    0  0.56258751241E+02  0.16835538540E+03 -0.11249642691E+02  0.17786269239E+03  0.00000000000E+00 0.  1.
         16    1    1    2    0    0 -0.87455732490E+03  0.56071853090E+03 -0.28954409606E+03  0.10784672313E+04  0.00000000000E+00 0. -1.
    9900018    1    4    4    0    0  0.66212611622E+02 -0.56106681241E+03  0.36713835957E+02  0.57344848249E+03  0.91187600000E+02 0.  0.
<mgrwt>
<rscale>  0 0.14208004E+04</rscale>
<asrwt>0</asrwt>
<pdfrwt beam="1">  1        2 0.31738669E+00 0.35551503E+04</pdfrwt>
<pdfrwt beam="2">  1       -2 0.24792660E+00 0.35551503E+04</pdfrwt>
<totfact> 0.33246654E-01</totfact>
</mgrwt>
</event>
<event>
12    1  0.4231581E-012  0.2719325E+04  0.7818608E-02  0.8328762E-01
         -2   -1    0    0    0  501 -0.00000000000E+00  0.00000000000E+00  0.49737706962E+03  0.49737706962E+03  0.00000000000E+00 0. -1.
          2   -1    0    0  501    0  0.00000000000E+00 -0.00000000000E+00 -0.37168616608E+04  0.37168616608E+04  0.00000000000E+00 0.  1.
    9900016    2    1    2    0    0  0.27053372316E+02 -0.10858550425E+01 -0.33781697003E+04  0.40532603844E+04  0.22396776900E+04 0.  0.
         23    2    3    3    0    0 -0.11550018939E+02  0.16867695062E+02 -0.10200410807E+03  0.13429067951E+03  0.84918940567E+02 0.  0.
        -24    2    3    3    0    0  0.26554570096E+03  0.61614359789E+03 -0.13114716606E+03  0.68690188704E+03  0.66986347323E+02 0.  0.
        -15    1    4    4    0    0  0.22822548465E+02 -0.24374679072E+02 -0.34099185591E+02  0.47725759882E+02  0.00000000000E+00 0. -1.
        -15    1    3    3    0    0 -0.14068117735E+03 -0.53712402283E+03 -0.19827865759E+04  0.20590619260E+04  0.00000000000E+00 0.  1.
         15    1    5    5    0    0  0.11725550257E+03  0.29664737714E+03 -0.94960707659E+02  0.33281534707E+03  0.00000000000E+00 0. -1.
         15    1    4    4    0    0 -0.34372567404E+02  0.41242374134E+02 -0.67904922479E+02  0.86564919633E+02  0.00000000000E+00 0.  1.
        -16    1    5    5    0    0  0.14829019839E+03  0.31949622076E+03 -0.36186458403E+02  0.35408653997E+03  0.00000000000E+00 0.  1.
         16    1    1    2    0    0 -0.27053372316E+02  0.10858550425E+01  0.15868510915E+03  0.16097834606E+03  0.00000000000E+00 0. -1.
    9900018    1    3    3    0    0 -0.86261132357E+02 -0.96973125170E+02 -0.11622318503E+04  0.11730058918E+04  0.91187600000E+02 0.  0.
<mgrwt>
<rscale>  0 0.27193247E+04</rscale>
<asrwt>0</asrwt>
<pdfrwt beam="1">  1        2 0.57182488E+00 0.27193247E+04</pdfrwt>
<pdfrwt beam="2">  1       -2 0.76519547E-01 0.27193247E+04</pdfrwt>
<totfact> 0.75905248E-01</totfact>
</mgrwt>
</event>
<event>
12    1  0.4231581E-012  0.2789123E+04  0.7818608E-02  0.8306653E-01
         -1   -1    0    0    0  501 -0.00000000000E+00  0.00000000000E+00  0.87392667319E+03  0.87392667319E+03  0.00000000000E+00 0.  1.
          1   -1    0    0  501    0  0.00000000000E+00 -0.00000000000E+00 -0.22253602272E+04  0.22253602272E+04  0.00000000000E+00 0. -1.
    9900016    2    1    2    0    0  0.17387097786E+03  0.53556553962E+02 -0.16232653362E+04  0.27721906771E+04  0.22398552134E+04 0.  0.
         23    2    3    3    0    0  0.31986400862E+02 -0.41326447231E+01 -0.11331197506E+03  0.14642350919E+03  0.86948443106E+02 0.  0.
         24    2    3    3    0    0 -0.21847680540E+03 -0.81363451112E+03 -0.38446722216E+03  0.93061431511E+03  0.92166839935E+02 0.  0.
        -15    1    5    5    0    0 -0.39666599311E+02 -0.11462478547E+03 -0.91279338549E+02  0.15180315607E+03  0.00000000000E+00 0.  1.
        -15    1    4    4    0    0  0.15881864742E+02 -0.32949205040E+02 -0.10664820077E+03  0.11274627474E+03  0.00000000000E+00 0. -1.
         15    1    4    4    0    0  0.16104536120E+02  0.28816560317E+02 -0.66637742869E+01  0.33677234445E+02  0.00000000000E+00 0.  1.
         15    1    3    3    0    0 -0.23011741147E+03  0.51986845731E+03 -0.58895639033E+03  0.81858833712E+03  0.00000000000E+00 0. -1.
        -16    1    1    2    0    0 -0.17387097786E+03 -0.53556553962E+02  0.27183178228E+03  0.32709622326E+03  0.00000000000E+00 0.  1.
         16    1    5    5    0    0 -0.17881020608E+03 -0.69900972565E+03 -0.29318788361E+03  0.77881115904E+03  0.00000000000E+00 0. -1.
    9900018    1    3    3    0    0  0.59047879387E+03  0.35145525250E+03 -0.53652974870E+03  0.87656451568E+03  0.91187600000E+02 0.  0.
<mgrwt>
<rscale>  0 0.27891229E+04</rscale>
<asrwt>0</asrwt>
<pdfrwt beam="1">  1        1 0.34236311E+00 0.27891229E+04</pdfrwt>
<pdfrwt beam="2">  1       -1 0.13445026E+00 0.27891229E+04</pdfrwt>
<totfact> 0.84418365E-01</totfact>
</mgrwt>
</event>
<event>
11    1  0.4231581E-012  0.2793133E+04  0.7818608E-02  0.9089927E-01
         -1   -1    0    0    0  501 -0.00000000000E+00  0.00000000000E+00  0.14639670923E+04  0.14639670923E+04  0.00000000000E+00 0.  1.
          1   -1    0    0  501    0  0.00000000000E+00 -0.00000000000E+00 -0.14352471935E+04  0.14352471935E+04  0.00000000000E+00 0. -1.
         23    2    1    2    0    0 -0.49787857483E+02 -0.34842310772E+01  0.21525311143E+02  0.10607242850E+03  0.91088146590E+02 0.  0.
    9900016    2    1    2    0    0  0.15497143798E+03  0.97078624701E+02  0.55711720890E+03  0.22254814081E+04  0.21468459440E+04 0.  0.
        -15    1    3    3    0    0 -0.74192878091E+02  0.10180892201E+02  0.22149760490E+02  0.78095106218E+02  0.00000000000E+00 0.  1.
        -15    1    4    4    0    0  0.52041024687E+03  0.47060693546E+03  0.46011514769E+03  0.83904926070E+03  0.00000000000E+00 0.  1.
         15    1    3    3    0    0  0.24405020608E+02 -0.13665123279E+02 -0.62444934643E+00  0.27977322282E+02  0.00000000000E+00 0. -1.
         15    1    4    4    0    0 -0.46753825514E+03 -0.41997181470E+03 -0.73197833965E+02  0.63271341701E+03  0.00000000000E+00 0. -1.
        -16    1    4    4    0    0 -0.21928486860E+03 -0.20163812190E+03 -0.14954827459E+02  0.29827408983E+03  0.00000000000E+00 0.  1.
         16    1    1    2    0    0 -0.10518358050E+03 -0.93594393624E+02 -0.54992262132E+03  0.56766044918E+03  0.00000000000E+00 0. -1.
    9900018    1    4    4    0    0  0.32138431485E+03  0.24808162584E+03  0.18515472263E+03  0.45544464056E+03  0.91187600000E+02 0.  0.
<mgrwt>
<rscale>  0 0.12265532E+04</rscale>
<asrwt>0</asrwt>
<pdfrwt beam="1">  1        1 0.22080726E+00 0.27931326E+04</pdfrwt>
<pdfrwt beam="2">  1       -1 0.22522571E+00 0.27931326E+04</pdfrwt>
<totfact> 0.63611267E-01</totfact>
</mgrwt>
</event>
<event>
12    1  0.4573436E-012  0.2938305E+04  0.7818608E-02  0.8261571E-01
         -1   -1    0    0    0  501 -0.00000000000E+00  0.00000000000E+00  0.56767232609E+03  0.56767232609E+03  0.00000000000E+00 0.  1.
          1   -1    0    0  501    0  0.00000000000E+00 -0.00000000000E+00 -0.38022102894E+04  0.38022102894E+04  0.00000000000E+00 0. -1.
    9900016    2    1    2    0    0 -0.60800368355E+03  0.14137353931E+03 -0.25718520441E+04  0.34594939159E+04  0.22280081375E+04 0.  0.
         23    2    3    3    0    0 -0.17084842503E+02  0.24906215833E+01 -0.13201648980E+03  0.15838126107E+03  0.85779806708E+02 0.  0.
         24    2    3    3    0    0  0.40758353577E+02 -0.77094927888E+03 -0.31952033880E+03  0.83782737179E+03  0.61946945219E+02 0.  0.
        -15    1    4    4    0    0 -0.11054364241E+02 -0.33739293384E+02 -0.10993534317E+03  0.11552626786E+03  0.00000000000E+00 0. -1.
        -15    1    5    5    0    0  0.51344103331E+02 -0.39341392984E+03 -0.15793165140E+03  0.42702827032E+03  0.00000000000E+00 0.  1.
         15    1    4    4    0    0 -0.60304782613E+01  0.36229914967E+02 -0.22081146630E+02  0.42854993211E+02  0.00000000000E+00 0.  1.
         15    1    3    3    0    0 -0.19175557241E+03  0.61385296425E+03 -0.73203677527E+03  0.97440417775E+03  0.00000000000E+00 0. -1.
        -16    1    1    2    0    0  0.60800368355E+03 -0.14137353931E+03 -0.66268591921E+03  0.91038869959E+03  0.00000000000E+00 0.  1.
         16    1    5    5    0    0 -0.10585749754E+02 -0.37753534903E+03 -0.16158868739E+03  0.41079910146E+03  0.00000000000E+00 0. -1.
    9900018    1    3    3    0    0 -0.43992162221E+03  0.29597923235E+03 -0.13882784403E+04  0.14888811053E+04  0.91187600000E+02 0.  0.
<mgrwt>
<rscale>  0 0.29383053E+04</rscale>
<asrwt>0</asrwt>
<pdfrwt beam="1">  1        1 0.58495543E+00 0.29383053E+04</pdfrwt>
<pdfrwt beam="2">  1       -1 0.87334204E-01 0.29383053E+04</pdfrwt>
<totfact> 0.15660802E-01</totfact>
</mgrwt>
</event>
<event>
12    1  0.4231581E-012  0.3093835E+04  0.7818608E-02  0.8217432E-01
          1   -1    0    0  501    0  0.00000000000E+00  0.00000000000E+00  0.26106924711E+04  0.26106924711E+04  0.00000000000E+00 0. -1.
         -1   -1    0    0    0  501 -0.00000000000E+00 -0.00000000000E+00 -0.91659705834E+03  0.91659705834E+03  0.00000000000E+00 0.  1.
    9900016    2    1    2    0    0  0.64204842863E+03 -0.35496782030E+03  0.12073992664E+04  0.26468910532E+04  0.22383009004E+04 0.  0.
         23    2    3    3    0    0  0.26163305355E+02  0.10681435979E+02  0.42579019524E+02  0.10565222347E+03  0.92470578022E+02 0.  0.
        -24    2    3    3    0    0 -0.73510177546E+02 -0.24390797342E+03 -0.41010074460E+03  0.48638581749E+03  0.59107503999E+02 0.  0.
        -15    1    4    4    0    0  0.59331937404E+02  0.80255861990E+01  0.13304192544E+02  0.61332620759E+02  0.00000000000E+00 0. -1.
        -15    1    3    3    0    0  0.38031586256E+02 -0.53566262999E+03  0.55078106378E+03  0.76924679716E+03  0.00000000000E+00 0.  1.
         15    1    5    5    0    0 -0.40852880546E+02 -0.97270126376E+02 -0.22085528953E+03  0.24476007486E+03  0.00000000000E+00 0. -1.
         15    1    4    4    0    0 -0.33168632049E+02  0.26558497805E+01  0.29274826980E+02  0.44319602715E+02  0.00000000000E+00 0.  1.
        -16    1    5    5    0    0 -0.32657297000E+02 -0.14663784704E+03 -0.18924545508E+03  0.24162574263E+03  0.00000000000E+00 0.  1.
         16    1    1    2    0    0 -0.64204842863E+03  0.35496782030E+03  0.48669614636E+03  0.88039847627E+03  0.00000000000E+00 0. -1.
    9900018    1    3    3    0    0  0.65136371456E+03  0.41392134713E+03  0.10241399277E+04  0.12856062151E+04  0.91187600000E+02 0.  0.
<mgrwt>
<rscale>  0 0.30938345E+04</rscale>
<asrwt>0</asrwt>
<pdfrwt beam="1">  1        1 0.40164499E+00 0.30938345E+04</pdfrwt>
<pdfrwt beam="2">  1       -1 0.14101493E+00 0.30938345E+04</pdfrwt>
<totfact> 0.39362941E-01</totfact>
</mgrwt>
</event>
<event>
12    1  0.4231581E-012  0.3170833E+04  0.7818608E-02  0.8993175E-01
          2   -1    0    0  501    0  0.00000000000E+00  0.00000000000E+00  0.19284907015E+04  0.19284907015E+04  0.00000000000E+00 0. -1.
         -2   -1    0    0    0  501 -0.00000000000E+00 -0.00000000000E+00 -0.14068755446E+04  0.14068755446E+04  0.00000000000E+00 0.  1.
         23    2    1    2    0    0 -0.41999294539E+02  0.20571618712E+02 -0.47878905045E+02  0.11379740898E+03  0.92034387611E+02 0.  0.
    9900016    2    1    2    0    0  0.12445383863E+03  0.44394724259E+03 -0.30996489943E+03  0.22235585221E+04  0.21530342194E+04 0.  0.
        -24    2    4    4    0    0  0.20959632207E+03  0.67615305723E+03  0.13960078424E+03  0.72435065986E+03  0.63889940079E+02 0.  0.
        -15    1    4    4    0    0  0.65295121761E+02  0.47280717380E+03 -0.59025320081E+03  0.75908426251E+03  0.00000000000E+00 0.  1.
        -15    1    3    3    0    0  0.21399520845E+02  0.22243862792E+02 -0.39033198374E+02  0.49762631558E+02  0.00000000000E+00 0.  1.
         15    1    5    5    0    0  0.11945806875E+03  0.45260960344E+03  0.11527908454E+03  0.48209433791E+03  0.00000000000E+00 0. -1.
         15    1    3    3    0    0 -0.63398815384E+02 -0.16722440803E+01 -0.88457066715E+01  0.64034777417E+02  0.00000000000E+00 0. -1.
        -16    1    5    5    0    0  0.90138253322E+02  0.22354345380E+03  0.24321699703E+02  0.24225632195E+03  0.00000000000E+00 0.  1.
         16    1    1    2    0    0 -0.82454544086E+02 -0.46451886130E+03  0.87945896130E+03  0.99801031506E+03  0.00000000000E+00 0. -1.
    9900018    1    4    4    0    0 -0.15043760521E+03 -0.70501298844E+03  0.14068751714E+03  0.74012359968E+03  0.91187600000E+02 0.  0.
<mgrwt>
<rscale>  0 0.13469043E+04</rscale>
<asrwt>0</asrwt>
<pdfrwt beam="1">  1        2 0.29669088E+00 0.31708331E+04</pdfrwt>
<pdfrwt beam="2">  1       -2 0.21644239E+00 0.31708331E+04</pdfrwt>
<totfact> 0.64058414E-01</totfact>
</mgrwt>
</event>
<event>
12    1  0.4231581E-012  0.3069585E+04  0.7818608E-02  0.8224135E-01
         -2   -1    0    0    0  501 -0.00000000000E+00  0.00000000000E+00  0.84888995186E+03  0.84888995186E+03  0.00000000000E+00 0.  1.
          2   -1    0    0  501    0  0.00000000000E+00 -0.00000000000E+00 -0.27749040361E+04  0.27749040361E+04  0.00000000000E+00 0. -1.
    9900016    2    1    2    0    0  0.39626130671E+03 -0.53564850114E+03 -0.11735526919E+04  0.26187365334E+04  0.22442399094E+04 0.  0.
         23    2    3    3    0    0 -0.12131186666E+02 -0.40939952783E+02 -0.62808149883E+02  0.11960465668E+03  0.92396779072E+02 0.  0.
        -24    2    3    3    0    0 -0.55524138583E+03 -0.70895729177E+03 -0.41949340216E+03  0.99559796568E+03  0.65781127254E+02 0.  0.
        -15    1    3    3    0    0  0.82699668839E+03  0.41485554396E+03 -0.79927416566E+03  0.12226478793E+04  0.00000000000E+00 0.  1.
        -15    1    4    4    0    0  0.18489295378E+02 -0.61897232333E+02 -0.37585542857E+02  0.74738172615E+02  0.00000000000E+00 0.  1.
         15    1    4    4    0    0 -0.30620482043E+02  0.20957279550E+02 -0.25222607027E+02  0.44866484060E+02  0.00000000000E+00 0. -1.
         15    1    5    5    0    0 -0.45223366114E+03 -0.55850171177E+03 -0.36023819492E+03  0.80387250444E+03  0.00000000000E+00 0. -1.
        -16    1    5    5    0    0 -0.10300772469E+03 -0.15045558001E+03 -0.59255207242E+02  0.19172546123E+03  0.00000000000E+00 0.  1.
         16    1    1    2    0    0 -0.39626130671E+03  0.53564850114E+03 -0.75246139227E+03  0.10050574545E+04  0.00000000000E+00 0. -1.
    9900018    1    3    3    0    0  0.13663719082E+03 -0.20060680054E+03  0.10802302577E+03  0.28088603174E+03  0.91187600000E+02 0.  0.
<mgrwt>
<rscale>  0 0.30695851E+04</rscale>
<asrwt>0</asrwt>
<pdfrwt beam="1">  1        2 0.42690832E+00 0.30695851E+04</pdfrwt>
<pdfrwt beam="2">  1       -2 0.13059845E+00 0.30695851E+04</pdfrwt>
<totfact> 0.87452981E-01</totfact>
</mgrwt>
</event>
<event>
12    1  0.4231581E-012  0.2384500E+04  0.7818608E-02  0.8445330E-01
          1   -1    0    0  501    0  0.00000000000E+00  0.00000000000E+00  0.15010495044E+04  0.15010495044E+04  0.00000000000E+00 0. -1.
         -1   -1    0    0    0  501 -0.00000000000E+00 -0.00000000000E+00 -0.94697715228E+03  0.94697715228E+03  0.00000000000E+00 0.  1.
    9900016    2    1    2    0    0 -0.95925805120E+02  0.38511894346E+02  0.61483606028E+03  0.23281218848E+04  0.22430878724E+04 0.  0.
         23    2    3    3    0    0  0.29536842720E+01  0.15887171942E+02 -0.14933282584E+02  0.94031723413E+02  0.91421198833E+02 0.  0.
        -24    2    3    3    0    0  0.69349269133E+03  0.54479959166E+02  0.24792448874E+03  0.74153151638E+03  0.67098873312E+02 0.  0.
        -15    1    3    3    0    0 -0.71682423799E+02  0.52177134492E+03  0.94580413642E+02  0.53509733778E+03  0.00000000000E+00 0.  1.
        -15    1    4    4    0    0 -0.39333910168E+02  0.28533520483E+02 -0.55717729764E+01  0.48911787274E+02  0.00000000000E+00 0.  1.
         15    1    4    4    0    0  0.42287594440E+02 -0.12646348541E+02 -0.93615096076E+01  0.45119936138E+02  0.00000000000E+00 0. -1.
         15    1    5    5    0    0  0.21311759450E+03  0.46748418983E+02  0.68528794998E+02  0.22869350560E+03  0.00000000000E+00 0. -1.
        -16    1    5    5    0    0  0.48037509683E+03  0.77315401828E+01  0.17939569374E+03  0.51283801078E+03  0.00000000000E+00 0.  1.
         16    1    1    2    0    0  0.95925805120E+02 -0.38511894346E+02 -0.60763708150E+02  0.11990477189E+03  0.00000000000E+00 0. -1.
    9900018    1    3    3    0    0 -0.72068975692E+03 -0.55362658168E+03  0.28726444049E+03  0.95746130722E+03  0.91187600000E+02 0.  0.
<mgrwt>
<rscale>  0 0.23844996E+04</rscale>
<asrwt>0</asrwt>
<pdfrwt beam="1">  1        1 0.23093069E+00 0.23844996E+04</pdfrwt>
<pdfrwt beam="2">  1       -1 0.14568879E+00 0.23844996E+04</pdfrwt>
<totfact> 0.22110462E+00</totfact>
</mgrwt>
</event>
<event>
11    1  0.4231581E-012  0.2570398E+04  0.7818608E-02  0.9170343E-01
         -2   -1    0    0    0  501 -0.00000000000E+00  0.00000000000E+00  0.10356627459E+04  0.10356627459E+04  0.00000000000E+00 0.  1.
          2   -1    0    0  501    0  0.00000000000E+00 -0.00000000000E+00 -0.17225796548E+04  0.17225796548E+04  0.00000000000E+00 0. -1.
         23    2    1    2    0    0  0.21330596203E+02 -0.30085301903E+02 -0.49453331537E+02  0.10997807141E+03  0.91046276503E+02 0.  0.
    9900016    2    1    2    0    0 -0.49875772089E+02  0.39568835965E+03 -0.64576616373E+03  0.22814546295E+04  0.21515028277E+04 0.  0.
        -15    1    4    4    0    0  0.61385947105E+03  0.20868699784E+03 -0.11967312805E+03  0.65931431869E+03  0.00000000000E+00 0.  1.
        -15    1    3    3    0    0  0.15420124868E+02  0.83785106789E+01 -0.65554870957E+02  0.67863250720E+02  0.00000000000E+00 0. -1.
         15    1    4    4    0    0 -0.22240885111E+03 -0.19288350579E+03 -0.12155883665E+02  0.29464811108E+03  0.00000000000E+00 0. -1.
         15    1    3    3    0    0  0.59104713347E+01 -0.38463812582E+02  0.16101539419E+02  0.42114820686E+02  0.00000000000E+00 0.  1.
        -16    1    4    4    0    0 -0.41397320616E+03 -0.28945758996E+03 -0.50130535651E+02  0.50761460027E+03  0.00000000000E+00 0.  1.
         16    1    1    2    0    0  0.28545175886E+02 -0.36560305775E+03  0.83025864118E+01  0.36680969977E+03  0.00000000000E+00 0. -1.
    9900018    1    4    4    0    0 -0.27353185871E+02  0.66934245756E+03 -0.46380661637E+03  0.81987759944E+03  0.91187600000E+02 0.  0.
<mgrwt>
<rscale>  0 0.11364847E+04</rscale>
<asrwt>0</asrwt>
<pdfrwt beam="1">  1        2 0.26501225E+00 0.25703977E+04</pdfrwt>
<pdfrwt beam="2">  1       -2 0.15933273E+00 0.25703977E+04</pdfrwt>
<totfact> 0.21449537E+00</totfact>
</mgrwt>
</event>
