<event>
11    1  0.1119325E-013  0.4828703E+04  0.7818608E-02  0.8561095E-01
         -2   -1    0    0    0  501 -0.00000000000E+00  0.00000000000E+00  0.15660103228E+04  0.15660103228E+04  0.00000000000E+00 0.  1.
          2   -1    0    0  501    0  0.00000000000E+00 -0.00000000000E+00 -0.42283568191E+04  0.42283568191E+04  0.00000000000E+00 0. -1.
         24    2    1    2    0    0  0.14511820748E+03  0.12248126194E+02  0.13012185924E+03  0.21635190951E+03  0.93097474508E+02 0.  0.
    9900016    2    1    2    0    0  0.16952331448E+04  0.33810175786E+03 -0.95410256235E+03  0.29532815448E+04  0.21962313106E+04 0.  0.
        -15    1    3    3    0    0  0.16547882874E+02  0.36028570422E+02  0.46678074915E+02  0.61243228131E+02  0.00000000000E+00 0.  1.
        -15    1    4    4    0    0 -0.25620061586E+02  0.10801852365E+03  0.27132215934E+03  0.29315542492E+03  0.00000000000E+00 0.  1.
         15    1    4    4    0    0 -0.51065961474E+02  0.14150791044E+03  0.10921239646E+03  0.18590204055E+03  0.00000000000E+00 0. -1.
         15    1    1    2    0    0 -0.18403513523E+04 -0.35034988406E+03 -0.18383657932E+04  0.26247336876E+04  0.00000000000E+00 0. -1.
        -16    1    4    4    0    0  0.11579617532E+04  0.29653155073E+03 -0.13706271495E+04  0.18186327736E+04  0.00000000000E+00 0.  1.
         16    1    3    3    0    0  0.12857032460E+03 -0.23780444228E+02  0.83443784326E+02  0.15510868138E+03  0.00000000000E+00 0. -1.
    9900018    1    4    4    0    0  0.61395741471E+03 -0.20795622696E+03  0.35990031330E+02  0.65559130574E+03  0.91187600000E+02 0.  0.
<mgrwt>
<rscale>  0 0.21003374E+04</rscale>
<asrwt>0</asrwt>
<pdfrwt beam="1">  1        2 0.65051642E+00 0.48287032E+04</pdfrwt>
<pdfrwt beam="2">  1       -2 0.24092467E+00 0.48287032E+04</pdfrwt>
<totfact> 0.11643612E-02</totfact>
</mgrwt>
</event>
<event>
12    1  0.1119325E-013  0.2870637E+04  0.7818608E-02  0.8913698E-01
          1   -1    0    0  501    0  0.00000000000E+00  0.00000000000E+00  0.14964946567E+04  0.14964946567E+04  0.00000000000E+00 0. -1.
         -1   -1    0    0    0  501 -0.00000000000E+00 -0.00000000000E+00 -0.15679715862E+04  0.15679715862E+04  0.00000000000E+00 0.  1.
         24    2    1    2    0    0 -0.62516662261E+02 -0.16967625240E+03 -0.35041821101E+02  0.19359821407E+03  0.59615229397E+02 0.  0.
    9900016    2    1    2    0    0  0.41196810902E+03 -0.26843818789E+03  0.20910755953E+03  0.22590250930E+04  0.21949240570E+04 0.  0.
         23    2    4    4    0    0  0.26153011663E+03 -0.46586898695E+03  0.11423492240E+04  0.12664257784E+04  0.11593354941E+03 0.  0.
        -15    1    5    5    0    0  0.25343719467E+03 -0.35901753029E+03  0.90992094567E+03  0.10104850944E+04  0.00000000000E+00 0. -1.
        -15    1    3    3    0    0 -0.15089189208E+02 -0.17579410641E+02  0.13792516377E+02  0.26962062559E+02  0.00000000000E+00 0.  1.
         15    1    1    2    0    0 -0.34945144676E+03  0.43811444030E+03 -0.24554266793E+03  0.61184293590E+03  0.00000000000E+00 0. -1.
         15    1    5    5    0    0  0.80929219600E+01 -0.10685145666E+03  0.23242827828E+03  0.25594068399E+03  0.00000000000E+00 0.  1.
        -16    1    4    4    0    0  0.60371349879E+02  0.20100857903E+03 -0.58200831467E+03  0.61869445373E+03  0.00000000000E+00 0.  1.
         16    1    3    3    0    0 -0.47427473053E+02 -0.15209684176E+03 -0.48834337478E+02  0.16663615151E+03  0.00000000000E+00 0. -1.
    9900018    1    4    4    0    0  0.90066642509E+02 -0.35777799712E+01 -0.35123334975E+03  0.37390486086E+03  0.91187600000E+02 0.  0.
<mgrwt>
<rscale>  0 0.14568025E+04</rscale>
<asrwt>0</asrwt>
<pdfrwt beam="1">  1        1 0.23022995E+00 0.28706368E+04</pdfrwt>
<pdfrwt beam="2">  1       -1 0.24122640E+00 0.28706368E+04</pdfrwt>
<totfact> 0.44756300E-01</totfact>
</mgrwt>
</event>
<event>
10    1  0.1119325E-013  0.3084558E+04  0.7818608E-02  0.8771282E-01
         -1   -1    0    0    0  501 -0.00000000000E+00  0.00000000000E+00  0.21478192551E+04  0.21478192551E+04  0.00000000000E+00 0. -1.
          1   -1    0    0  501    0  0.00000000000E+00 -0.00000000000E+00 -0.15118810052E+04  0.15118810052E+04  0.00000000000E+00 0.  1.
    9900016    2    1    2    0    0  0.34953554251E+03 -0.40409200401E+03  0.13055005020E+04  0.26198165263E+04  0.22076325843E+04 0.  0.
        -15    1    3    3    0    0 -0.16451815504E+03 -0.48301136867E+03  0.91078005413E+03  0.10439762989E+04  0.00000000000E+00 0.  1.
        -15    1    1    2    0    0 -0.14732997533E+03  0.48696175543E+03 -0.34047267520E+03  0.61217604939E+03  0.00000000000E+00 0.  1.
         15    1    3    3    0    0  0.32167837675E+02  0.77223635001E+02  0.19450907000E+03  0.21173577378E+03  0.00000000000E+00 0. -1.
         15    1    1    2    0    0 -0.11770060792E+03  0.33548605795E+02 -0.19972079309E+03  0.23423777929E+03  0.00000000000E+00 0. -1.
        -16    1    1    2    0    0 -0.84504959247E+02 -0.11641835722E+03 -0.12936878382E+03  0.19346990531E+03  0.00000000000E+00 0.  1.
         16    1    3    3    0    0  0.47752821183E+03 -0.52630165320E+03  0.37106191406E+03  0.80169418566E+03  0.00000000000E+00 0. -1.
    9900018    1    3    3    0    0  0.43576480467E+01  0.52799738286E+03 -0.17085053616E+03  0.56241026795E+03  0.91187600000E+02 0.  0.
<mgrwt>
<rscale>  0 0.16827195E+04</rscale>
<asrwt>0</asrwt>
<pdfrwt beam="1">  1        1 0.23259708E+00 0.30845579E+04</pdfrwt>
<pdfrwt beam="2">  1       -1 0.33043373E+00 0.30845579E+04</pdfrwt>
<totfact> 0.11152271E-01</totfact>
</mgrwt>
</event>
<event>
11    1  0.1119325E-013  0.4025062E+04  0.7818608E-02  0.8590167E-01
         -2   -1    0    0    0  501 -0.00000000000E+00  0.00000000000E+00  0.17882112423E+04  0.17882112423E+04  0.00000000000E+00 0.  1.
          2   -1    0    0  501    0  0.00000000000E+00 -0.00000000000E+00 -0.33948981668E+04  0.33948981668E+04  0.00000000000E+00 0. -1.
    9900016    2    1    2    0    0  0.68998352710E+03  0.13753242768E+04 -0.48481580779E+03  0.27225003188E+04  0.21930270141E+04 0.  0.
         23    2    3    3    0    0 -0.36881356176E+03  0.20881048291E+03 -0.58396876876E+03  0.73054591280E+03  0.11424774267E+03 0.  0.
        -15    1    1    2    0    0 -0.77898677176E+02  0.14413781259E+02 -0.32229972471E+03  0.33189316586E+03  0.00000000000E+00 0.  1.
        -15    1    4    4    0    0 -0.15714359115E+02 -0.10671453242E+02 -0.52160056444E+02  0.55511192429E+02  0.00000000000E+00 0.  1.
         15    1    4    4    0    0 -0.35309920265E+03  0.21948193615E+03 -0.53180871232E+03  0.67503472037E+03  0.00000000000E+00 0. -1.
         15    1    1    2    0    0 -0.54600173176E+03 -0.12179699495E+04 -0.27526427732E+02  0.13350379744E+04  0.00000000000E+00 0. -1.
        -16    1    3    3    0    0  0.14057518373E+03 -0.23292149715E+03  0.15809111931E+03  0.31465315527E+03  0.00000000000E+00 0.  1.
         16    1    1    2    0    0 -0.66083118165E+02 -0.17176810854E+03 -0.77204496423E+03  0.79367795006E+03  0.00000000000E+00 0. -1.
    9900018    1    3    3    0    0  0.91822190513E+03  0.13994352910E+04 -0.58938158337E+02  0.16773012507E+04  0.91187600000E+02 0.  0.
<mgrwt>
<rscale>  0 0.20355734E+04</rscale>
<asrwt>0</asrwt>
<pdfrwt beam="1">  1        2 0.52229202E+00 0.40250618E+04</pdfrwt>
<pdfrwt beam="2">  1       -2 0.27510942E+00 0.40250618E+04</pdfrwt>
<totfact> 0.33053394E-02</totfact>
</mgrwt>
</event>
