<event>
12    1  0.7674897E-010  0.1538436E+04  0.7818608E-02  0.9368820E-01
         -1   -1    0    0    0  501 -0.00000000000E+00  0.00000000000E+00  0.10367506755E+04  0.10367506755E+04  0.00000000000E+00 0.  1.
          1   -1    0    0  501    0  0.00000000000E+00 -0.00000000000E+00 -0.74641661147E+03  0.74641661147E+03  0.00000000000E+00 0. -1.
         23    2    1    2    0    0  0.17993119345E+03  0.89816838813E+02  0.28065681050E+02  0.22253570726E+03  0.91061296077E+02 0.  0.
    9900016    2    1    2    0    0  0.45483828625E+03 -0.26865745633E+03  0.17667323156E+03  0.89561820478E+03  0.70133005248E+03 0.  0.
         23    2    4    4    0    0  0.95385876619E+02 -0.48823060160E+02  0.25823615850E+03  0.29434652006E+03  0.92042401380E+02 0.  0.
        -15    1    5    5    0    0  0.13844384406E+02 -0.55720177223E+02  0.13149187371E+03  0.14348002642E+03  0.00000000000E+00 0.  1.
        -15    1    3    3    0    0  0.78843892045E+02 -0.86972221379E+01  0.15538152054E+02  0.80829667542E+02  0.00000000000E+00 0. -1.
         15    1    3    3    0    0  0.10108730141E+03  0.98514060951E+02  0.12527528996E+02  0.14170603972E+03  0.00000000000E+00 0.  1.
         15    1    5    5    0    0  0.81541492213E+02  0.68971170625E+01  0.12674428479E+03  0.15086649364E+03  0.00000000000E+00 0. -1.
        -16    1    1    2    0    0 -0.63476947970E+03  0.17884061752E+03  0.85595151382E+02  0.66501337489E+03  0.00000000000E+00 0.  1.
         16    1    4    4    0    0  0.54673004001E+02 -0.25738866476E+03  0.23416890347E+02  0.26417118099E+03  0.00000000000E+00 0. -1.
    9900018    1    4    4    0    0  0.30477940563E+03  0.37554268588E+02 -0.10497981729E+03  0.33710050373E+03  0.91187600000E+02 0.  0.
<mgrwt>
<rscale>  0 0.94686738E+03</rscale>
<asrwt>0</asrwt>
<pdfrwt beam="1">  1        1 0.11483332E+00 0.15384363E+04</pdfrwt>
<pdfrwt beam="2">  1       -1 0.15950010E+00 0.15384363E+04</pdfrwt>
<totfact> 0.69812173E+00</totfact>
</mgrwt>
</event>
<event>
12    1  0.7674896E-010  0.1665515E+04  0.7818608E-02  0.8781281E-01
         -1   -1    0    0    0  501 -0.00000000000E+00  0.00000000000E+00  0.22063042179E+04  0.22063042179E+04  0.00000000000E+00 0.  1.
          1   -1    0    0  501    0  0.00000000000E+00 -0.00000000000E+00 -0.31431965789E+03  0.31431965789E+03  0.00000000000E+00 0. -1.
         23    2    1    2    0    0  0.22094925486E+03  0.39353346466E+03  0.44884542337E+03  0.64309094522E+03  0.91741968093E+02 0.  0.
    9900016    2    1    2    0    0 -0.38645551880E+03 -0.65632458053E+02  0.11384341069E+04  0.14002944696E+04  0.71493838765E+03 0.  0.
         23    2    4    4    0    0  0.15298797609E+03 -0.91284991336E+02  0.30486444848E+03  0.36624042946E+03  0.97218566928E+02 0.  0.
        -15    1    3    3    0    0  0.11568240156E+03  0.12320795120E+03  0.19014855063E+03  0.25439946654E+03  0.00000000000E+00 0. -1.
        -15    1    5    5    0    0  0.11597538646E+02 -0.54399091915E+02  0.67005539084E+02  0.87083330045E+02  0.00000000000E+00 0. -1.
         15    1    3    3    0    0  0.10526685331E+03  0.27032551346E+03  0.25869687274E+03  0.38869147868E+03  0.00000000000E+00 0.  1.
         15    1    5    5    0    0  0.14139043744E+03 -0.36885899421E+02  0.23785890939E+03  0.27915709942E+03  0.00000000000E+00 0.  1.
        -16    1    4    4    0    0 -0.48296933288E+03  0.73485691187E+02  0.60996128771E+03  0.78148083522E+03  0.00000000000E+00 0.  1.
         16    1    1    2    0    0  0.16550626394E+03 -0.32790100661E+03  0.30470502973E+03  0.47723846102E+03  0.00000000000E+00 0. -1.
    9900018    1    4    4    0    0 -0.56474162014E+02 -0.47833157904E+02  0.22360837075E+03  0.25257320490E+03  0.91187600000E+02 0.  0.
<mgrwt>
<rscale>  0 0.16655147E+04</rscale>
<asrwt>0</asrwt>
<pdfrwt beam="1">  1        1 0.48356872E-01 0.16655147E+04</pdfrwt>
<pdfrwt beam="2">  1       -1 0.33943141E+00 0.16655147E+04</pdfrwt>
<totfact> 0.14411494E+00</totfact>
</mgrwt>
</event>
<event>
12    1  0.7674896E-010  0.2791595E+04  0.7818608E-02  0.9038080E-01
          2   -1    0    0  501    0  0.00000000000E+00  0.00000000000E+00  0.20902405056E+04  0.20902405056E+04  0.00000000000E+00 0. -1.
         -2   -1    0    0    0  501 -0.00000000000E+00 -0.00000000000E+00 -0.10215808165E+04  0.10215808165E+04  0.00000000000E+00 0.  1.
         23    2    1    2    0    0 -0.47590890655E+02  0.74009157723E+02  0.14610719851E+02  0.12786039345E+03  0.91610909706E+02 0.  0.
    9900016    2    1    2    0    0  0.92062188729E+03  0.87571892421E+03  0.83017940258E+03  0.16746541908E+04  0.70770087244E+03 0.  0.
         23    2    4    4    0    0 -0.55037221716E+01  0.27813769755E+02  0.17864491976E+03  0.20237175160E+03  0.90754733994E+02 0.  0.
        -15    1    3    3    0    0 -0.72134409263E+02  0.42715683817E+02 -0.40477697261E+01  0.83930847032E+02  0.00000000000E+00 0.  1.
        -15    1    5    5    0    0  0.18582493151E+02 -0.23516102148E+01 -0.87243833124E+00  0.18751007198E+02  0.00000000000E+00 0.  1.
         15    1    5    5    0    0 -0.24086215322E+02  0.30165379970E+02  0.17951735809E+03  0.18362074440E+03  0.00000000000E+00 0. -1.
         15    1    3    3    0    0  0.24543518608E+02  0.31293473906E+02  0.18658489577E+02  0.43929546414E+02  0.00000000000E+00 0. -1.
        -16    1    1    2    0    0 -0.87303099663E+03 -0.94972808194E+03  0.22386956664E+03  0.13093067378E+04  0.00000000000E+00 0.  1.
         16    1    4    4    0    0  0.47315465171E+03  0.53551314163E+03  0.16791990814E+03  0.73406181269E+03  0.00000000000E+00 0. -1.
    9900018    1    4    4    0    0  0.45297095775E+03  0.31239201283E+03  0.48361457468E+03  0.73822062656E+03  0.91187600000E+02 0.  0.
<mgrwt>
<rscale>  0 0.12893173E+04</rscale>
<asrwt>0</asrwt>
<pdfrwt beam="1">  1        2 0.32157546E+00 0.27915952E+04</pdfrwt>
<pdfrwt beam="2">  1       -2 0.15716628E+00 0.27915952E+04</pdfrwt>
<totfact> 0.13637666E+00</totfact>
</mgrwt>
</event>
<event>
12    1  0.7674896E-010  0.1643118E+04  0.7818608E-02  0.8794488E-01
          1   -1    0    0  501    0  0.00000000000E+00  0.00000000000E+00  0.13131560245E+04  0.13131560245E+04  0.00000000000E+00 0. -1.
         -1   -1    0    0    0  501 -0.00000000000E+00 -0.00000000000E+00 -0.51399797303E+03  0.51399797303E+03  0.00000000000E+00 0.  1.
         23    2    1    2    0    0  0.79753932783E+02 -0.34283381521E+03  0.13738227772E+03  0.38885720725E+03  0.91871229200E+02 0.  0.
    9900016    2    1    2    0    0  0.22437598009E+03  0.18957586550E+03  0.76583102621E+03  0.10821921728E+04  0.70594557079E+03 0.  0.
         23    2    4    4    0    0  0.26168920271E+03 -0.55319157600E+02  0.32381276305E+03  0.43028383350E+03  0.93530871058E+02 0.  0.
        -15    1    5    5    0    0  0.97370768343E+02 -0.48532864482E+02  0.18705349299E+03  0.21639203937E+03  0.00000000000E+00 0.  1.
        -15    1    3    3    0    0  0.24698290951E+02 -0.27131302592E+03  0.89980792399E+02  0.28690992770E+03  0.00000000000E+00 0.  1.
         15    1    3    3    0    0  0.55055641832E+02 -0.71520789288E+02  0.47401485322E+02  0.10194727956E+03  0.00000000000E+00 0. -1.
         15    1    5    5    0    0  0.16431843437E+03 -0.67862931180E+01  0.13675927006E+03  0.21389179413E+03  0.00000000000E+00 0. -1.
        -16    1    1    2    0    0 -0.30412991288E+03  0.15325794971E+03 -0.10405525244E+03  0.35610461751E+03  0.00000000000E+00 0.  1.
         16    1    4    4    0    0 -0.17968307277E+03  0.21780845665E+03  0.16730748554E+03  0.32820470007E+03  0.00000000000E+00 0. -1.
    9900018    1    4    4    0    0  0.14236985015E+03  0.27086566445E+02  0.27471077761E+03  0.32370363922E+03  0.91187600000E+02 0.  0.
<mgrwt>
<rscale>  0 0.16431184E+04</rscale>
<asrwt>0</asrwt>
<pdfrwt beam="1">  1        1 0.20202400E+00 0.16431184E+04</pdfrwt>
<pdfrwt beam="2">  1       -1 0.79076612E-01 0.16431184E+04</pdfrwt>
<totfact> 0.13533116E+01</totfact>
</mgrwt>
</event>
<event>
12    1  0.7674896E-010  0.1178311E+04  0.7818608E-02  0.9586325E-01
          2   -1    0    0  501    0  0.00000000000E+00  0.00000000000E+00  0.23916160216E+04  0.23916160216E+04  0.00000000000E+00 0. -1.
         -2   -1    0    0    0  501 -0.00000000000E+00 -0.00000000000E+00 -0.20699110806E+03  0.20699110806E+03  0.00000000000E+00 0.  1.
         23    2    1    2    0    0  0.19721803229E+03  0.70420786519E+02  0.33919139009E+03  0.40907723033E+03  0.91865890426E+02 0.  0.
    9900016    2    1    2    0    0  0.28899021850E+02  0.11353916996E+03  0.65436897840E+03  0.96331420125E+03  0.69717228421E+03 0.  0.
         23    2    4    4    0    0 -0.29416235784E+03  0.23775280983E+02  0.26332890166E+03  0.40651814719E+03  0.93904934869E+02 0.  0.
        -15    1    5    5    0    0 -0.69249637976E+02  0.24022227653E+02  0.11742940286E+03  0.13842775891E+03  0.00000000000E+00 0.  1.
        -15    1    3    3    0    0  0.11793993863E+03 -0.66285188415E+01  0.17518758042E+03  0.21129234420E+03  0.00000000000E+00 0. -1.
         15    1    3    3    0    0  0.79278093662E+02  0.77049305360E+02  0.16400380967E+03  0.19778488612E+03  0.00000000000E+00 0.  1.
         15    1    5    5    0    0 -0.22491271986E+03 -0.24694666941E+00  0.14589949880E+03  0.26809038828E+03  0.00000000000E+00 0. -1.
        -16    1    1    2    0    0 -0.22611705414E+03 -0.18395995648E+03  0.11910645450E+04  0.12262156981E+04  0.00000000000E+00 0.  1.
         16    1    4    4    0    0  0.17597808444E+03 -0.15122547862E+01  0.28310683498E+03  0.33334674609E+03  0.00000000000E+00 0. -1.
    9900018    1    4    4    0    0  0.14708329525E+03  0.91276143764E+02  0.10793324175E+03  0.22344930797E+03  0.91187600000E+02 0.  0.
<mgrwt>
<rscale>  0 0.78207919E+03</rscale>
<asrwt>0</asrwt>
<pdfrwt beam="1">  1        2 0.36794091E+00 0.11783108E+04</pdfrwt>
<pdfrwt beam="2">  1       -2 0.31844788E-01 0.11783108E+04</pdfrwt>
<totfact> 0.36591564E+01</totfact>
</mgrwt>
</event>
<event>
12    1  0.7674896E-010  0.1916361E+04  0.7818608E-02  0.9261527E-01
         -2   -1    0    0    0  501 -0.00000000000E+00  0.00000000000E+00  0.91790599517E+03  0.91790599517E+03  0.00000000000E+00 0.  1.
          2   -1    0    0  501    0  0.00000000000E+00 -0.00000000000E+00 -0.12279054002E+04  0.12279054002E+04  0.00000000000E+00 0. -1.
         23    2    1    2    0    0 -0.13033331250E+03  0.56573192732E+02  0.85236512706E+02  0.18911745649E+03  0.91174836267E+02 0.  0.
    9900016    2    1    2    0    0 -0.18963641077E+03  0.72424692191E+03 -0.42250449033E+03  0.11124165850E+04  0.70602056774E+03 0.  0.
         23    2    4    4    0    0 -0.12715431237E+02  0.38454715848E+03  0.96529105135E+02  0.40726966882E+03  0.92263295608E+02 0.  0.
        -15    1    5    5    0    0  0.15377690042E+02  0.39127060565E+02 -0.12676662219E+02  0.43910112554E+02  0.00000000000E+00 0.  1.
        -15    1    3    3    0    0 -0.11536000741E+03  0.38514155241E+02  0.24574365279E+02  0.12407727790E+03  0.00000000000E+00 0. -1.
         15    1    5    5    0    0 -0.28093121279E+02  0.34542009792E+03  0.10920576735E+03  0.36335955627E+03  0.00000000000E+00 0. -1.
         15    1    3    3    0    0 -0.14973305095E+02  0.18059037490E+02  0.60662147427E+02  0.65040178590E+02  0.00000000000E+00 0.  1.
        -16    1    4    4    0    0 -0.19322260393E+03  0.27168541061E+03 -0.26345387797E+03  0.42491867789E+03  0.00000000000E+00 0.  1.
         16    1    1    2    0    0  0.31996972327E+03 -0.78082011464E+03  0.27268572586E+02  0.84427735389E+03  0.00000000000E+00 0. -1.
    9900018    1    4    4    0    0  0.16301624391E+02  0.68014352816E+02 -0.25557971749E+03  0.28022823829E+03  0.91187600000E+02 0.  0.
<mgrwt>
<rscale>  0 0.10440322E+04</rscale>
<asrwt>0</asrwt>
<pdfrwt beam="1">  1        2 0.18890852E+00 0.19163611E+04</pdfrwt>
<pdfrwt beam="2">  1       -2 0.14121631E+00 0.19163611E+04</pdfrwt>
<totfact> 0.59483323E+00</totfact>
</mgrwt>
</event>
<event>
12    1  0.7674896E-010  0.1356740E+04  0.7818608E-02  0.8985742E-01
         -1   -1    0    0    0  501 -0.00000000000E+00  0.00000000000E+00  0.69249588959E+03  0.69249588959E+03  0.00000000000E+00 0.  1.
          1   -1    0    0  501    0  0.00000000000E+00 -0.00000000000E+00 -0.66453188430E+03  0.66453188430E+03  0.00000000000E+00 0. -1.
         23    2    1    2    0    0 -0.11238557103E+03  0.27538501375E+02  0.34877943326E+03  0.37909964304E+03  0.93169526428E+02 0.  0.
    9900016    2    1    2    0    0  0.20725377872E+03  0.36524908732E+02 -0.10584619892E+03  0.73437964125E+03  0.69557303132E+03 0.  0.
         23    2    4    4    0    0 -0.82856735146E+02 -0.11497003325E+03  0.11551154756E+03  0.20514005331E+03  0.93038576664E+02 0.  0.
        -15    1    5    5    0    0 -0.86066296123E+02 -0.94626804723E+02  0.51489365042E+02  0.13788688920E+03  0.00000000000E+00 0.  1.
        -15    1    3    3    0    0 -0.70375382312E+02  0.61230430571E+02  0.19500597394E+03  0.21616935475E+03  0.00000000000E+00 0.  1.
         15    1    3    3    0    0 -0.42010188715E+02 -0.33691929197E+02  0.15377345933E+03  0.16293028829E+03  0.00000000000E+00 0. -1.
         15    1    5    5    0    0  0.32095609767E+01 -0.20343228524E+02  0.64022182518E+02  0.67253164110E+02  0.00000000000E+00 0. -1.
        -16    1    4    4    0    0  0.18915788955E+03  0.86231195345E+02 -0.29536070659E+03  0.36118481866E+03  0.00000000000E+00 0.  1.
         16    1    1    2    0    0 -0.94868207696E+02 -0.64063410107E+02 -0.21496922906E+03  0.24354848960E+03  0.00000000000E+00 0. -1.
    9900018    1    4    4    0    0  0.10095262432E+03  0.65263746634E+02  0.74002960110E+02  0.16805476929E+03  0.91187600000E+02 0.  0.
<mgrwt>
<rscale>  0 0.13567396E+04</rscale>
<asrwt>0</asrwt>
<pdfrwt beam="1">  1        1 0.10223567E+00 0.13567396E+04</pdfrwt>
<pdfrwt beam="2">  1       -1 0.10653783E+00 0.13567396E+04</pdfrwt>
<totfact> 0.23735395E+01</totfact>
</mgrwt>
</event>
<event>
12    1  0.7674896E-010  0.8881597E+03  0.7818608E-02  0.1009662E+00
          1   -1    0    0  501    0  0.00000000000E+00  0.00000000000E+00  0.31570983908E+04  0.31570983908E+04  0.00000000000E+00 0. -1.
         -1   -1    0    0    0  501 -0.00000000000E+00 -0.00000000000E+00 -0.77550964726E+02  0.77550964726E+02  0.00000000000E+00 0.  1.
         23    2    1    2    0    0  0.41938941472E+02 -0.51174316152E+01  0.33538192238E+03  0.35033452414E+03  0.92022725574E+02 0.  0.
    9900016    2    1    2    0    0  0.95880792221E+02 -0.40935685212E+02  0.25057753881E+04  0.26051284854E+04  0.70492217534E+03 0.  0.
         23    2    4    4    0    0 -0.10334229472E+03  0.21118773526E+01  0.17053301262E+03  0.21880273401E+03  0.90050197757E+02 0.  0.
        -15    1    5    5    0    0 -0.96258872412E+02 -0.23110727348E+02  0.16438700731E+03  0.19189310673E+03  0.00000000000E+00 0.  1.
        -15    1    3    3    0    0  0.14443088043E+02  0.41733259148E+02  0.19183347706E+03  0.19685108745E+03  0.00000000000E+00 0. -1.
         15    1    5    5    0    0 -0.70834223107E+01  0.25222604701E+02  0.61460053029E+01  0.26909627286E+02  0.00000000000E+00 0. -1.
         15    1    3    3    0    0  0.27495853429E+02 -0.46850690763E+02  0.14354844533E+03  0.15348343668E+03  0.00000000000E+00 0.  1.
        -16    1    1    2    0    0 -0.13781973369E+03  0.46053116828E+02  0.23839011558E+03  0.27918634596E+03  0.00000000000E+00 0.  1.
         16    1    4    4    0    0 -0.99100460897E+02  0.63829580689E+02  0.11513477690E+04  0.11573663214E+04  0.00000000000E+00 0. -1.
    9900018    1    4    4    0    0  0.29832354784E+03 -0.10687714325E+03  0.11838946065E+04  0.12289594300E+04  0.91187600000E+02 0.  0.
<mgrwt>
<rscale>  0 0.51609064E+03</rscale>
<asrwt>0</asrwt>
<pdfrwt beam="1">  1        1 0.48570735E+00 0.88815975E+03</pdfrwt>
<pdfrwt beam="2">  1       -1 0.11930920E-01 0.88815975E+03</pdfrwt>
<totfact> 0.22740447E+01</totfact>
</mgrwt>
</event>
<event>
12    1  0.7674896E-010  0.1430992E+04  0.7818608E-02  0.9640913E-01
          1   -1    0    0  501    0  0.00000000000E+00  0.00000000000E+00  0.18339383698E+04  0.18339383698E+04  0.00000000000E+00 0. -1.
         -1   -1    0    0    0  501 -0.00000000000E+00 -0.00000000000E+00 -0.32201334266E+03  0.32201334266E+03  0.00000000000E+00 0.  1.
         23    2    1    2    0    0 -0.25454828889E+02  0.41779990373E+02  0.10463322973E+03  0.14891212234E+03  0.93985060026E+02 0.  0.
    9900016    2    1    2    0    0 -0.24196308637E+03  0.78786197441E+02  0.15163764035E+04  0.16940731410E+04  0.71114907694E+03 0.  0.
         23    2    4    4    0    0 -0.13239490528E+03  0.11146941141E+03  0.56701058851E+02  0.20374513449E+03  0.91341278354E+02 0.  0.
        -15    1    3    3    0    0  0.32870978648E+02  0.30508695382E+02  0.32071186567E+02  0.55134768876E+02  0.00000000000E+00 0.  1.
        -15    1    5    5    0    0 -0.73437733218E+02  0.65747764111E+02  0.78509877874E+02  0.12601456293E+03  0.00000000000E+00 0.  1.
         15    1    5    5    0    0 -0.58957172060E+02  0.45721647297E+02 -0.21808819022E+02  0.77730571566E+02  0.00000000000E+00 0. -1.
         15    1    3    3    0    0 -0.58325807537E+02  0.11271294991E+02  0.72562043162E+02  0.93777353468E+02  0.00000000000E+00 0. -1.
        -16    1    1    2    0    0  0.26741791526E+03 -0.12056618781E+03 -0.10908460607E+03  0.31296644920E+03  0.00000000000E+00 0.  1.
         16    1    4    4    0    0 -0.26015209877E+02 -0.74619426844E+02  0.11622839485E+03  0.14054853175E+03  0.00000000000E+00 0. -1.
    9900018    1    4    4    0    0 -0.83552971214E+02  0.41936212878E+02  0.13434469498E+04  0.13497794747E+04  0.91187600000E+02 0.  0.
<mgrwt>
<rscale>  0 0.74646496E+03</rscale>
<asrwt>0</asrwt>
<pdfrwt beam="1">  1        1 0.28214436E+00 0.14309919E+04</pdfrwt>
<pdfrwt beam="2">  1       -1 0.49540515E-01 0.14309919E+04</pdfrwt>
<totfact> 0.15337516E+01</totfact>
</mgrwt>
</event>
<event>
12    1  0.7674896E-010  0.1283599E+04  0.7818608E-02  0.9548176E-01
         -1   -1    0    0    0  501 -0.00000000000E+00  0.00000000000E+00  0.50391420743E+03  0.50391420743E+03  0.00000000000E+00 0.  1.
          1   -1    0    0  501    0  0.00000000000E+00 -0.00000000000E+00 -0.13273960143E+04  0.13273960143E+04  0.00000000000E+00 0. -1.
         23    2    1    2    0    0  0.15471654406E+03 -0.91180770046E+02  0.12316451931E+03  0.23639164740E+03  0.91980271309E+02 0.  0.
    9900016    2    1    2    0    0 -0.29943885571E+03 -0.30151525142E+03 -0.41300409010E+03  0.91673810505E+03  0.69947215790E+03 0.  0.
         23    2    4    4    0    0  0.16731372317E+03 -0.82986037004E+02 -0.18966268024E+03  0.28219217065E+03  0.93701251885E+02 0.  0.
        -15    1    3    3    0    0  0.67153669328E+02 -0.88871306189E+02  0.49302005528E+02  0.12181302113E+03  0.00000000000E+00 0.  1.
        -15    1    5    5    0    0  0.13020316017E+03 -0.10326946623E+03 -0.14328359986E+03  0.21942569486E+03  0.00000000000E+00 0. -1.
         15    1    5    5    0    0  0.37110562995E+02  0.20283429229E+02 -0.46379080374E+02  0.62766475793E+02  0.00000000000E+00 0.  1.
         15    1    3    3    0    0  0.87562874732E+02 -0.23094638570E+01  0.73862513786E+02  0.11457862627E+03  0.00000000000E+00 0. -1.
        -16    1    1    2    0    0  0.14472231165E+03  0.39269602146E+03 -0.53364223604E+03  0.67818046923E+03  0.00000000000E+00 0.  1.
         16    1    4    4    0    0 -0.35173168361E+03 -0.90891715359E+02 -0.36979102929E+02  0.36516288863E+03  0.00000000000E+00 0. -1.
    9900018    1    4    4    0    0 -0.11502089527E+03 -0.12763749905E+03 -0.18636230693E+03  0.26938304577E+03  0.91187600000E+02 0.  0.
<mgrwt>
<rscale>  0 0.80823312E+03</rscale>
<asrwt>0</asrwt>
<pdfrwt beam="1">  1        1 0.20421477E+00 0.12835988E+04</pdfrwt>
<pdfrwt beam="2">  1       -1 0.77525263E-01 0.12835988E+04</pdfrwt>
<totfact> 0.14128616E+01</totfact>
</mgrwt>
</event>
