<event>
12    1  0.5091551E-009  0.2818233E+04  0.7818608E-02  0.8297630E-01
          2   -1    0    0  501    0  0.00000000000E+00  0.00000000000E+00  0.31933645525E+04  0.31933645525E+04  0.00000000000E+00 0. -1.
         -2   -1    0    0    0  501 -0.00000000000E+00 -0.00000000000E+00 -0.62179225479E+03  0.62179225479E+03  0.00000000000E+00 0.  1.
    9900016    2    1    2    0    0 -0.35448443225E+03  0.27703575793E+03  0.22924137432E+04  0.32032649231E+04  0.21916517455E+04 0.  0.
         23    2    3    3    0    0 -0.81295638021E+03 -0.21233871250E+02  0.10406733479E+04  0.13237838924E+04  0.89743095934E+02 0.  0.
         24    2    3    3    0    0  0.38960862072E+03 -0.18636089996E+03 -0.92533851866E+02  0.44885803382E+03  0.79910940499E+02 0.  0.
        -15    1    4    4    0    0 -0.76691860673E+03 -0.36455626455E+02  0.99819660128E+03  0.12593210936E+04  0.00000000000E+00 0. -1.
        -15    1    5    5    0    0  0.18859122877E+03 -0.11163815614E+03 -0.82488072407E+02  0.23416663205E+03  0.00000000000E+00 0.  1.
         15    1    3    3    0    0  0.68863327235E+02  0.48463052914E+03  0.13442742472E+04  0.14306229969E+04  0.00000000000E+00 0. -1.
         15    1    4    4    0    0 -0.46037773483E+02  0.15221755205E+02  0.42476746605E+02  0.64462798737E+02  0.00000000000E+00 0.  1.
        -16    1    1    2    0    0  0.19120609042E+02 -0.17197569035E+03  0.41467380879E+02  0.17793476174E+03  0.00000000000E+00 0.  1.
         16    1    5    5    0    0  0.20101739195E+03 -0.74722743821E+02 -0.10045779459E+02  0.21469140177E+03  0.00000000000E+00 0. -1.
    9900018    1    1    2    0    0  0.33536382321E+03 -0.10506006758E+03  0.23769117361E+03  0.43395712245E+03  0.91187600000E+02 0.  0.
<mgrwt>
<rscale>  0 0.28182330E+04</rscale>
<asrwt>0</asrwt>
<pdfrwt beam="1">  1        2 0.49128684E+00 0.28182330E+04</pdfrwt>
<pdfrwt beam="2">  1       -2 0.95660349E-01 0.28182330E+04</pdfrwt>
<totfact> 0.10431292E+00</totfact>
</mgrwt>
</event>
<event>
12    1  0.5091551E-009  0.2762845E+04  0.7818608E-02  0.8314897E-01
         -2   -1    0    0    0  501 -0.00000000000E+00  0.00000000000E+00  0.93888329301E+03  0.93888329301E+03  0.00000000000E+00 0.  1.
          2   -1    0    0  501    0  0.00000000000E+00 -0.00000000000E+00 -0.20325515511E+04  0.20325515511E+04  0.00000000000E+00 0. -1.
    9900016    2    1    2    0    0  0.76885344081E+02  0.31925072070E+03 -0.94841605836E+03  0.24026244801E+04  0.21829518991E+04 0.  0.
         23    2    3    3    0    0  0.45558867697E+03 -0.35376666249E+03 -0.43644173918E+03  0.72890555953E+03  0.90055699116E+02 0.  0.
         24    2    3    3    0    0 -0.28029507498E+03 -0.32161048520E+03 -0.51614751355E+03  0.67422595047E+03  0.78573171551E+02 0.  0.
        -15    1    4    4    0    0  0.39736282904E+03 -0.33988283859E+03 -0.40428313186E+03  0.66095568126E+03  0.00000000000E+00 0. -1.
        -15    1    5    5    0    0 -0.16667269910E+03 -0.15907233531E+03 -0.32821114799E+03  0.40100667594E+03  0.00000000000E+00 0.  1.
         15    1    4    4    0    0  0.58225847927E+02 -0.13883823893E+02 -0.32158607315E+02  0.67949878272E+02  0.00000000000E+00 0.  1.
         15    1    3    3    0    0 -0.98408257912E+02  0.99462786840E+03  0.41731943659E+01  0.99949297014E+03  0.00000000000E+00 0. -1.
        -16    1    1    2    0    0  0.67386100352E+02 -0.27867408184E+03  0.66009425678E+02  0.29420634712E+03  0.00000000000E+00 0.  1.
         16    1    5    5    0    0 -0.11362237587E+03 -0.16253814989E+03 -0.18793636556E+03  0.27321927452E+03  0.00000000000E+00 0. -1.
    9900018    1    1    2    0    0 -0.14427144443E+03 -0.40576638867E+02 -0.21126162536E+03  0.27460401680E+03  0.91187600000E+02 0.  0.
<mgrwt>
<rscale>  0 0.27628454E+04</rscale>
<asrwt>0</asrwt>
<pdfrwt beam="1">  1        2 0.31270024E+00 0.27628454E+04</pdfrwt>
<pdfrwt beam="2">  1       -2 0.14444358E+00 0.27628454E+04</pdfrwt>
<totfact> 0.18513729E+00</totfact>
</mgrwt>
</event>
<event>
12    1  0.5091551E-009  0.3393820E+04  0.7818608E-02  0.8139425E-01
         -1   -1    0    0    0  501 -0.00000000000E+00  0.00000000000E+00  0.11937723994E+04  0.11937723994E+04  0.00000000000E+00 0.  1.
          1   -1    0    0  501    0  0.00000000000E+00 -0.00000000000E+00 -0.24121042752E+04  0.24121042752E+04  0.00000000000E+00 0. -1.
    9900016    2    1    2    0    0 -0.22974801072E+03 -0.11269865040E+03 -0.27106797838E+03  0.22335869611E+04  0.22022596871E+04 0.  0.
         23    2    3    3    0    0 -0.10901923277E+03  0.83282850562E+03 -0.70169706646E+03  0.10980594346E+04  0.88697440869E+02 0.  0.
         24    2    3    3    0    0  0.12568931671E+03 -0.32032097617E+03  0.27176115736E+03  0.44498884969E+03  0.75878966680E+02 0.  0.
        -15    1    4    4    0    0 -0.86300823701E+02  0.77745844827E+03 -0.62806939325E+03  0.10031752757E+04  0.00000000000E+00 0. -1.
        -15    1    5    5    0    0  0.26028726891E+02 -0.17455559838E+02  0.39999280105E+02  0.50814698678E+02  0.00000000000E+00 0.  1.
         15    1    4    4    0    0 -0.22718409072E+02  0.55370057357E+02 -0.73627673207E+02  0.94884158974E+02  0.00000000000E+00 0.  1.
         15    1    3    3    0    0 -0.24641809466E+03 -0.62520617986E+03  0.15886793071E+03  0.69053867677E+03  0.00000000000E+00 0. -1.
        -16    1    1    2    0    0  0.45861712966E+03  0.45359789916E+02 -0.79425113044E+02  0.46764893964E+03  0.00000000000E+00 0.  1.
         16    1    5    5    0    0  0.99660589814E+02 -0.30286541633E+03  0.23176187726E+03  0.39417415101E+03  0.00000000000E+00 0. -1.
    9900018    1    1    2    0    0 -0.22886911894E+03  0.67338860488E+02 -0.86783878433E+03  0.90464077385E+03  0.91187600000E+02 0.  0.
<mgrwt>
<rscale>  0 0.33938200E+04</rscale>
<asrwt>0</asrwt>
<pdfrwt beam="1">  1        1 0.37109297E+00 0.33938200E+04</pdfrwt>
<pdfrwt beam="2">  1       -1 0.18365729E+00 0.33938200E+04</pdfrwt>
<totfact> 0.25130910E-01</totfact>
</mgrwt>
</event>
<event>
12    1  0.5091551E-009  0.2886279E+04  0.7818608E-02  0.8276972E-01
         -2   -1    0    0    0  501 -0.00000000000E+00  0.00000000000E+00  0.18099453638E+04  0.18099453638E+04  0.00000000000E+00 0.  1.
          2   -1    0    0  501    0  0.00000000000E+00 -0.00000000000E+00 -0.11506712291E+04  0.11506712291E+04  0.00000000000E+00 0. -1.
    9900016    2    1    2    0    0 -0.37305146518E+03  0.13588658108E+03  0.54623046936E+03  0.22993525596E+04  0.21979585777E+04 0.  0.
         23    2    3    3    0    0 -0.10526705649E+04 -0.18719338243E+03  0.73830157237E+03  0.13024963303E+04  0.90833903532E+02 0.  0.
         24    2    3    3    0    0  0.58228055842E+02  0.98831225882E+02  0.18795529524E+03  0.23473131239E+03  0.81323295027E+02 0.  0.
        -15    1    4    4    0    0 -0.36957588351E+02  0.73204423494E+01  0.15337023383E+02  0.40677715019E+02  0.00000000000E+00 0.  1.
        -15    1    5    5    0    0 -0.19714206619E+02  0.30369425707E+02  0.59049969559E+02  0.69266520523E+02  0.00000000000E+00 0.  1.
         15    1    3    3    0    0  0.62139104384E+03  0.22424873763E+03 -0.38002639825E+03  0.76212491697E+03  0.00000000000E+00 0. -1.
         15    1    4    4    0    0 -0.10157129765E+04 -0.19451382478E+03  0.72296454899E+03  0.12618186152E+04  0.00000000000E+00 0. -1.
        -16    1    1    2    0    0  0.31989247326E+03 -0.19191214081E+03  0.27252030625E+03  0.46198352953E+03  0.00000000000E+00 0.  1.
         16    1    5    5    0    0  0.77942262461E+02  0.68461800175E+02  0.12890532568E+03  0.16546479187E+03  0.00000000000E+00 0. -1.
    9900018    1    1    2    0    0  0.53158991915E+02  0.56025559728E+02 -0.15947664099E+03  0.19928050376E+03  0.91187600000E+02 0.  0.
<mgrwt>
<rscale>  0 0.28862793E+04</rscale>
<asrwt>0</asrwt>
<pdfrwt beam="1">  1        2 0.17702634E+00 0.28862793E+04</pdfrwt>
<pdfrwt beam="2">  1       -2 0.27845313E+00 0.28862793E+04</pdfrwt>
<totfact> 0.75423114E-01</totfact>
</mgrwt>
</event>
<event>
12    1  0.5091551E-009  0.3722095E+04  0.7818608E-02  0.8063083E-01
         -2   -1    0    0    0  501 -0.00000000000E+00  0.00000000000E+00  0.17984417238E+04  0.17984417238E+04  0.00000000000E+00 0.  1.
          2   -1    0    0  501    0  0.00000000000E+00 -0.00000000000E+00 -0.19258323389E+04  0.19258323389E+04  0.00000000000E+00 0. -1.
    9900016    2    1    2    0    0 -0.57289233215E+03 -0.70686928401E+03 -0.38994730751E+02  0.23819929709E+04  0.22010225159E+04 0.  0.
         23    2    3    3    0    0  0.44066579462E+03 -0.44490639673E+02  0.47036944508E+03  0.65248968469E+03  0.91266720131E+02 0.  0.
        -24    2    3    3    0    0 -0.19093619800E+02 -0.14725204633E+03  0.30268486300E+03  0.34612383394E+03  0.78331670921E+02 0.  0.
        -15    1    3    3    0    0 -0.99446450697E+03 -0.51512659800E+03 -0.81204903882E+03  0.13833794523E+04  0.00000000000E+00 0.  1.
        -15    1    4    4    0    0  0.12096420218E+03 -0.24281283622E+02  0.19132807655E+03  0.22765841039E+03  0.00000000000E+00 0.  1.
         15    1    4    4    0    0  0.31970159244E+03 -0.20209356052E+02  0.27904136853E+03  0.42483127431E+03  0.00000000000E+00 0. -1.
         15    1    5    5    0    0 -0.65853034050E+01 -0.28260598366E+02  0.11316745008E+02  0.31146369909E+02  0.00000000000E+00 0. -1.
        -16    1    5    5    0    0 -0.12508316395E+02 -0.11899144797E+03  0.29136811799E+03  0.31497746403E+03  0.00000000000E+00 0.  1.
         16    1    1    2    0    0  0.64958987282E+03  0.82782259684E+03 -0.27740104845E+03  0.10882134884E+04  0.00000000000E+00 0. -1.
    9900018    1    1    2    0    0 -0.76697540671E+02 -0.12095331283E+03  0.18900516412E+03  0.25406760338E+03  0.91187600000E+02 0.  0.
<mgrwt>
<rscale>  0 0.37220947E+04</rscale>
<asrwt>0</asrwt>
<pdfrwt beam="1">  1        2 0.29628190E+00 0.37220947E+04</pdfrwt>
<pdfrwt beam="2">  1       -2 0.27668334E+00 0.37220947E+04</pdfrwt>
<totfact> 0.26157579E-01</totfact>
</mgrwt>
</event>
<event>
12    1  0.5091551E-009  0.4841849E+04  0.7818608E-02  0.7853378E-01
         -2   -1    0    0    0  501 -0.00000000000E+00  0.00000000000E+00  0.25004740164E+04  0.25004740164E+04  0.00000000000E+00 0.  1.
          2   -1    0    0  501    0  0.00000000000E+00 -0.00000000000E+00 -0.23439057194E+04  0.23439057194E+04  0.00000000000E+00 0. -1.
    9900016    2    1    2    0    0 -0.46073922023E+02  0.60408897568E+01  0.14177456062E+02  0.22091673797E+04  0.22086331095E+04 0.  0.
         23    2    3    3    0    0 -0.15338624393E+02  0.24606578064E+03  0.10427445548E+04  0.10754358849E+04  0.91991816526E+02 0.  0.
         24    2    3    3    0    0  0.15824443721E+03 -0.28808347928E+02 -0.27356908019E+03  0.32729006712E+03  0.80047008564E+02 0.  0.
        -15    1    4    4    0    0  0.11329707985E+02 -0.36992399399E+01  0.51464184095E+02  0.52826214172E+02  0.00000000000E+00 0.  1.
        -15    1    5    5    0    0  0.31062283275E+02  0.60338567172E+01 -0.12361883730E+03  0.12760442705E+03  0.00000000000E+00 0.  1.
         15    1    3    3    0    0 -0.18897973484E+03 -0.21121654296E+03 -0.75499801851E+03  0.80644142761E+03  0.00000000000E+00 0. -1.
         15    1    4    4    0    0 -0.26668332378E+02  0.24976502058E+03  0.99128037067E+03  0.10226096708E+04  0.00000000000E+00 0. -1.
        -16    1    1    2    0    0 -0.98109777062E+03 -0.71689602384E+03  0.52777662328E+03  0.13247795698E+04  0.00000000000E+00 0.  1.
         16    1    5    5    0    0  0.12718215393E+03 -0.34842204645E+02 -0.14995024289E+03  0.19968564006E+03  0.00000000000E+00 0. -1.
    9900018    1    1    2    0    0  0.10271716926E+04  0.71085513409E+03 -0.38538578240E+03  0.13104327863E+04  0.91187600000E+02 0.  0.
<mgrwt>
<rscale>  0 0.48418490E+04</rscale>
<asrwt>0</asrwt>
<pdfrwt beam="1">  1        2 0.36060088E+00 0.48418490E+04</pdfrwt>
<pdfrwt beam="2">  1       -2 0.38468831E+00 0.48418490E+04</pdfrwt>
<totfact> 0.29472347E-02</totfact>
</mgrwt>
</event>
<event>
12    1  0.5091551E-009  0.3194755E+04  0.7818608E-02  0.8190204E-01
          2   -1    0    0  501    0  0.00000000000E+00  0.00000000000E+00  0.26720626601E+04  0.26720626601E+04  0.00000000000E+00 0. -1.
         -2   -1    0    0    0  501 -0.00000000000E+00 -0.00000000000E+00 -0.95492336860E+03  0.95492336860E+03  0.00000000000E+00 0.  1.
    9900016    2    1    2    0    0 -0.45423318955E+03 -0.96494369402E+02  0.15059175290E+04  0.27014001929E+04  0.21941140454E+04 0.  0.
         23    2    3    3    0    0 -0.18229395384E+03  0.77173438575E+03  0.27524762485E+03  0.84456506933E+03  0.93401571650E+02 0.  0.
         24    2    3    3    0    0  0.11695380330E+03 -0.61202721767E+03  0.12410955515E+04  0.13910178657E+04  0.79730969294E+02 0.  0.
        -15    1    5    5    0    0 -0.12356707820E+00 -0.17829515817E+03  0.32502916518E+03  0.37071975523E+03  0.00000000000E+00 0.  1.
        -15    1    4    4    0    0 -0.23956973706E+01  0.63860573104E+02  0.47093727700E+02  0.79383445073E+02  0.00000000000E+00 0. -1.
         15    1    3    3    0    0 -0.38889303901E+03 -0.25620153749E+03 -0.10425647358E+02  0.46581725786E+03  0.00000000000E+00 0. -1.
         15    1    4    4    0    0 -0.17989825647E+03  0.70787381265E+03  0.22815389715E+03  0.76518162426E+03  0.00000000000E+00 0.  1.
        -16    1    1    2    0    0  0.45783358259E+03  0.10726383027E+03 -0.19502960452E+03  0.50907137541E+03  0.00000000000E+00 0.  1.
         16    1    5    5    0    0  0.11707737038E+03 -0.43373205950E+03  0.91606638633E+03  0.10202981105E+04  0.00000000000E+00 0. -1.
    9900018    1    1    2    0    0 -0.36003930339E+01 -0.10769460863E+02  0.40625136703E+03  0.41651446040E+03  0.91187600000E+02 0.  0.
<mgrwt>
<rscale>  0 0.31947551E+04</rscale>
<asrwt>0</asrwt>
<pdfrwt beam="1">  1        2 0.41108656E+00 0.31947551E+04</pdfrwt>
<pdfrwt beam="2">  1       -2 0.14691129E+00 0.31947551E+04</pdfrwt>
<totfact> 0.73556672E-01</totfact>
</mgrwt>
</event>
<event>
12    1  0.5091551E-009  0.3226268E+04  0.7818608E-02  0.8181914E-01
          1   -1    0    0  501    0  0.00000000000E+00  0.00000000000E+00  0.15458787543E+04  0.15458787543E+04  0.00000000000E+00 0. -1.
         -1   -1    0    0    0  501 -0.00000000000E+00 -0.00000000000E+00 -0.16833153355E+04  0.16833153355E+04  0.00000000000E+00 0.  1.
    9900016    2    1    2    0    0  0.36129209630E+03 -0.29025989038E+03  0.37608760587E+03  0.22842962530E+04  0.22049455099E+04 0.  0.
         23    2    3    3    0    0  0.16924229146E+03 -0.15647187773E+03 -0.67731616528E+03  0.72116573626E+03  0.90534135403E+02 0.  0.
         24    2    3    3    0    0  0.86820785142E+02  0.10343294551E+03 -0.21627626486E+03  0.26720060992E+03  0.79903192996E+02 0.  0.
        -15    1    4    4    0    0  0.97744048393E+02 -0.13294808914E+03 -0.37645473394E+03  0.41103194537E+03  0.00000000000E+00 0.  1.
        -15    1    5    5    0    0  0.86024911418E+02  0.42462865526E+02 -0.13254624935E+03  0.16362117390E+03  0.00000000000E+00 0.  1.
         15    1    4    4    0    0  0.71498243066E+02 -0.23523788586E+02 -0.30086143133E+03  0.31013379090E+03  0.00000000000E+00 0. -1.
         15    1    3    3    0    0  0.10522901970E+03 -0.23722095816E+03  0.12696800360E+04  0.12959299068E+04  0.00000000000E+00 0. -1.
        -16    1    1    2    0    0 -0.32062085831E+03  0.25188309929E+03 -0.65256588810E+03  0.76947064194E+03  0.00000000000E+00 0.  1.
         16    1    5    5    0    0  0.79587372342E+00  0.60970079982E+02 -0.83730015516E+02  0.10357943602E+03  0.00000000000E+00 0. -1.
    9900018    1    1    2    0    0 -0.40671237994E+02  0.38376791088E+02  0.13904170094E+03  0.17542719484E+03  0.91187600000E+02 0.  0.
<mgrwt>
<rscale>  0 0.32262681E+04</rscale>
<asrwt>0</asrwt>
<pdfrwt beam="1">  1        1 0.23782750E+00 0.32262681E+04</pdfrwt>
<pdfrwt beam="2">  1       -1 0.25897159E+00 0.32262681E+04</pdfrwt>
<totfact> 0.30927624E-01</totfact>
</mgrwt>
</event>
<event>
12    1  0.5091551E-009  0.2891052E+04  0.7818608E-02  0.8275545E-01
          1   -1    0    0  501    0  0.00000000000E+00  0.00000000000E+00  0.21915101082E+04  0.21915101082E+04  0.00000000000E+00 0. -1.
         -1   -1    0    0    0  501 -0.00000000000E+00 -0.00000000000E+00 -0.95347297113E+03  0.95347297113E+03  0.00000000000E+00 0.  1.
    9900016    2    1    2    0    0 -0.21331732540E+03  0.14210025318E+03  0.11265868931E+04  0.25023657149E+04  0.22196710072E+04 0.  0.
         23    2    3    3    0    0  0.18513355270E+03 -0.54351261589E+03  0.11208802611E+04  0.12631044275E+04  0.96849569488E+02 0.  0.
         24    2    3    3    0    0 -0.99447360079E+02 -0.22797023168E+03  0.85640711537E+02  0.27467503270E+03  0.79068566177E+02 0.  0.
        -15    1    4    4    0    0  0.12390240962E+03 -0.45353674475E+03  0.85360156784E+03  0.97451681492E+03  0.00000000000E+00 0. -1.
        -15    1    5    5    0    0 -0.10382313137E+03 -0.18824631282E+03  0.49079945185E+02  0.22051022180E+03  0.00000000000E+00 0.  1.
         15    1    3    3    0    0 -0.29900351803E+03  0.91358310075E+03 -0.79934079498E+02  0.96458625475E+03  0.00000000000E+00 0. -1.
         15    1    4    4    0    0  0.61231143083E+02 -0.89975871143E+02  0.26727869322E+03  0.28858761256E+03  0.00000000000E+00 0.  1.
        -16    1    1    2    0    0  0.31535774004E+03 -0.29203268515E+03  0.71009911529E+02  0.43563287403E+03  0.00000000000E+00 0.  1.
         16    1    5    5    0    0  0.43757712894E+01 -0.39723918862E+02  0.36560766352E+02  0.54164810905E+02  0.00000000000E+00 0. -1.
    9900018    1    1    2    0    0 -0.10204041464E+03  0.14993243197E+03  0.40440332450E+02  0.20698449038E+03  0.91187600000E+02 0.  0.
<mgrwt>
<rscale>  0 0.28910522E+04</rscale>
<asrwt>0</asrwt>
<pdfrwt beam="1">  1        1 0.33715540E+00 0.28910522E+04</pdfrwt>
<pdfrwt beam="2">  1       -1 0.14668815E+00 0.28910522E+04</pdfrwt>
<totfact> 0.70246757E-01</totfact>
</mgrwt>
</event>
<event>
12    1  0.5091551E-009  0.3656322E+04  0.7818608E-02  0.8077711E-01
         -2   -1    0    0    0  501 -0.00000000000E+00  0.00000000000E+00  0.12684241193E+04  0.12684241193E+04  0.00000000000E+00 0.  1.
          2   -1    0    0  501    0  0.00000000000E+00 -0.00000000000E+00 -0.26349011408E+04  0.26349011408E+04  0.00000000000E+00 0. -1.
    9900016    2    1    2    0    0  0.42206250012E+03 -0.54355541610E+03 -0.17438703450E+04  0.29036689843E+04  0.22173453827E+04 0.  0.
         23    2    3    3    0    0 -0.42021143222E+03  0.85677407000E+02 -0.84300513246E+03  0.95091550359E+03  0.98307557049E+02 0.  0.
         24    2    3    3    0    0  0.34765074827E+03  0.33350807383E+03  0.76877394189E+02  0.49415732903E+03  0.78693417870E+02 0.  0.
        -15    1    5    5    0    0  0.85608254093E+02  0.45405291279E+02  0.32404547530E+02  0.10217861002E+03  0.00000000000E+00 0.  1.
        -15    1    4    4    0    0 -0.24918116042E+02  0.28987985393E+02 -0.49025276224E+02  0.62166659176E+02  0.00000000000E+00 0.  1.
         15    1    3    3    0    0  0.49462318407E+03 -0.96274089693E+03 -0.97774260671E+03  0.14585961517E+04  0.00000000000E+00 0. -1.
         15    1    4    4    0    0 -0.39529331618E+03  0.56689421607E+02 -0.79397985624E+03  0.88874884442E+03  0.00000000000E+00 0. -1.
        -16    1    1    2    0    0 -0.40020670012E+03  0.24349683654E+03  0.47829199028E+03  0.66949185222E+03  0.00000000000E+00 0.  1.
         16    1    5    5    0    0  0.26204249418E+03  0.28810278255E+03  0.44472846660E+02  0.39197871901E+03  0.00000000000E+00 0. -1.
    9900018    1    1    2    0    0 -0.21855799999E+02  0.30005857956E+03 -0.10089866681E+03  0.33016442346E+03  0.91187600000E+02 0.  0.
<mgrwt>
<rscale>  0 0.36563217E+04</rscale>
<asrwt>0</asrwt>
<pdfrwt beam="1">  1        2 0.40536940E+00 0.36563217E+04</pdfrwt>
<pdfrwt beam="2">  1       -2 0.19514217E+00 0.36563217E+04</pdfrwt>
<totfact> 0.33715627E-01</totfact>
</mgrwt>
</event>
