<event>
13    1  0.5549173E-006  0.5688795E+04  0.7818608E-02  0.7730232E-01
         -2   -1    0    0    0  501 -0.00000000000E+00  0.00000000000E+00  0.36378827472E+04  0.36378827472E+04  0.00000000000E+00 0.  1.
          2   -1    0    0  501    0  0.00000000000E+00 -0.00000000000E+00 -0.22239847581E+04  0.22239847581E+04  0.00000000000E+00 0. -1.
    9900016    2    1    2    0    0 -0.27267528656E+03 -0.14709044480E+04  0.13527261831E+04  0.27286102812E+04  0.18378069085E+04 0.  0.
        -24    2    3    3    0    0 -0.10487117336E+04 -0.10310950016E+04  0.92550016371E+03  0.17395769208E+04  0.81388621463E+02 0.  0.
    9900016    2    1    2    0    0 -0.43640856652E+03  0.57571394585E+03  0.60198104110E+02  0.19876211246E+04  0.18507066052E+04 0.  0.
         24    2    5    5    0    0  0.17006640835E+03  0.10286439610E+04  0.44751537978E+03  0.11373434253E+04  0.79051061345E+02 0.  0.
        -15    1    3    3    0    0  0.77603644708E+03 -0.43980944647E+03  0.42722601935E+03  0.98903336041E+03  0.00000000000E+00 0.  1.
        -15    1    6    6    0    0  0.81638160075E+02  0.54698050064E+03  0.27913641193E+03  0.61949139923E+03  0.00000000000E+00 0.  1.
         15    1    5    5    0    0 -0.60647497487E+03 -0.45293001514E+03 -0.38731727567E+03  0.85027769922E+03  0.00000000000E+00 0. -1.
         15    1    4    4    0    0 -0.35940860093E+03 -0.35987891704E+03  0.27509284618E+03  0.57824168941E+03  0.00000000000E+00 0. -1.
        -16    1    4    4    0    0 -0.68930313270E+03 -0.67121608454E+03  0.65040731754E+03  0.11613352314E+04  0.00000000000E+00 0.  1.
         16    1    6    6    0    0  0.88428248277E+02  0.48166346036E+03  0.16837896785E+03  0.51785202611E+03  0.00000000000E+00 0. -1.
    9900018    1    1    2    0    0  0.70908385308E+03  0.89519050220E+03  0.97370194967E+00  0.11456360995E+04  0.91187600000E+02 0.  0.
<mgrwt>
<rscale>  0 0.56887945E+04</rscale>
<asrwt>0</asrwt>
<pdfrwt beam="1">  1        2 0.34215150E+00 0.56887945E+04</pdfrwt>
<pdfrwt beam="2">  1       -2 0.55967427E+00 0.56887945E+04</pdfrwt>
<totfact> 0.26787039E-03</totfact>
</mgrwt>
</event>
<event>
13    1  0.5549173E-006  0.5020148E+04  0.7818608E-02  0.7825407E-01
         -1   -1    0    0    0  501 -0.00000000000E+00  0.00000000000E+00  0.32233930156E+04  0.32233930156E+04  0.00000000000E+00 0.  1.
          1   -1    0    0  501    0  0.00000000000E+00 -0.00000000000E+00 -0.19546082923E+04  0.19546082923E+04  0.00000000000E+00 0. -1.
    9900016    2    1    2    0    0 -0.82644062109E+03  0.13740518226E+03  0.17583896979E+04  0.26599336999E+04  0.18114714113E+04 0.  0.
         24    2    3    3    0    0 -0.13082450618E+04  0.36199062253E+03  0.16113140892E+04  0.21083855390E+04  0.80088290950E+02 0.  0.
    9900016    2    1    2    0    0  0.71217782328E+03 -0.31929356723E+03 -0.35866377082E+02  0.20078389683E+04  0.18495905741E+04 0.  0.
        -24    2    5    5    0    0  0.58246945679E+03  0.58548896624E+03 -0.51435956599E+03  0.97613580122E+03  0.78786684188E+02 0.  0.
        -15    1    5    5    0    0  0.12970836649E+03 -0.90478253347E+03  0.47849318891E+03  0.10317031671E+04  0.00000000000E+00 0.  1.
        -15    1    4    4    0    0 -0.30702884315E+03  0.89199812526E+02  0.43332315549E+03  0.53850930741E+03  0.00000000000E+00 0.  1.
         15    1    3    3    0    0  0.48180444076E+03 -0.22458544026E+03  0.14707560867E+03  0.55154816088E+03  0.00000000000E+00 0. -1.
         15    1    6    6    0    0  0.39099763452E+03  0.40097550574E+03 -0.30512822584E+03  0.63778032316E+03  0.00000000000E+00 0. -1.
        -16    1    6    6    0    0  0.19147182227E+03  0.18451346049E+03 -0.20923134016E+03  0.33835547806E+03  0.00000000000E+00 0.  1.
         16    1    4    4    0    0 -0.10012162187E+04  0.27279081000E+03  0.11779909337E+04  0.15698762316E+04  0.00000000000E+00 0. -1.
    9900018    1    1    2    0    0  0.11426279781E+03  0.18188838497E+03 -0.45373859743E+03  0.51022863967E+03  0.91187600000E+02 0.  0.
<mgrwt>
<rscale>  0 0.50201477E+04</rscale>
<asrwt>0</asrwt>
<pdfrwt beam="1">  1        1 0.30070897E+00 0.50201477E+04</pdfrwt>
<pdfrwt beam="2">  1       -1 0.49590662E+00 0.50201477E+04</pdfrwt>
<totfact> 0.36737065E-03</totfact>
</mgrwt>
</event>
<event>
13    1  0.5549173E-006  0.6234861E+04  0.7818608E-02  0.7661945E-01
          2   -1    0    0  501    0  0.00000000000E+00  0.00000000000E+00  0.39859311186E+04  0.39859311186E+04  0.00000000000E+00 0. -1.
         -2   -1    0    0    0  501 -0.00000000000E+00 -0.00000000000E+00 -0.24381687652E+04  0.24381687652E+04  0.00000000000E+00 0.  1.
    9900016    2    1    2    0    0  0.39185639450E+03 -0.53212602744E+03 -0.15143485697E+04  0.24732302835E+04  0.18403551020E+04 0.  0.
         24    2    3    3    0    0 -0.24368547773E+03 -0.10295238563E+04 -0.48819306793E+03  0.11677368192E+04  0.77296989012E+02 0.  0.
    9900016    2    1    2    0    0 -0.74884080289E+03  0.21884262959E+03  0.26245935659E+04  0.32987032323E+04  0.18396458856E+04 0.  0.
        -24    2    5    5    0    0  0.60739096948E+03 -0.42407104817E+02  0.72525269778E+03  0.95027572069E+03  0.79437505897E+02 0.  0.
        -15    1    5    5    0    0 -0.13562317724E+04  0.26124973441E+03  0.18993408681E+04  0.23484275116E+04  0.00000000000E+00 0.  1.
        -15    1    4    4    0    0 -0.49480386976E+02 -0.36703919601E+03 -0.16416659576E+03  0.40511325733E+03  0.00000000000E+00 0.  1.
         15    1    6    6    0    0  0.19853859694E+03 -0.65783556786E+01  0.18198297642E+03  0.26940425562E+03  0.00000000000E+00 0. -1.
         15    1    3    3    0    0  0.63554187223E+03  0.49739782884E+03 -0.10261555018E+04  0.13054934643E+04  0.00000000000E+00 0. -1.
        -16    1    6    6    0    0  0.40885237254E+03 -0.35828749138E+02  0.54326972136E+03  0.68087146507E+03  0.00000000000E+00 0.  1.
         16    1    4    4    0    0 -0.19420509076E+03 -0.66248466027E+03 -0.32402647217E+03  0.76262356182E+03  0.00000000000E+00 0. -1.
    9900018    1    1    2    0    0  0.35698440839E+03  0.31328339785E+03  0.43751735723E+03  0.65216636794E+03  0.91187600000E+02 0.  0.
<mgrwt>
<rscale>  0 0.62348609E+04</rscale>
<asrwt>0</asrwt>
<pdfrwt beam="1">  1        2 0.61322017E+00 0.62348609E+04</pdfrwt>
<pdfrwt beam="2">  1       -2 0.37510289E+00 0.62348609E+04</pdfrwt>
<totfact> 0.24874704E-03</totfact>
</mgrwt>
</event>
<event>
13    1  0.5549173E-006  0.5848005E+04  0.7818608E-02  0.7709538E-01
         -1   -1    0    0    0  501 -0.00000000000E+00  0.00000000000E+00  0.18585960308E+04  0.18585960308E+04  0.00000000000E+00 0.  1.
          1   -1    0    0  501    0  0.00000000000E+00 -0.00000000000E+00 -0.46001341497E+04  0.46001341497E+04  0.00000000000E+00 0. -1.
    9900016    2    1    2    0    0  0.10064533758E+04  0.20978789843E+03  0.58468606102E+03  0.21950833765E+04  0.18492089877E+04 0.  0.
        -24    2    3    3    0    0 -0.59904974743E+02  0.27074064690E+03 -0.55969754728E+03  0.62969230330E+03  0.79761823741E+02 0.  0.
    9900016    2    1    2    0    0 -0.69630965830E+03  0.47562839242E+02 -0.17624985786E+04  0.26462502965E+04  0.18463829582E+04 0.  0.
         24    2    5    5    0    0  0.48975085355E+03  0.49957785473E+03 -0.60154940075E+03  0.92611655009E+03  0.79976567246E+02 0.  0.
        -15    1    3    3    0    0  0.10663583505E+04 -0.60952748463E+02  0.11443836083E+04  0.15653910732E+04  0.00000000000E+00 0.  1.
        -15    1    6    6    0    0  0.19880829429E+02  0.19171576161E+02 -0.61316865228E+01  0.28291240533E+02  0.00000000000E+00 0.  1.
         15    1    4    4    0    0 -0.46646045990E+02  0.20080172417E+03 -0.32889094217E+03  0.38815774870E+03  0.00000000000E+00 0. -1.
         15    1    5    5    0    0 -0.11860605119E+04 -0.45201501549E+03 -0.11609491778E+04  0.17201337464E+04  0.00000000000E+00 0. -1.
        -16    1    4    4    0    0 -0.13258928754E+02  0.69938922730E+02 -0.23080660511E+03  0.24153455460E+03  0.00000000000E+00 0.  1.
         16    1    6    6    0    0  0.46987002413E+03  0.48040627857E+03 -0.59541771422E+03  0.89782530955E+03  0.00000000000E+00 0. -1.
    9900018    1    1    2    0    0 -0.31014371747E+03 -0.25735073768E+03 -0.15637256014E+04  0.16173965075E+04  0.91187600000E+02 0.  0.
<mgrwt>
<rscale>  0 0.58480052E+04</rscale>
<asrwt>0</asrwt>
<pdfrwt beam="1">  1        1 0.70771294E+00 0.58480052E+04</pdfrwt>
<pdfrwt beam="2">  1       -1 0.28593785E+00 0.58480052E+04</pdfrwt>
<totfact> 0.68966054E-04</totfact>
</mgrwt>
</event>
<event>
13    1  0.5549173E-006  0.4755715E+04  0.7818608E-02  0.7867337E-01
         -2   -1    0    0    0  501 -0.00000000000E+00  0.00000000000E+00  0.16616357050E+04  0.16616357050E+04  0.00000000000E+00 0. -1.
          2   -1    0    0  501    0  0.00000000000E+00 -0.00000000000E+00 -0.34027951418E+04  0.34027951418E+04  0.00000000000E+00 0.  1.
    9900016    2    1    2    0    0  0.78210044037E+03 -0.18645029327E+03  0.11285685262E+03  0.20158259746E+04  0.18450942740E+04 0.  0.
        -24    2    3    3    0    0  0.49144220742E+03  0.82258188072E+03  0.20214624950E+02  0.96168617418E+03  0.79216619616E+02 0.  0.
    9900016    2    1    2    0    0 -0.39535936562E+03 -0.82658356650E+02 -0.12164027034E+04  0.22505733014E+04  0.18499468144E+04 0.  0.
         24    2    5    5    0    0 -0.57139995491E+03 -0.54249314695E+03 -0.14899034542E+04  0.16873318042E+04  0.80495909754E+02 0.  0.
        -15    1    6    6    0    0 -0.17474512950E+03 -0.21412316084E+03 -0.48715212348E+03  0.56009086736E+03  0.00000000000E+00 0.  1.
        -15    1    3    3    0    0  0.29065823294E+03 -0.10090321740E+04  0.92642227674E+02  0.10541398004E+04  0.00000000000E+00 0.  1.
         15    1    4    4    0    0  0.27790788546E+03  0.53318756850E+03 -0.32347235675E+01  0.60127551043E+03  0.00000000000E+00 0. -1.
         15    1    5    5    0    0  0.17604058929E+03  0.45983479030E+03  0.27350075085E+03  0.56324149720E+03  0.00000000000E+00 0. -1.
        -16    1    4    4    0    0  0.21353432196E+03  0.28939431223E+03  0.23449348518E+02  0.36041066376E+03  0.00000000000E+00 0.  1.
         16    1    6    6    0    0 -0.39665482542E+03 -0.32836998611E+03 -0.10027513307E+04  0.11272409368E+04  0.00000000000E+00 0. -1.
    9900018    1    1    2    0    0 -0.38674107475E+03  0.26910864992E+03 -0.63761358615E+03  0.79803157080E+03  0.91187600000E+02 0.  0.
<mgrwt>
<rscale>  0 0.47557148E+04</rscale>
<asrwt>0</asrwt>
<pdfrwt beam="1">  1        2 0.52350694E+00 0.47557148E+04</pdfrwt>
<pdfrwt beam="2">  1       -2 0.25563626E+00 0.47557148E+04</pdfrwt>
<totfact> 0.41739853E-02</totfact>
</mgrwt>
</event>
<event>
13    1  0.5549173E-006  0.5403479E+04  0.7818608E-02  0.7769112E-01
          2   -1    0    0  501    0  0.00000000000E+00  0.00000000000E+00  0.26401061298E+04  0.26401061298E+04  0.00000000000E+00 0. -1.
         -2   -1    0    0    0  501 -0.00000000000E+00 -0.00000000000E+00 -0.27648120969E+04  0.27648120969E+04  0.00000000000E+00 0.  1.
    9900016    2    1    2    0    0 -0.12122326370E+04 -0.74584371805E+03  0.68816560884E+03  0.24295706648E+04  0.18448444086E+04 0.  0.
        -24    2    3    3    0    0 -0.67835337771E+03 -0.63419325477E+03 -0.54610682483E+03  0.10801554841E+04  0.78350597853E+02 0.  0.
    9900016    2    1    2    0    0  0.49655405686E+03  0.19727525864E+03 -0.31543028031E+03  0.19414780316E+04  0.18396622588E+04 0.  0.
         24    2    5    5    0    0  0.78145155915E+03 -0.65117064820E+03 -0.14784915071E+03  0.10309229928E+04  0.79076503272E+02 0.  0.
        -15    1    3    3    0    0 -0.53387925934E+03 -0.11165046328E+03  0.12342724337E+04  0.13494151807E+04  0.00000000000E+00 0.  1.
        -15    1    6    6    0    0  0.14227528488E+03 -0.94463334162E+02 -0.16867216562E+01  0.17078765534E+03  0.00000000000E+00 0.  1.
         15    1    4    4    0    0 -0.37161888952E+03 -0.38961667532E+03 -0.34291826619E+03  0.63835310763E+03  0.00000000000E+00 0. -1.
         15    1    5    5    0    0 -0.28489750230E+03  0.84844590684E+03 -0.16758112960E+03  0.91055503878E+03  0.00000000000E+00 0. -1.
        -16    1    4    4    0    0 -0.30673448819E+03 -0.24457657945E+03 -0.20318855864E+03  0.44180237643E+03  0.00000000000E+00 0.  1.
         16    1    6    6    0    0  0.63917627428E+03 -0.55670731404E+03 -0.14616242905E+03  0.86013533747E+03  0.00000000000E+00 0. -1.
    9900018    1    1    2    0    0  0.71567858019E+03  0.54856845941E+03 -0.49744129556E+03  0.10338695303E+04  0.91187600000E+02 0.  0.
<mgrwt>
<rscale>  0 0.54034794E+04</rscale>
<asrwt>0</asrwt>
<pdfrwt beam="1">  1        2 0.40617018E+00 0.54034794E+04</pdfrwt>
<pdfrwt beam="2">  1       -2 0.42535570E+00 0.54034794E+04</pdfrwt>
<totfact> 0.10291596E-02</totfact>
</mgrwt>
</event>
<event>
13    1  0.5549173E-006  0.5495697E+04  0.7818608E-02  0.7756282E-01
          1   -1    0    0  501    0  0.00000000000E+00  0.00000000000E+00  0.47579409591E+04  0.47579409591E+04  0.00000000000E+00 0. -1.
         -1   -1    0    0    0  501 -0.00000000000E+00 -0.00000000000E+00 -0.15869618825E+04  0.15869618825E+04  0.00000000000E+00 0.  1.
    9900016    2    1    2    0    0  0.13510720916E+04  0.92422573851E+02  0.16811335876E+03  0.22896862973E+04  0.18386036848E+04 0.  0.
         24    2    3    3    0    0  0.17204499379E+04  0.29004296133E+03 -0.16538841829E+03  0.17542264517E+04  0.76708584390E+02 0.  0.
    9900016    2    1    2    0    0 -0.70982280094E+03  0.13034033138E+03  0.18507746042E+04  0.27148982698E+04  0.18505320773E+04 0.  0.
        -24    2    5    5    0    0 -0.91599055398E+03 -0.46836559900E+03  0.18060929746E+04  0.20801145417E+04  0.80620373426E+02 0.  0.
        -15    1    4    4    0    0  0.13735320962E+04  0.25176943531E+03 -0.15569562094E+03  0.14050691777E+04  0.00000000000E+00 0.  1.
        -15    1    5    5    0    0  0.20616775304E+03  0.59870593038E+03  0.44681629685E+02  0.63478372813E+03  0.00000000000E+00 0.  1.
         15    1    3    3    0    0 -0.36937784630E+03 -0.19762038748E+03  0.33350177705E+03  0.53545984554E+03  0.00000000000E+00 0. -1.
         15    1    6    6    0    0 -0.71677444097E+03 -0.32971368968E+03  0.13613956910E+04  0.15734913231E+04  0.00000000000E+00 0. -1.
        -16    1    6    6    0    0 -0.19921611301E+03 -0.13865190932E+03  0.44469728360E+03  0.50662321865E+03  0.00000000000E+00 0.  1.
         16    1    4    4    0    0  0.34691784169E+03  0.38273526027E+02 -0.96927973453E+01  0.34915727401E+03  0.00000000000E+00 0. -1.
    9900018    1    1    2    0    0 -0.64124929065E+03 -0.22276290523E+03  0.11520911136E+04  0.13403182745E+04  0.91187600000E+02 0.  0.
<mgrwt>
<rscale>  0 0.54956968E+04</rscale>
<asrwt>0</asrwt>
<pdfrwt beam="1">  1        1 0.73199091E+00 0.54956968E+04</pdfrwt>
<pdfrwt beam="2">  1       -1 0.24414798E+00 0.54956968E+04</pdfrwt>
<totfact> 0.88564002E-04</totfact>
</mgrwt>
</event>
<event>
13    1  0.5549173E-006  0.4721843E+04  0.7818608E-02  0.7872909E-01
         -2   -1    0    0    0  501 -0.00000000000E+00  0.00000000000E+00  0.14729267992E+04  0.14729267992E+04  0.00000000000E+00 0.  1.
          2   -1    0    0  501    0  0.00000000000E+00 -0.00000000000E+00 -0.37842680229E+04  0.37842680229E+04  0.00000000000E+00 0. -1.
    9900016    2    1    2    0    0  0.44992887836E+03  0.62381767754E+03 -0.23061703241E+04  0.30507525165E+04  0.18431182443E+04 0.  0.
        -24    2    3    3    0    0  0.74166175606E+03  0.44765089173E+03 -0.25081316566E+04  0.26546071035E+04  0.75901159288E+02 0.  0.
    9900016    2    1    2    0    0 -0.32554515700E+03 -0.37772924419E+03 -0.68458615200E+02  0.19092027718E+04  0.18416594719E+04 0.  0.
         24    2    5    5    0    0  0.45277306778E+03 -0.76117729799E+03  0.33749307034E+03  0.95128396519E+03  0.81518586922E+02 0.  0.
        -15    1    6    6    0    0  0.32071387693E+03 -0.57294509999E+03  0.21595254659E+03  0.69120111461E+03  0.00000000000E+00 0.  1.
        -15    1    3    3    0    0 -0.29173287770E+03  0.17616678581E+03  0.20196133250E+03  0.39614541292E+03  0.00000000000E+00 0.  1.
         15    1    5    5    0    0 -0.77831822478E+03  0.38344805381E+03 -0.40595168554E+03  0.95791880657E+03  0.00000000000E+00 0. -1.
         15    1    4    4    0    0  0.23708032778E+03  0.18084288096E+03 -0.90984517220E+03  0.95745990349E+03  0.00000000000E+00 0. -1.
        -16    1    4    4    0    0  0.50458142827E+03  0.26680801077E+03 -0.15982864844E+04  0.16971472001E+04  0.00000000000E+00 0.  1.
         16    1    6    6    0    0  0.13205919085E+03 -0.18823219800E+03  0.12154052375E+03  0.26008285058E+03  0.00000000000E+00 0. -1.
    9900018    1    1    2    0    0 -0.12438372136E+03 -0.24608843335E+03  0.63287715540E+02  0.29723953388E+03  0.91187600000E+02 0.  0.
<mgrwt>
<rscale>  0 0.47218428E+04</rscale>
<asrwt>0</asrwt>
<pdfrwt beam="1">  1        2 0.58219508E+00 0.47218428E+04</pdfrwt>
<pdfrwt beam="2">  1       -2 0.22660412E+00 0.47218428E+04</pdfrwt>
<totfact> 0.33629577E-02</totfact>
</mgrwt>
</event>
<event>
13    1  0.5549173E-006  0.6414751E+04  0.7818608E-02  0.7641002E-01
         -2   -1    0    0    0  501 -0.00000000000E+00  0.00000000000E+00  0.43304097277E+04  0.43304097277E+04  0.00000000000E+00 0. -1.
          2   -1    0    0  501    0  0.00000000000E+00 -0.00000000000E+00 -0.23755849301E+04  0.23755849301E+04  0.00000000000E+00 0.  1.
    9900016    2    1    2    0    0  0.46333199128E+02  0.86129314078E+03  0.43437631556E+03  0.20799246336E+04  0.18421267759E+04 0.  0.
        -24    2    3    3    0    0 -0.34446346668E+03 -0.46112232867E+03 -0.12080467797E+03  0.59340835609E+03  0.79062159042E+02 0.  0.
    9900016    2    1    2    0    0  0.56670144880E+03 -0.20467390127E+04  0.16831786621E+04  0.32785205132E+04  0.18453496224E+04 0.  0.
         24    2    5    5    0    0 -0.58878292061E+03 -0.23450346149E+03  0.20835318370E+03  0.67190354619E+03  0.79913235234E+02 0.  0.
        -15    1    6    6    0    0 -0.11405614462E+03 -0.15358858113E+02  0.50938397553E+02  0.12585475356E+03  0.00000000000E+00 0.  1.
        -15    1    3    3    0    0  0.39079666581E+03  0.13224154694E+04  0.55518099353E+03  0.14865162775E+04  0.00000000000E+00 0.  1.
         15    1    4    4    0    0 -0.35113334819E+02 -0.91176738038E+02 -0.72221009212E+01  0.97970927234E+02  0.00000000000E+00 0. -1.
         15    1    5    5    0    0  0.11554843694E+04 -0.18122355512E+04  0.14748254784E+04  0.26066169670E+04  0.00000000000E+00 0. -1.
        -16    1    4    4    0    0 -0.30935013186E+03 -0.36994559063E+03 -0.11358257705E+03  0.49543742886E+03  0.00000000000E+00 0.  1.
         16    1    6    6    0    0 -0.47472677599E+03 -0.21914460337E+03  0.15741478615E+03  0.54604879262E+03  0.00000000000E+00 0. -1.
    9900018    1    1    2    0    0 -0.61303464793E+03  0.11854458719E+04 -0.16273018006E+03  0.13475495110E+04  0.91187600000E+02 0.  0.
<mgrwt>
<rscale>  0 0.64147505E+04</rscale>
<asrwt>0</asrwt>
<pdfrwt beam="1">  1        2 0.36547460E+00 0.64147505E+04</pdfrwt>
<pdfrwt beam="2">  1       -2 0.66621688E+00 0.64147505E+04</pdfrwt>
<totfact> 0.81361346E-04</totfact>
</mgrwt>
</event>
<event>
13    1  0.5549173E-006  0.5499780E+04  0.7818608E-02  0.7755719E-01
         -1   -1    0    0    0  501 -0.00000000000E+00  0.00000000000E+00  0.38978117285E+04  0.38978117285E+04  0.00000000000E+00 0.  1.
          1   -1    0    0  501    0  0.00000000000E+00 -0.00000000000E+00 -0.19400358309E+04  0.19400358309E+04  0.00000000000E+00 0. -1.
    9900016    2    1    2    0    0 -0.55355941997E+03  0.59071956119E+03  0.24681843204E+04  0.31903671131E+04  0.18523311921E+04 0.  0.
         24    2    3    3    0    0 -0.72011190200E+03  0.11008320466E+04  0.22569436592E+04  0.26136721382E+04  0.84231935069E+02 0.  0.
    9900016    2    1    2    0    0  0.93007589026E+03 -0.30315596590E+03 -0.29162185274E+03  0.21177255828E+04  0.18554712711E+04 0.  0.
        -24    2    5    5    0    0 -0.38236873098E+03  0.12095930102E+03 -0.57949151269E+03  0.70873531155E+03  0.75221869321E+02 0.  0.
        -15    1    5    5    0    0  0.13124446212E+04 -0.42411526692E+03  0.28786965996E+03  0.14089902713E+04  0.00000000000E+00 0.  1.
        -15    1    4    4    0    0 -0.23211653526E+03  0.28636737586E+03  0.64074751373E+03  0.73921697508E+03  0.00000000000E+00 0.  1.
         15    1    3    3    0    0  0.16655248204E+03 -0.51011248544E+03  0.21124066114E+03  0.57669497483E+03  0.00000000000E+00 0. -1.
         15    1    6    6    0    0 -0.24702508782E+03  0.10901055500E+03 -0.35010537438E+03  0.44212947004E+03  0.00000000000E+00 0. -1.
        -16    1    6    6    0    0 -0.13534364316E+03  0.11948746023E+02 -0.22938613832E+03  0.26660584151E+03  0.00000000000E+00 0.  1.
         16    1    4    4    0    0 -0.48799536675E+03  0.81446467077E+03  0.16161961455E+04  0.18744551632E+04  0.00000000000E+00 0. -1.
    9900018    1    1    2    0    0 -0.37651647030E+03 -0.28756359529E+03 -0.21878657005E+03  0.52975486347E+03  0.91187600000E+02 0.  0.
<mgrwt>
<rscale>  0 0.54997798E+04</rscale>
<asrwt>0</asrwt>
<pdfrwt beam="1">  1        1 0.29846705E+00 0.54997798E+04</pdfrwt>
<pdfrwt beam="2">  1       -1 0.59966334E+00 0.54997798E+04</pdfrwt>
<totfact> 0.10210641E-03</totfact>
</mgrwt>
</event>
<event>
13    1  0.5549173E-006  0.4897384E+04  0.7818608E-02  0.7844535E-01
         -2   -1    0    0    0  501 -0.00000000000E+00  0.00000000000E+00  0.13240560855E+04  0.13240560855E+04  0.00000000000E+00 0.  1.
          2   -1    0    0  501    0  0.00000000000E+00 -0.00000000000E+00 -0.45285786867E+04  0.45285786867E+04  0.00000000000E+00 0. -1.
    9900016    2    1    2    0    0  0.93290677372E+02 -0.13246673860E+03 -0.16953740647E+04  0.25152896835E+04  0.18509830862E+04 0.  0.
         24    2    3    3    0    0 -0.69090551156E+03 -0.19755959779E+03 -0.91393315861E+02  0.72868536649E+03  0.79053175559E+02 0.  0.
    9900016    2    1    2    0    0 -0.26775494466E+03 -0.40077964479E+03 -0.20830254954E+03  0.19177307234E+04  0.18444468389E+04 0.  0.
        -24    2    5    5    0    0 -0.43501518493E+03  0.68024970214E+03 -0.57467333904E+02  0.81348813270E+03  0.80514465753E+02 0.  0.
        -15    1    4    4    0    0 -0.18520840678E+03 -0.17855083358E+02 -0.16309081874E+02  0.18678047032E+03  0.00000000000E+00 0.  1.
        -15    1    5    5    0    0  0.16726024026E+03 -0.10810293469E+04 -0.15083521563E+03  0.11042425907E+04  0.00000000000E+00 0.  1.
         15    1    6    6    0    0 -0.31825073149E+03  0.53879719827E+03 -0.69829740796E+02  0.62965239748E+03  0.00000000000E+00 0. -1.
         15    1    3    3    0    0  0.78419618893E+03  0.65092859190E+02 -0.16039807488E+04  0.17866043170E+04  0.00000000000E+00 0. -1.
        -16    1    6    6    0    0 -0.11676445344E+03  0.14145250388E+03  0.12362406892E+02  0.18383573522E+03  0.00000000000E+00 0.  1.
         16    1    4    4    0    0 -0.50569710478E+03 -0.17970451444E+03 -0.75084233987E+02  0.54190489617E+03  0.00000000000E+00 0. -1.
    9900018    1    1    2    0    0  0.17446426729E+03  0.53324638340E+03 -0.13008459870E+04  0.14196143653E+04  0.91187600000E+02 0.  0.
<mgrwt>
<rscale>  0 0.48973839E+04</rscale>
<asrwt>0</asrwt>
<pdfrwt beam="1">  1        2 0.69670442E+00 0.48973839E+04</pdfrwt>
<pdfrwt beam="2">  1       -2 0.20370093E+00 0.48973839E+04</pdfrwt>
<totfact> 0.10544059E-02</totfact>
</mgrwt>
</event>
<event>
13    1  0.5549173E-006  0.5422847E+04  0.7818608E-02  0.7766396E-01
         -2   -1    0    0    0  501 -0.00000000000E+00  0.00000000000E+00  0.30621710035E+04  0.30621710035E+04  0.00000000000E+00 0.  1.
          2   -1    0    0  501    0  0.00000000000E+00 -0.00000000000E+00 -0.24008511353E+04  0.24008511353E+04  0.00000000000E+00 0. -1.
    9900016    2    1    2    0    0  0.85355064528E+03 -0.47183907911E+03 -0.43254635783E+03  0.21394756163E+04  0.18544753275E+04 0.  0.
         24    2    3    3    0    0  0.44121938026E+03  0.33978482841E+03  0.55914537753E+03  0.79329474530E+03  0.80899496753E+02 0.  0.
    9900016    2    1    2    0    0 -0.80389134693E+03  0.10360687289E+04  0.14148614535E+04  0.26661469042E+04  0.18403333051E+04 0.  0.
        -24    2    5    5    0    0 -0.82126914331E+02 -0.41458357687E+03 -0.10676542223E+03  0.44338187903E+03  0.81020139507E+02 0.  0.
        -15    1    5    5    0    0 -0.72176443260E+03  0.14506523058E+04  0.15216268757E+04  0.22227650252E+04  0.00000000000E+00 0.  1.
        -15    1    4    4    0    0  0.24817586257E+03  0.14501063091E+03  0.31056198843E+03  0.42316437763E+03  0.00000000000E+00 0.  1.
         15    1    6    6    0    0 -0.21083856103E+02 -0.14711438184E+03  0.10210713331E+01  0.14862103794E+03  0.00000000000E+00 0. -1.
         15    1    3    3    0    0  0.41233126502E+03 -0.81162390752E+03 -0.99169173536E+03  0.13461808710E+04  0.00000000000E+00 0. -1.
        -16    1    6    6    0    0 -0.61043058228E+02 -0.26746919503E+03 -0.10778649356E+03  0.29476084109E+03  0.00000000000E+00 0.  1.
         16    1    4    4    0    0  0.19304351768E+03  0.19477419750E+03  0.24858338910E+03  0.37013036767E+03  0.00000000000E+00 0. -1.
    9900018    1    1    2    0    0 -0.49659298345E+02 -0.56422964982E+03 -0.32099522742E+03  0.65739961824E+03  0.91187600000E+02 0.  0.
<mgrwt>
<rscale>  0 0.54228468E+04</rscale>
<asrwt>0</asrwt>
<pdfrwt beam="1">  1        2 0.36936171E+00 0.54228468E+04</pdfrwt>
<pdfrwt beam="2">  1       -2 0.47110323E+00 0.54228468E+04</pdfrwt>
<totfact> 0.70914585E-03</totfact>
</mgrwt>
</event>
<event>
13    1  0.5549173E-006  0.4754666E+04  0.7818608E-02  0.7867508E-01
         -2   -1    0    0    0  501 -0.00000000000E+00  0.00000000000E+00  0.22635554877E+04  0.22635554877E+04  0.00000000000E+00 0.  1.
          2   -1    0    0  501    0  0.00000000000E+00 -0.00000000000E+00 -0.24968294251E+04  0.24968294251E+04  0.00000000000E+00 0. -1.
    9900016    2    1    2    0    0 -0.11142574832E+04 -0.47139778955E+02 -0.61143884234E+03  0.22438125099E+04  0.18485251483E+04 0.  0.
         24    2    3    3    0    0 -0.15413903141E+04  0.30430386516E+03 -0.27684311336E+03  0.15973533913E+04  0.80067499450E+02 0.  0.
    9900016    2    1    2    0    0  0.11518410709E+04 -0.19881158272E+03  0.18654405712E+03  0.21895581431E+04  0.18420375346E+04 0.  0.
        -24    2    5    5    0    0 -0.41433042397E+03 -0.37893001773E+03 -0.12976321662E+03  0.58164455923E+03  0.78830465775E+02 0.  0.
        -15    1    5    5    0    0  0.15661714948E+04  0.18011843500E+03  0.31630727374E+03  0.16079135839E+04  0.00000000000E+00 0.  1.
        -15    1    4    4    0    0 -0.10529538984E+04  0.16976331894E+03 -0.18873715177E+03  0.10831219733E+04  0.00000000000E+00 0.  1.
         15    1    3    3    0    0  0.42713283089E+03 -0.35144364411E+03 -0.33459572898E+03  0.64645911863E+03  0.00000000000E+00 0. -1.
         15    1    6    6    0    0 -0.17996254976E+03 -0.13032034517E+03 -0.81099191036E+02  0.23653116173E+03  0.00000000000E+00 0. -1.
        -16    1    6    6    0    0 -0.23436787420E+03 -0.24860967255E+03 -0.48664025581E+02  0.34511339750E+03  0.00000000000E+00 0.  1.
         16    1    4    4    0    0 -0.48843641571E+03  0.13454054621E+03 -0.88105961590E+02  0.51423141798E+03  0.00000000000E+00 0. -1.
    9900018    1    1    2    0    0 -0.37583587624E+02  0.24595136168E+03  0.19162084787E+03  0.32701425978E+03  0.91187600000E+02 0.  0.
<mgrwt>
<rscale>  0 0.47546659E+04</rscale>
<asrwt>0</asrwt>
<pdfrwt beam="1">  1        2 0.38412761E+00 0.47546659E+04</pdfrwt>
<pdfrwt beam="2">  1       -2 0.34823930E+00 0.47546659E+04</pdfrwt>
<totfact> 0.41422118E-02</totfact>
</mgrwt>
</event>
<event>
13    1  0.5549173E-006  0.4392294E+04  0.7818608E-02  0.7929769E-01
         -2   -1    0    0    0  501 -0.00000000000E+00  0.00000000000E+00  0.12259166613E+04  0.12259166613E+04  0.00000000000E+00 0.  1.
          2   -1    0    0  501    0  0.00000000000E+00 -0.00000000000E+00 -0.39342489829E+04  0.39342489829E+04  0.00000000000E+00 0. -1.
    9900016    2    1    2    0    0 -0.67640497676E+03  0.69500331230E+03 -0.84679745242E+03  0.22496291706E+04  0.18447797113E+04 0.  0.
        -24    2    3    3    0    0 -0.79362755831E+03  0.99984267907E+03 -0.12103865504E+04  0.17608907894E+04  0.78553717789E+02 0.  0.
    9900016    2    1    2    0    0  0.48001259554E+03 -0.60622365025E+03 -0.15813497869E+04  0.25454739385E+04  0.18387091170E+04 0.  0.
         24    2    5    5    0    0 -0.16525285777E+03 -0.78581383732E+03 -0.16843563611E+04  0.18678084643E+04  0.82705589075E+02 0.  0.
        -15    1    3    3    0    0  0.11722258155E+03 -0.30483936677E+03  0.36358909796E+03  0.48873838126E+03  0.00000000000E+00 0.  1.
        -15    1    6    6    0    0 -0.11065656481E+02 -0.73279507007E+02 -0.10735760244E+03  0.13045301722E+03  0.00000000000E+00 0.  1.
         15    1    4    4    0    0 -0.75563124783E+02  0.69156241440E+02 -0.11691286256E+03  0.15543805515E+03  0.00000000000E+00 0. -1.
         15    1    5    5    0    0  0.64526545331E+03  0.17959018707E+03  0.10300657417E+03  0.67766547415E+03  0.00000000000E+00 0. -1.
        -16    1    4    4    0    0 -0.71806443352E+03  0.93068643763E+03 -0.10934736878E+04  0.16054527342E+04  0.00000000000E+00 0.  1.
         16    1    6    6    0    0 -0.15418720129E+03 -0.71253433031E+03 -0.15769987586E+04  0.17373554471E+04  0.00000000000E+00 0. -1.
    9900018    1    1    2    0    0  0.19639238122E+03 -0.88779662050E+02 -0.28018508229E+03  0.36506253509E+03  0.91187600000E+02 0.  0.
<mgrwt>
<rscale>  0 0.43922939E+04</rscale>
<asrwt>0</asrwt>
<pdfrwt beam="1">  1        2 0.60526908E+00 0.43922939E+04</pdfrwt>
<pdfrwt beam="2">  1       -2 0.18860256E+00 0.43922939E+04</pdfrwt>
<totfact> 0.46588597E-02</totfact>
</mgrwt>
</event>
<event>
13    1  0.5549173E-006  0.5203383E+04  0.7818608E-02  0.7797877E-01
          2   -1    0    0  501    0  0.00000000000E+00  0.00000000000E+00  0.19875984185E+04  0.19875984185E+04  0.00000000000E+00 0. -1.
         -2   -1    0    0    0  501 -0.00000000000E+00 -0.00000000000E+00 -0.34055159193E+04  0.34055159193E+04  0.00000000000E+00 0.  1.
    9900016    2    1    2    0    0  0.35665232870E+03  0.90710068810E+03 -0.81124228344E+03  0.22373801416E+04  0.18432914349E+04 0.  0.
        -24    2    3    3    0    0  0.91580252839E+03 -0.91701204268E+02 -0.50630221433E+03  0.10527947240E+04  0.70224046544E+02 0.  0.
    9900016    2    1    2    0    0 -0.55900215806E+03  0.22419619811E+03 -0.38603563556E+03  0.19819475454E+04  0.18483357954E+04 0.  0.
         24    2    5    5    0    0  0.27214998938E+03 -0.11854618732E+02  0.60433174041E+03  0.66765632203E+03  0.79636443752E+02 0.  0.
        -15    1    3    3    0    0 -0.55915019969E+03  0.99880189236E+03 -0.30494006912E+03  0.11845854177E+04  0.00000000000E+00 0.  1.
        -15    1    6    6    0    0  0.18722062933E+03 -0.31867901580E+02  0.47583816751E+03  0.51233689000E+03  0.00000000000E+00 0.  1.
         15    1    4    4    0    0  0.48562221319E+03 -0.14563955335E+02 -0.27677525708E+03  0.55914719500E+03  0.00000000000E+00 0. -1.
         15    1    5    5    0    0 -0.83115214744E+03  0.23605081685E+03 -0.99036737597E+03  0.13142912233E+04  0.00000000000E+00 0. -1.
        -16    1    4    4    0    0  0.43018031519E+03 -0.77137248934E+02 -0.22952695724E+03  0.49364752897E+03  0.00000000000E+00 0.  1.
         16    1    6    6    0    0  0.84929360049E+02  0.20013282847E+02  0.12849357291E+03  0.15531943204E+03  0.00000000000E+00 0. -1.
    9900018    1    1    2    0    0  0.20234982937E+03 -0.11312968862E+04 -0.22063958186E+03  0.11737866508E+04  0.91187600000E+02 0.  0.
<mgrwt>
<rscale>  0 0.52033828E+04</rscale>
<asrwt>0</asrwt>
<pdfrwt beam="1">  1        2 0.30578437E+00 0.52033828E+04</pdfrwt>
<pdfrwt beam="2">  1       -2 0.52392552E+00 0.52033828E+04</pdfrwt>
<totfact> 0.58231981E-03</totfact>
</mgrwt>
</event>
<event>
13    1  0.5549173E-006  0.6052331E+04  0.7818608E-02  0.7683947E-01
          2   -1    0    0  501    0  0.00000000000E+00  0.00000000000E+00  0.30934270421E+04  0.30934270421E+04  0.00000000000E+00 0. -1.
         -2   -1    0    0    0  501 -0.00000000000E+00 -0.00000000000E+00 -0.29603669059E+04  0.29603669059E+04  0.00000000000E+00 0.  1.
    9900016    2    1    2    0    0 -0.19486004659E+04 -0.10348649299E+04  0.26737864968E+03  0.28893733131E+04  0.18463470966E+04 0.  0.
         24    2    3    3    0    0  0.15317275397E+03  0.92829770807E+02  0.45651130977E+03  0.49669339948E+03  0.78882813273E+02 0.  0.
    9900016    2    1    2    0    0  0.13768768382E+04  0.51342218440E+03 -0.28115784162E+03  0.23715477510E+04  0.18400534874E+04 0.  0.
        -24    2    5    5    0    0  0.36946304867E+03 -0.43084943431E+03  0.52109792306E+03  0.77463017483E+03  0.79841611685E+02 0.  0.
        -15    1    4    4    0    0  0.82617182779E+02  0.57826060835E+01  0.17160097760E+03  0.19054115812E+03  0.00000000000E+00 0.  1.
        -15    1    5    5    0    0  0.10074137895E+04  0.94427161871E+03 -0.80225576468E+03  0.15969175762E+04  0.00000000000E+00 0.  1.
         15    1    3    3    0    0 -0.21017732199E+04 -0.11276947007E+04 -0.18913266010E+03  0.23926799136E+04  0.00000000000E+00 0. -1.
         15    1    6    6    0    0  0.32505019945E+03 -0.35260302854E+03  0.46839501750E+03  0.67035842675E+03  0.00000000000E+00 0. -1.
        -16    1    6    6    0    0  0.44412849225E+02 -0.78246405774E+02  0.52702905554E+02  0.10427174808E+03  0.00000000000E+00 0.  1.
         16    1    4    4    0    0  0.70555571187E+02  0.87047164723E+02  0.28491033217E+03  0.30615224136E+03  0.00000000000E+00 0. -1.
    9900018    1    1    2    0    0  0.57172362768E+03  0.52144274552E+03  0.14683932816E+03  0.79287288388E+03  0.91187600000E+02 0.  0.
<mgrwt>
<rscale>  0 0.60523315E+04</rscale>
<asrwt>0</asrwt>
<pdfrwt beam="1">  1        2 0.47591185E+00 0.60523315E+04</pdfrwt>
<pdfrwt beam="2">  1       -2 0.45544107E+00 0.60523315E+04</pdfrwt>
<totfact> 0.32704783E-03</totfact>
</mgrwt>
</event>
<event>
13    1  0.5549173E-006  0.6033878E+04  0.7818608E-02  0.7686216E-01
          1   -1    0    0  501    0  0.00000000000E+00  0.00000000000E+00  0.51991368905E+04  0.51991368905E+04  0.00000000000E+00 0. -1.
         -1   -1    0    0    0  501 -0.00000000000E+00 -0.00000000000E+00 -0.17506597718E+04  0.17506597718E+04  0.00000000000E+00 0.  1.
    9900016    2    1    2    0    0 -0.18699669532E+04  0.49307398807E+03  0.13046544038E+04  0.29797394943E+04  0.18538678423E+04 0.  0.
         24    2    3    3    0    0 -0.10696549456E+03 -0.55998706337E+03  0.53754712868E+03  0.78757953371E+03  0.79356651892E+02 0.  0.
    9900016    2    1    2    0    0  0.58773556486E+03 -0.59461157620E+03  0.11647005053E+04  0.23509763501E+04  0.18632140271E+04 0.  0.
        -24    2    5    5    0    0  0.45555173349E+03 -0.11252087129E+04  0.13072735401E+04  0.17858808210E+04  0.82366063812E+02 0.  0.
        -15    1    4    4    0    0 -0.49911725512E+02 -0.35634105880E+03  0.29109009027E+03  0.46282131669E+03  0.00000000000E+00 0.  1.
        -15    1    5    5    0    0  0.13218383137E+03  0.53059713674E+03 -0.14257303480E+03  0.56509552913E+03  0.00000000000E+00 0.  1.
         15    1    3    3    0    0 -0.17630014587E+04  0.10530610514E+04  0.76710727511E+03  0.21921599606E+04  0.00000000000E+00 0. -1.
         15    1    6    6    0    0  0.28983555473E+03 -0.81319064850E+03  0.93928456177E+03  0.12757504331E+04  0.00000000000E+00 0. -1.
        -16    1    6    6    0    0  0.16571617876E+03 -0.31201806443E+03  0.36798897836E+03  0.51013038787E+03  0.00000000000E+00 0.  1.
         16    1    4    4    0    0 -0.57053769047E+02 -0.20364600457E+03  0.24645703841E+03  0.32475821702E+03  0.00000000000E+00 0. -1.
    9900018    1    1    2    0    0  0.12822313884E+04  0.10153758813E+03  0.97912220955E+03  0.16190808179E+04  0.91187600000E+02 0.  0.
<mgrwt>
<rscale>  0 0.60338776E+04</rscale>
<asrwt>0</asrwt>
<pdfrwt beam="1">  1        1 0.79986721E+00 0.60338776E+04</pdfrwt>
<pdfrwt beam="2">  1       -1 0.26933227E+00 0.60338776E+04</pdfrwt>
<totfact> 0.15772082E-04</totfact>
</mgrwt>
</event>
<event>
13    1  0.5549173E-006  0.4389090E+04  0.7818608E-02  0.7930347E-01
          2   -1    0    0  501    0  0.00000000000E+00  0.00000000000E+00  0.30232871967E+04  0.30232871967E+04  0.00000000000E+00 0. -1.
         -2   -1    0    0    0  501 -0.00000000000E+00 -0.00000000000E+00 -0.15929776084E+04  0.15929776084E+04  0.00000000000E+00 0.  1.
    9900016    2    1    2    0    0 -0.60707226529E+03 -0.43881424561E+03  0.23356978491E+03  0.19923486621E+04  0.18313393104E+04 0.  0.
         24    2    3    3    0    0 -0.32570506667E+02 -0.89681471858E+03 -0.43364372599E+03  0.99988174933E+03  0.79869607359E+02 0.  0.
    9900016    2    1    2    0    0  0.25170342183E+03  0.22656202984E+03  0.11524014143E+04  0.21977482310E+04  0.18404845289E+04 0.  0.
        -24    2    5    5    0    0  0.39328458331E+03 -0.90211815908E+02  0.15882509654E+04  0.16406524352E+04  0.79927146868E+02 0.  0.
        -15    1    5    5    0    0 -0.14158116148E+03  0.31677384575E+03 -0.43584955103E+03  0.55709579586E+03  0.00000000000E+00 0.  1.
        -15    1    4    4    0    0  0.28868548052E+01 -0.13004331384E+03 -0.94107017675E+02  0.16054821139E+03  0.00000000000E+00 0.  1.
         15    1    6    6    0    0  0.23664004406E+03 -0.88635697691E+02  0.90026345357E+03  0.93505565780E+03  0.00000000000E+00 0. -1.
         15    1    3    3    0    0 -0.57450175863E+03  0.45800047297E+03  0.66721351090E+03  0.99246691281E+03  0.00000000000E+00 0. -1.
        -16    1    6    6    0    0  0.15664453925E+03 -0.15761182164E+01  0.68798751179E+03  0.70559677735E+03  0.00000000000E+00 0.  1.
         16    1    4    4    0    0 -0.35457361472E+02 -0.76677140474E+03 -0.33953670831E+03  0.83933353794E+03  0.00000000000E+00 0. -1.
    9900018    1    1    2    0    0  0.35536884346E+03  0.21225221577E+03  0.44338389100E+02  0.42616791191E+03  0.91187600000E+02 0.  0.
<mgrwt>
<rscale>  0 0.43890905E+04</rscale>
<asrwt>0</asrwt>
<pdfrwt beam="1">  1        2 0.46512111E+00 0.43890905E+04</pdfrwt>
<pdfrwt beam="2">  1       -2 0.24507348E+00 0.43890905E+04</pdfrwt>
<totfact> 0.88641991E-02</totfact>
</mgrwt>
</event>
<event>
13    1  0.5549173E-006  0.5995111E+04  0.7818608E-02  0.7691008E-01
         -2   -1    0    0    0  501 -0.00000000000E+00  0.00000000000E+00  0.21415500506E+04  0.21415500506E+04  0.00000000000E+00 0.  1.
          2   -1    0    0  501    0  0.00000000000E+00 -0.00000000000E+00 -0.41957176454E+04  0.41957176454E+04  0.00000000000E+00 0. -1.
    9900016    2    1    2    0    0  0.82949161047E+03  0.95746961987E+03 -0.28006718914E+04  0.35754587095E+04  0.18262906491E+04 0.  0.
        -24    2    3    3    0    0  0.60532962391E+03  0.61711221639E+03 -0.29990521412E+04  0.31221966641E+04  0.80912434347E+02 0.  0.
    9900016    2    1    2    0    0 -0.30471027616E+03 -0.49521687131E+03  0.69831052466E+03  0.20549066804E+04  0.18430723736E+04 0.  0.
         24    2    5    5    0    0 -0.11737969418E+03 -0.11598160153E+04  0.16001140737E+03  0.11793778637E+04  0.79858078954E+02 0.  0.
        -15    1    3    3    0    0  0.22416198656E+03  0.34035740348E+03  0.19838024980E+03  0.45326204544E+03  0.00000000000E+00 0.  1.
        -15    1    6    6    0    0 -0.66414885160E+02 -0.53816224432E+03  0.36066833746E+02  0.54344305560E+03  0.00000000000E+00 0.  1.
         15    1    4    4    0    0  0.11178132582E+03  0.94048593155E+02 -0.41611918539E+03  0.44101630256E+03  0.00000000000E+00 0. -1.
         15    1    5    5    0    0 -0.18733058199E+03  0.66459914403E+03  0.53829911729E+03  0.87552881670E+03  0.00000000000E+00 0. -1.
        -16    1    4    4    0    0  0.49354829809E+03  0.52306362324E+03 -0.25829329559E+04  0.26811803615E+04  0.00000000000E+00 0.  1.
         16    1    6    6    0    0 -0.50964809019E+02 -0.62165377103E+03  0.12394457362E+03  0.63593480808E+03  0.00000000000E+00 0. -1.
    9900018    1    1    2    0    0 -0.52478133431E+03 -0.46225274856E+03  0.48193771938E+02  0.70690230615E+03  0.91187600000E+02 0.  0.
<mgrwt>
<rscale>  0 0.59951111E+04</rscale>
<asrwt>0</asrwt>
<pdfrwt beam="1">  1        2 0.64549502E+00 0.59951111E+04</pdfrwt>
<pdfrwt beam="2">  1       -2 0.32946924E+00 0.59951111E+04</pdfrwt>
<totfact> 0.32786991E-03</totfact>
</mgrwt>
</event>
<event>
13    1  0.5549173E-006  0.5149026E+04  0.7818608E-02  0.7805921E-01
         -2   -1    0    0    0  501 -0.00000000000E+00  0.00000000000E+00  0.22505707155E+04  0.22505707155E+04  0.00000000000E+00 0.  1.
          2   -1    0    0  501    0  0.00000000000E+00 -0.00000000000E+00 -0.29450823316E+04  0.29450823316E+04  0.00000000000E+00 0. -1.
    9900016    2    1    2    0    0  0.35811362850E+02  0.13480797372E+04 -0.82672840009E+03  0.24269326708E+04  0.18406305739E+04 0.  0.
         24    2    3    3    0    0 -0.57220712998E+03 -0.18961465461E+03 -0.81631881738E+02  0.61327356506E+03  0.77884431364E+02 0.  0.
    9900016    2    1    2    0    0  0.43073054727E+03 -0.83453201816E+03  0.13792844700E+03  0.20689058187E+04  0.18383075195E+04 0.  0.
        -24    2    5    5    0    0  0.12066080220E+03 -0.26129250703E+03  0.96830654984E+03  0.10133137679E+04  0.79714580730E+02 0.  0.
        -15    1    4    4    0    0 -0.10148555750E+02 -0.16902150687E+02 -0.63621547757E+00  0.19725127421E+02  0.00000000000E+00 0.  1.
        -15    1    5    5    0    0  0.31006974507E+03 -0.57323951112E+03 -0.83037810284E+03  0.10555920507E+04  0.00000000000E+00 0.  1.
         15    1    6    6    0    0  0.70794122542E+02 -0.14242564312E+03  0.66493122653E+03  0.68368882368E+03  0.00000000000E+00 0. -1.
         15    1    3    3    0    0  0.60801849283E+03  0.15376943918E+04 -0.74509651835E+03  0.18136591057E+04  0.00000000000E+00 0. -1.
        -16    1    6    6    0    0  0.49866679659E+02 -0.11886686391E+03  0.30337532331E+03  0.32962494425E+03  0.00000000000E+00 0.  1.
         16    1    4    4    0    0 -0.56205857423E+03 -0.17271250392E+03 -0.80995666260E+02  0.59354843764E+03  0.00000000000E+00 0. -1.
    9900018    1    1    2    0    0 -0.46654191012E+03 -0.51354771902E+03 -0.57116630335E+01  0.69981455765E+03  0.91187600000E+02 0.  0.
<mgrwt>
<rscale>  0 0.51490256E+04</rscale>
<asrwt>0</asrwt>
<pdfrwt beam="1">  1        2 0.45308959E+00 0.51490256E+04</pdfrwt>
<pdfrwt beam="2">  1       -2 0.34624165E+00 0.51490256E+04</pdfrwt>
<totfact> 0.22265640E-02</totfact>
</mgrwt>
</event>
