<event>
12    1  0.1479914E-010  0.2227918E+04  0.7818608E-02  0.8506897E-01
          1   -1    0    0  501    0  0.00000000000E+00  0.00000000000E+00  0.68642661656E+03  0.68642661656E+03  0.00000000000E+00 0. -1.
         -1   -1    0    0    0  501 -0.00000000000E+00 -0.00000000000E+00 -0.18077754347E+04  0.18077754347E+04  0.00000000000E+00 0.  1.
         23    2    1    2    0    0 -0.12826468589E+03  0.70817623804E+02 -0.41060045491E+03  0.44541135967E+03  0.91277490439E+02 0.  0.
    9900016    2    1    2    0    0  0.39103205848E+02 -0.77206608808E+02 -0.84838675080E+03  0.18846720930E+04  0.16806959564E+04 0.  0.
        -24    2    4    4    0    0  0.45524171863E+03 -0.26331784512E+03  0.19002285262E+03  0.56488586137E+03  0.80037753135E+02 0.  0.
        -15    1    3    3    0    0 -0.40561220164E+02 -0.12092770634E+02 -0.18256478437E+03  0.18740690536E+03  0.00000000000E+00 0.  1.
        -15    1    4    4    0    0 -0.52803451361E+03  0.15516511222E+03 -0.44344896487E+03  0.70678401514E+03  0.00000000000E+00 0.  1.
         15    1    5    5    0    0  0.15969083753E+03 -0.82734218925E+02  0.10496969033E+03  0.20824204777E+03  0.00000000000E+00 0. -1.
         15    1    3    3    0    0 -0.87703465721E+02  0.82910394438E+02 -0.22803567054E+03  0.25800445431E+03  0.00000000000E+00 0. -1.
        -16    1    5    5    0    0  0.29555088109E+03 -0.18058362619E+03  0.85053162289E+02  0.35664381360E+03  0.00000000000E+00 0.  1.
         16    1    1    2    0    0  0.89161480037E+02  0.63889850034E+01  0.13763838761E+03  0.16411859857E+03  0.00000000000E+00 0. -1.
    9900018    1    4    4    0    0  0.11189600083E+03  0.30946124092E+02 -0.59496063855E+03  0.61300221648E+03  0.91187600000E+02 0.  0.
<mgrwt>
<rscale>  0 0.22279185E+04</rscale>
<asrwt>0</asrwt>
<pdfrwt beam="1">  1        1 0.10560410E+00 0.22279185E+04</pdfrwt>
<pdfrwt beam="2">  1       -1 0.27811930E+00 0.22279185E+04</pdfrwt>
<totfact> 0.11685540E+00</totfact>
</mgrwt>
</event>
<event>
11    1  0.1479914E-010  0.3710627E+04  0.7818608E-02  0.8610992E-01
          2   -1    0    0  501    0  0.00000000000E+00  0.00000000000E+00  0.25829226108E+04  0.25829226108E+04  0.00000000000E+00 0. -1.
         -2   -1    0    0    0  501 -0.00000000000E+00 -0.00000000000E+00 -0.15875560289E+04  0.15875560289E+04  0.00000000000E+00 0.  1.
         23    2    1    2    0    0  0.28115137501E+03  0.87954447792E+02 -0.58956737457E+02  0.31297268083E+03  0.87715001572E+02 0.  0.
        -24    2    1    2    0    0 -0.59203662898E+03 -0.17402783183E+02 -0.27274890465E+03  0.65694209434E+03  0.79816811636E+02 0.  0.
        -15    1    3    3    0    0  0.10823711904E+03 -0.98961798983E+01 -0.20924824794E+02  0.11068449127E+03  0.00000000000E+00 0. -1.
        -15    1    1    2    0    0  0.61286340234E+03 -0.19615840909E+03  0.64684801564E+03  0.91241001021E+03  0.00000000000E+00 0.  1.
         15    1    3    3    0    0  0.17291425597E+03  0.97850627690E+02 -0.38031912663E+02  0.20228818956E+03  0.00000000000E+00 0.  1.
         15    1    4    4    0    0 -0.43836740737E+03 -0.12121206951E+02 -0.16221574470E+03  0.46757550762E+03  0.00000000000E+00 0. -1.
        -16    1    4    4    0    0 -0.15366922161E+03 -0.52815762316E+01 -0.11053315995E+03  0.18936658672E+03  0.00000000000E+00 0.  1.
         16    1    1    2    0    0  0.33742087579E+03 -0.68381546440E+02  0.13166343332E+04  0.13609022193E+04  0.00000000000E+00 0. -1.
    9900018    1    1    2    0    0 -0.63939902416E+03  0.19398829092E+03 -0.63641012481E+03  0.92725163492E+03  0.91187600000E+02 0.  0.
<mgrwt>
<rscale>  0 0.19906765E+04</rscale>
<asrwt>0</asrwt>
<pdfrwt beam="1">  1        2 0.39737271E+00 0.37106272E+04</pdfrwt>
<pdfrwt beam="2">  1       -2 0.24423939E+00 0.37106272E+04</pdfrwt>
<totfact> 0.17324280E-01</totfact>
</mgrwt>
</event>
<event>
12    1  0.1479914E-010  0.2292236E+04  0.7818608E-02  0.9272385E-01
          1   -1    0    0  501    0  0.00000000000E+00  0.00000000000E+00  0.10992679053E+04  0.10992679053E+04  0.00000000000E+00 0. -1.
         -1   -1    0    0    0  501 -0.00000000000E+00 -0.00000000000E+00 -0.14031615963E+04  0.14031615963E+04  0.00000000000E+00 0.  1.
         23    2    1    2    0    0 -0.27406753719E+02 -0.79040540859E+00  0.13856638954E+03  0.16788138823E+03  0.90729054415E+02 0.  0.
    9900016    2    1    2    0    0 -0.14433247958E+03  0.60192021172E+02  0.16409568877E+03  0.17013555538E+04  0.16861875285E+04 0.  0.
        -24    2    4    4    0    0 -0.34108338083E+03 -0.71186493055E+03  0.21539655167E+03  0.82217261588E+03  0.80514494456E+02 0.  0.
        -15    1    4    4    0    0  0.13376325965E+03  0.60751656801E+03  0.99519046539E+02  0.62997859541E+03  0.00000000000E+00 0.  1.
        -15    1    3    3    0    0  0.24064696595E+02  0.12865303427E+02  0.95715935681E+02  0.99529724192E+02  0.00000000000E+00 0. -1.
         15    1    3    3    0    0 -0.51471450315E+02 -0.13655708835E+02  0.42850453858E+02  0.68351664041E+02  0.00000000000E+00 0.  1.
         15    1    5    5    0    0 -0.29419138723E+03 -0.55517257916E+03  0.14954358887E+03  0.64585482110E+03  0.00000000000E+00 0. -1.
        -16    1    5    5    0    0 -0.46891993606E+02 -0.15669235139E+03  0.65852962797E+02  0.17631779478E+03  0.00000000000E+00 0.  1.
         16    1    1    2    0    0  0.17173923330E+03 -0.59401615763E+02 -0.60655576933E+03  0.63319255958E+03  0.00000000000E+00 0. -1.
    9900018    1    4    4    0    0  0.62987641601E+02  0.16454038370E+03 -0.15081990944E+03  0.24920434254E+03  0.91187600000E+02 0.  0.
<mgrwt>
<rscale>  0 0.10336541E+04</rscale>
<asrwt>0</asrwt>
<pdfrwt beam="1">  1        1 0.16911814E+00 0.22922356E+04</pdfrwt>
<pdfrwt beam="2">  1       -1 0.21587101E+00 0.22922356E+04</pdfrwt>
<totfact> 0.13389095E+00</totfact>
</mgrwt>
</event>
