<event>
12    1  0.3609754E-013  0.5859071E+04  0.7818608E-02  0.7708125E-01
          2   -1    0    0  501    0  0.00000000000E+00  0.00000000000E+00  0.46485117139E+04  0.46485117139E+04  0.00000000000E+00 0. -1.
         -2   -1    0    0    0  501 -0.00000000000E+00 -0.00000000000E+00 -0.18462203623E+04  0.18462203623E+04  0.00000000000E+00 0.  1.
    9900016    2    1    2    0    0 -0.62669812909E+03  0.16213140791E+04  0.56971239374E+03  0.28759804558E+04  0.22192975200E+04 0.  0.
    9900016    2    1    2    0    0  0.55819118199E+03 -0.15019078758E+04  0.20868914630E+04  0.33985447456E+04  0.21512056494E+04 0.  0.
         24    2    4    4    0    0  0.95881380504E+02  0.53627287122E+03  0.21134782390E+03  0.59041813655E+03  0.84521250348E+02 0.  0.
        -15    1    5    5    0    0  0.33994936694E+02  0.26387323199E+03  0.14621321904E+03  0.30358366838E+03  0.00000000000E+00 0.  1.
        -15    1    3    3    0    0  0.13600089960E+03 -0.23280580938E+03  0.46669113894E+03  0.53897625991E+03  0.00000000000E+00 0. -1.
         15    1    3    3    0    0  0.93512693444E+02 -0.11911406351E+03  0.10801373788E+03  0.18601008449E+03  0.00000000000E+00 0.  1.
         15    1    4    4    0    0  0.46230980148E+03 -0.20381807470E+04  0.18755436391E+04  0.28081266090E+04  0.00000000000E+00 0. -1.
        -16    1    3    3    0    0 -0.85621172214E+03  0.19732339520E+04 -0.49924830828E+01  0.21509941114E+04  0.00000000000E+00 0.  1.
         16    1    5    5    0    0  0.61886443810E+02  0.27239963923E+03  0.65134604856E+02  0.28683446817E+03  0.00000000000E+00 0. -1.
    9900018    1    1    2    0    0  0.68506947107E+02 -0.11940620330E+03  0.14568749491E+03  0.22020687490E+03  0.91187600000E+02 0.  0.
<mgrwt>
<rscale>  0 0.58590706E+04</rscale>
<asrwt>0</asrwt>
<pdfrwt beam="1">  1        2 0.71515564E+00 0.58590706E+04</pdfrwt>
<pdfrwt beam="2">  1       -2 0.28403390E+00 0.58590706E+04</pdfrwt>
<totfact> 0.23239765E-03</totfact>
</mgrwt>
</event>
<event>
13    1  0.3609754E-013  0.5886206E+04  0.7818608E-02  0.7704673E-01
          2   -1    0    0  501    0  0.00000000000E+00  0.00000000000E+00  0.39304370076E+04  0.39304370076E+04  0.00000000000E+00 0. -1.
         -2   -1    0    0    0  501 -0.00000000000E+00 -0.00000000000E+00 -0.22037893242E+04  0.22037893242E+04  0.00000000000E+00 0.  1.
    9900016    2    1    2    0    0  0.55855431793E+03  0.16920156744E+04  0.16685758408E+04  0.32738924062E+04  0.21815879957E+04 0.  0.
         23    2    3    3    0    0 -0.27531235291E+03 -0.43580346558E+03  0.39245011323E+03  0.65636594227E+03  0.10525020915E+03 0.  0.
    9900016    2    1    2    0    0 -0.55855431793E+03 -0.16920156744E+04  0.58071842628E+02  0.28603339256E+04  0.22367918675E+04 0.  0.
        -24    2    5    5    0    0 -0.56860900533E+03 -0.29323682282E+03 -0.89748089959E+03  0.11051616054E+04  0.81278371552E+02 0.  0.
        -15    1    5    5    0    0  0.57186828301E+02 -0.13275864037E+04  0.94342601465E+03  0.16296651919E+04  0.00000000000E+00 0.  1.
        -15    1    4    4    0    0 -0.15347483047E+03 -0.15204722972E+03  0.18414662554E+03  0.28387120909E+03  0.00000000000E+00 0.  1.
         15    1    6    6    0    0 -0.97788184808E+02 -0.61748172543E+02 -0.21716401673E+03  0.24603978553E+03  0.00000000000E+00 0. -1.
         15    1    4    4    0    0 -0.12183752243E+03 -0.28375623586E+03  0.20830348769E+03  0.37249473318E+03  0.00000000000E+00 0. -1.
        -16    1    6    6    0    0 -0.47082082052E+03 -0.23148865027E+03 -0.68031688285E+03  0.85912181985E+03  0.00000000000E+00 0.  1.
         16    1    3    3    0    0  0.83386667084E+03  0.21278191399E+04  0.12761257275E+04  0.26175264640E+04  0.00000000000E+00 0. -1.
    9900018    1    5    5    0    0 -0.47132140904E+02 -0.71192447838E+02  0.12126727564E+02  0.12550712829E+03  0.91187600000E+02 0.  0.
<mgrwt>
<rscale>  0 0.58862059E+04</rscale>
<asrwt>0</asrwt>
<pdfrwt beam="1">  1        2 0.60468261E+00 0.58862059E+04</pdfrwt>
<pdfrwt beam="2">  1       -2 0.33904451E+00 0.58862059E+04</pdfrwt>
<totfact> 0.47923403E-03</totfact>
</mgrwt>
</event>
<event>
12    1  0.3609754E-013  0.4666927E+04  0.7818608E-02  0.7882047E-01
         -2   -1    0    0    0  501 -0.00000000000E+00  0.00000000000E+00  0.15619249870E+04  0.15619249870E+04  0.00000000000E+00 0. -1.
          2   -1    0    0  501    0  0.00000000000E+00 -0.00000000000E+00 -0.34861163534E+04  0.34861163534E+04  0.00000000000E+00 0.  1.
    9900016    2    1    2    0    0  0.19492499366E+03  0.60429804476E+03 -0.64686361480E+03  0.23766350381E+04  0.21969956049E+04 0.  0.
    9900016    2    1    2    0    0 -0.17623302013E+03 -0.50388267650E+03 -0.12121038566E+04  0.25197422956E+04  0.21435833662E+04 0.  0.
        -24    2    4    4    0    0 -0.61487357544E+03  0.55662840588E+03 -0.10806617881E+04  0.13645945518E+04  0.79898025627E+02 0.  0.
        -15    1    3    3    0    0 -0.49992012573E+03 -0.17317003146E+03 -0.43685257667E+03  0.68611089894E+03  0.00000000000E+00 0.  1.
        -15    1    4    4    0    0  0.43864055532E+03 -0.10605110824E+04 -0.13144206846E+03  0.11551477438E+04  0.00000000000E+00 0.  1.
         15    1    3    3    0    0 -0.24205585082E+03 -0.20596530335E+03 -0.66259991167E+02  0.32465847830E+03  0.00000000000E+00 0. -1.
         15    1    5    5    0    0 -0.36843945905E+03  0.30361591835E+03 -0.56710781202E+03  0.74131068475E+03  0.00000000000E+00 0. -1.
        -16    1    5    5    0    0 -0.24643411639E+03  0.25301248753E+03 -0.51355397612E+03  0.62328386707E+03  0.00000000000E+00 0.  1.
         16    1    3    3    0    0  0.93690097021E+03  0.98343337957E+03 -0.14375104697E+03  0.13658656609E+04  0.00000000000E+00 0. -1.
    9900018    1    1    2    0    0 -0.18691973533E+02 -0.10041536826E+03 -0.65223894967E+02  0.15166400669E+03  0.91187600000E+02 0.  0.
<mgrwt>
<rscale>  0 0.46669271E+04</rscale>
<asrwt>0</asrwt>
<pdfrwt beam="1">  1        2 0.53632558E+00 0.46669271E+04</pdfrwt>
<pdfrwt beam="2">  1       -2 0.24029616E+00 0.46669271E+04</pdfrwt>
<totfact> 0.45757189E-02</totfact>
</mgrwt>
</event>
<event>
12    1  0.3609754E-013  0.4953278E+04  0.7818608E-02  0.7835755E-01
          2   -1    0    0  501    0  0.00000000000E+00  0.00000000000E+00  0.28254867140E+04  0.28254867140E+04  0.00000000000E+00 0. -1.
         -2   -1    0    0    0  501 -0.00000000000E+00 -0.00000000000E+00 -0.21708613703E+04  0.21708613703E+04  0.00000000000E+00 0.  1.
    9900016    2    1    2    0    0 -0.46871204715E+03  0.51305425540E+03 -0.51473951580E+03  0.23629423303E+04  0.21990052376E+04 0.  0.
    9900016    2    1    2    0    0  0.44430387965E+03 -0.51558730639E+03  0.11069356588E+04  0.25202034639E+04  0.21593709127E+04 0.  0.
         24    2    4    4    0    0 -0.85683060007E+02 -0.21130968254E+02 -0.62847743237E+03  0.63950364105E+03  0.78695103570E+02 0.  0.
        -15    1    3    3    0    0  0.99852580102E+02 -0.29239794667E+03  0.76330072339E+02  0.31826620448E+03  0.00000000000E+00 0. -1.
        -15    1    5    5    0    0  0.13651067322E+02  0.64616295949E+01 -0.74712174463E+02  0.76223443303E+02  0.00000000000E+00 0.  1.
         15    1    3    3    0    0 -0.85958427096E+02 -0.43067026332E+03  0.21819922353E+03  0.49038416374E+03  0.00000000000E+00 0.  1.
         15    1    4    4    0    0  0.52998693966E+03 -0.49445633813E+03  0.17354130912E+04  0.18806998228E+04  0.00000000000E+00 0. -1.
        -16    1    3    3    0    0 -0.48260620016E+03  0.12361224654E+04 -0.80926881167E+03  0.15542919621E+04  0.00000000000E+00 0.  1.
         16    1    5    5    0    0 -0.99334127329E+02 -0.27592597849E+02 -0.55376525791E+03  0.56328019775E+03  0.00000000000E+00 0. -1.
    9900018    1    1    2    0    0  0.24408167499E+02  0.25330509896E+01  0.62429200744E+02  0.11320229011E+03  0.91187600000E+02 0.  0.
<mgrwt>
<rscale>  0 0.49532777E+04</rscale>
<asrwt>0</asrwt>
<pdfrwt beam="1">  1        2 0.43469026E+00 0.49532777E+04</pdfrwt>
<pdfrwt beam="2">  1       -2 0.33397867E+00 0.49532777E+04</pdfrwt>
<totfact> 0.31966605E-02</totfact>
</mgrwt>
</event>
<event>
12    1  0.3609754E-013  0.5979847E+04  0.7818608E-02  0.7692906E-01
          2   -1    0    0  501    0  0.00000000000E+00  0.00000000000E+00  0.18581096755E+04  0.18581096755E+04  0.00000000000E+00 0. -1.
         -2   -1    0    0    0  501 -0.00000000000E+00 -0.00000000000E+00 -0.48111494324E+04  0.48111494324E+04  0.00000000000E+00 0.  1.
    9900016    2    1    2    0    0  0.11414896258E+04  0.89103238474E+03  0.48083131585E+02  0.26450028098E+04  0.22128693138E+04 0.  0.
    9900016    2    1    2    0    0 -0.11004803298E+04 -0.87983124191E+03 -0.29047592471E+04  0.38849424160E+04  0.21610162705E+04 0.  0.
        -24    2    4    4    0    0  0.40907330893E+03 -0.49947805820E+03 -0.74378875080E+02  0.65469880550E+03  0.79240180199E+02 0.  0.
        -15    1    4    4    0    0 -0.15095536387E+04 -0.38035318371E+03 -0.28303803721E+04  0.32302436105E+04  0.00000000000E+00 0.  1.
        -15    1    3    3    0    0  0.17851776689E+03 -0.62874972831E+03  0.20247365244E+03  0.68424439631E+03  0.00000000000E+00 0.  1.
         15    1    3    3    0    0  0.21354730418E+01 -0.81927249039E+02 -0.35091117718E+02  0.89151673697E+02  0.00000000000E+00 0. -1.
         15    1    5    5    0    0  0.38626908770E+02 -0.28667629524E+02 -0.23299219278E+02  0.53448336574E+02  0.00000000000E+00 0. -1.
        -16    1    5    5    0    0  0.37044640016E+03 -0.47081042867E+03 -0.51079655802E+02  0.60125046892E+03  0.00000000000E+00 0.  1.
         16    1    3    3    0    0  0.96083638582E+03  0.16017093621E+04 -0.11929940314E+03  0.18716067398E+04  0.00000000000E+00 0. -1.
    9900018    1    1    2    0    0 -0.41009295971E+02 -0.11201142828E+02 -0.96363641349E+02  0.13931388202E+03  0.91187600000E+02 0.  0.
<mgrwt>
<rscale>  0 0.59798473E+04</rscale>
<asrwt>0</asrwt>
<pdfrwt beam="1">  1        2 0.28586303E+00 0.59798473E+04</pdfrwt>
<pdfrwt beam="2">  1       -2 0.74017683E+00 0.59798473E+04</pdfrwt>
<totfact> 0.86724529E-04</totfact>
</mgrwt>
</event>
<event>
13    1  0.3609754E-013  0.5800581E+04  0.7818608E-02  0.7715631E-01
          2   -1    0    0  501    0  0.00000000000E+00  0.00000000000E+00  0.24698673632E+04  0.24698673632E+04  0.00000000000E+00 0.  1.
         -2   -1    0    0    0  501 -0.00000000000E+00 -0.00000000000E+00 -0.34057233991E+04  0.34057233991E+04  0.00000000000E+00 0. -1.
    9900016    2    1    2    0    0  0.41641532507E+03  0.18026307265E+04 -0.61956075917E+03  0.29407921933E+04  0.22003463207E+04 0.  0.
         23    2    3    3    0    0  0.29968505853E+01 -0.43766808633E+03  0.23319789516E+03  0.50829328722E+03  0.11143820094E+03 0.  0.
    9900016    2    1    2    0    0 -0.43729830084E+03 -0.16906307746E+04 -0.27778568187E+03  0.27838739018E+04  0.21501922695E+04 0.  0.
        -24    2    5    5    0    0  0.52029322609E+03 -0.24744965498E+03 -0.78706359543E+03  0.97857135931E+03  0.78717400581E+02 0.  0.
        -15    1    5    5    0    0 -0.95759152693E+03 -0.14431811197E+04  0.50927791356E+03  0.18053025425E+04  0.00000000000E+00 0.  1.
        -15    1    4    4    0    0 -0.87120988024E+01 -0.32666290356E+03  0.22423008982E+03  0.39631261197E+03  0.00000000000E+00 0. -1.
         15    1    6    6    0    0  0.17105805304E+03 -0.48224632013E+02 -0.20764400133E+03  0.27331758804E+03  0.00000000000E+00 0. -1.
         15    1    4    4    0    0  0.11708949388E+02 -0.11100518277E+03  0.89678053352E+01  0.11198067525E+03  0.00000000000E+00 0.  1.
        -16    1    6    6    0    0  0.34923517305E+03 -0.19922502297E+03 -0.57941959410E+03  0.70525377128E+03  0.00000000000E+00 0.  1.
         16    1    3    3    0    0  0.41341847449E+03  0.22402988128E+04 -0.85275865433E+03  0.24324989061E+04  0.00000000000E+00 0. -1.
    9900018    1    1    2    0    0  0.20882975763E+02 -0.11199995182E+03 -0.38509594776E+02  0.15092466720E+03  0.91187600000E+02 0.  0.
<mgrwt>
<rscale>  0 0.58005810E+04</rscale>
<asrwt>0</asrwt>
<pdfrwt beam="1">  1        2 0.37997959E+00 0.58005810E+04</pdfrwt>
<pdfrwt beam="2">  1       -2 0.52395745E+00 0.58005810E+04</pdfrwt>
<totfact> 0.29761585E-03</totfact>
</mgrwt>
</event>
