<event>
11    1  0.6890794E-014  0.1409017E+04  0.7818608E-02  0.8947317E-01
          1   -1    0    0  501    0  0.00000000000E+00  0.00000000000E+00  0.11701820202E+04  0.11701820202E+04  0.00000000000E+00 0. -1.
         -1   -1    0    0    0  501 -0.00000000000E+00 -0.00000000000E+00 -0.42414973035E+03  0.42414973035E+03  0.00000000000E+00 0.  1.
    9900016    2    1    2    0    0  0.29069431233E+03  0.36945972173E+03  0.73603180538E+03  0.11241151208E+04  0.70773463753E+03 0.  0.
         23    2    3    3    0    0 -0.16698759997E+03  0.14333494520E+03  0.28888012037E+03  0.36863749528E+03  0.63341249777E+02 0.  0.
        -15    1    3    3    0    0  0.22641214218E+02  0.56870644058E+02  0.35361283330E+02  0.70691690428E+02  0.00000000000E+00 0. -1.
        -15    1    4    4    0    0 -0.27400617455E+02  0.23816898448E+02  0.16056320957E+02  0.39696900777E+02  0.00000000000E+00 0.  1.
         15    1    3    3    0    0  0.22608935442E+02 -0.37955015303E+01  0.23679438402E+02  0.32958847017E+02  0.00000000000E+00 0.  1.
         15    1    4    4    0    0 -0.13958698251E+03  0.11951804675E+03  0.27282379941E+03  0.32894059450E+03  0.00000000000E+00 0. -1.
        -16    1    1    2    0    0 -0.29069431233E+03 -0.36945972173E+03  0.10000484512E+02  0.47021662975E+03  0.00000000000E+00 0.  1.
         16    1    3    3    0    0  0.37364726756E+03  0.89003578224E+02  0.23204939176E+03  0.44875476344E+03  0.00000000000E+00 0. -1.
    9900018    1    3    3    0    0  0.38784495084E+02  0.84046055784E+02  0.15606157152E+03  0.20307232468E+03  0.91187600000E+02 0.  0.
<mgrwt>
<rscale>  0 0.14090172E+04</rscale>
<asrwt>0</asrwt>
<pdfrwt beam="1">  1        1 0.18002800E+00 0.14090172E+04</pdfrwt>
<pdfrwt beam="2">  1       -1 0.65253805E-01 0.14090172E+04</pdfrwt>
<totfact> 0.26073348E+01</totfact>
</mgrwt>
</event>
<event>
11    1  0.6890794E-014  0.9366406E+03  0.7818608E-02  0.1012326E+00
          2   -1    0    0  501    0  0.00000000000E+00  0.00000000000E+00  0.92872523697E+03  0.92872523697E+03  0.00000000000E+00 0. -1.
         -2   -1    0    0    0  501 -0.00000000000E+00 -0.00000000000E+00 -0.28462861591E+03  0.28462861591E+03  0.00000000000E+00 0.  1.
    9900016    2    1    2    0    0 -0.60322160269E+02 -0.24542265881E+02  0.62556774603E+03  0.92322605638E+03  0.67584780866E+03 0.  0.
         23    2    3    3    0    0 -0.21583440896E+03  0.15843116097E+02  0.50499911418E+03  0.55490303266E+03  0.77831702510E+02 0.  0.
        -15    1    4    4    0    0 -0.56807767293E+02  0.38190333620E+02  0.12874108182E+03  0.14580771638E+03  0.00000000000E+00 0. -1.
        -15    1    1    2    0    0 -0.26516801935E+02 -0.70634408503E+01  0.13754997018E+02  0.30695812817E+02  0.00000000000E+00 0.  1.
         15    1    4    4    0    0 -0.15902664166E+03 -0.22347217523E+02  0.37625803236E+03  0.40909531628E+03  0.00000000000E+00 0. -1.
         15    1    1    2    0    0 -0.20719409461E+02 -0.37206369383E+02  0.94311272302E+02  0.10348054858E+03  0.00000000000E+00 0.  1.
        -16    1    3    3    0    0  0.50768866914E+02  0.38134429837E+02 -0.86263082654E+02  0.10711224027E+03  0.00000000000E+00 0.  1.
         16    1    1    2    0    0  0.10755837167E+03  0.68812076115E+02 -0.89537394290E+02  0.15595143510E+03  0.00000000000E+00 0. -1.
    9900018    1    3    3    0    0  0.10474338177E+03 -0.78519811815E+02  0.20683171451E+03  0.26121078345E+03  0.91187600000E+02 0.  0.
<mgrwt>
<rscale>  0 0.50560585E+03</rscale>
<asrwt>0</asrwt>
<pdfrwt beam="1">  1        2 0.14288080E+00 0.93664055E+03</pdfrwt>
<pdfrwt beam="2">  1       -2 0.43789018E-01 0.93664055E+03</pdfrwt>
<totfact> 0.13882630E+02</totfact>
</mgrwt>
</event>
<event>
11    1  0.6890794E-014  0.1197097E+04  0.7818608E-02  0.9115401E-01
         -1   -1    0    0    0  501 -0.00000000000E+00  0.00000000000E+00  0.56467793205E+03  0.56467793205E+03  0.00000000000E+00 0.  1.
          1   -1    0    0  501    0  0.00000000000E+00 -0.00000000000E+00 -0.63445090133E+03  0.63445090133E+03  0.00000000000E+00 0. -1.
    9900016    2    1    2    0    0  0.35239068487E+02 -0.22166470684E+03 -0.35035217501E+03  0.83982154861E+03  0.72950431991E+03 0.  0.
         23    2    3    3    0    0 -0.75352183157E+02  0.94431469246E+01  0.90548011912E+02  0.13420228482E+03  0.63593916848E+02 0.  0.
        -15    1    4    4    0    0 -0.39798339012E+02  0.35897280693E+02  0.39359234016E+02  0.66495652877E+02  0.00000000000E+00 0.  1.
        -15    1    3    3    0    0  0.11843990040E+02 -0.18221661694E+02  0.19034030958E+01  0.21815865747E+02  0.00000000000E+00 0.  1.
         15    1    3    3    0    0  0.26218712487E+02  0.15804787039E+02 -0.36254648184E+02  0.47451150595E+02  0.00000000000E+00 0. -1.
         15    1    4    4    0    0 -0.35553844145E+02 -0.26454133768E+02  0.51188777896E+02  0.67706631946E+02  0.00000000000E+00 0. -1.
        -16    1    1    2    0    0 -0.35239068487E+02  0.22166470684E+03  0.28057920573E+03  0.35930728478E+03  0.00000000000E+00 0.  1.
         16    1    3    3    0    0  0.23476477451E+03 -0.18203760492E+03 -0.26247478370E+03  0.39641543995E+03  0.00000000000E+00 0. -1.
    9900018    1    3    3    0    0 -0.16223622539E+03 -0.46653374198E+02 -0.14407415814E+03  0.23993680749E+03  0.91187600000E+02 0.  0.
<mgrwt>
<rscale>  0 0.11970972E+04</rscale>
<asrwt>0</asrwt>
<pdfrwt beam="1">  1        1 0.97607831E-01 0.11970972E+04</pdfrwt>
<pdfrwt beam="2">  1       -1 0.86873528E-01 0.11970972E+04</pdfrwt>
<totfact> 0.40819818E+01</totfact>
</mgrwt>
</event>
<event>
12    1  0.6890794E-014  0.1046011E+04  0.7818608E-02  0.9259472E-01
         -2   -1    0    0    0  501 -0.00000000000E+00  0.00000000000E+00  0.13080126535E+03  0.13080126535E+03  0.00000000000E+00 0.  1.
          2   -1    0    0  501    0  0.00000000000E+00 -0.00000000000E+00 -0.20912236642E+04  0.20912236642E+04  0.00000000000E+00 0. -1.
    9900016    2    1    2    0    0 -0.14238192050E+03 -0.66339664220E+01 -0.97983181905E+03  0.12311291197E+04  0.73163644998E+03 0.  0.
         23    2    3    3    0    0 -0.27263899078E+02 -0.73734427558E+01 -0.96428394303E+02  0.12460869182E+03  0.73696695975E+02 0.  0.
         23    2    3    3    0    0 -0.26973977662E+03 -0.72595079002E+02 -0.21283461229E+03  0.35647789791E+03  0.61223581434E+02 0.  0.
        -15    1    4    4    0    0 -0.14992293673E+02  0.22978220946E+02 -0.55219648010E+01  0.27986775497E+02  0.00000000000E+00 0. -1.
        -15    1    5    5    0    0 -0.12173837622E+03 -0.27599331677E+02 -0.58117191483E+02  0.13769373007E+03  0.00000000000E+00 0.  1.
         15    1    5    5    0    0 -0.14800140040E+03 -0.44995747325E+02 -0.15471742081E+03  0.21878416784E+03  0.00000000000E+00 0.  1.
         15    1    4    4    0    0 -0.12271605405E+02 -0.30351663702E+02 -0.90906429502E+02  0.96621916321E+02  0.00000000000E+00 0. -1.
        -16    1    3    3    0    0  0.55640337007E+02  0.26443597275E+01 -0.55827354867E+03  0.56104562639E+03  0.00000000000E+00 0.  1.
         16    1    1    2    0    0  0.14238192050E+03  0.66339664220E+01 -0.98059057979E+03  0.99089580985E+03  0.00000000000E+00 0. -1.
    9900018    1    3    3    0    0  0.98981418189E+02  0.70690195608E+02 -0.11229526378E+03  0.18899690358E+03  0.91187600000E+02 0.  0.
<mgrwt>
<rscale>  0 0.10460109E+04</rscale>
<asrwt>0</asrwt>
<pdfrwt beam="1">  1        2 0.32172674E+00 0.10460109E+04</pdfrwt>
<pdfrwt beam="2">  1       -2 0.20123270E-01 0.10460109E+04</pdfrwt>
<totfact> 0.12564431E+02</totfact>
</mgrwt>
</event>
<event>
11    1  0.6890794E-014  0.8325487E+03  0.7818608E-02  0.9514063E-01
          1   -1    0    0  501    0  0.00000000000E+00  0.00000000000E+00  0.26084934075E+03  0.26084934075E+03  0.00000000000E+00 0.  1.
         -1   -1    0    0    0  501 -0.00000000000E+00 -0.00000000000E+00 -0.66430815472E+03  0.66430815472E+03  0.00000000000E+00 0. -1.
    9900016    2    1    2    0    0  0.26771042532E+02  0.66142358743E+02 -0.39422223089E+03  0.80529647941E+03  0.69856979042E+03 0.  0.
         23    2    3    3    0    0  0.23292414860E+03 -0.14875515978E+03 -0.20383438983E+03  0.36037292779E+03  0.10926313214E+03 0.  0.
        -15    1    1    2    0    0 -0.24940750727E+02 -0.37859930661E+01  0.58578347704E+01  0.25897664344E+02  0.00000000000E+00 0.  1.
        -15    1    4    4    0    0  0.14178780679E+03 -0.14653904190E+03 -0.12043537130E+03  0.23681670468E+03  0.00000000000E+00 0.  1.
         15    1    4    4    0    0  0.91136341806E+02 -0.22161178781E+01 -0.83399018535E+02  0.12355622311E+03  0.00000000000E+00 0. -1.
         15    1    1    2    0    0  0.10164244158E+02  0.12941408162E+02 -0.37403597193E+01  0.16875490966E+02  0.00000000000E+00 0. -1.
        -16    1    1    2    0    0 -0.11994535963E+02 -0.75297773839E+02 -0.11354058127E+02  0.77087860743E+02  0.00000000000E+00 0.  1.
         16    1    3    3    0    0  0.81995186433E+01  0.86058423882E+02  0.37758806300E+02  0.94334574151E+02  0.00000000000E+00 0. -1.
    9900018    1    3    3    0    0 -0.21435262471E+03  0.12883909464E+03 -0.22814664736E+03  0.35058897747E+03  0.91187600000E+02 0.  0.
<mgrwt>
<rscale>  0 0.83254872E+03</rscale>
<asrwt>0</asrwt>
<pdfrwt beam="1">  1        1 0.40130668E-01 0.83254872E+03</pdfrwt>
<pdfrwt beam="2">  1       -1 0.10220125E+00 0.83254872E+03</pdfrwt>
<totfact> 0.96475354E+01</totfact>
</mgrwt>
</event>
<event>
11    1  0.6890794E-014  0.1710073E+04  0.7818608E-02  0.8755640E-01
         -1   -1    0    0    0  501 -0.00000000000E+00  0.00000000000E+00  0.43621404236E+03  0.43621404236E+03  0.00000000000E+00 0.  1.
          1   -1    0    0  501    0  0.00000000000E+00 -0.00000000000E+00 -0.16759836871E+04  0.16759836871E+04  0.00000000000E+00 0. -1.
    9900016    2    1    2    0    0  0.46135649555E+03  0.14209289121E+03 -0.86718512123E+02  0.86217088169E+03  0.70906863078E+03 0.  0.
         23    2    3    3    0    0  0.27602575639E+03  0.29412493627E+03 -0.79093161603E+02  0.42490925684E+03  0.10766824979E+03 0.  0.
        -15    1    3    3    0    0  0.20542836227E+02  0.14521035051E+02 -0.27622546219E+02  0.37361392357E+02  0.00000000000E+00 0. -1.
        -15    1    4    4    0    0  0.19099150756E+03  0.12817788939E+03 -0.58292934689E+02  0.23728757558E+03  0.00000000000E+00 0.  1.
         15    1    4    4    0    0  0.85034248832E+02  0.16594704687E+03 -0.20800226914E+02  0.18762168126E+03  0.00000000000E+00 0.  1.
         15    1    3    3    0    0  0.12273727066E+02  0.14327632605E+02  0.13178199289E+02  0.23012830523E+02  0.00000000000E+00 0. -1.
        -16    1    3    3    0    0  0.10695339404E+03 -0.19328208779E+03  0.96020059411E+02  0.24086686315E+03  0.00000000000E+00 0.  1.
         16    1    1    2    0    0 -0.46135649555E+03 -0.14209289121E+03 -0.11530511326E+04  0.12500268477E+04  0.00000000000E+00 0. -1.
    9900018    1    3    3    0    0  0.45560781829E+02  0.12401375072E+02 -0.89201063001E+02  0.13602053881E+03  0.91187600000E+02 0.  0.
<mgrwt>
<rscale>  0 0.17100732E+04</rscale>
<asrwt>0</asrwt>
<pdfrwt beam="1">  1        1 0.25784364E+00 0.17100732E+04</pdfrwt>
<pdfrwt beam="2">  1       -1 0.67109853E-01 0.17100732E+04</pdfrwt>
<totfact> 0.10584331E+01</totfact>
</mgrwt>
</event>
<event>
12    1  0.6890794E-014  0.1222282E+04  0.7818608E-02  0.9093574E-01
         -2   -1    0    0    0  501 -0.00000000000E+00  0.00000000000E+00  0.29469086337E+03  0.29469086337E+03  0.00000000000E+00 0.  1.
          2   -1    0    0  501    0  0.00000000000E+00 -0.00000000000E+00 -0.12674064524E+04  0.12674064524E+04  0.00000000000E+00 0. -1.
    9900016    2    1    2    0    0 -0.28530584648E+03 -0.19647146394E+03 -0.44294344696E+03  0.92912102499E+03  0.73963945250E+03 0.  0.
         23    2    3    3    0    0 -0.42141291246E+02  0.87508801799E+01 -0.97390094384E+02  0.12629639230E+03  0.67922616933E+02 0.  0.
         23    2    3    3    0    0  0.27272301462E+02  0.18020340432E+03  0.30191855000E+01  0.19772522485E+03  0.76610075743E+02 0.  0.
        -15    1    5    5    0    0  0.38046136372E+02  0.47296723921E+02  0.18574454233E+02  0.63478334387E+02  0.00000000000E+00 0.  1.
        -15    1    4    4    0    0 -0.26938504834E+02  0.38459231911E+02 -0.59748775297E+02  0.75991523944E+02  0.00000000000E+00 0.  1.
         15    1    5    5    0    0 -0.10773834911E+02  0.13290668040E+03 -0.15555268733E+02  0.13424689047E+03  0.00000000000E+00 0. -1.
         15    1    4    4    0    0 -0.15202786412E+02 -0.29708351731E+02 -0.37641319087E+02  0.50304868352E+02  0.00000000000E+00 0. -1.
        -16    1    3    3    0    0 -0.12358386332E+03 -0.93908647748E+02 -0.97203573608E+02  0.18314021982E+03  0.00000000000E+00 0.  1.
         16    1    1    2    0    0  0.28530584648E+03  0.19647146394E+03 -0.52977214211E+03  0.63297629082E+03  0.00000000000E+00 0. -1.
    9900018    1    3    3    0    0 -0.14685299338E+03 -0.29151710070E+03 -0.25136896446E+03  0.42195918802E+03  0.91187600000E+02 0.  0.
<mgrwt>
<rscale>  0 0.12222816E+04</rscale>
<asrwt>0</asrwt>
<pdfrwt beam="1">  1        2 0.19498561E+00 0.12222816E+04</pdfrwt>
<pdfrwt beam="2">  1       -2 0.45337054E-01 0.12222816E+04</pdfrwt>
<totfact> 0.78494059E+01</totfact>
</mgrwt>
</event>
<event>
12    1  0.6890794E-014  0.9648971E+03  0.7818608E-02  0.9347906E-01
          1   -1    0    0  501    0  0.00000000000E+00  0.00000000000E+00  0.27176465180E+03  0.27176465180E+03  0.00000000000E+00 0. -1.
         -1   -1    0    0    0  501 -0.00000000000E+00 -0.00000000000E+00 -0.85646382023E+03  0.85646382023E+03  0.00000000000E+00 0.  1.
    9900016    2    1    2    0    0  0.16931904888E+03 -0.69451325411E+02 -0.48607659414E+03  0.92033706029E+03  0.75977458648E+03 0.  0.
         23    2    3    3    0    0  0.47934946308E+02  0.42275996497E+02 -0.70162971335E+02  0.12319600643E+03  0.78545493172E+02 0.  0.
         23    2    3    3    0    0  0.14708582201E+03 -0.21997887869E+03 -0.33229814509E+03  0.42971961995E+03  0.64899525687E+02 0.  0.
        -15    1    4    4    0    0  0.57737567880E+02  0.52072368707E+01 -0.60210181403E+02  0.83582342664E+02  0.00000000000E+00 0.  1.
        -15    1    5    5    0    0  0.16258955073E+02 -0.72455066839E+02 -0.74817053147E+02  0.10541196219E+03  0.00000000000E+00 0.  1.
         15    1    5    5    0    0  0.13082686693E+03 -0.14752381185E+03 -0.25748109195E+03  0.32430765777E+03  0.00000000000E+00 0. -1.
         15    1    4    4    0    0 -0.98026215724E+01  0.37068759627E+02 -0.99527899318E+01  0.39613663771E+02  0.00000000000E+00 0. -1.
        -16    1    1    2    0    0 -0.16931904888E+03  0.69451325411E+02 -0.98622574291E+02  0.20789141174E+03  0.00000000000E+00 0.  1.
         16    1    3    3    0    0 -0.34963132292E+02  0.10649093113E+03  0.10759629665E+03  0.15536956615E+03  0.00000000000E+00 0. -1.
    9900018    1    3    3    0    0  0.92614128579E+01  0.17606256507E+01 -0.19121177436E+03  0.21205186775E+03  0.91187600000E+02 0.  0.
<mgrwt>
<rscale>  0 0.96489708E+03</rscale>
<asrwt>0</asrwt>
<pdfrwt beam="1">  1        1 0.41809946E-01 0.96489708E+03</pdfrwt>
<pdfrwt beam="2">  1       -1 0.13176367E+00 0.96489708E+03</pdfrwt>
<totfact> 0.49129266E+01</totfact>
</mgrwt>
</event>
<event>
12    1  0.6890794E-014  0.8220877E+03  0.7818608E-02  0.9528585E-01
          1   -1    0    0  501    0  0.00000000000E+00  0.00000000000E+00  0.13824064296E+04  0.13824064296E+04  0.00000000000E+00 0. -1.
         -1   -1    0    0    0  501 -0.00000000000E+00 -0.00000000000E+00 -0.12221951188E+03  0.12221951188E+03  0.00000000000E+00 0.  1.
    9900016    2    1    2    0    0 -0.69644193398E+02 -0.15544196897E+02  0.98354565108E+03  0.12189297285E+04  0.71647449322E+03 0.  0.
         23    2    3    3    0    0 -0.11296486456E+02  0.31312162846E+01  0.61342012616E+02  0.88813172269E+02  0.63146828385E+02 0.  0.
         23    2    3    3    0    0 -0.13463914906E+03  0.17290316311E+03  0.53195765286E+03  0.57943752894E+03  0.68889050173E+02 0.  0.
        -15    1    5    5    0    0 -0.70210183797E+02  0.12909409642E+03  0.28774162564E+03  0.32309441153E+03  0.00000000000E+00 0. -1.
        -15    1    4    4    0    0  0.20079399776E+02 -0.10452199593E+02  0.46144001820E+02  0.51397467600E+02  0.00000000000E+00 0.  1.
         15    1    5    5    0    0 -0.64428965265E+02  0.43809066690E+02  0.24421602722E+03  0.25634311741E+03  0.00000000000E+00 0. -1.
         15    1    4    4    0    0 -0.31375886232E+02  0.13583415877E+02  0.15198010795E+02  0.37415704669E+02  0.00000000000E+00 0.  1.
        -16    1    3    3    0    0  0.14001503863E+03 -0.67814709416E+02  0.36578230197E+02  0.15981555863E+03  0.00000000000E+00 0.  1.
         16    1    1    2    0    0  0.69644193398E+02  0.15544196897E+02  0.27664126669E+03  0.28569621307E+03  0.00000000000E+00 0. -1.
    9900018    1    3    3    0    0 -0.63723596507E+02 -0.12376386688E+03  0.35366775541E+03  0.39086346862E+03  0.91187600000E+02 0.  0.
<mgrwt>
<rscale>  0 0.82208768E+03</rscale>
<asrwt>0</asrwt>
<pdfrwt beam="1">  1        1 0.21267790E+00 0.82208768E+03</pdfrwt>
<pdfrwt beam="2">  1       -1 0.18803003E-01 0.82208768E+03</pdfrwt>
<totfact> 0.18141260E+02</totfact>
</mgrwt>
</event>
<event>
12    1  0.6890794E-014  0.1057744E+04  0.7818608E-02  0.9247385E-01
          2   -1    0    0  501    0  0.00000000000E+00  0.00000000000E+00  0.16537948330E+04  0.16537948330E+04  0.00000000000E+00 0. -1.
         -2   -1    0    0    0  501 -0.00000000000E+00 -0.00000000000E+00 -0.16912954208E+03  0.16912954208E+03  0.00000000000E+00 0.  1.
    9900016    2    1    2    0    0  0.29397680893E+02 -0.26450116794E+03  0.12072159434E+04  0.14384725160E+04  0.73553229286E+03 0.  0.
         23    2    3    3    0    0 -0.26863501713E+01 -0.23522890139E+02  0.86241544244E+02  0.11552732346E+03  0.73132863165E+02 0.  0.
         23    2    3    3    0    0 -0.89946989307E+02 -0.58780975853E+02  0.10406674031E+03  0.19583639047E+03  0.12639755293E+03 0.  0.
        -15    1    5    5    0    0 -0.40782597818E+02 -0.67084014158E+02 -0.21088691605E+01  0.78536186370E+02  0.00000000000E+00 0.  1.
        -15    1    4    4    0    0 -0.14544731156E+02  0.11911484887E+02 -0.27589213142E+01  0.19001166370E+02  0.00000000000E+00 0. -1.
         15    1    5    5    0    0 -0.49164391489E+02  0.83030383049E+01  0.10617560947E+03  0.11730020410E+03  0.00000000000E+00 0.  1.
         15    1    4    4    0    0  0.11858380985E+02 -0.35434375025E+02  0.89000465558E+02  0.96526157090E+02  0.00000000000E+00 0. -1.
        -16    1    1    2    0    0 -0.29397680893E+02  0.26450116794E+03  0.27744934747E+03  0.38445185901E+03  0.00000000000E+00 0.  1.
         16    1    3    3    0    0  0.20276750542E+02 -0.26818949532E+03  0.86345131150E+03  0.90436990183E+03  0.00000000000E+00 0. -1.
    9900018    1    3    3    0    0  0.10175426983E+03  0.85992193374E+02  0.15345634736E+03  0.22273890026E+03  0.91187600000E+02 0.  0.
<mgrwt>
<rscale>  0 0.10577439E+04</rscale>
<asrwt>0</asrwt>
<pdfrwt beam="1">  1        2 0.25442996E+00 0.10577439E+04</pdfrwt>
<pdfrwt beam="2">  1       -2 0.26019931E-01 0.10577439E+04</pdfrwt>
<totfact> 0.13812069E+02</totfact>
</mgrwt>
</event>
<event>
11    1  0.6890794E-014  0.9485982E+03  0.7818608E-02  0.9366791E-01
         -2   -1    0    0    0  501 -0.00000000000E+00  0.00000000000E+00  0.72842007425E+02  0.72842007425E+02  0.00000000000E+00 0.  1.
          2   -1    0    0  501    0  0.00000000000E+00 -0.00000000000E+00 -0.30883230245E+04  0.30883230245E+04  0.00000000000E+00 0. -1.
    9900016    2    1    2    0    0 -0.20169407386E+03 -0.25940755701E+02 -0.23822889775E+04  0.24961194837E+04  0.71690883824E+03 0.  0.
         23    2    3    3    0    0 -0.66906709138E+02 -0.15139610637E+03 -0.50041980831E+03  0.53755043744E+03  0.10556135416E+03 0.  0.
        -15    1    4    4    0    0 -0.59954468447E+02 -0.97962595968E+02 -0.44758202247E+03  0.46208319092E+03  0.00000000000E+00 0.  1.
        -15    1    3    3    0    0 -0.86817479489E+01 -0.29586721950E+02 -0.18581674352E+03  0.18835766253E+03  0.00000000000E+00 0. -1.
         15    1    3    3    0    0 -0.12728516552E+02  0.91766802799E+01 -0.15670478285E+02  0.22176349660E+02  0.00000000000E+00 0.  1.
         15    1    4    4    0    0 -0.69522406912E+01 -0.53433510403E+02 -0.52837785842E+02  0.75467246520E+02  0.00000000000E+00 0. -1.
        -16    1    1    2    0    0  0.20169407386E+03  0.25940755701E+02 -0.63319203958E+03  0.66504554823E+03  0.00000000000E+00 0.  1.
         16    1    3    3    0    0 -0.18297533170E+03 -0.10125119886E+03 -0.74078645706E+03  0.76973784645E+03  0.00000000000E+00 0. -1.
    9900018    1    3    3    0    0  0.69598231485E+02  0.24711659120E+03 -0.93959549034E+03  0.97829718763E+03  0.91187600000E+02 0.  0.
<mgrwt>
<rscale>  0 0.94859823E+03</rscale>
<asrwt>0</asrwt>
<pdfrwt beam="1">  1        2 0.47512661E+00 0.94859823E+03</pdfrwt>
<pdfrwt beam="2">  1       -2 0.11206463E-01 0.94859823E+03</pdfrwt>
<totfact> 0.90200492E+01</totfact>
</mgrwt>
</event>
<event>
11    1  0.6890794E-014  0.1640972E+04  0.7818608E-02  0.8795765E-01
          1   -1    0    0  501    0  0.00000000000E+00  0.00000000000E+00  0.26931858407E+04  0.26931858407E+04  0.00000000000E+00 0. -1.
         -1   -1    0    0    0  501 -0.00000000000E+00 -0.00000000000E+00 -0.24996329835E+03  0.24996329835E+03  0.00000000000E+00 0.  1.
    9900016    2    1    2    0    0 -0.62337298252E+03 -0.22285271052E+03  0.13455523160E+04  0.16613000326E+04  0.71494724090E+03 0.  0.
         23    2    3    3    0    0 -0.41678487664E+03  0.20502110912E+02  0.52103256992E+03  0.67658938283E+03  0.11030994555E+03 0.  0.
        -15    1    4    4    0    0 -0.12435637007E+03  0.23728010820E+02  0.88487020192E+02  0.15445866119E+03  0.00000000000E+00 0.  1.
        -15    1    3    3    0    0 -0.64633771824E+01 -0.39992109065E+02  0.79462622856E+02  0.89193343155E+02  0.00000000000E+00 0.  1.
         15    1    4    4    0    0 -0.29242850657E+03 -0.32258999080E+01  0.43254554973E+03  0.52213072164E+03  0.00000000000E+00 0. -1.
         15    1    3    3    0    0  0.62421579110E+01 -0.83163188124E+01  0.11644436752E+02  0.15611489398E+02  0.00000000000E+00 0. -1.
        -16    1    3    3    0    0 -0.12659061455E+03 -0.52042098066E+02  0.66724765371E+03  0.68114095093E+03  0.00000000000E+00 0.  1.
         16    1    1    2    0    0  0.62337298252E+03  0.22285271052E+03  0.10976702263E+04  0.12818491064E+04  0.00000000000E+00 0. -1.
    9900018    1    3    3    0    0 -0.79776272066E+02 -0.14300429549E+03  0.66165032775E+02  0.19876486628E+03  0.91187600000E+02 0.  0.
<mgrwt>
<rscale>  0 0.16409724E+04</rscale>
<asrwt>0</asrwt>
<pdfrwt beam="1">  1        1 0.41433626E+00 0.16409724E+04</pdfrwt>
<pdfrwt beam="2">  1       -1 0.38455894E-01 0.16409724E+04</pdfrwt>
<totfact> 0.62278788E+00</totfact>
</mgrwt>
</event>
<event>
12    1  0.6890794E-014  0.8419345E+03  0.7818608E-02  0.1031008E+00
         -1   -1    0    0    0  501 -0.00000000000E+00  0.00000000000E+00  0.15510934039E+03  0.15510934039E+03  0.00000000000E+00 0.  1.
          1   -1    0    0  501    0  0.00000000000E+00 -0.00000000000E+00 -0.13743611209E+04  0.13743611209E+04  0.00000000000E+00 0. -1.
         23    2    1    2    0    0 -0.27188740297E+02  0.83549984887E+01 -0.22550976884E+02  0.66273087530E+02  0.55448552494E+02 0.  0.
    9900016    2    1    2    0    0  0.10223742184E+03  0.11989144891E+03 -0.96108666834E+03  0.11846413172E+04  0.67443384889E+03 0.  0.
         23    2    4    4    0    0  0.14202684670E+03  0.22699795777E+03 -0.21572197419E+03  0.36255631178E+03  0.11494090241E+03 0.  0.
        -15    1    3    3    0    0  0.13897038565E+02  0.90946544673E+01  0.43372051824E+01  0.17165423664E+02  0.00000000000E+00 0.  1.
        -15    1    5    5    0    0  0.52895717297E+02  0.19792160637E+02 -0.84391693171E+02  0.10154626732E+03  0.00000000000E+00 0. -1.
         15    1    5    5    0    0  0.89131129403E+02  0.20720579713E+03 -0.13133028102E+03  0.26101004445E+03  0.00000000000E+00 0. -1.
         15    1    3    3    0    0 -0.41085778862E+02 -0.73965597854E+00 -0.26888182066E+02  0.49107663867E+02  0.00000000000E+00 0.  1.
        -16    1    4    4    0    0  0.11820937653E+03 -0.92898029987E+02 -0.45186295166E+03  0.47621804645E+03  0.00000000000E+00 0.  1.
         16    1    1    2    0    0 -0.75048681546E+02 -0.12824644740E+03 -0.23561413525E+03  0.27855605648E+03  0.00000000000E+00 0. -1.
    9900018    1    4    4    0    0 -0.15799880138E+03 -0.14208478871E+02 -0.29350174249E+03  0.34586695903E+03  0.91187600000E+02 0.  0.
<mgrwt>
<rscale>  0 0.43914982E+03</rscale>
<asrwt>0</asrwt>
<pdfrwt beam="1">  1        1 0.21144017E+00 0.84193452E+03</pdfrwt>
<pdfrwt beam="2">  1       -1 0.23862976E-01 0.84193452E+03</pdfrwt>
<totfact> 0.12298082E+02</totfact>
</mgrwt>
</event>
<event>
11    1  0.6890794E-014  0.1739182E+04  0.7818608E-02  0.9507821E-01
          2   -1    0    0  501    0  0.00000000000E+00  0.00000000000E+00  0.15531453884E+04  0.15531453884E+04  0.00000000000E+00 0. -1.
         -2   -1    0    0    0  501 -0.00000000000E+00 -0.00000000000E+00 -0.58640329857E+03  0.58640329857E+03  0.00000000000E+00 0.  1.
         23    2    1    2    0    0 -0.90983551120E+01 -0.54070272814E+02  0.23470659963E+03  0.25258572108E+03  0.75537964745E+02 0.  0.
    9900016    2    1    2    0    0  0.12694645463E+03 -0.20535074839E+03  0.11679015736E+04  0.13662262921E+04  0.66655522156E+03 0.  0.
        -15    1    3    3    0    0 -0.33052217725E+02 -0.27805202104E+02  0.19305246243E+03  0.19782525524E+03  0.00000000000E+00 0.  1.
        -15    1    4    4    0    0 -0.11322041358E+02  0.45129035337E+02  0.14387197720E+03  0.15120834724E+03  0.00000000000E+00 0. -1.
         15    1    3    3    0    0  0.23953862613E+02 -0.26265070710E+02  0.41654137196E+02  0.54760465840E+02  0.00000000000E+00 0. -1.
         15    1    4    4    0    0 -0.89955632874E+02  0.10723838918E+03  0.26722252550E+03  0.30166200645E+03  0.00000000000E+00 0.  1.
        -16    1    1    2    0    0 -0.11784809952E+03  0.25942102121E+03 -0.43586608338E+03  0.52073667381E+03  0.00000000000E+00 0.  1.
         16    1    4    4    0    0  0.26797118107E+02 -0.27067743165E+03  0.36651378059E+03  0.45641725308E+03  0.00000000000E+00 0. -1.
    9900018    1    4    4    0    0  0.20142701076E+03 -0.87040741258E+02  0.39029329034E+03  0.45693868536E+03  0.91187600000E+02 0.  0.
<mgrwt>
<rscale>  0 0.83709684E+03</rscale>
<asrwt>0</asrwt>
<pdfrwt beam="1">  1        2 0.23894544E+00 0.17391818E+04</pdfrwt>
<pdfrwt beam="2">  1       -2 0.90215893E-01 0.17391818E+04</pdfrwt>
<totfact> 0.11758910E+01</totfact>
</mgrwt>
</event>
<event>
12    1  0.6890794E-014  0.2214129E+04  0.7818608E-02  0.9312192E-01
          2   -1    0    0  501    0  0.00000000000E+00  0.00000000000E+00  0.32237368093E+04  0.32237368093E+04  0.00000000000E+00 0. -1.
         -2   -1    0    0    0  501 -0.00000000000E+00 -0.00000000000E+00 -0.42622780872E+03  0.42622780872E+03  0.00000000000E+00 0.  1.
         23    2    1    2    0    0  0.30230924702E+02  0.38813662442E+02  0.12037987068E+02  0.91704545462E+02  0.76448684261E+02 0.  0.
    9900016    2    1    2    0    0  0.48815376089E+03 -0.39420154680E+02  0.12023624064E+03  0.84308062277E+03  0.67563314014E+03 0.  0.
         23    2    4    4    0    0 -0.77942252887E+02  0.85355104964E+02 -0.91908321210E+02  0.18505454605E+03  0.11152379467E+03 0.  0.
        -15    1    5    5    0    0 -0.53202498240E+02  0.88917310534E+02 -0.15636548052E+02  0.10479167699E+03  0.00000000000E+00 0. -1.
        -15    1    3    3    0    0  0.36237614123E+02  0.55970260392E+02 -0.49021598181E+01  0.66857055698E+02  0.00000000000E+00 0.  1.
         15    1    5    5    0    0 -0.24739754647E+02 -0.35622055701E+01 -0.76271773158E+02  0.80262869056E+02  0.00000000000E+00 0.  1.
         15    1    3    3    0    0 -0.60066894211E+01 -0.17156597951E+02  0.16940146886E+02  0.24847489764E+02  0.00000000000E+00 0. -1.
        -16    1    4    4    0    0  0.38535285513E+03 -0.12840294520E+03  0.73883113843E+02  0.41284725239E+03  0.00000000000E+00 0.  1.
         16    1    1    2    0    0 -0.51838468560E+03  0.60649223873E+00  0.26652347728E+04  0.27151794497E+04  0.00000000000E+00 0. -1.
    9900018    1    4    4    0    0  0.18074315865E+03  0.36276855557E+01  0.13826144801E+03  0.24517882433E+03  0.91187600000E+02 0.  0.
<mgrwt>
<rscale>  0 0.99668119E+03</rscale>
<asrwt>0</asrwt>
<pdfrwt beam="1">  1        2 0.49595949E+00 0.22141287E+04</pdfrwt>
<pdfrwt beam="2">  1       -2 0.65573511E-01 0.22141287E+04</pdfrwt>
<totfact> 0.24445262E+00</totfact>
</mgrwt>
</event>
<event>
11    1  0.6890794E-014  0.2570984E+04  0.7818608E-02  0.9179162E-01
         -2   -1    0    0    0  501 -0.00000000000E+00  0.00000000000E+00  0.86207547480E+03  0.86207547480E+03  0.00000000000E+00 0. -1.
          2   -1    0    0  501    0  0.00000000000E+00 -0.00000000000E+00 -0.20612607805E+04  0.20612607805E+04  0.00000000000E+00 0.  1.
    9900016    2    1    2    0    0 -0.77460116454E+03 -0.84159103282E+03 -0.70393659481E+03  0.15165242245E+04  0.70429863233E+03 0.  0.
         23    2    3    3    0    0 -0.16640254335E+03 -0.59366819679E+02  0.18004076904E+02  0.20607143723E+03  0.10453260135E+03 0.  0.
        -15    1    1    2    0    0 -0.29915216236E+02  0.21911547804E+01 -0.28993177611E+02  0.41717210713E+02  0.00000000000E+00 0. -1.
        -15    1    4    4    0    0 -0.33802413142E+02  0.22033216548E+02 -0.21252171158E+02  0.45603953168E+02  0.00000000000E+00 0.  1.
         15    1    1    2    0    0 -0.48117642787E+02 -0.35657723115E+02 -0.89769850736E+01  0.60558789834E+02  0.00000000000E+00 0.  1.
         15    1    4    4    0    0 -0.13260013021E+03 -0.81400036227E+02  0.39256248062E+02  0.16046748406E+03  0.00000000000E+00 0. -1.
        -16    1    1    2    0    0  0.85263402356E+03  0.87505760116E+03 -0.45727854820E+03  0.13045360302E+04  0.00000000000E+00 0.  1.
         16    1    3    3    0    0 -0.97632549481E+02 -0.45862833466E+03 -0.41606738057E+03  0.62688446244E+03  0.00000000000E+00 0. -1.
    9900018    1    3    3    0    0 -0.51056607170E+03 -0.32359587848E+03 -0.30587329114E+03  0.68356832488E+03  0.91187600000E+02 0.  0.
<mgrwt>
<rscale>  0 0.11271124E+04</rscale>
<asrwt>0</asrwt>
<pdfrwt beam="1">  1        2 0.31711704E+00 0.25709843E+04</pdfrwt>
<pdfrwt beam="2">  1       -2 0.13262700E+00 0.25709843E+04</pdfrwt>
<totfact> 0.22532223E+00</totfact>
</mgrwt>
</event>
<event>
11    1  0.6890794E-014  0.8593433E+03  0.7818608E-02  0.9477882E-01
         -1   -1    0    0    0  501 -0.00000000000E+00  0.00000000000E+00  0.29093583328E+03  0.29093583328E+03  0.00000000000E+00 0.  1.
          1   -1    0    0  501    0  0.00000000000E+00 -0.00000000000E+00 -0.63456513295E+03  0.63456513295E+03  0.00000000000E+00 0. -1.
    9900016    2    1    2    0    0  0.93775465875E+02 -0.93451939712E+02 -0.27587874738E+03  0.77678230442E+03  0.71397098132E+03 0.  0.
         23    2    3    3    0    0 -0.23538697185E+02  0.78465335395E+02  0.42865736396E+02  0.11946603294E+03  0.75655684169E+02 0.  0.
        -15    1    3    3    0    0 -0.14881262826E+02 -0.18335385965E+02 -0.15007496181E+02  0.27979694484E+02  0.00000000000E+00 0.  1.
        -15    1    4    4    0    0  0.18457200274E+02  0.60699845242E+02  0.12450705082E+02  0.64654153087E+02  0.00000000000E+00 0. -1.
         15    1    4    4    0    0 -0.41995897459E+02  0.17765490153E+02  0.30415031315E+02  0.54811879858E+02  0.00000000000E+00 0.  1.
         15    1    3    3    0    0 -0.25694990250E+01 -0.33176452792E+02 -0.25769724888E+02  0.42087504867E+02  0.00000000000E+00 0. -1.
        -16    1    1    2    0    0 -0.93775465875E+02  0.93451939712E+02 -0.67750552278E+02  0.14871866181E+03  0.00000000000E+00 0.  1.
         16    1    3    3    0    0  0.56235193752E+02 -0.23277426198E+03  0.26683725130E+02  0.24095284859E+03  0.00000000000E+00 0. -1.
    9900018    1    3    3    0    0  0.78529731159E+02  0.11236882563E+03 -0.30465098784E+03  0.34629622354E+03  0.91187600000E+02 0.  0.
<mgrwt>
<rscale>  0 0.85934332E+03</rscale>
<asrwt>0</asrwt>
<pdfrwt beam="1">  1        1 0.97625404E-01 0.85934332E+03</pdfrwt>
<pdfrwt beam="2">  1       -1 0.44759359E-01 0.85934332E+03</pdfrwt>
<totfact> 0.15750546E+02</totfact>
</mgrwt>
</event>
<event>
12    1  0.6890794E-014  0.9747657E+03  0.7818608E-02  0.9336663E-01
          1   -1    0    0  501    0  0.00000000000E+00  0.00000000000E+00  0.38922474325E+03  0.38922474325E+03  0.00000000000E+00 0. -1.
         -1   -1    0    0    0  501 -0.00000000000E+00 -0.00000000000E+00 -0.61029526667E+03  0.61029526667E+03  0.00000000000E+00 0.  1.
    9900016    2    1    2    0    0 -0.16082909329E+03 -0.13259800943E+02 -0.53196984257E+02  0.76666094370E+03  0.74759431772E+03 0.  0.
         23    2    3    3    0    0 -0.58540180093E+02  0.42565766559E+02  0.49178005278E+01  0.10220670547E+03  0.71994643647E+02 0.  0.
         23    2    3    3    0    0  0.16805646416E+02  0.17350222022E+03  0.19141896181E+03  0.26894937217E+03  0.72849815894E+02 0.  0.
        -15    1    4    4    0    0 -0.33686043210E+01  0.40746217759E+02  0.19227249338E+02  0.45180624983E+02  0.00000000000E+00 0. -1.
        -15    1    5    5    0    0  0.29844025265E+02  0.14714089785E+03  0.12164970023E+03  0.19323498449E+03  0.00000000000E+00 0.  1.
         15    1    5    5    0    0 -0.13038378850E+02  0.26361322369E+02  0.69769261576E+02  0.75714387674E+02  0.00000000000E+00 0. -1.
         15    1    4    4    0    0 -0.55171575772E+02  0.18195487995E+01 -0.14309448810E+02  0.57026080491E+02  0.00000000000E+00 0.  1.
        -16    1    1    2    0    0  0.16082909329E+03  0.13259800943E+02 -0.16787353917E+03  0.23285906622E+03  0.00000000000E+00 0.  1.
         16    1    3    3    0    0  0.18601994100E+02  0.58133425125E+01 -0.14863302237E+02  0.24510138495E+02  0.00000000000E+00 0. -1.
    9900018    1    3    3    0    0 -0.13769655371E+03 -0.23514113024E+03 -0.23467044435E+03  0.37099472756E+03  0.91187600000E+02 0.  0.
<mgrwt>
<rscale>  0 0.97476565E+03</rscale>
<asrwt>0</asrwt>
<pdfrwt beam="1">  1        1 0.59880730E-01 0.97476565E+03</pdfrwt>
<pdfrwt beam="2">  1       -1 0.93891580E-01 0.97476565E+03</pdfrwt>
<totfact> 0.68721129E+01</totfact>
</mgrwt>
</event>
