<event>
12    1  0.3427088E-012  0.1322869E+04  0.7818608E-02  0.9696587E-01
          1   -1    0    0  501    0  0.00000000000E+00  0.00000000000E+00  0.66559171547E+03  0.66559171547E+03  0.00000000000E+00 0. -1.
         -1   -1    0    0    0  501 -0.00000000000E+00 -0.00000000000E+00 -0.98210999444E+03  0.98210999444E+03  0.00000000000E+00 0.  1.
         23    2    1    2    0    0 -0.76709070427E+02 -0.34237462294E+02 -0.30517620742E+03  0.32478359714E+03  0.72769376035E+02 0.  0.
    9900016    2    1    2    0    0 -0.94398371832E+02 -0.34926043655E+03 -0.21646128782E+03  0.81178168189E+03  0.69371471426E+03 0.  0.
         23    2    4    4    0    0  0.28171595756E+03 -0.54676717872E+02 -0.12276130107E+03  0.32493340614E+03  0.90321410325E+02 0.  0.
        -15    1    5    5    0    0  0.24722364030E+03 -0.57433142083E+02 -0.13592393696E+03  0.28791215808E+03  0.00000000000E+00 0. -1.
        -15    1    3    3    0    0 -0.41942621167E+02 -0.54561487215E+02 -0.22105219923E+03  0.23151720053E+03  0.00000000000E+00 0.  1.
         15    1    3    3    0    0 -0.34766449260E+02  0.20324024922E+02 -0.84124008190E+02  0.93266396612E+02  0.00000000000E+00 0. -1.
         15    1    5    5    0    0  0.34492317260E+02  0.27564242116E+01  0.13162635884E+02  0.37021248059E+02  0.00000000000E+00 0.  1.
        -16    1    4    4    0    0 -0.37611432939E+03 -0.29458371868E+03 -0.93699986742E+02  0.48684827575E+03  0.00000000000E+00 0.  1.
         16    1    1    2    0    0  0.16918195579E+03  0.24221504242E+03  0.95936624986E+02  0.31063563375E+03  0.00000000000E+00 0. -1.
    9900018    1    1    2    0    0  0.19254864685E+01  0.14128285642E+03  0.10918259128E+03  0.20050079713E+03  0.91187600000E+02 0.  0.
<mgrwt>
<rscale>  0 0.71220387E+03</rscale>
<asrwt>0</asrwt>
<pdfrwt beam="1">  1        1 0.10239873E+00 0.13228695E+04</pdfrwt>
<pdfrwt beam="2">  1       -1 0.15109385E+00 0.13228695E+04</pdfrwt>
<totfact> 0.98200420E+00</totfact>
</mgrwt>
</event>
<event>
11    1  0.3427088E-012  0.1264571E+04  0.7818608E-02  0.9524785E-01
          1   -1    0    0  501    0  0.00000000000E+00  0.00000000000E+00  0.90597875662E+03  0.90597875662E+03  0.00000000000E+00 0. -1.
         -1   -1    0    0    0  501 -0.00000000000E+00 -0.00000000000E+00 -0.70599612111E+03  0.70599612111E+03  0.00000000000E+00 0.  1.
    9900016    2    1    2    0    0 -0.19358315863E+03  0.11154222164E+03 -0.83455809959E+02  0.75917105377E+03  0.72073553413E+03 0.  0.
         23    2    3    3    0    0 -0.19460377294E+03 -0.20108452849E+03  0.18448381260E+03  0.34743306926E+03  0.91486854045E+02 0.  0.
        -15    1    1    2    0    0  0.82378336518E+02  0.56745476539E+02  0.11897236869E+03  0.15543700958E+03  0.00000000000E+00 0.  1.
        -15    1    4    4    0    0 -0.12101921814E+03 -0.63312387990E+02  0.10437454029E+03  0.17189576578E+03  0.00000000000E+00 0. -1.
         15    1    1    2    0    0  0.64696257814E+02  0.11127973207E+03  0.14052391456E+03  0.19056693078E+03  0.00000000000E+00 0. -1.
         15    1    4    4    0    0 -0.73584554799E+02 -0.13777214050E+03  0.80109272318E+02  0.17553730348E+03  0.00000000000E+00 0.  1.
        -16    1    3    3    0    0  0.10206143125E+01  0.31262675013E+03 -0.26793962256E+03  0.41173798451E+03  0.00000000000E+00 0.  1.
         16    1    1    2    0    0 -0.15072086686E+03 -0.11270011866E+03  0.11202937688E+03  0.21901752838E+03  0.00000000000E+00 0. -1.
    9900018    1    1    2    0    0  0.19722943116E+03 -0.16686731160E+03 -0.88087214661E+02  0.28778235522E+03  0.91187600000E+02 0.  0.
<mgrwt>
<rscale>  0 0.82480939E+03</rscale>
<asrwt>0</asrwt>
<pdfrwt beam="1">  1        1 0.13938135E+00 0.12645713E+04</pdfrwt>
<pdfrwt beam="2">  1       -1 0.10861479E+00 0.12645713E+04</pdfrwt>
<totfact> 0.13876670E+01</totfact>
</mgrwt>
</event>
<event>
12    1  0.3427088E-012  0.1681382E+04  0.7818608E-02  0.9182410E-01
         -2   -1    0    0    0  501 -0.00000000000E+00  0.00000000000E+00  0.93825285720E+03  0.93825285720E+03  0.00000000000E+00 0.  1.
          2   -1    0    0  501    0  0.00000000000E+00 -0.00000000000E+00 -0.11372833642E+04  0.11372833642E+04  0.00000000000E+00 0. -1.
         23    2    1    2    0    0 -0.21070781281E+03 -0.23886621502E+03  0.13453362839E+03  0.36138657385E+03  0.10510046399E+03 0.  0.
    9900016    2    1    2    0    0 -0.44832485620E+02 -0.81173397975E+02 -0.25440921394E+03  0.75796030077E+03  0.70794116782E+03 0.  0.
         23    2    4    4    0    0 -0.27594446434E+03 -0.28406093341E+03 -0.15225048298E+03  0.43390397070E+03  0.90865201967E+02 0.  0.
        -15    1    3    3    0    0 -0.15592438468E+03 -0.10822723458E+03  0.10416066639E+03  0.21650633355E+03  0.00000000000E+00 0. -1.
        -15    1    5    5    0    0 -0.11601191032E+03 -0.61532844853E+02 -0.63379901127E+02  0.14581517822E+03  0.00000000000E+00 0.  1.
         15    1    3    3    0    0 -0.54783428133E+02 -0.13063898044E+03  0.30372961993E+02  0.14488024030E+03  0.00000000000E+00 0.  1.
         15    1    5    5    0    0 -0.15993255402E+03 -0.22252808856E+03 -0.88870581853E+02  0.28808879248E+03  0.00000000000E+00 0. -1.
        -16    1    1    2    0    0  0.55871604019E+03  0.20946203136E+03  0.45503040780E+02  0.59842165976E+03  0.00000000000E+00 0.  1.
         16    1    4    4    0    0  0.23111197872E+03  0.20288753544E+03 -0.10215873096E+03  0.32405633007E+03  0.00000000000E+00 0. -1.
    9900018    1    1    2    0    0 -0.30317574176E+03  0.11057758164E+03 -0.12465796223E+03  0.35776768704E+03  0.91187600000E+02 0.  0.
<mgrwt>
<rscale>  0 0.11236841E+04</rscale>
<asrwt>0</asrwt>
<pdfrwt beam="1">  1        2 0.17496667E+00 0.16813816E+04</pdfrwt>
<pdfrwt beam="2">  1       -2 0.14434659E+00 0.16813816E+04</pdfrwt>
<totfact> 0.64596839E+00</totfact>
</mgrwt>
</event>
<event>
12    1  0.3427088E-012  0.2082073E+04  0.7818608E-02  0.9224694E-01
         -1   -1    0    0    0  501 -0.00000000000E+00  0.00000000000E+00  0.56500904142E+03  0.56500904142E+03  0.00000000000E+00 0.  1.
          1   -1    0    0  501    0  0.00000000000E+00 -0.00000000000E+00 -0.24496783790E+04  0.24496783790E+04  0.00000000000E+00 0. -1.
         23    2    1    2    0    0 -0.29876477321E+02  0.12525501332E+03 -0.47985503568E+03  0.50300815830E+03  0.78580721483E+02 0.  0.
    9900016    2    1    2    0    0 -0.42162209856E+03  0.18762125839E+03 -0.44442678289E+03  0.94463380101E+03  0.69415482572E+03 0.  0.
         23    2    4    4    0    0  0.90267593081E+02  0.10834791669E+03  0.97472419813E+02  0.19498717426E+03  0.92906491107E+02 0.  0.
        -15    1    5    5    0    0  0.51364443846E+02  0.11685722873E+03  0.63149438313E+02  0.14241407781E+03  0.00000000000E+00 0.  1.
        -15    1    3    3    0    0  0.19606935233E+02  0.43827748610E+02 -0.24314528512E+03  0.24784053973E+03  0.00000000000E+00 0.  1.
         15    1    5    5    0    0  0.38903149235E+02 -0.85093120376E+01  0.34322981500E+02  0.52573096454E+02  0.00000000000E+00 0. -1.
         15    1    3    3    0    0 -0.49483412554E+02  0.81427264708E+02 -0.23670975056E+03  0.25516761857E+03  0.00000000000E+00 0. -1.
        -16    1    1    2    0    0  0.43882641316E+03 -0.55778934223E+03 -0.16350347452E+03  0.72830691152E+03  0.00000000000E+00 0.  1.
         16    1    4    4    0    0 -0.51188969164E+03  0.79273341692E+02 -0.54189920270E+03  0.74964662675E+03  0.00000000000E+00 0. -1.
    9900018    1    1    2    0    0  0.12672162722E+02  0.24491307052E+03 -0.79688404453E+03  0.83873854963E+03  0.91187600000E+02 0.  0.
<mgrwt>
<rscale>  0 0.10802141E+04</rscale>
<asrwt>0</asrwt>
<pdfrwt beam="1">  1        1 0.37687360E+00 0.20820734E+04</pdfrwt>
<pdfrwt beam="2">  1       -1 0.86924467E-01 0.20820734E+04</pdfrwt>
<totfact> 0.17518722E+00</totfact>
</mgrwt>
</event>
<event>
12    1  0.3427088E-012  0.1696046E+04  0.7818608E-02  0.9274460E-01
         -2   -1    0    0    0  501 -0.00000000000E+00  0.00000000000E+00  0.94023271212E+03  0.94023271212E+03  0.00000000000E+00 0.  1.
          2   -1    0    0  501    0  0.00000000000E+00 -0.00000000000E+00 -0.14044165822E+04  0.14044165822E+04  0.00000000000E+00 0. -1.
         23    2    1    2    0    0 -0.12995495415E+03 -0.17944861498E+03  0.38368601034E+03  0.44848086593E+03  0.69498467950E+02 0.  0.
    9900016    2    1    2    0    0  0.31765686884E+03 -0.19496241047E+03 -0.79778913785E+03  0.11352518900E+04  0.71652851829E+03 0.  0.
         23    2    4    4    0    0  0.17863536881E+03 -0.15576800536E+03  0.63042206803E+02  0.26238661818E+03  0.93263878729E+02 0.  0.
        -15    1    5    5    0    0  0.11391980002E+03 -0.12922723094E+03  0.64139785738E+01  0.17239065281E+03  0.00000000000E+00 0.  1.
        -15    1    3    3    0    0 -0.13625384233E+02 -0.33943947052E+01  0.63359296011E+02  0.64896636291E+02  0.00000000000E+00 0.  1.
         15    1    5    5    0    0  0.64715568792E+02 -0.26540774417E+02  0.56628228229E+02  0.89995965371E+02  0.00000000000E+00 0. -1.
         15    1    3    3    0    0 -0.11632956992E+03 -0.17605422028E+03  0.32032671432E+03  0.38358422964E+03  0.00000000000E+00 0. -1.
        -16    1    1    2    0    0 -0.29905332725E+03  0.46329634342E+03  0.66571349182E+02  0.55543508972E+03  0.00000000000E+00 0.  1.
         16    1    4    4    0    0  0.13902150002E+03 -0.39194405108E+02 -0.86083134466E+03  0.87286527185E+03  0.00000000000E+00 0. -1.
    9900018    1    1    2    0    0  0.11135141256E+03 -0.88885317968E+02 -0.11665209173E+03  0.20548144862E+03  0.91187600000E+02 0.  0.
<mgrwt>
<rscale>  0 0.10316848E+04</rscale>
<asrwt>0</asrwt>
<pdfrwt beam="1">  1        2 0.21606409E+00 0.16960458E+04</pdfrwt>
<pdfrwt beam="2">  1       -2 0.14465119E+00 0.16960458E+04</pdfrwt>
<totfact> 0.44444221E+00</totfact>
</mgrwt>
</event>
<event>
12    1  0.3427088E-012  0.1868771E+04  0.7818608E-02  0.9343794E-01
         -2   -1    0    0    0  501 -0.00000000000E+00  0.00000000000E+00  0.62915731849E+03  0.62915731849E+03  0.00000000000E+00 0.  1.
          2   -1    0    0  501    0  0.00000000000E+00 -0.00000000000E+00 -0.15992977268E+04  0.15992977268E+04  0.00000000000E+00 0. -1.
         23    2    1    2    0    0  0.47778034447E+02  0.59164020619E+02 -0.95010637654E+02  0.16492488281E+03  0.11131070834E+03 0.  0.
    9900016    2    1    2    0    0  0.21025212315E+02  0.48196671287E+02 -0.49253214436E+03  0.86949215358E+03  0.71460738398E+03 0.  0.
         23    2    4    4    0    0  0.80163103234E+02 -0.32035095959E+03 -0.25440948149E+03  0.42674273355E+03  0.91292474721E+02 0.  0.
        -15    1    3    3    0    0  0.10437934456E+02  0.53905464111E+02 -0.11110003855E+03  0.12392726941E+03  0.00000000000E+00 0. -1.
        -15    1    5    5    0    0  0.13256944921E+02 -0.22774196320E+03 -0.17696471462E+03  0.28871899593E+03  0.00000000000E+00 0. -1.
         15    1    3    3    0    0  0.37340099991E+02  0.52585565076E+01  0.16089400896E+02  0.40997613407E+02  0.00000000000E+00 0.  1.
         15    1    5    5    0    0  0.66906158313E+02 -0.92608996389E+02 -0.77444766870E+02  0.13802373762E+03  0.00000000000E+00 0.  1.
        -16    1    4    4    0    0 -0.59137890919E+02  0.36854763087E+03 -0.23812266288E+03  0.44274942003E+03  0.00000000000E+00 0.  1.
         16    1    1    2    0    0 -0.22852325816E+03 -0.21127250311E+03 -0.72654735484E+03  0.79039863925E+03  0.00000000000E+00 0. -1.
    9900018    1    1    2    0    0  0.15972001140E+03  0.10391181121E+03  0.34394972856E+03  0.40363936963E+03  0.91187600000E+02 0.  0.
<mgrwt>
<rscale>  0 0.96849182E+03</rscale>
<asrwt>0</asrwt>
<pdfrwt beam="1">  1        2 0.24604580E+00 0.18687709E+04</pdfrwt>
<pdfrwt beam="2">  1       -2 0.96793436E-01 0.18687709E+04</pdfrwt>
<totfact> 0.93118996E+00</totfact>
</mgrwt>
</event>
<event>
11    1  0.3427088E-012  0.2740104E+04  0.7818608E-02  0.8322109E-01
         -2   -1    0    0    0  501 -0.00000000000E+00  0.00000000000E+00  0.14842445018E+04  0.14842445018E+04  0.00000000000E+00 0.  1.
          2   -1    0    0  501    0  0.00000000000E+00 -0.00000000000E+00 -0.12646448318E+04  0.12646448318E+04  0.00000000000E+00 0. -1.
    9900016    2    1    2    0    0  0.24837286929E+02 -0.53814260223E+03  0.11286467327E+02  0.86049076595E+03  0.67089687939E+03 0.  0.
         23    2    3    3    0    0 -0.35471755934E+01 -0.79706580536E+02 -0.28824652514E+03  0.31213934826E+03  0.89326323336E+02 0.  0.
        -15    1    1    2    0    0  0.43029526554E+02 -0.24327608772E+01 -0.18057279185E+03  0.18564479965E+03  0.00000000000E+00 0. -1.
        -15    1    4    4    0    0  0.35448888068E+02 -0.24222818151E+02 -0.58316819052E+02  0.72416986742E+02  0.00000000000E+00 0.  1.
         15    1    4    4    0    0 -0.38996063662E+02 -0.55483762386E+02 -0.22992970609E+03  0.23972236152E+03  0.00000000000E+00 0. -1.
         15    1    1    2    0    0 -0.50130462466E+02 -0.21347005229E+02 -0.21228833899E+01  0.54527649254E+02  0.00000000000E+00 0.  1.
        -16    1    1    2    0    0  0.66507713288E+03 -0.60190369524E+02  0.22910059331E+03  0.70600110136E+03  0.00000000000E+00 0.  1.
         16    1    3    3    0    0  0.28384462523E+02 -0.45843602170E+03  0.29953299247E+03  0.54835141769E+03  0.00000000000E+00 0. -1.
    9900018    1    1    2    0    0 -0.68281348390E+03  0.62211273786E+03  0.16190828455E+03  0.94222501740E+03  0.91187600000E+02 0.  0.
<mgrwt>
<rscale>  0 0.27401037E+04</rscale>
<asrwt>0</asrwt>
<pdfrwt beam="1">  1        2 0.19456074E+00 0.27401037E+04</pdfrwt>
<pdfrwt beam="2">  1       -2 0.22834531E+00 0.27401037E+04</pdfrwt>
<totfact> 0.13276815E+00</totfact>
</mgrwt>
</event>
<event>
12    1  0.3427088E-012  0.2545564E+04  0.7818608E-02  0.9161182E-01
         -1   -1    0    0    0  501 -0.00000000000E+00  0.00000000000E+00  0.15820403266E+04  0.15820403266E+04  0.00000000000E+00 0.  1.
          1   -1    0    0  501    0  0.00000000000E+00 -0.00000000000E+00 -0.11452942842E+04  0.11452942842E+04  0.00000000000E+00 0. -1.
         23    2    1    2    0    0 -0.75651556538E+02  0.72757114152E+01  0.12454705286E+03  0.16269758329E+03  0.71989174532E+02 0.  0.
    9900016    2    1    2    0    0 -0.42024795769E+03 -0.10534934290E+04 -0.13094478453E+01  0.13371782625E+04  0.70822824020E+03 0.  0.
         23    2    4    4    0    0 -0.34705530019E+03 -0.42992285578E+03 -0.30719547790E+03  0.63877745476E+03  0.91578009080E+02 0.  0.
        -15    1    5    5    0    0 -0.53444569030E+02 -0.22866615573E+02 -0.29851236806E+02  0.65347535573E+02  0.00000000000E+00 0. -1.
        -15    1    3    3    0    0 -0.12365232384E+02  0.21518861675E+02  0.80622483230E+02  0.84356061915E+02  0.00000000000E+00 0.  1.
         15    1    5    5    0    0 -0.29361073116E+03 -0.40705624021E+03 -0.27734424110E+03  0.57342991918E+03  0.00000000000E+00 0.  1.
         15    1    3    3    0    0 -0.63286324155E+02 -0.14243150260E+02  0.43924569625E+02  0.78341521373E+02  0.00000000000E+00 0. -1.
        -16    1    1    2    0    0  0.38164569353E+03  0.56236574393E+03  0.14767153589E+03  0.69549661958E+03  0.00000000000E+00 0.  1.
         16    1    4    4    0    0 -0.73192657500E+02 -0.62357057321E+03  0.30588603006E+03  0.69840080776E+03  0.00000000000E+00 0. -1.
    9900018    1    1    2    0    0  0.11425382070E+03  0.48385197365E+03  0.16583690148E+03  0.53196214549E+03  0.91187600000E+02 0.  0.
<mgrwt>
<rscale>  0 0.11463231E+04</rscale>
<asrwt>0</asrwt>
<pdfrwt beam="1">  1        1 0.17619912E+00 0.25455638E+04</pdfrwt>
<pdfrwt beam="2">  1       -1 0.24339082E+00 0.25455638E+04</pdfrwt>
<totfact> 0.79538615E-01</totfact>
</mgrwt>
</event>
<event>
12    1  0.3427088E-012  0.1679756E+04  0.7818608E-02  0.9448861E-01
          2   -1    0    0  501    0  0.00000000000E+00  0.00000000000E+00  0.14959420338E+04  0.14959420338E+04  0.00000000000E+00 0. -1.
         -2   -1    0    0    0  501 -0.00000000000E+00 -0.00000000000E+00 -0.54584145523E+03  0.54584145523E+03  0.00000000000E+00 0.  1.
         23    2    1    2    0    0 -0.76530587461E+02 -0.69105863472E+02  0.70665584081E+02  0.14573883054E+03  0.74924166803E+02 0.  0.
    9900016    2    1    2    0    0  0.34117292682E+03  0.13642089568E+03  0.82014543881E+03  0.11470127998E+04  0.71273430902E+03 0.  0.
         23    2    4    4    0    0  0.52877337101E+02  0.39847000729E+03  0.39905482797E+03  0.57333921097E+03  0.88874831207E+02 0.  0.
        -15    1    3    3    0    0 -0.91645533634E+02 -0.59801710197E+02  0.57335425915E+02  0.12354148875E+03  0.00000000000E+00 0.  1.
        -15    1    5    5    0    0  0.73385058259E+02  0.26924241739E+03  0.24633946691E+03  0.37223645584E+03  0.00000000000E+00 0.  1.
         15    1    3    3    0    0  0.15114946173E+02 -0.93041532749E+01  0.13330158166E+02  0.22197341794E+02  0.00000000000E+00 0. -1.
         15    1    5    5    0    0 -0.20507721158E+02  0.12922758990E+03  0.15271536106E+03  0.20110275513E+03  0.00000000000E+00 0. -1.
        -16    1    1    2    0    0 -0.20082221678E+03  0.71796130863E+02 -0.28820219717E+03  0.35853138442E+03  0.00000000000E+00 0.  1.
         16    1    4    4    0    0  0.28829558972E+03 -0.26204911161E+03  0.42109061084E+03  0.57367358880E+03  0.00000000000E+00 0. -1.
    9900018    1    1    2    0    0 -0.63820122582E+02 -0.13911116307E+03  0.34749175290E+03  0.39050047434E+03  0.91187600000E+02 0.  0.
<mgrwt>
<rscale>  0 0.88161408E+03</rscale>
<asrwt>0</asrwt>
<pdfrwt beam="1">  1        2 0.23014493E+00 0.16797558E+04</pdfrwt>
<pdfrwt beam="2">  1       -2 0.83975609E-01 0.16797558E+04</pdfrwt>
<totfact> 0.15014596E+01</totfact>
</mgrwt>
</event>
<event>
11    1  0.3427088E-012  0.1397828E+04  0.7818608E-02  0.9323284E-01
          2   -1    0    0  501    0  0.00000000000E+00  0.00000000000E+00  0.13438663482E+04  0.13438663482E+04  0.00000000000E+00 0.  1.
         -2   -1    0    0    0  501 -0.00000000000E+00 -0.00000000000E+00 -0.61091548881E+03  0.61091548881E+03  0.00000000000E+00 0. -1.
    9900016    2    1    2    0    0  0.27732087515E+02  0.97506706650E+01  0.26170410042E+03  0.75981471554E+03  0.71271678914E+03 0.  0.
         23    2    3    3    0    0  0.30423107528E+03 -0.67024681546E+02  0.33202184265E+03  0.46436466931E+03  0.91362941066E+02 0.  0.
        -15    1    1    2    0    0 -0.21631180705E+03  0.92377559260E+02  0.34408358347E+03  0.41679482211E+03  0.00000000000E+00 0.  1.
        -15    1    4    4    0    0  0.30770248574E+03 -0.55599928562E+02  0.32079840380E+03  0.44797744103E+03  0.00000000000E+00 0. -1.
         15    1    4    4    0    0 -0.34714104522E+01 -0.11424752984E+02  0.11223438845E+02  0.16387228282E+02  0.00000000000E+00 0.  1.
         15    1    1    2    0    0 -0.50763307558E+02  0.73965948516E+02  0.32833336853E+02  0.95529591976E+02  0.00000000000E+00 0. -1.
        -16    1    3    3    0    0 -0.27649898777E+03  0.76775352210E+02 -0.70317742233E+02  0.29545004623E+03  0.00000000000E+00 0.  1.
         16    1    1    2    0    0  0.24057417393E+03 -0.35082548087E+03  0.18720541726E+03  0.46475834521E+03  0.00000000000E+00 0. -1.
    9900018    1    1    2    0    0 -0.12311468368E+01  0.17473130243E+03 -0.92875578633E+02  0.21788436216E+03  0.91187600000E+02 0.  0.
<mgrwt>
<rscale>  0 0.98667269E+03</rscale>
<asrwt>0</asrwt>
<pdfrwt beam="1">  1        2 0.20674867E+00 0.13978280E+04</pdfrwt>
<pdfrwt beam="2">  1       -2 0.93986998E-01 0.13978280E+04</pdfrwt>
<totfact> 0.14382543E+01</totfact>
</mgrwt>
</event>
<event>
11    1  0.3427088E-012  0.1543498E+04  0.7818608E-02  0.9583782E-01
          5   -1    0    0  501    0  0.00000000000E+00  0.00000000000E+00  0.62773555572E+03  0.62773555572E+03  0.00000000000E+00 0. -1.
         -5   -1    0    0    0  501 -0.00000000000E+00 -0.00000000000E+00 -0.10793177005E+04  0.10793177005E+04  0.00000000000E+00 0.  1.
    9900016    2    1    2    0    0 -0.12666785077E+03 -0.14833065792E+02  0.20680871324E+00  0.72124166374E+03  0.70987656003E+03 0.  0.
         23    2    3    3    0    0 -0.41064495487E+03  0.64106668155E+02  0.19108664519E+02  0.42589143536E+03  0.90991372096E+02 0.  0.
        -15    1    1    2    0    0 -0.17555212151E+02 -0.57189708980E+02  0.17075160416E+02  0.62212614397E+02  0.00000000000E+00 0.  1.
        -15    1    4    4    0    0 -0.27077380886E+03  0.12929148618E+02 -0.20253969761E+02  0.27183789607E+03  0.00000000000E+00 0.  1.
         15    1    1    2    0    0  0.16309804309E+03  0.10432134081E+03  0.17951572433E+03  0.26402615229E+03  0.00000000000E+00 0. -1.
         15    1    4    4    0    0 -0.13987114601E+03  0.51177519537E+02  0.39362634280E+02  0.15405353929E+03  0.00000000000E+00 0. -1.
        -16    1    3    3    0    0  0.28397710410E+03 -0.78939733947E+02 -0.18901855805E+02  0.29535022837E+03  0.00000000000E+00 0.  1.
         16    1    1    2    0    0 -0.62039551168E+01  0.13285303231E+02 -0.40479463871E+02  0.43053168714E+02  0.00000000000E+00 0. -1.
    9900018    1    1    2    0    0 -0.12671025051E+02 -0.45583869274E+02 -0.60790037439E+03  0.61651965710E+03  0.91187600000E+02 0.  0.
<mgrwt>
<rscale>  0 0.78378926E+03</rscale>
<asrwt>0</asrwt>
<pdfrwt beam="1">  1        5 0.96574702E-01 0.15434982E+04</pdfrwt>
<pdfrwt beam="2">  1       -5 0.16604888E+00 0.15434982E+04</pdfrwt>
<totfact> 0.15972406E-01</totfact>
</mgrwt>
</event>
<event>
11    1  0.3427088E-012  0.1556419E+04  0.7818608E-02  0.9908761E-01
          1   -1    0    0  501    0  0.00000000000E+00  0.00000000000E+00  0.19644436410E+04  0.19644436410E+04  0.00000000000E+00 0. -1.
         -1   -1    0    0    0  501 -0.00000000000E+00 -0.00000000000E+00 -0.32566776404E+03  0.32566776404E+03  0.00000000000E+00 0.  1.
    9900016    2    1    2    0    0 -0.20951175486E+03  0.14714129600E+03  0.12646724807E+04  0.14798002040E+04  0.72447665531E+03 0.  0.
         23    2    3    3    0    0  0.10854800920E+03  0.40935285035E+02 -0.22763970828E+02  0.14941140863E+03  0.91363027531E+02 0.  0.
        -15    1    4    4    0    0  0.76217005512E+02 -0.56946930175E+01 -0.44741175089E+02  0.88562035919E+02  0.00000000000E+00 0. -1.
        -15    1    1    2    0    0  0.18089801259E+02 -0.66226345157E+01  0.32486968804E+02  0.37769079147E+02  0.00000000000E+00 0.  1.
         15    1    4    4    0    0  0.32331003691E+02  0.46629978052E+02  0.21977204261E+02  0.60849372716E+02  0.00000000000E+00 0.  1.
         15    1    1    2    0    0 -0.66154796608E+00  0.12236019459E+02  0.49415990589E+02  0.50912650135E+02  0.00000000000E+00 0. -1.
        -16    1    1    2    0    0  0.34493161221E+03 -0.15244945062E+03 -0.27618673520E+01  0.37712899651E+03  0.00000000000E+00 0.  1.
         16    1    3    3    0    0 -0.31805976406E+03  0.10620601096E+03  0.12874364515E+04  0.13303887954E+04  0.00000000000E+00 0. -1.
    9900018    1    1    2    0    0 -0.15284811064E+03 -0.30523031760E+00  0.29496230420E+03  0.34450047516E+03  0.91187600000E+02 0.  0.
<mgrwt>
<rscale>  0 0.59838570E+03</rscale>
<asrwt>0</asrwt>
<pdfrwt beam="1">  1        1 0.30222209E+00 0.15564188E+04</pdfrwt>
<pdfrwt beam="2">  1       -1 0.50102734E-01 0.15564188E+04</pdfrwt>
<totfact> 0.12126017E+01</totfact>
</mgrwt>
</event>
<event>
12    1  0.3427088E-012  0.2082903E+04  0.7818608E-02  0.9097206E-01
         -1   -1    0    0    0  501 -0.00000000000E+00  0.00000000000E+00  0.11537470992E+04  0.11537470992E+04  0.00000000000E+00 0.  1.
          1   -1    0    0  501    0  0.00000000000E+00 -0.00000000000E+00 -0.12237581308E+04  0.12237581308E+04  0.00000000000E+00 0. -1.
         23    2    1    2    0    0 -0.22653157357E+03 -0.64342422981E+02  0.14509738373E+03  0.28352439913E+03  0.62260203343E+02 0.  0.
    9900016    2    1    2    0    0 -0.31585458144E+02  0.10380953328E+03 -0.73014202304E+02  0.73383213132E+03  0.72208341821E+03 0.  0.
         23    2    4    4    0    0 -0.18137431197E+03  0.21807524463E+03  0.23026887520E+03  0.37679714898E+03  0.92189387868E+02 0.  0.
        -15    1    5    5    0    0 -0.21144088626E+02  0.90302856672E+02  0.82652982166E+02  0.12423040637E+03  0.00000000000E+00 0.  1.
        -15    1    3    3    0    0 -0.11279123714E+03 -0.59867209001E+02  0.58274717297E+02  0.14036341605E+03  0.00000000000E+00 0. -1.
         15    1    5    5    0    0 -0.16023022334E+03  0.12777238795E+03  0.14761589303E+03  0.25256674261E+03  0.00000000000E+00 0. -1.
         15    1    3    3    0    0 -0.11374033643E+03 -0.44752139804E+01  0.86822666433E+02  0.14316098308E+03  0.00000000000E+00 0.  1.
        -16    1    4    4    0    0  0.14978885383E+03 -0.11426571134E+03 -0.30328307750E+03  0.35703498234E+03  0.00000000000E+00 0.  1.
         16    1    1    2    0    0 -0.26520527799E+03  0.20533720872E+03 -0.55200095834E+03  0.64591196518E+03  0.00000000000E+00 0. -1.
    9900018    1    1    2    0    0  0.52332230970E+03 -0.24480431902E+03  0.40990674531E+03  0.71423673434E+03  0.91187600000E+02 0.  0.
<mgrwt>
<rscale>  0 0.12180459E+04</rscale>
<asrwt>0</asrwt>
<pdfrwt beam="1">  1        1 0.18827048E+00 0.20829028E+04</pdfrwt>
<pdfrwt beam="2">  1       -1 0.17749955E+00 0.20829028E+04</pdfrwt>
<totfact> 0.20336807E+00</totfact>
</mgrwt>
</event>
<event>
12    1  0.3427088E-012  0.3101646E+04  0.7818608E-02  0.8215286E-01
         -1   -1    0    0    0  501 -0.00000000000E+00  0.00000000000E+00  0.63770410381E+03  0.63770410381E+03  0.00000000000E+00 0.  1.
          1   -1    0    0  501    0  0.00000000000E+00 -0.00000000000E+00 -0.37714222753E+04  0.37714222753E+04  0.00000000000E+00 0. -1.
         23    2    1    2    0    0  0.23873093442E+03  0.45344949378E+03  0.15124144182E+03  0.54516152177E+03  0.10825067502E+03 0.  0.
    9900016    2    1    2    0    0  0.29990667678E+03 -0.45639902790E+03 -0.25839969732E+04  0.27325379902E+04  0.70105593415E+03 0.  0.
         23    2    4    4    0    0 -0.79469825170E+02 -0.39562452381E+03 -0.19318393369E+04  0.19756168231E+04  0.90688429378E+02 0.  0.
        -15    1    3    3    0    0  0.72914221982E+02  0.22671810020E+03  0.10586609140E+03  0.26062465354E+03  0.00000000000E+00 0.  1.
        -15    1    5    5    0    0 -0.78066595378E+02 -0.16252353136E+03 -0.87207555826E+03  0.89051898962E+03  0.00000000000E+00 0. -1.
         15    1    3    3    0    0  0.16581671244E+03  0.22673139358E+03  0.45375350422E+02  0.28453686823E+03  0.00000000000E+00 0. -1.
         15    1    5    5    0    0 -0.14032297915E+01 -0.23310099245E+03 -0.10597637786E+04  0.10850978335E+04  0.00000000000E+00 0.  1.
        -16    1    1    2    0    0 -0.35322477851E+03  0.28075710875E+02  0.44801990746E+02  0.35715991947E+03  0.00000000000E+00 0.  1.
         16    1    4    4    0    0  0.37937650195E+03 -0.60774504088E+02 -0.65215763640E+03  0.75692116715E+03  0.00000000000E+00 0. -1.
    9900018    1    1    2    0    0 -0.18541283268E+03 -0.25126176759E+02 -0.74576463080E+03  0.77426694765E+03  0.91187600000E+02 0.  0.
<mgrwt>
<rscale>  0 0.31016457E+04</rscale>
<asrwt>0</asrwt>
<pdfrwt beam="1">  1        1 0.58021882E+00 0.31016457E+04</pdfrwt>
<pdfrwt beam="2">  1       -1 0.98108322E-01 0.31016457E+04</pdfrwt>
<totfact> 0.12634172E-01</totfact>
</mgrwt>
</event>
<event>
11    1  0.3427088E-012  0.1677274E+04  0.7818608E-02  0.8774433E-01
         -2   -1    0    0    0  501 -0.00000000000E+00  0.00000000000E+00  0.78568466099E+03  0.78568466099E+03  0.00000000000E+00 0.  1.
          2   -1    0    0  501    0  0.00000000000E+00 -0.00000000000E+00 -0.89515797343E+03  0.89515797343E+03  0.00000000000E+00 0. -1.
    9900016    2    1    2    0    0 -0.51084101143E+02 -0.12215395775E+03  0.30412441359E+03  0.78931284886E+03  0.71623455630E+03 0.  0.
         23    2    3    3    0    0  0.15212719023E+03 -0.25704332978E+03  0.41691240429E+03  0.52059161323E+03  0.89362853155E+02 0.  0.
        -15    1    4    4    0    0  0.86708905206E+02 -0.10445601816E+03  0.25393793054E+03  0.28794785385E+03  0.00000000000E+00 0. -1.
        -15    1    1    2    0    0 -0.15471443467E+02 -0.50750131176E+02  0.58998316896E+02  0.79345716796E+02  0.00000000000E+00 0.  1.
         15    1    4    4    0    0  0.65418285025E+02 -0.15258731162E+03  0.16297447375E+03  0.23264375938E+03  0.00000000000E+00 0.  1.
         15    1    1    2    0    0  0.41932839526E+02  0.49116346061E+02 -0.10319864066E+02  0.65400902711E+02  0.00000000000E+00 0. -1.
        -16    1    3    3    0    0 -0.20321129137E+03  0.13488937204E+03 -0.11278799070E+03  0.26872123563E+03  0.00000000000E+00 0.  1.
         16    1    1    2    0    0  0.60081527961E+02  0.21972499687E+03 -0.54223068476E+03  0.58813517132E+03  0.00000000000E+00 0. -1.
    9900018    1    1    2    0    0 -0.35458822878E+02 -0.95937254012E+02  0.79954505897E+02  0.15864799474E+03  0.91187600000E+02 0.  0.
<mgrwt>
<rscale>  0 0.16772738E+04</rscale>
<asrwt>0</asrwt>
<pdfrwt beam="1">  1        2 0.13771661E+00 0.16772738E+04</pdfrwt>
<pdfrwt beam="2">  1       -2 0.12087456E+00 0.16772738E+04</pdfrwt>
<totfact> 0.14686347E+01</totfact>
</mgrwt>
</event>
<event>
12    1  0.3427088E-012  0.1571102E+04  0.7818608E-02  0.8838501E-01
          2   -1    0    0  501    0  0.00000000000E+00  0.00000000000E+00  0.17057346884E+04  0.17057346884E+04  0.00000000000E+00 0. -1.
         -2   -1    0    0    0  501 -0.00000000000E+00 -0.00000000000E+00 -0.36177391062E+03  0.36177391062E+03  0.00000000000E+00 0.  1.
         23    2    1    2    0    0  0.11865720243E+03 -0.52921207851E+02  0.43212584094E+03  0.45756766767E+03  0.75863312357E+02 0.  0.
    9900016    2    1    2    0    0  0.19447880966E+03 -0.17669224198E+03  0.60244586183E+03  0.96570300696E+03  0.70753030000E+03 0.  0.
         23    2    4    4    0    0 -0.21165024096E+03 -0.24943719948E+03  0.31429911527E+03  0.46245239130E+03  0.89797212533E+02 0.  0.
        -15    1    5    5    0    0 -0.28796890938E+02 -0.95160873609E+02  0.80303465723E+02  0.12780257979E+03  0.00000000000E+00 0. -1.
        -15    1    3    3    0    0  0.23123340902E+02  0.14185584719E+02  0.14671640425E+03  0.14920329415E+03  0.00000000000E+00 0.  1.
         15    1    3    3    0    0  0.95533861529E+02 -0.67106792571E+02  0.28540943669E+03  0.30836437352E+03  0.00000000000E+00 0. -1.
         15    1    5    5    0    0 -0.18285335002E+03 -0.15427632587E+03  0.23399564955E+03  0.33464981151E+03  0.00000000000E+00 0.  1.
        -16    1    4    4    0    0  0.40612905062E+03  0.72744957498E+02  0.28814674656E+03  0.50325061565E+03  0.00000000000E+00 0.  1.
         16    1    1    2    0    0  0.95463916755E+02  0.42686260940E+02  0.79393228172E+02  0.13129646208E+03  0.00000000000E+00 0. -1.
    9900018    1    1    2    0    0 -0.40859992885E+03  0.18692718890E+03  0.22999584683E+03  0.51294146231E+03  0.91187600000E+02 0.  0.
<mgrwt>
<rscale>  0 0.15711019E+04</rscale>
<asrwt>0</asrwt>
<pdfrwt beam="1">  1        2 0.26242072E+00 0.15711019E+04</pdfrwt>
<pdfrwt beam="2">  1       -2 0.55657526E-01 0.15711019E+04</pdfrwt>
<totfact> 0.28372111E+01</totfact>
</mgrwt>
</event>
<event>
12    1  0.3427088E-012  0.2391993E+04  0.7818608E-02  0.8998408E-01
         -2   -1    0    0    0  501 -0.00000000000E+00  0.00000000000E+00  0.10009427609E+04  0.10009427609E+04  0.00000000000E+00 0.  1.
          2   -1    0    0  501    0  0.00000000000E+00 -0.00000000000E+00 -0.18140418161E+04  0.18140418161E+04  0.00000000000E+00 0. -1.
         23    2    1    2    0    0 -0.87377642248E+02  0.20509058265E+03  0.98239821921E+02  0.25526417859E+03  0.76234761104E+02 0.  0.
    9900016    2    1    2    0    0  0.37840771036E+03  0.50598982422E+03 -0.60976841744E+03  0.11566460947E+04  0.75285760140E+03 0.  0.
         23    2    4    4    0    0  0.30284413182E+03  0.24094276128E+03  0.86557620116E+02  0.40776042214E+03  0.94912369435E+02 0.  0.
        -15    1    5    5    0    0  0.18664571946E+03  0.20386857893E+03  0.64135562017E+02  0.28374705705E+03  0.00000000000E+00 0.  1.
        -15    1    3    3    0    0 -0.21824482566E+02  0.93340664361E+02  0.79140292816E+02  0.12430596772E+03  0.00000000000E+00 0. -1.
         15    1    5    5    0    0  0.11619841236E+03  0.37074182348E+02  0.22422058099E+02  0.12401336509E+03  0.00000000000E+00 0. -1.
         15    1    3    3    0    0 -0.65553159682E+02  0.11174991829E+03  0.19099529104E+02  0.13095821087E+03  0.00000000000E+00 0.  1.
        -16    1    4    4    0    0  0.75563578536E+02  0.26504706294E+03 -0.69632603755E+03  0.74888567255E+03  0.00000000000E+00 0.  1.
         16    1    1    2    0    0  0.40952410003E+03 -0.45148922157E+03 -0.21080194519E+03  0.64497284113E+03  0.00000000000E+00 0. -1.
    9900018    1    1    2    0    0 -0.70055416814E+03 -0.25959118530E+03 -0.90768514523E+02  0.75810146260E+03  0.91187600000E+02 0.  0.
<mgrwt>
<rscale>  0 0.13400317E+04</rscale>
<asrwt>0</asrwt>
<pdfrwt beam="1">  1        2 0.27908336E+00 0.23919929E+04</pdfrwt>
<pdfrwt beam="2">  1       -2 0.15399119E+00 0.23919929E+04</pdfrwt>
<totfact> 0.21093918E+00</totfact>
</mgrwt>
</event>
<event>
12    1  0.3427088E-012  0.1723483E+04  0.7818608E-02  0.9230030E-01
         -4   -1    0    0    0  501 -0.00000000000E+00  0.00000000000E+00  0.76671991722E+03  0.76671991722E+03  0.00000000000E+00 0.  1.
          4   -1    0    0  501    0  0.00000000000E+00 -0.00000000000E+00 -0.15963859456E+04  0.15963859456E+04  0.00000000000E+00 0. -1.
         23    2    1    2    0    0  0.23340764207E+03  0.90646324590E+02  0.22340789905E+03  0.34336336405E+03  0.72742194610E+02 0.  0.
    9900016    2    1    2    0    0 -0.68448731110E+02  0.51653908550E+02 -0.55524529360E+03  0.90743839467E+03  0.71259648399E+03 0.  0.
         23    2    4    4    0    0  0.19383757067E+03 -0.13628397951E+03  0.12847168484E+02  0.25410555503E+03  0.90874949705E+02 0.  0.
        -15    1    3    3    0    0  0.16770746623E+03  0.94287502869E+02  0.14447842937E+03  0.24060329171E+03  0.00000000000E+00 0.  1.
        -15    1    5    5    0    0  0.79011941168E+02 -0.91504783173E+02  0.41042569585E+02  0.12767342993E+03  0.00000000000E+00 0.  1.
         15    1    3    3    0    0  0.65700175840E+02 -0.36411782792E+01  0.78929469675E+02  0.10276007234E+03  0.00000000000E+00 0. -1.
         15    1    5    5    0    0  0.11482562950E+03 -0.44779196339E+02 -0.28195401100E+02  0.12643212510E+03  0.00000000000E+00 0. -1.
        -16    1    1    2    0    0 -0.39650174040E+03 -0.18909777372E+03  0.11085111844E+03  0.45305581182E+03  0.00000000000E+00 0.  1.
         16    1    4    4    0    0 -0.26228630178E+03  0.18793788806E+03 -0.56809246209E+03  0.65333283964E+03  0.00000000000E+00 0. -1.
    9900018    1    1    2    0    0  0.23154282944E+03  0.46797540583E+02 -0.60867975227E+03  0.65924829229E+03  0.91187600000E+02 0.  0.
<mgrwt>
<rscale>  0 0.10748771E+04</rscale>
<asrwt>0</asrwt>
<pdfrwt beam="1">  1        4 0.24559783E+00 0.17234834E+04</pdfrwt>
<pdfrwt beam="2">  1       -4 0.11795691E+00 0.17234834E+04</pdfrwt>
<totfact> 0.69111354E-02</totfact>
</mgrwt>
</event>
<event>
12    1  0.3427088E-012  0.1881403E+04  0.7818608E-02  0.9156681E-01
         -2   -1    0    0    0  501 -0.00000000000E+00  0.00000000000E+00  0.99810692767E+03  0.99810692767E+03  0.00000000000E+00 0.  1.
          2   -1    0    0  501    0  0.00000000000E+00 -0.00000000000E+00 -0.12831182715E+04  0.12831182715E+04  0.00000000000E+00 0. -1.
         23    2    1    2    0    0  0.18599874976E+03 -0.17378928747E+03  0.20848008916E+03  0.33617702222E+03  0.68940491262E+02 0.  0.
    9900016    2    1    2    0    0 -0.54655440284E+01  0.39558863800E+03 -0.21315632282E+03  0.84762576186E+03  0.71868878628E+03 0.  0.
         23    2    4    4    0    0  0.28185077450E+03  0.71367702718E+02  0.90894485391E+02  0.31836516845E+03  0.92527644150E+02 0.  0.
        -15    1    3    3    0    0  0.10250872009E+03 -0.49096850579E+02  0.89063955723E+02  0.14439849944E+03  0.00000000000E+00 0.  1.
        -15    1    5    5    0    0  0.15379955901E+03  0.86019487062E+02  0.53549579908E+02  0.18417712674E+03  0.00000000000E+00 0.  1.
         15    1    5    5    0    0  0.12805121549E+03 -0.14651784344E+02  0.37344905484E+02  0.13418804171E+03  0.00000000000E+00 0. -1.
         15    1    3    3    0    0  0.83490029676E+02 -0.12469243689E+03  0.11941613344E+03  0.19177852278E+03  0.00000000000E+00 0. -1.
        -16    1    1    2    0    0 -0.43919725733E+03 -0.47687912834E+03 -0.34152403202E+02  0.64921053637E+03  0.00000000000E+00 0.  1.
         16    1    4    4    0    0 -0.28731631853E+03  0.32422093528E+03 -0.30405080821E+03  0.52926059341E+03  0.00000000000E+00 0. -1.
    9900018    1    1    2    0    0  0.25866405159E+03  0.25507977781E+03 -0.24618270703E+03  0.44821187877E+03  0.91187600000E+02 0.  0.
<mgrwt>
<rscale>  0 0.11511963E+04</rscale>
<asrwt>0</asrwt>
<pdfrwt beam="1">  1        2 0.19740281E+00 0.18814034E+04</pdfrwt>
<pdfrwt beam="2">  1       -2 0.15355491E+00 0.18814034E+04</pdfrwt>
<totfact> 0.44137464E+00</totfact>
</mgrwt>
</event>
<event>
12    1  0.3427088E-012  0.1428739E+04  0.7818608E-02  0.9553702E-01
         -2   -1    0    0    0  501 -0.00000000000E+00  0.00000000000E+00  0.71614086389E+03  0.71614086389E+03  0.00000000000E+00 0.  1.
          2   -1    0    0  501    0  0.00000000000E+00 -0.00000000000E+00 -0.88242207100E+03  0.88242207100E+03  0.00000000000E+00 0. -1.
         23    2    1    2    0    0 -0.35844895549E+02  0.58274219399E+02  0.53159770402E+02  0.15307059126E+03  0.12618995022E+03 0.  0.
    9900016    2    1    2    0    0 -0.11656622395E+03  0.43970939082E+00  0.79555102550E+02  0.70592888467E+03  0.69167817513E+03 0.  0.
         23    2    4    4    0    0 -0.22453436483E+03 -0.27494078978E+03  0.15918327180E+03  0.39960849013E+03  0.91320931300E+02 0.  0.
        -15    1    3    3    0    0 -0.16167988268E+02  0.25807859505E+02  0.93107203964E+02  0.97961221342E+02  0.00000000000E+00 0.  1.
        -15    1    5    5    0    0 -0.23057070807E+03 -0.24889090423E+03  0.14182266852E+03  0.36772707670E+03  0.00000000000E+00 0.  1.
         15    1    5    5    0    0  0.60363432390E+01 -0.26049885546E+02  0.17360603278E+02  0.31881413438E+02  0.00000000000E+00 0. -1.
         15    1    3    3    0    0 -0.19676907282E+02  0.32466359894E+02 -0.39947433562E+02  0.55109369921E+02  0.00000000000E+00 0. -1.
        -16    1    1    2    0    0  0.53210793740E+01 -0.25168891339E+03  0.94049811284E+02  0.26873963238E+03  0.00000000000E+00 0.  1.
         16    1    4    4    0    0  0.10796814088E+03  0.27538049917E+03 -0.79628169246E+02  0.30632039453E+03  0.00000000000E+00 0. -1.
    9900018    1    1    2    0    0  0.14709004012E+03  0.19297498460E+03 -0.39304589135E+03  0.47082382659E+03  0.91187600000E+02 0.  0.
<mgrwt>
<rscale>  0 0.80437804E+03</rscale>
<asrwt>0</asrwt>
<pdfrwt beam="1">  1        2 0.13575724E+00 0.14287385E+04</pdfrwt>
<pdfrwt beam="2">  1       -2 0.11017552E+00 0.14287385E+04</pdfrwt>
<totfact> 0.19084770E+01</totfact>
</mgrwt>
</event>
<event>
12    1  0.3427088E-012  0.1257900E+04  0.7818608E-02  0.9624770E-01
         -2   -1    0    0    0  501 -0.00000000000E+00  0.00000000000E+00  0.19877192647E+03  0.19877192647E+03  0.00000000000E+00 0.  1.
          2   -1    0    0  501    0  0.00000000000E+00 -0.00000000000E+00 -0.26846910774E+04  0.26846910774E+04  0.00000000000E+00 0. -1.
         23    2    1    2    0    0  0.75378287491E+02  0.12741899955E+03 -0.11974375103E+03  0.20370573909E+03  0.72387668536E+02 0.  0.
    9900016    2    1    2    0    0  0.19810764675E+02 -0.67074804292E+02 -0.13815038402E+04  0.15477646781E+04  0.69435663935E+03 0.  0.
         23    2    4    4    0    0  0.23739347144E+03  0.14179051847E+03 -0.10916121094E+04  0.11294296773E+04  0.86799695355E+02 0.  0.
        -15    1    3    3    0    0  0.65851784922E+02  0.49310816357E+02 -0.39287600945E+02  0.91167591693E+02  0.00000000000E+00 0.  1.
        -15    1    5    5    0    0  0.19385615767E+03  0.73887978881E+02 -0.83806895449E+03  0.86336505360E+03  0.00000000000E+00 0.  1.
         15    1    3    3    0    0  0.95265025700E+01  0.78108183197E+02 -0.80456150086E+02  0.11253814740E+03  0.00000000000E+00 0. -1.
         15    1    5    5    0    0  0.43537313767E+02  0.67902539589E+02 -0.25354315494E+03  0.26606462371E+03  0.00000000000E+00 0. -1.
        -16    1    4    4    0    0 -0.21758270677E+03 -0.20886532276E+03 -0.28989173072E+03  0.41833500078E+03  0.00000000000E+00 0.  1.
         16    1    1    2    0    0 -0.27355952490E+03 -0.17042950404E+02 -0.25600917130E+03  0.37505462484E+03  0.00000000000E+00 0. -1.
    9900018    1    1    2    0    0  0.17837047274E+03 -0.43301244858E+02 -0.72866238845E+03  0.75693796185E+03  0.91187600000E+02 0.  0.
<mgrwt>
<rscale>  0 0.75678200E+03</rscale>
<asrwt>0</asrwt>
<pdfrwt beam="1">  1        2 0.41302939E+00 0.12579002E+04</pdfrwt>
<pdfrwt beam="2">  1       -2 0.30580297E-01 0.12579002E+04</pdfrwt>
<totfact> 0.26549560E+01</totfact>
</mgrwt>
</event>
<event>
12    1  0.3427088E-012  0.1588230E+04  0.7818608E-02  0.9221698E-01
         -2   -1    0    0    0  501 -0.00000000000E+00  0.00000000000E+00  0.37236475236E+03  0.37236475236E+03  0.00000000000E+00 0.  1.
          2   -1    0    0  501    0  0.00000000000E+00 -0.00000000000E+00 -0.31823514421E+04  0.31823514421E+04  0.00000000000E+00 0. -1.
         23    2    1    2    0    0 -0.33418149879E+03  0.44192001438E+02 -0.13647308694E+04  0.14073363496E+04  0.66895798697E+02 0.  0.
    9900016    2    1    2    0    0  0.52939493718E+02 -0.32925465231E+03 -0.69403654798E+03  0.10444817073E+04  0.70572238944E+03 0.  0.
         23    2    4    4    0    0  0.53645351145E+02 -0.46188507834E+03 -0.76070376170E+03  0.89603695152E+03  0.89422346918E+02 0.  0.
        -15    1    3    3    0    0 -0.10017687939E+02 -0.10328379732E+02 -0.75487348817E+02  0.76846400898E+02  0.00000000000E+00 0.  1.
        -15    1    5    5    0    0  0.28061467640E+02 -0.46505643902E+02 -0.58923850442E+02  0.80138885890E+02  0.00000000000E+00 0.  1.
         15    1    5    5    0    0  0.25583883504E+02 -0.41537943444E+03 -0.70177991126E+03  0.81589806563E+03  0.00000000000E+00 0. -1.
         15    1    3    3    0    0 -0.32416381085E+03  0.54520381170E+02 -0.12892435206E+04  0.13304899487E+04  0.00000000000E+00 0. -1.
        -16    1    4    4    0    0 -0.70585742676E+00  0.13263042603E+03  0.66667213717E+02  0.14844475581E+03  0.00000000000E+00 0.  1.
         16    1    1    2    0    0  0.95892321503E+01  0.46330431742E+03 -0.50338410301E+03  0.68420640094E+03  0.00000000000E+00 0. -1.
    9900018    1    1    2    0    0  0.27165277292E+03 -0.17824166655E+03 -0.24783516935E+03  0.41869173659E+03  0.91187600000E+02 0.  0.
<mgrwt>
<rscale>  0 0.10832253E+04</rscale>
<asrwt>0</asrwt>
<pdfrwt beam="1">  1        2 0.48959251E+00 0.15882304E+04</pdfrwt>
<pdfrwt beam="2">  1       -2 0.57286887E-01 0.15882304E+04</pdfrwt>
<totfact> 0.36503315E+00</totfact>
</mgrwt>
</event>
<event>
12    1  0.3427088E-012  0.1926918E+04  0.7818608E-02  0.9294816E-01
          1   -1    0    0  501    0  0.00000000000E+00  0.00000000000E+00  0.16027176287E+04  0.16027176287E+04  0.00000000000E+00 0. -1.
         -1   -1    0    0    0  501 -0.00000000000E+00 -0.00000000000E+00 -0.81192740931E+03  0.81192740931E+03  0.00000000000E+00 0.  1.
         23    2    1    2    0    0 -0.77104901173E+02 -0.47171689728E+02 -0.19979343719E+03  0.24801916166E+03  0.11586955126E+03 0.  0.
    9900016    2    1    2    0    0 -0.21729382878E+03  0.47362724245E+02  0.89014294806E+03  0.11601061460E+04  0.70995208734E+03 0.  0.
         23    2    4    4    0    0 -0.41344018673E+03 -0.16433188570E+03  0.51850302394E+03  0.68957003175E+03  0.93400675493E+02 0.  0.
        -15    1    3    3    0    0  0.23233643545E+02 -0.37907272510E+02 -0.44548918566E+02  0.62939412508E+02  0.00000000000E+00 0. -1.
        -15    1    5    5    0    0 -0.14999655911E+03 -0.67979125434E+02  0.12708677878E+03  0.20801725548E+03  0.00000000000E+00 0. -1.
         15    1    5    5    0    0 -0.26344362762E+03 -0.96352760269E+02  0.39141624517E+03  0.48155277626E+03  0.00000000000E+00 0.  1.
         15    1    3    3    0    0 -0.10033854472E+03 -0.92644172184E+01 -0.15524451862E+03  0.18507974915E+03  0.00000000000E+00 0.  1.
        -16    1    1    2    0    0  0.23300308656E+03  0.28872251166E+03 -0.31637288547E+03  0.48758889420E+03  0.00000000000E+00 0.  1.
         16    1    4    4    0    0  0.19614635795E+03  0.21169460995E+03  0.37163992411E+03  0.47053611425E+03  0.00000000000E+00 0. -1.
    9900018    1    1    2    0    0  0.61395643393E+02 -0.28891354617E+03  0.41681359401E+03  0.51893083618E+03  0.91187600000E+02 0.  0.
<mgrwt>
<rscale>  0 0.10126148E+04</rscale>
<asrwt>0</asrwt>
<pdfrwt beam="1">  1        1 0.24657194E+00 0.19269177E+04</pdfrwt>
<pdfrwt beam="2">  1       -1 0.12491191E+00 0.19269177E+04</pdfrwt>
<totfact> 0.28804088E+00</totfact>
</mgrwt>
</event>
<event>
12    1  0.3427088E-012  0.2709435E+04  0.7818608E-02  0.9076277E-01
          1   -1    0    0  501    0  0.00000000000E+00  0.00000000000E+00  0.27377455746E+04  0.27377455746E+04  0.00000000000E+00 0. -1.
         -1   -1    0    0    0  501 -0.00000000000E+00 -0.00000000000E+00 -0.74007648832E+03  0.74007648832E+03  0.00000000000E+00 0.  1.
         23    2    1    2    0    0  0.19028513863E+02 -0.41465547407E+02  0.17588012929E+03  0.21286350589E+03  0.11088541968E+03 0.  0.
    9900016    2    1    2    0    0  0.68157664521E+02  0.53769005984E+02  0.19467641728E+04  0.20745001692E+04  0.71142366724E+03 0.  0.
         23    2    4    4    0    0  0.24446190723E+03  0.19485528288E+03  0.17336032504E+04  0.17639746431E+04  0.92174325627E+02 0.  0.
        -15    1    5    5    0    0  0.54089572373E+02  0.98913335866E+02  0.60451023161E+03  0.61493263856E+03  0.00000000000E+00 0.  1.
        -15    1    3    3    0    0 -0.23385129747E+02 -0.40659440634E+02  0.19439861831E+02  0.50773641133E+02  0.00000000000E+00 0.  1.
         15    1    3    3    0    0  0.42413643610E+02 -0.80610677368E+00  0.15644026746E+03  0.16208986475E+03  0.00000000000E+00 0. -1.
         15    1    5    5    0    0  0.19037233486E+03  0.95941947017E+02  0.11290930188E+04  0.11490420046E+04  0.00000000000E+00 0. -1.
        -16    1    1    2    0    0  0.11931378350E+03  0.32774406657E+03 -0.51757831691E+03  0.62413080860E+03  0.00000000000E+00 0.  1.
         16    1    4    4    0    0 -0.17630424271E+03 -0.14108627690E+03  0.21316092236E+03  0.31052552608E+03  0.00000000000E+00 0. -1.
    9900018    1    1    2    0    0 -0.20649996188E+03 -0.34004752514E+03  0.39260310113E+03  0.56632757926E+03  0.91187600000E+02 0.  0.
<mgrwt>
<rscale>  0 0.12427043E+04</rscale>
<asrwt>0</asrwt>
<pdfrwt beam="1">  1        1 0.42119162E+00 0.27094353E+04</pdfrwt>
<pdfrwt beam="2">  1       -1 0.11385792E+00 0.27094353E+04</pdfrwt>
<totfact> 0.56345049E-01</totfact>
</mgrwt>
</event>
<event>
12    1  0.3427088E-012  0.1927909E+04  0.7818608E-02  0.9282346E-01
         -2   -1    0    0    0  501 -0.00000000000E+00  0.00000000000E+00  0.24592527461E+04  0.24592527461E+04  0.00000000000E+00 0.  1.
          2   -1    0    0  501    0  0.00000000000E+00 -0.00000000000E+00 -0.47551011597E+03  0.47551011597E+03  0.00000000000E+00 0. -1.
         23    2    1    2    0    0 -0.87701988449E+02 -0.67726508786E+02 -0.19131195007E+02  0.15477431599E+03  0.10635115184E+03 0.  0.
    9900016    2    1    2    0    0 -0.30039943607E+03 -0.16394021779E+03  0.40371943285E+03  0.89270842421E+03  0.71890384197E+03 0.  0.
         23    2    4    4    0    0  0.88851200520E+02 -0.26482877703E+03 -0.37230690986E+02  0.29594082189E+03  0.90366081762E+02 0.  0.
        -15    1    3    3    0    0 -0.55958001019E+02 -0.52975658277E+02 -0.62375611987E+02  0.99138464880E+02  0.00000000000E+00 0. -1.
        -15    1    5    5    0    0  0.74574051126E+02 -0.11050677451E+03 -0.45160914816E+02  0.14075704082E+03  0.00000000000E+00 0. -1.
         15    1    3    3    0    0 -0.31743987430E+02 -0.14750850509E+02  0.43244416981E+02  0.55635851109E+02  0.00000000000E+00 0.  1.
         15    1    5    5    0    0  0.14277149393E+02 -0.15432200252E+03  0.79302238295E+01  0.15518378107E+03  0.00000000000E+00 0.  1.
        -16    1    1    2    0    0  0.46928021911E+03  0.27662070699E+03  0.16574820305E+04  0.17447033046E+04  0.00000000000E+00 0.  1.
         16    1    4    4    0    0 -0.38925063659E+03  0.10088855924E+03  0.44095012383E+03  0.59676760232E+03  0.00000000000E+00 0. -1.
    9900018    1    1    2    0    0 -0.81178794596E+02 -0.44953980418E+02 -0.58327638237E+02  0.14257681727E+03  0.91187600000E+02 0.  0.
<mgrwt>
<rscale>  0 0.10242448E+04</rscale>
<asrwt>0</asrwt>
<pdfrwt beam="1">  1        2 0.73155404E-01 0.19279089E+04</pdfrwt>
<pdfrwt beam="2">  1       -2 0.37834657E+00 0.19279089E+04</pdfrwt>
<totfact> 0.62456754E-01</totfact>
</mgrwt>
</event>
<event>
12    1  0.3427088E-012  0.1457559E+04  0.7818608E-02  0.9325583E-01
         -2   -1    0    0    0  501 -0.00000000000E+00  0.00000000000E+00  0.44269687126E+03  0.44269687126E+03  0.00000000000E+00 0.  1.
          2   -1    0    0  501    0  0.00000000000E+00 -0.00000000000E+00 -0.18694204505E+04  0.18694204505E+04  0.00000000000E+00 0. -1.
         23    2    1    2    0    0  0.25481635603E+03 -0.14883630027E+03 -0.50855959329E+02  0.30774960346E+03  0.70992043574E+02 0.  0.
    9900016    2    1    2    0    0 -0.16941481982E+03  0.16740469667E+03 -0.56762071306E+03  0.94413014097E+03  0.71586502608E+03 0.  0.
         23    2    4    4    0    0 -0.42943670501E+03 -0.91555245165E+00 -0.27748633398E+03  0.51972344338E+03  0.93258083861E+02 0.  0.
        -15    1    3    3    0    0  0.15795930948E+03 -0.74805088432E+02 -0.61725985259E+02  0.18535652662E+03  0.00000000000E+00 0. -1.
        -15    1    5    5    0    0 -0.18081232727E+03  0.28863779621E+02 -0.15987626624E+03  0.24307742794E+03  0.00000000000E+00 0.  1.
         15    1    3    3    0    0  0.96857046554E+02 -0.74031211841E+02  0.10870025930E+02  0.12239307684E+03  0.00000000000E+00 0.  1.
         15    1    5    5    0    0 -0.24862437773E+03 -0.29779332073E+02 -0.11761006774E+03  0.27664601543E+03  0.00000000000E+00 0. -1.
        -16    1    1    2    0    0 -0.36219444848E+03 -0.63244398272E+02 -0.58280683218E+03  0.68909250182E+03  0.00000000000E+00 0.  1.
         16    1    4    4    0    0  0.26002188519E+03  0.16832024912E+03 -0.29013437908E+03  0.42440669760E+03  0.00000000000E+00 0. -1.
    9900018    1    1    2    0    0  0.27679291227E+03  0.44676001873E+02 -0.22544007468E+03  0.37114507553E+03  0.91187600000E+02 0.  0.
<mgrwt>
<rscale>  0 0.98461377E+03</rscale>
<asrwt>0</asrwt>
<pdfrwt beam="1">  1        2 0.28760315E+00 0.14575590E+04</pdfrwt>
<pdfrwt beam="2">  1       -2 0.68107209E-01 0.14575590E+04</pdfrwt>
<totfact> 0.15017934E+01</totfact>
</mgrwt>
</event>
<event>
12    1  0.3427088E-012  0.2739667E+04  0.7818608E-02  0.8958670E-01
         -1   -1    0    0    0  501 -0.00000000000E+00  0.00000000000E+00  0.10008081438E+04  0.10008081438E+04  0.00000000000E+00 0.  1.
          1   -1    0    0  501    0  0.00000000000E+00 -0.00000000000E+00 -0.21349028677E+04  0.21349028677E+04  0.00000000000E+00 0. -1.
         23    2    1    2    0    0  0.38532570615E+02 -0.13672557708E+03 -0.57233628570E+02  0.19200490098E+03  0.11580825245E+03 0.  0.
    9900016    2    1    2    0    0 -0.62346876295E+02 -0.33686324928E+02  0.33858848961E+02  0.70981611523E+03  0.70545771973E+03 0.  0.
         23    2    4    4    0    0 -0.17008069849E+03  0.27219842131E+02  0.33301256842E+03  0.38607380181E+03  0.92126249855E+02 0.  0.
        -15    1    3    3    0    0  0.80081012897E+02 -0.87394814621E+02 -0.41771713722E+02  0.12568093856E+03  0.00000000000E+00 0.  1.
        -15    1    5    5    0    0 -0.86895583801E+02  0.60318066044E+02  0.17709654215E+03  0.20628208070E+03  0.00000000000E+00 0.  1.
         15    1    3    3    0    0 -0.41548442282E+02 -0.49330762459E+02 -0.15461914848E+02  0.66323962424E+02  0.00000000000E+00 0. -1.
         15    1    5    5    0    0 -0.83185114694E+02 -0.33098223913E+02  0.15591602627E+03  0.17979172112E+03  0.00000000000E+00 0. -1.
        -16    1    4    4    0    0  0.10773382220E+03 -0.60906167059E+02 -0.29915371946E+03  0.32374231342E+03  0.00000000000E+00 0.  1.
         16    1    1    2    0    0  0.75328883745E+03  0.59210394729E+03 -0.17961194881E+03  0.97482901535E+03  0.00000000000E+00 0. -1.
    9900018    1    1    2    0    0 -0.72947453177E+03 -0.42169204528E+03 -0.93110799545E+03  0.12590609799E+04  0.91187600000E+02 0.  0.
<mgrwt>
<rscale>  0 0.13933169E+04</rscale>
<asrwt>0</asrwt>
<pdfrwt beam="1">  1        1 0.32844659E+00 0.27396671E+04</pdfrwt>
<pdfrwt beam="2">  1       -1 0.15397049E+00 0.27396671E+04</pdfrwt>
<totfact> 0.67823683E-01</totfact>
</mgrwt>
</event>
<event>
12    1  0.3427088E-012  0.2196042E+04  0.7818608E-02  0.9071082E-01
          1   -1    0    0  501    0  0.00000000000E+00  0.00000000000E+00  0.32727480737E+04  0.32727480737E+04  0.00000000000E+00 0. -1.
         -1   -1    0    0    0  501 -0.00000000000E+00 -0.00000000000E+00 -0.47683466181E+03  0.47683466181E+03  0.00000000000E+00 0.  1.
         23    2    1    2    0    0  0.92795886471E+02  0.19575983011E+03  0.60668769083E+03  0.64872611693E+03  0.76437117616E+02 0.  0.
    9900016    2    1    2    0    0  0.63156389403E+02 -0.32479911792E+03  0.10732677438E+04  0.13294642121E+04  0.71139879455E+03 0.  0.
         23    2    4    4    0    0 -0.14342258246E+03 -0.43681749977E+03  0.39926883239E+03  0.61567326087E+03  0.90875730370E+02 0.  0.
        -15    1    3    3    0    0  0.71062449022E+02  0.17914654427E+03  0.44797295187E+03  0.48767112032E+03  0.00000000000E+00 0.  1.
        -15    1    5    5    0    0 -0.26349694656E+02 -0.20826680152E+02  0.12870673708E+02  0.35968197847E+02  0.00000000000E+00 0.  1.
         15    1    5    5    0    0 -0.11707288780E+03 -0.41599081961E+03  0.38639815868E+03  0.57970506302E+03  0.00000000000E+00 0. -1.
         15    1    3    3    0    0  0.21733437449E+02  0.16613285836E+02  0.15871473896E+03  0.16105499661E+03  0.00000000000E+00 0. -1.
        -16    1    1    2    0    0 -0.54038231202E+03  0.46351456010E+03  0.23522556645E+03  0.74979320995E+03  0.00000000000E+00 0.  1.
         16    1    4    4    0    0  0.20657897186E+03  0.11201838185E+03  0.67399891144E+03  0.71379095127E+03  0.00000000000E+00 0. -1.
    9900018    1    1    2    0    0  0.38443003615E+03 -0.33447527229E+03  0.88073241074E+03  0.10215991965E+04  0.91187600000E+02 0.  0.
<mgrwt>
<rscale>  0 0.12489203E+04</rscale>
<asrwt>0</asrwt>
<pdfrwt beam="1">  1        1 0.50349969E+00 0.21960425E+04</pdfrwt>
<pdfrwt beam="2">  1       -1 0.73359181E-01 0.21960425E+04</pdfrwt>
<totfact> 0.63647028E-01</totfact>
</mgrwt>
</event>
<event>
11    1  0.3427088E-012  0.1382515E+04  0.7818608E-02  0.9521824E-01
          1   -1    0    0  501    0  0.00000000000E+00  0.00000000000E+00  0.73224345319E+03  0.73224345319E+03  0.00000000000E+00 0. -1.
         -1   -1    0    0    0  501 -0.00000000000E+00 -0.00000000000E+00 -0.90841639967E+03  0.90841639967E+03  0.00000000000E+00 0.  1.
    9900016    2    1    2    0    0 -0.17910791299E+03  0.31143475665E+03  0.77988640209E+02  0.79765253643E+03  0.70788140866E+03 0.  0.
         23    2    3    3    0    0 -0.15695843897E+03  0.18794065414E+03  0.38541586609E+03  0.46560902758E+03  0.91042493832E+02 0.  0.
        -15    1    1    2    0    0 -0.12532587130E+03 -0.63805609761E+02  0.82068647874E+02  0.16282810819E+03  0.00000000000E+00 0. -1.
        -15    1    4    4    0    0 -0.45810906236E+02  0.92419488450E+01  0.10568759164E+03  0.11555916137E+03  0.00000000000E+00 0.  1.
         15    1    1    2    0    0  0.18852663468E+02  0.19303779070E+02  0.54116326221E+02  0.60470121298E+02  0.00000000000E+00 0.  1.
         15    1    4    4    0    0 -0.11114753273E+03  0.17869870530E+03  0.27972827445E+03  0.35004986621E+03  0.00000000000E+00 0. -1.
        -16    1    1    2    0    0  0.16967105407E+03 -0.17318116933E+02 -0.23623407731E+03  0.29136699031E+03  0.00000000000E+00 0.  1.
         16    1    3    3    0    0 -0.22149474024E+02  0.12349410251E+03 -0.30742722589E+03  0.33204350885E+03  0.00000000000E+00 0. -1.
    9900018    1    1    2    0    0  0.11591006675E+03 -0.24961480903E+03 -0.15411248348E+03  0.32834209663E+03  0.91187600000E+02 0.  0.
<mgrwt>
<rscale>  0 0.82693741E+03</rscale>
<asrwt>0</asrwt>
<pdfrwt beam="1">  1        1 0.11265284E+00 0.13825146E+04</pdfrwt>
<pdfrwt beam="2">  1       -1 0.13975637E+00 0.13825146E+04</pdfrwt>
<totfact> 0.10406541E+01</totfact>
</mgrwt>
</event>
<event>
12    1  0.3427088E-012  0.1582874E+04  0.7818608E-02  0.9300477E-01
          2   -1    0    0  501    0  0.00000000000E+00  0.00000000000E+00  0.55501947656E+03  0.55501947656E+03  0.00000000000E+00 0. -1.
         -2   -1    0    0    0  501 -0.00000000000E+00 -0.00000000000E+00 -0.18188844214E+04  0.18188844214E+04  0.00000000000E+00 0.  1.
         23    2    1    2    0    0  0.22671594888E+03 -0.10237595108E+03 -0.60687064021E+03  0.66009810690E+03  0.74542470712E+02 0.  0.
    9900016    2    1    2    0    0 -0.51959681340E+02 -0.11735615208E+03 -0.12745169753E+03  0.74185525389E+03  0.71946716924E+03 0.  0.
         23    2    4    4    0    0  0.42889864362E+02  0.17262967883E+03  0.20949601196E+03  0.28729835164E+03  0.83733012319E+02 0.  0.
        -15    1    5    5    0    0  0.55382190512E+02  0.13807467996E+03  0.20015303508E+03  0.24938532780E+03  0.00000000000E+00 0. -1.
        -15    1    3    3    0    0  0.81810875236E+02 -0.16133367526E+02 -0.13155050474E+03  0.15575249646E+03  0.00000000000E+00 0. -1.
         15    1    3    3    0    0  0.14490507364E+03 -0.86242583556E+02 -0.47532013547E+03  0.50434561044E+03  0.00000000000E+00 0.  1.
         15    1    5    5    0    0 -0.12492326150E+02  0.34554998874E+02  0.93429768787E+01  0.37913023841E+02  0.00000000000E+00 0.  1.
        -16    1    4    4    0    0 -0.94849545702E+02 -0.28998583091E+03 -0.33694770949E+03  0.45455690225E+03  0.00000000000E+00 0.  1.
         16    1    1    2    0    0 -0.34810828079E+03  0.34599521961E+03 -0.55103011939E+03  0.73792022579E+03  0.00000000000E+00 0. -1.
    9900018    1    1    2    0    0  0.17335201325E+03 -0.12626311645E+03  0.21487512288E+02  0.23403031140E+03  0.91187600000E+02 0.  0.
<mgrwt>
<rscale>  0 0.10073894E+04</rscale>
<asrwt>0</asrwt>
<pdfrwt beam="1">  1        2 0.85387611E-01 0.15828736E+04</pdfrwt>
<pdfrwt beam="2">  1       -2 0.27982838E+00 0.15828736E+04</pdfrwt>
<totfact> 0.21918228E+00</totfact>
</mgrwt>
</event>
<event>
11    1  0.4369719E-012  0.2358851E+04  0.7818608E-02  0.9035353E-01
         -2   -1    0    0    0  501 -0.00000000000E+00  0.00000000000E+00  0.57464429845E+03  0.57464429845E+03  0.00000000000E+00 0.  1.
          2   -1    0    0  501    0  0.00000000000E+00 -0.00000000000E+00 -0.29052217722E+04  0.29052217722E+04  0.00000000000E+00 0. -1.
    9900016    2    1    2    0    0 -0.84254177932E+02 -0.64964944663E+02 -0.35246920848E+03  0.85013887257E+03  0.76627824528E+03 0.  0.
         23    2    3    3    0    0  0.28487317170E+03  0.16036130739E+03 -0.12626081723E+03  0.36208441210E+03  0.91076092683E+02 0.  0.
        -15    1    1    2    0    0  0.18224055670E+03 -0.12760132233E+02 -0.24289595617E+03  0.30392908220E+03  0.00000000000E+00 0.  1.
        -15    1    4    4    0    0  0.12468238873E+03  0.19896491364E+02 -0.44148862963E+02  0.13375608595E+03  0.00000000000E+00 0. -1.
         15    1    1    2    0    0 -0.24318817603E+02 -0.15793372656E+02 -0.54679508995E+02  0.61892521466E+02  0.00000000000E+00 0. -1.
         15    1    4    4    0    0  0.16019078296E+03  0.14046481602E+03 -0.82111954270E+02  0.22832832615E+03  0.00000000000E+00 0.  1.
        -16    1    3    3    0    0 -0.36912734963E+03 -0.22532625205E+03 -0.22620839125E+03  0.48805446047E+03  0.00000000000E+00 0.  1.
         16    1    1    2    0    0 -0.13605208691E+03  0.70346485377E+03 -0.14219375025E+04  0.15922560195E+04  0.00000000000E+00 0. -1.
    9900018    1    1    2    0    0  0.62384525737E+02 -0.60994640422E+03 -0.25859529762E+03  0.67164957487E+03  0.91187600000E+02 0.  0.
<mgrwt>
<rscale>  0 0.12927269E+04</rscale>
<asrwt>0</asrwt>
<pdfrwt beam="1">  1        2 0.44695718E+00 0.23588505E+04</pdfrwt>
<pdfrwt beam="2">  1       -2 0.88406817E-01 0.23588505E+04</pdfrwt>
<totfact> 0.19704798E+00</totfact>
</mgrwt>
</event>
<event>
12    1  0.3427088E-012  0.1459127E+04  0.7818608E-02  0.9599629E-01
         -1   -1    0    0    0  501 -0.00000000000E+00  0.00000000000E+00  0.48379124539E+03  0.48379124539E+03  0.00000000000E+00 0.  1.
          1   -1    0    0  501    0  0.00000000000E+00 -0.00000000000E+00 -0.12905149396E+04  0.12905149396E+04  0.00000000000E+00 0. -1.
         23    2    1    2    0    0 -0.45459088251E+02 -0.71468037991E+02 -0.10265471939E+03  0.15419323506E+03  0.77867536036E+02 0.  0.
    9900016    2    1    2    0    0 -0.31865194350E+02  0.22704019958E+03 -0.61063238751E+03  0.96459630612E+03  0.71064159622E+03 0.  0.
         23    2    4    4    0    0 -0.44358373218E+02  0.47342914747E+03 -0.30506861870E+03  0.57187145337E+03  0.88697655689E+02 0.  0.
        -15    1    5    5    0    0  0.45599494719E+01  0.19715367727E+02 -0.38187522646E+02  0.43217771225E+02  0.00000000000E+00 0.  1.
        -15    1    3    3    0    0 -0.44661396382E+02 -0.19799860696E+01 -0.31181392877E+02  0.54505411964E+02  0.00000000000E+00 0.  1.
         15    1    5    5    0    0 -0.48918322689E+02  0.45371377974E+03 -0.26688109605E+03  0.52865368215E+03  0.00000000000E+00 0. -1.
         15    1    3    3    0    0 -0.79769186902E+00 -0.69488051922E+02 -0.71473326510E+02  0.99687823100E+02  0.00000000000E+00 0. -1.
        -16    1    1    2    0    0  0.86117422439E+02  0.22714996279E+03 -0.98019387718E+02  0.26195632539E+03  0.00000000000E+00 0.  1.
         16    1    4    4    0    0  0.12493178868E+02 -0.24638894788E+03 -0.30556376881E+03  0.39272485275E+03  0.00000000000E+00 0. -1.
    9900018    1    1    2    0    0 -0.87931398385E+01 -0.38272212438E+03  0.45828003875E+01  0.39356031844E+03  0.91187600000E+02 0.  0.
<mgrwt>
<rscale>  0 0.77320725E+03</rscale>
<asrwt>0</asrwt>
<pdfrwt beam="1">  1        1 0.19854076E+00 0.14591274E+04</pdfrwt>
<pdfrwt beam="2">  1       -1 0.74429423E-01 0.14591274E+04</pdfrwt>
<totfact> 0.16165475E+01</totfact>
</mgrwt>
</event>
<event>
12    1  0.3427088E-012  0.3059747E+04  0.7818608E-02  0.8992446E-01
         -2   -1    0    0    0  501 -0.00000000000E+00  0.00000000000E+00  0.18702737461E+04  0.18702737461E+04  0.00000000000E+00 0.  1.
          2   -1    0    0  501    0  0.00000000000E+00 -0.00000000000E+00 -0.14642733926E+04  0.14642733926E+04  0.00000000000E+00 0. -1.
         23    2    1    2    0    0 -0.24869175707E+02 -0.25496911195E+01 -0.18528850841E+03  0.21819141927E+03  0.11247527402E+03 0.  0.
    9900016    2    1    2    0    0 -0.60130318948E+03  0.22437465703E+03 -0.11299069015E+02  0.96355985176E+03  0.71861700966E+03 0.  0.
         23    2    4    4    0    0 -0.84170068591E+02  0.33760681837E+03 -0.18793066011E+03  0.40548556812E+03  0.89652934660E+02 0.  0.
        -15    1    3    3    0    0 -0.40757078687E+02  0.43062368121E+02 -0.62039206222E+02  0.85815908315E+02  0.00000000000E+00 0. -1.
        -15    1    5    5    0    0 -0.82014431144E+02  0.27658037141E+03 -0.18815555635E+03  0.34442064710E+03  0.00000000000E+00 0.  1.
         15    1    5    5    0    0 -0.21556374470E+01  0.61026446963E+02  0.22489623921E+00  0.61064921027E+02  0.00000000000E+00 0. -1.
         15    1    3    3    0    0  0.15887902980E+02 -0.45612059241E+02 -0.12324930219E+03  0.13237551095E+03  0.00000000000E+00 0.  1.
        -16    1    4    4    0    0 -0.51713312089E+03 -0.11323216134E+03  0.17663159109E+03  0.55807428364E+03  0.00000000000E+00 0.  1.
         16    1    1    2    0    0  0.12611598621E+04 -0.30967033792E+03  0.46769847104E+02  0.12994642491E+04  0.00000000000E+00 0. -1.
    9900018    1    1    2    0    0 -0.63498749694E+03  0.87845372006E+02  0.55581808377E+03  0.85333161860E+03  0.91187600000E+02 0.  0.
<mgrwt>
<rscale>  0 0.13478642E+04</rscale>
<asrwt>0</asrwt>
<pdfrwt beam="1">  1        2 0.22527283E+00 0.30597468E+04</pdfrwt>
<pdfrwt beam="2">  1       -2 0.28773442E+00 0.30597468E+04</pdfrwt>
<totfact> 0.42416223E-01</totfact>
</mgrwt>
</event>
<event>
12    1  0.3427088E-012  0.2100006E+04  0.7818608E-02  0.8561241E-01
          2   -1    0    0  501    0  0.00000000000E+00  0.00000000000E+00  0.42144418400E+04  0.42144418400E+04  0.00000000000E+00 0.  1.
         -2   -1    0    0    0  501 -0.00000000000E+00 -0.00000000000E+00 -0.26160190485E+03  0.26160190485E+03  0.00000000000E+00 0. -1.
         23    2    1    2    0    0  0.28917906174E+03  0.61478540428E+02  0.14663475606E+04  0.14977196083E+04  0.74730957039E+02 0.  0.
    9900016    2    1    2    0    0 -0.29663269117E+03 -0.47655795259E+03  0.83435552198E+03  0.12242865265E+04  0.69830503807E+03 0.  0.
         23    2    4    4    0    0 -0.10540048055E+03 -0.54934724712E+03  0.84764674842E+03  0.10192384919E+04  0.86315897030E+02 0.  0.
        -15    1    3    3    0    0  0.65477376603E+01 -0.90497667164E+01  0.27516472536E+02  0.29697262617E+02  0.00000000000E+00 0.  1.
        -15    1    5    5    0    0 -0.13773803815E+02 -0.91745312271E+02  0.20500329889E+03  0.22501838270E+03  0.00000000000E+00 0.  1.
         15    1    3    3    0    0  0.28263132408E+03  0.70528307144E+02  0.14388310880E+04  0.14680223456E+04  0.00000000000E+00 0. -1.
         15    1    5    5    0    0 -0.91626676738E+02 -0.45760193485E+03  0.64264344952E+03  0.79422010921E+03  0.00000000000E+00 0. -1.
        -16    1    1    2    0    0 -0.44768247451E+02  0.13046278498E+03  0.94666451302E+02  0.16729157554E+03  0.00000000000E+00 0.  1.
         16    1    4    4    0    0 -0.19123221062E+03  0.72789294532E+02 -0.13291226436E+02  0.20504803456E+03  0.00000000000E+00 0. -1.
    9900018    1    1    2    0    0  0.52221876884E+02  0.28461662717E+03  0.15574704013E+04  0.15867460345E+04  0.91187600000E+02 0.  0.
<mgrwt>
<rscale>  0 0.21000057E+04</rscale>
<asrwt>0</asrwt>
<pdfrwt beam="1">  1        2 0.64837562E+00 0.21000057E+04</pdfrwt>
<pdfrwt beam="2">  1       -2 0.40246450E-01 0.21000057E+04</pdfrwt>
<totfact> 0.12298215E+00</totfact>
</mgrwt>
</event>
<event>
12    1  0.3427088E-012  0.1037770E+04  0.7818608E-02  0.9826234E-01
          1   -1    0    0  501    0  0.00000000000E+00  0.00000000000E+00  0.88265509063E+03  0.88265509063E+03  0.00000000000E+00 0. -1.
         -1   -1    0    0    0  501 -0.00000000000E+00 -0.00000000000E+00 -0.45584531014E+03  0.45584531014E+03  0.00000000000E+00 0.  1.
         23    2    1    2    0    0 -0.13378725261E+03  0.18702920916E+02 -0.94481168918E+02  0.17716040010E+03  0.64886731094E+02 0.  0.
    9900016    2    1    2    0    0  0.16340527247E+03  0.12200613354E+03  0.42888962807E+03  0.85487145132E+03  0.71082494717E+03 0.  0.
         23    2    4    4    0    0  0.16501646337E+03 -0.20436171846E+03  0.44868399825E+03  0.52789991151E+03  0.91470438551E+02 0.  0.
        -15    1    3    3    0    0 -0.58938582839E+02  0.20468862263E+00 -0.78929149659E+02  0.98506898796E+02  0.00000000000E+00 0. -1.
        -15    1    5    5    0    0  0.10431330687E+03 -0.18145544645E+03  0.37707985478E+03  0.43127318711E+03  0.00000000000E+00 0. -1.
         15    1    3    3    0    0 -0.74848669771E+02  0.18498232294E+02 -0.15552019259E+02  0.78653501305E+02  0.00000000000E+00 0.  1.
         15    1    5    5    0    0  0.60703156494E+02 -0.22906272006E+02  0.71604143468E+02  0.96626724395E+02  0.00000000000E+00 0.  1.
        -16    1    4    4    0    0 -0.16111908922E+01  0.32636785200E+03 -0.19794370186E+02  0.32697153981E+03  0.00000000000E+00 0.  1.
         16    1    1    2    0    0  0.41830276945E+02 -0.14786309248E+03  0.11013210052E+03  0.18905646181E+03  0.00000000000E+00 0. -1.
    9900018    1    1    2    0    0 -0.71448296810E+02  0.71540380261E+01 -0.17730779179E+02  0.11741208754E+03  0.91187600000E+02 0.  0.
<mgrwt>
<rscale>  0 0.63973466E+03</rscale>
<asrwt>0</asrwt>
<pdfrwt beam="1">  1        1 0.13579309E+00 0.10377699E+04</pdfrwt>
<pdfrwt beam="2">  1       -1 0.70130048E-01 0.10377699E+04</pdfrwt>
<totfact> 0.38651280E+01</totfact>
</mgrwt>
</event>
<event>
12    1  0.3427088E-012  0.1824390E+04  0.7818608E-02  0.9474792E-01
         -1   -1    0    0    0  501 -0.00000000000E+00  0.00000000000E+00  0.25735498063E+03  0.25735498063E+03  0.00000000000E+00 0. -1.
          1   -1    0    0  501    0  0.00000000000E+00 -0.00000000000E+00 -0.48109234499E+04  0.48109234499E+04  0.00000000000E+00 0.  1.
         23    2    1    2    0    0 -0.44424216817E+02  0.23308024423E+02  0.58825003208E+02  0.10818028997E+03  0.75669142282E+02 0.  0.
    9900016    2    1    2    0    0  0.32974748303E+03 -0.15816865917E+03 -0.11666506556E+04  0.14105644543E+04  0.70346826539E+03 0.  0.
         23    2    4    4    0    0  0.27052820585E+02  0.76799087603E+02  0.52264717393E+02  0.13283655407E+03  0.91016451565E+02 0.  0.
        -15    1    5    5    0    0  0.39244778741E+02  0.93458763183E+02  0.45543787566E+02  0.11112573806E+03  0.00000000000E+00 0.  1.
        -15    1    3    3    0    0  0.19633716095E+01  0.40913938386E+02  0.30287451798E+02  0.50942466752E+02  0.00000000000E+00 0.  1.
         15    1    3    3    0    0 -0.46387588427E+02 -0.17605913963E+02  0.28537551410E+02  0.57237823220E+02  0.00000000000E+00 0. -1.
         15    1    5    5    0    0 -0.12191958156E+02 -0.16659675580E+02  0.67209298270E+01  0.21710816010E+02  0.00000000000E+00 0. -1.
        -16    1    1    2    0    0 -0.39368521643E+03  0.18721728945E+03 -0.33322497664E+04  0.33606438176E+04  0.00000000000E+00 0.  1.
         16    1    4    4    0    0  0.30269466244E+03 -0.23496774677E+03 -0.12189153729E+04  0.12777279003E+04  0.00000000000E+00 0. -1.
    9900018    1    1    2    0    0  0.10836195022E+03 -0.52356654708E+02 -0.11349305046E+03  0.18888986856E+03  0.91187600000E+02 0.  0.
<mgrwt>
<rscale>  0 0.86168059E+03</rscale>
<asrwt>0</asrwt>
<pdfrwt beam="1">  1        1 0.74014206E+00 0.18243903E+04</pdfrwt>
<pdfrwt beam="2">  1       -1 0.39593074E-01 0.18243903E+04</pdfrwt>
<totfact> 0.87598205E-02</totfact>
</mgrwt>
</event>
<event>
12    1  0.3427088E-012  0.2048547E+04  0.7818608E-02  0.9184933E-01
         -2   -1    0    0    0  501 -0.00000000000E+00  0.00000000000E+00  0.42765599980E+03  0.42765599980E+03  0.00000000000E+00 0.  1.
          2   -1    0    0  501    0  0.00000000000E+00 -0.00000000000E+00 -0.29454064549E+04  0.29454064549E+04  0.00000000000E+00 0. -1.
         23    2    1    2    0    0 -0.15039898011E+03 -0.11960099495E+02 -0.12026125821E+03  0.21957275197E+03  0.10481663029E+03 0.  0.
    9900016    2    1    2    0    0 -0.24654637025E+01  0.51727581046E+03 -0.16300055950E+04  0.18719315656E+04  0.76133383231E+03 0.  0.
         23    2    4    4    0    0 -0.18824630703E+03  0.27907220923E+03 -0.18196463338E+03  0.39271619801E+03  0.88300137631E+02 0.  0.
        -15    1    3    3    0    0 -0.50349547346E+02 -0.55042348526E+02 -0.44104706939E+02  0.86660038214E+02  0.00000000000E+00 0.  1.
        -15    1    5    5    0    0 -0.14089082591E+02  0.90208568453E+01  0.89186526359E+01  0.18958387888E+02  0.00000000000E+00 0. -1.
         15    1    5    5    0    0 -0.17415722444E+03  0.27005135239E+03 -0.19088328601E+03  0.37375781012E+03  0.00000000000E+00 0.  1.
         15    1    3    3    0    0 -0.10004943276E+03  0.43082249031E+02 -0.76156551267E+02  0.13291271376E+03  0.00000000000E+00 0. -1.
        -16    1    1    2    0    0  0.11689953484E+03 -0.66885215547E+03 -0.23915347267E+03  0.71987713578E+03  0.00000000000E+00 0.  1.
         16    1    4    4    0    0  0.18578084332E+03  0.23820360122E+03 -0.14480409616E+04  0.14792153676E+04  0.00000000000E+00 0. -1.
    9900018    1    1    2    0    0  0.35964908969E+02  0.16353644451E+03 -0.52833012928E+03  0.56168100134E+03  0.91187600000E+02 0.  0.
<mgrwt>
<rscale>  0 0.11210311E+04</rscale>
<asrwt>0</asrwt>
<pdfrwt beam="1">  1        2 0.45313944E+00 0.20485465E+04</pdfrwt>
<pdfrwt beam="2">  1       -2 0.65793232E-01 0.20485465E+04</pdfrwt>
<totfact> 0.36972741E+00</totfact>
</mgrwt>
</event>
