<event>
11    1  0.7409192E-013  0.2827477E+04  0.7818608E-02  0.8294788E-01
         -2   -1    0    0    0  501 -0.00000000000E+00  0.00000000000E+00  0.21286418753E+04  0.21286418753E+04  0.00000000000E+00 0.  1.
          2   -1    0    0  501    0  0.00000000000E+00 -0.00000000000E+00 -0.93893496813E+03  0.93893496813E+03  0.00000000000E+00 0. -1.
    9900016    2    1    2    0    0 -0.70165164114E+02  0.46465290563E+02  0.13971043448E+04  0.25573468717E+04  0.21403364918E+04 0.  0.
        -24    2    3    3    0    0  0.32931462394E+03  0.65109912237E+03  0.74662556612E+03  0.10459133707E+04  0.64084743286E+02 0.  0.
        -15    1    3    3    0    0  0.25189258128E+03 -0.10669888766E+02  0.18765326809E+03  0.31428882903E+03  0.00000000000E+00 0.  1.
        -15    1    3    3    0    0 -0.51523764682E+03 -0.25427071158E+03  0.57651355327E+03  0.81393568823E+03  0.00000000000E+00 0.  1.
         15    1    4    4    0    0  0.18944980937E+03  0.30467841650E+03  0.35777536183E+03  0.50667877130E+03  0.00000000000E+00 0. -1.
         15    1    3    3    0    0 -0.13613472250E+03 -0.33969323146E+03 -0.11368804264E+03  0.38320898373E+03  0.00000000000E+00 0. -1.
        -16    1    4    4    0    0  0.13986481457E+03  0.34642070587E+03  0.38885020429E+03  0.53923459940E+03  0.00000000000E+00 0.  1.
         16    1    1    2    0    0  0.55328005511E+02  0.17240530798E+02 -0.33518684760E+03  0.34015973733E+03  0.00000000000E+00 0. -1.
    9900018    1    1    2    0    0  0.14837158602E+02 -0.63705821361E+02  0.12778940996E+03  0.17007023444E+03  0.91187600000E+02 0.  0.
<mgrwt>
<rscale>  0 0.28274768E+04</rscale>
<asrwt>0</asrwt>
<pdfrwt beam="1">  1        2 0.14445153E+00 0.28274768E+04</pdfrwt>
<pdfrwt beam="2">  1       -2 0.32748336E+00 0.28274768E+04</pdfrwt>
<totfact> 0.51585895E-01</totfact>
</mgrwt>
</event>
<event>
10    1  0.7409192E-013  0.2836339E+04  0.7818608E-02  0.8292074E-01
          2   -1    0    0  501    0  0.00000000000E+00  0.00000000000E+00  0.19675140275E+04  0.19675140275E+04  0.00000000000E+00 0. -1.
         -2   -1    0    0    0  501 -0.00000000000E+00 -0.00000000000E+00 -0.10222063248E+04  0.10222063248E+04  0.00000000000E+00 0.  1.
    9900016    2    1    2    0    0 -0.22199039371E+02  0.13906881078E+03  0.22151685176E+03  0.22523560411E+04  0.22370080664E+04 0.  0.
        -15    1    3    3    0    0  0.27073976641E+02 -0.25303384657E+03  0.31181597888E+03  0.40247774150E+03  0.00000000000E+00 0.  1.
        -15    1    3    3    0    0 -0.37272189586E+03 -0.65841294558E+02  0.59963220988E+03  0.70909482783E+03  0.00000000000E+00 0.  1.
         15    1    3    3    0    0  0.42091738602E+02 -0.11399408809E+03 -0.40004302289E+02  0.12793244616E+03  0.00000000000E+00 0. -1.
         15    1    3    3    0    0  0.18649301086E+03  0.33500896266E+03 -0.36854264079E+03  0.53182170531E+03  0.00000000000E+00 0. -1.
        -16    1    3    3    0    0  0.10312652042E+03  0.25473351605E+03 -0.27301627980E+03  0.38737853896E+03  0.00000000000E+00 0.  1.
         16    1    1    2    0    0  0.22199039371E+02 -0.13906881078E+03  0.72379085090E+03  0.73736431113E+03  0.00000000000E+00 0. -1.
    9900018    1    3    3    0    0 -0.82623900264E+01 -0.17804438713E+02 -0.83681141216E+01  0.93650781388E+02  0.91187600000E+02 0.  0.
<mgrwt>
<rscale>  0 0.28363394E+04</rscale>
<asrwt>0</asrwt>
<pdfrwt beam="1">  1        2 0.30269447E+00 0.28363394E+04</pdfrwt>
<pdfrwt beam="2">  1       -2 0.15726251E+00 0.28363394E+04</pdfrwt>
<totfact> 0.15953421E+00</totfact>
</mgrwt>
</event>
<event>
11    1  0.7409192E-013  0.2658705E+04  0.7818608E-02  0.8348529E-01
          2   -1    0    0  501    0  0.00000000000E+00  0.00000000000E+00  0.12738707036E+04  0.12738707036E+04  0.00000000000E+00 0. -1.
         -2   -1    0    0    0  501 -0.00000000000E+00 -0.00000000000E+00 -0.13872506967E+04  0.13872506967E+04  0.00000000000E+00 0.  1.
    9900016    2    1    2    0    0 -0.31795247435E+03  0.82460388791E+01 -0.15057027230E+03  0.21742664346E+04  0.21456004634E+04 0.  0.
        -24    2    3    3    0    0 -0.18368946064E+03  0.41383314237E+03  0.67774250287E+02  0.46195053189E+03  0.61686767120E+02 0.  0.
        -15    1    3    3    0    0  0.34343246397E+03  0.40522886331E+03  0.29433536620E+03  0.60728049266E+03  0.00000000000E+00 0.  1.
        -15    1    3    3    0    0 -0.39190016855E+03 -0.43291170963E+03 -0.24079067723E+03  0.63164740218E+03  0.00000000000E+00 0.  1.
         15    1    3    3    0    0 -0.85795309137E+02 -0.37790425717E+03 -0.27188921155E+03  0.47338800789E+03  0.00000000000E+00 0. -1.
         15    1    4    4    0    0 -0.15381170208E+03  0.34288640640E+03  0.32303929395E+02  0.37719049729E+03  0.00000000000E+00 0. -1.
        -16    1    4    4    0    0 -0.29877758552E+02  0.70946735967E+02  0.35470320892E+02  0.84760034595E+02  0.00000000000E+00 0.  1.
         16    1    1    2    0    0  0.36805981150E+03 -0.11466469179E+02 -0.18680055290E+02  0.36871187833E+03  0.00000000000E+00 0. -1.
    9900018    1    1    2    0    0 -0.50107337147E+02  0.32204303002E+01  0.55870334567E+02  0.11814308734E+03  0.91187600000E+02 0.  0.
<mgrwt>
<rscale>  0 0.26587050E+04</rscale>
<asrwt>0</asrwt>
<pdfrwt beam="1">  1        2 0.19598011E+00 0.26587050E+04</pdfrwt>
<pdfrwt beam="2">  1       -2 0.21342318E+00 0.26587050E+04</pdfrwt>
<totfact> 0.16408725E+00</totfact>
</mgrwt>
</event>
<event>
11    1  0.7409192E-013  0.3276156E+04  0.7818608E-02  0.8168989E-01
         -3   -1    0    0    0  501 -0.00000000000E+00  0.00000000000E+00  0.12938156830E+04  0.12938156830E+04  0.00000000000E+00 0.  1.
          3   -1    0    0  501    0  0.00000000000E+00 -0.00000000000E+00 -0.20739427431E+04  0.20739427431E+04  0.00000000000E+00 0. -1.
    9900016    2    1    2    0    0 -0.84893807429E+03 -0.12382849523E+03 -0.63379671796E+03  0.24974470339E+04  0.22582103661E+04 0.  0.
         24    2    3    3    0    0 -0.17048014481E+03 -0.21928158112E+03 -0.98395311821E+03  0.10271871958E+04  0.99004569755E+02 0.  0.
        -15    1    3    3    0    0  0.22821363512E+02  0.18947796094E+03 -0.71719483405E+02  0.20387838683E+03  0.00000000000E+00 0.  1.
        -15    1    4    4    0    0 -0.14768396103E+03 -0.12184013417E+03 -0.56938946777E+03  0.60071618644E+03  0.00000000000E+00 0.  1.
         15    1    3    3    0    0 -0.38915641078E+03 -0.31830383608E+03 -0.41338522601E+02  0.50444912287E+03  0.00000000000E+00 0. -1.
         15    1    3    3    0    0 -0.20496590339E+03  0.19596122396E+03  0.53193786125E+03  0.60280155199E+03  0.00000000000E+00 0. -1.
        -16    1    1    2    0    0  0.84893807429E+03  0.12382849523E+03 -0.14633034213E+03  0.87031139211E+03  0.00000000000E+00 0.  1.
         16    1    4    4    0    0 -0.22796183774E+02 -0.97441446952E+02 -0.41456365044E+03  0.42647100938E+03  0.00000000000E+00 0. -1.
    9900018    1    3    3    0    0 -0.10715697882E+03  0.28317737071E+02 -0.68723454999E+02  0.15913077642E+03  0.91187600000E+02 0.  0.
<mgrwt>
<rscale>  0 0.32761561E+04</rscale>
<asrwt>0</asrwt>
<pdfrwt beam="1">  1        3 0.31906811E+00 0.32761561E+04</pdfrwt>
<pdfrwt beam="2">  1       -3 0.19904857E+00 0.32761561E+04</pdfrwt>
<totfact> 0.97739366E-03</totfact>
</mgrwt>
</event>
<event>
11    1  0.7409192E-013  0.2773523E+04  0.7818608E-02  0.8311536E-01
         -1   -1    0    0    0  501 -0.00000000000E+00  0.00000000000E+00  0.17113010941E+04  0.17113010941E+04  0.00000000000E+00 0.  1.
          1   -1    0    0  501    0  0.00000000000E+00 -0.00000000000E+00 -0.11237691850E+04  0.11237691850E+04  0.00000000000E+00 0. -1.
    9900016    2    1    2    0    0  0.14606209511E+03  0.38918552166E+03  0.43583907557E+03  0.22391871839E+04  0.21566650271E+04 0.  0.
         24    2    3    3    0    0  0.20586097925E+03  0.75245139678E+01  0.50487342938E+03  0.55341967720E+03  0.94555794841E+02 0.  0.
        -15    1    3    3    0    0  0.62057669098E+03 -0.77468377585E+02  0.16883043047E+03  0.64778120779E+03  0.00000000000E+00 0.  1.
        -15    1    4    4    0    0  0.24500553139E+02 -0.15673281347E+02  0.16445775202E+03  0.16700982322E+03  0.00000000000E+00 0.  1.
         15    1    3    3    0    0 -0.73498858480E+03  0.46362675157E+03 -0.33101935262E+03  0.92990956354E+03  0.00000000000E+00 0. -1.
         15    1    3    3    0    0  0.54613009681E+02 -0.44973662946E+01  0.93154568344E+02  0.10807673539E+03  0.00000000000E+00 0. -1.
        -16    1    1    2    0    0 -0.12956954868E+03 -0.44708074011E+03  0.10567597193E+03  0.47732260282E+03  0.00000000000E+00 0.  1.
         16    1    4    4    0    0  0.18136042611E+03  0.23197795315E+02  0.34041567736E+03  0.38640985398E+03  0.00000000000E+00 0. -1.
    9900018    1    1    2    0    0 -0.16492546428E+02  0.57895218446E+02  0.46016861563E+02  0.11856049236E+03  0.91187600000E+02 0.  0.
<mgrwt>
<rscale>  0 0.27735230E+04</rscale>
<asrwt>0</asrwt>
<pdfrwt beam="1">  1        1 0.17288757E+00 0.27735230E+04</pdfrwt>
<pdfrwt beam="2">  1       -1 0.26327709E+00 0.27735230E+04</pdfrwt>
<totfact> 0.60315506E-01</totfact>
</mgrwt>
</event>
<event>
11    1  0.7409192E-013  0.2966204E+04  0.7818608E-02  0.8253448E-01
         -1   -1    0    0    0  501 -0.00000000000E+00  0.00000000000E+00  0.89919046779E+03  0.89919046779E+03  0.00000000000E+00 0.  1.
          1   -1    0    0  501    0  0.00000000000E+00 -0.00000000000E+00 -0.24461908801E+04  0.24461908801E+04  0.00000000000E+00 0. -1.
    9900016    2    1    2    0    0 -0.32846564109E+03 -0.64290680007E+02 -0.62695642149E+03  0.23663492167E+04  0.22571024106E+04 0.  0.
        -24    2    3    3    0    0 -0.15523017331E+02 -0.18445995871E+03  0.10602696252E+03  0.22390280461E+03  0.68002269784E+02 0.  0.
        -15    1    3    3    0    0 -0.54748175882E+03  0.19235184639E+03  0.14640889800E+03  0.59847395471E+03  0.00000000000E+00 0.  1.
        -15    1    3    3    0    0 -0.35508415269E+03 -0.85880208269E+02 -0.63267857499E+03  0.73057672076E+03  0.00000000000E+00 0.  1.
         15    1    4    4    0    0  0.20470229335E+02 -0.12744672307E+03  0.60558042329E+02  0.14257971104E+03  0.00000000000E+00 0. -1.
         15    1    3    3    0    0  0.65286009440E+03 -0.35209894408E+02 -0.20792922164E+03  0.68607623537E+03  0.00000000000E+00 0. -1.
        -16    1    4    4    0    0 -0.35993246666E+02 -0.57013235638E+02  0.45468920188E+02  0.81323093562E+02  0.00000000000E+00 0.  1.
         16    1    1    2    0    0  0.32846564109E+03  0.64290680007E+02 -0.92004399082E+03  0.97903213122E+03  0.00000000000E+00 0. -1.
    9900018    1    3    3    0    0 -0.63236806656E+02  0.48907534994E+02 -0.38784485378E+02  0.12731950124E+03  0.91187600000E+02 0.  0.
<mgrwt>
<rscale>  0 0.29662040E+04</rscale>
<asrwt>0</asrwt>
<pdfrwt beam="1">  1        1 0.37633705E+00 0.29662040E+04</pdfrwt>
<pdfrwt beam="2">  1       -1 0.13833700E+00 0.29662040E+04</pdfrwt>
<totfact> 0.54467796E-01</totfact>
</mgrwt>
</event>
<event>
11    1  0.7409192E-013  0.2909683E+04  0.7818608E-02  0.8270002E-01
          2   -1    0    0  501    0  0.00000000000E+00  0.00000000000E+00  0.21412069340E+04  0.21412069340E+04  0.00000000000E+00 0. -1.
         -2   -1    0    0    0  501 -0.00000000000E+00 -0.00000000000E+00 -0.98849109083E+03  0.98849109083E+03  0.00000000000E+00 0.  1.
    9900016    2    1    2    0    0  0.80165427567E+02  0.57061152565E+03  0.87879748548E+03  0.24916891882E+04  0.22592489860E+04 0.  0.
         24    2    3    3    0    0  0.30101784171E+03  0.18788292538E+02  0.11011887954E+04  0.11438258455E+04  0.68964198220E+02 0.  0.
        -15    1    3    3    0    0 -0.19476884873E+03  0.30991213674E+03 -0.19841879490E+03  0.41635376197E+03  0.00000000000E+00 0.  1.
        -15    1    4    4    0    0  0.12818736087E+03 -0.25817648752E+02  0.48221934649E+03  0.49963391459E+03  0.00000000000E+00 0.  1.
         15    1    3    3    0    0  0.22047529438E+03  0.15817800250E+03 -0.32942549837E+03  0.42679127789E+03  0.00000000000E+00 0. -1.
         15    1    3    3    0    0 -0.28510804361E+03  0.90529998086E+02  0.19954268932E+03  0.35958248281E+03  0.00000000000E+00 0. -1.
        -16    1    1    2    0    0 -0.80165427567E+02 -0.57061152565E+03  0.27391835767E+03  0.63800883666E+03  0.00000000000E+00 0.  1.
         16    1    4    4    0    0  0.17283048084E+03  0.44605941289E+02  0.61896944894E+03  0.64419193089E+03  0.00000000000E+00 0. -1.
    9900018    1    3    3    0    0  0.38549183814E+02 -0.67969042066E+01  0.10591029400E+03  0.14513582001E+03  0.91187600000E+02 0.  0.
<mgrwt>
<rscale>  0 0.29096831E+04</rscale>
<asrwt>0</asrwt>
<pdfrwt beam="1">  1        2 0.32941645E+00 0.29096831E+04</pdfrwt>
<pdfrwt beam="2">  1       -2 0.15207555E+00 0.29096831E+04</pdfrwt>
<totfact> 0.13880219E+00</totfact>
</mgrwt>
</event>
<event>
11    1  0.7409192E-013  0.3210903E+04  0.7818608E-02  0.8185944E-01
          2   -1    0    0  501    0  0.00000000000E+00  0.00000000000E+00  0.21806964363E+04  0.21806964363E+04  0.00000000000E+00 0. -1.
         -2   -1    0    0    0  501 -0.00000000000E+00 -0.00000000000E+00 -0.11819501834E+04  0.11819501834E+04  0.00000000000E+00 0.  1.
    9900016    2    1    2    0    0 -0.36903920018E+03 -0.18698835225E+03  0.61786386787E+02  0.21970717932E+04  0.21568848675E+04 0.  0.
        -24    2    3    3    0    0  0.64820805624E+03 -0.27982523446E+03  0.11493399811E+03  0.71863104923E+03  0.68883343340E+02 0.  0.
        -15    1    3    3    0    0 -0.63289532782E+03 -0.22440767613E+03  0.46226927676E+02  0.67309154646E+03  0.00000000000E+00 0.  1.
        -15    1    3    3    0    0 -0.10646235636E+03 -0.15141421063E+03 -0.17566308041E+03  0.25518231585E+03  0.00000000000E+00 0.  1.
         15    1    3    3    0    0 -0.27788957224E+03  0.46865876896E+03  0.76288541408E+02  0.55016688163E+03  0.00000000000E+00 0. -1.
         15    1    4    4    0    0  0.27258141411E+03 -0.12810914706E+03  0.15964285636E+02  0.30160808891E+03  0.00000000000E+00 0. -1.
        -16    1    4    4    0    0  0.37562664212E+03 -0.15171608740E+03  0.98969712478E+02  0.41702296032E+03  0.00000000000E+00 0.  1.
         16    1    1    2    0    0  0.36340091678E+03  0.20489044032E+03  0.97843028963E+03  0.10636569703E+04  0.00000000000E+00 0. -1.
    9900018    1    1    2    0    0  0.56382834012E+01 -0.17902088078E+02 -0.41470423537E+02  0.10191785623E+03  0.91187600000E+02 0.  0.
<mgrwt>
<rscale>  0 0.32109030E+04</rscale>
<asrwt>0</asrwt>
<pdfrwt beam="1">  1        2 0.33549176E+00 0.32109030E+04</pdfrwt>
<pdfrwt beam="2">  1       -2 0.18183849E+00 0.32109030E+04</pdfrwt>
<totfact> 0.78446895E-01</totfact>
</mgrwt>
</event>
<event>
11    1  0.7409192E-013  0.3184175E+04  0.7818608E-02  0.8193009E-01
          2   -1    0    0  501    0  0.00000000000E+00  0.00000000000E+00  0.25873006078E+04  0.25873006078E+04  0.00000000000E+00 0. -1.
         -2   -1    0    0    0  501 -0.00000000000E+00 -0.00000000000E+00 -0.97968590708E+03  0.97968590708E+03  0.00000000000E+00 0.  1.
    9900016    2    1    2    0    0  0.26126379060E+03 -0.68712473820E+03  0.12528583484E+04  0.25951181619E+04  0.21504848427E+04 0.  0.
         24    2    3    3    0    0  0.56625756992E+03 -0.85474224085E+03  0.83931274572E+03  0.13262549316E+04  0.57221715844E+02 0.  0.
        -15    1    4    4    0    0  0.85693973123E+02 -0.15892338214E+03  0.16666401686E+03  0.24571730288E+03  0.00000000000E+00 0.  1.
        -15    1    3    3    0    0 -0.40602747277E+03 -0.11393827829E+03  0.19114800943E+02  0.42214406962E+03  0.00000000000E+00 0.  1.
         15    1    3    3    0    0 -0.29575787983E+03  0.13694607806E+03  0.15028091873E+03  0.35890292046E+03  0.00000000000E+00 0. -1.
         15    1    3    3    0    0  0.39679157327E+03  0.14460970289E+03  0.24414988301E+03  0.48781624016E+03  0.00000000000E+00 0. -1.
        -16    1    1    2    0    0 -0.29479505313E+03  0.72791214912E+03  0.25223755339E+03  0.82485392860E+03  0.00000000000E+00 0.  1.
         16    1    4    4    0    0  0.48056359680E+03 -0.69581885872E+03  0.67264872886E+03  0.10805376288E+04  0.00000000000E+00 0. -1.
    9900018    1    1    2    0    0  0.33531262531E+02 -0.40787410929E+02  0.10251879894E+03  0.14701442442E+03  0.91187600000E+02 0.  0.
<mgrwt>
<rscale>  0 0.31841746E+04</rscale>
<asrwt>0</asrwt>
<pdfrwt beam="1">  1        2 0.39804624E+00 0.31841746E+04</pdfrwt>
<pdfrwt beam="2">  1       -2 0.15072091E+00 0.31841746E+04</pdfrwt>
<totfact> 0.77200839E-01</totfact>
</mgrwt>
</event>
