<event>
13    1  0.5894005E-012  0.5213451E+04  0.7818608E-02  0.7796398E-01
         -2   -1    0    0    0  501 -0.00000000000E+00  0.00000000000E+00  0.30666147736E+04  0.30666147736E+04  0.00000000000E+00 0.  1.
          2   -1    0    0  501    0  0.00000000000E+00 -0.00000000000E+00 -0.22158045741E+04  0.22158045741E+04  0.00000000000E+00 0. -1.
    9900016    2    1    2    0    0 -0.11447546003E+04 -0.30376361282E+03 -0.97653857362E+03  0.23976619787E+04  0.18418523152E+04 0.  0.
         23    2    3    3    0    0  0.37841950714E+03  0.24712061946E+03  0.73374544922E+02  0.46741578831E+03  0.93934931582E+02 0.  0.
    9900016    2    1    2    0    0  0.11447546003E+04  0.30376361282E+03  0.18273487731E+04  0.28847573690E+04  0.18920586968E+04 0.  0.
        -24    2    5    5    0    0  0.97296451952E+03 -0.22660602630E+02 -0.13039119296E+02  0.97553871746E+03  0.65820296806E+02 0.  0.
        -15    1    5    5    0    0  0.14753907551E+03  0.30498052431E+03  0.17280692341E+04  0.17609668302E+04  0.00000000000E+00 0.  1.
        -15    1    4    4    0    0  0.22683391840E+03  0.18750772692E+03  0.16053202881E+02  0.29473798451E+03  0.00000000000E+00 0.  1.
         15    1    6    6    0    0  0.87955227002E+03 -0.11650595715E+02  0.56178437040E+01  0.87964736813E+03  0.00000000000E+00 0. -1.
         15    1    4    4    0    0  0.15158558875E+03  0.59612892542E+02  0.57321342041E+02  0.17267780380E+03  0.00000000000E+00 0. -1.
        -16    1    6    6    0    0  0.93412249495E+02 -0.11010006914E+02 -0.18656963000E+02  0.95891349330E+02  0.00000000000E+00 0.  1.
         16    1    3    3    0    0 -0.15231741074E+04 -0.55088423228E+03 -0.10499131185E+04  0.19302461904E+04  0.00000000000E+00 0. -1.
    9900018    1    5    5    0    0  0.24251005243E+02  0.21443691142E+02  0.11231865831E+03  0.14825182138E+03  0.91187600000E+02 0.  0.
<mgrwt>
<rscale>  0 0.52134515E+04</rscale>
<asrwt>0</asrwt>
<pdfrwt beam="1">  1        2 0.34089301E+00 0.52134515E+04</pdfrwt>
<pdfrwt beam="2">  1       -2 0.47178689E+00 0.52134515E+04</pdfrwt>
<totfact> 0.90855931E-03</totfact>
</mgrwt>
</event>
<event>
12    1  0.5894005E-012  0.3983035E+04  0.7818608E-02  0.8007978E-01
          2   -1    0    0  501    0  0.00000000000E+00  0.00000000000E+00  0.29384265346E+04  0.29384265346E+04  0.00000000000E+00 0. -1.
         -2   -1    0    0    0  501 -0.00000000000E+00 -0.00000000000E+00 -0.13497499280E+04  0.13497499280E+04  0.00000000000E+00 0.  1.
    9900016    2    1    2    0    0  0.12722510801E+03  0.27307833704E+03  0.14470730385E+04  0.23623648767E+04  0.18428210509E+04 0.  0.
         23    2    3    3    0    0 -0.19715256840E+03 -0.27380407843E+03 -0.32616236087E+03  0.47857480485E+03  0.93883702481E+02 0.  0.
    9900016    2    1    2    0    0 -0.13363913303E+03 -0.22388337180E+03  0.16279967951E+03  0.18198600032E+04  0.17937122160E+04 0.  0.
        -15    1    5    5    0    0  0.12074678978E+03 -0.97481353626E+03  0.20778185885E+03  0.10039992622E+04  0.00000000000E+00 0.  1.
        -15    1    4    4    0    0 -0.12560417319E+03 -0.22309341422E+03 -0.19977288364E+03  0.32474033446E+03  0.00000000000E+00 0. -1.
         15    1    5    5    0    0 -0.72660289919E+02  0.22664721479E+03 -0.10018845047E+03  0.25823671953E+03  0.00000000000E+00 0. -1.
         15    1    4    4    0    0 -0.71548395212E+02 -0.50710664212E+02 -0.12638947724E+03  0.15383447038E+03  0.00000000000E+00 0.  1.
        -16    1    5    5    0    0 -0.18172563289E+03  0.52428294966E+03  0.55206271130E+02  0.55762402147E+03  0.00000000000E+00 0.  1.
         16    1    3    3    0    0  0.32437767641E+03  0.54688241547E+03  0.17732353994E+04  0.18837900719E+04  0.00000000000E+00 0. -1.
    9900018    1    1    2    0    0  0.64140250161E+01 -0.49194965236E+02 -0.21196111369E+02  0.10595158259E+03  0.91187600000E+02 0.  0.
<mgrwt>
<rscale>  0 0.39830345E+04</rscale>
<asrwt>0</asrwt>
<pdfrwt beam="1">  1        2 0.45206562E+00 0.39830345E+04</pdfrwt>
<pdfrwt beam="2">  1       -2 0.20765384E+00 0.39830345E+04</pdfrwt>
<totfact> 0.17807662E-01</totfact>
</mgrwt>
</event>
<event>
13    1  0.5894005E-012  0.4381031E+04  0.7818608E-02  0.7931802E-01
          2   -1    0    0  501    0  0.00000000000E+00  0.00000000000E+00  0.19354447264E+04  0.19354447264E+04  0.00000000000E+00 0. -1.
         -2   -1    0    0    0  501 -0.00000000000E+00 -0.00000000000E+00 -0.24792014370E+04  0.24792014370E+04  0.00000000000E+00 0.  1.
    9900016    2    1    2    0    0 -0.18716692743E+03 -0.10796605494E+04  0.10644647008E+03  0.21392084462E+04  0.18341710839E+04 0.  0.
         23    2    3    3    0    0  0.22546791591E+03 -0.84892594996E+03 -0.75144419022E+03  0.11596767447E+04  0.93116762922E+02 0.  0.
    9900016    2    1    2    0    0  0.18716692743E+03  0.10796605494E+04 -0.65020318072E+03  0.22754377172E+04  0.18852464740E+04 0.  0.
        -24    2    5    5    0    0  0.46310483388E+03 -0.32509425464E+03  0.15656689895E+03  0.59072191731E+03  0.65473874037E+02 0.  0.
        -15    1    5    5    0    0 -0.29560531738E+03  0.13204090606E+04 -0.74424978971E+03  0.15442701644E+04  0.00000000000E+00 0.  1.
        -15    1    4    4    0    0  0.23205360256E+03 -0.79123395950E+03 -0.69045864658E+03  0.10754688260E+04  0.00000000000E+00 0. -1.
         15    1    6    6    0    0  0.23126062716E+03 -0.15987522481E+03  0.43913217990E+02  0.28455216727E+03  0.00000000000E+00 0. -1.
         15    1    4    4    0    0 -0.65856866446E+01 -0.57691990451E+02 -0.60985543638E+02  0.84207918652E+02  0.00000000000E+00 0.  1.
        -16    1    6    6    0    0  0.23184420672E+03 -0.16521902983E+03  0.11265368096E+03  0.30616975004E+03  0.00000000000E+00 0.  1.
         16    1    3    3    0    0 -0.41263484334E+03 -0.23073459941E+03  0.85789066030E+03  0.97953170155E+03  0.00000000000E+00 0. -1.
    9900018    1    5    5    0    0  0.19667410932E+02  0.84345743387E+02 -0.62520289950E+02  0.14044563549E+03  0.91187600000E+02 0.  0.
<mgrwt>
<rscale>  0 0.43810306E+04</rscale>
<asrwt>0</asrwt>
<pdfrwt beam="1">  1        2 0.29776073E+00 0.43810306E+04</pdfrwt>
<pdfrwt beam="2">  1       -2 0.38141561E+00 0.43810306E+04</pdfrwt>
<totfact> 0.54421012E-02</totfact>
</mgrwt>
</event>
<event>
13    1  0.5894005E-012  0.4013970E+04  0.7818608E-02  0.8001734E-01
         -2   -1    0    0    0  501 -0.00000000000E+00  0.00000000000E+00  0.33487985023E+04  0.33487985023E+04  0.00000000000E+00 0.  1.
          2   -1    0    0  501    0  0.00000000000E+00 -0.00000000000E+00 -0.12028164003E+04  0.12028164003E+04  0.00000000000E+00 0. -1.
    9900016    2    1    2    0    0 -0.49794077745E+03 -0.42244659603E+03  0.14646319125E+04  0.24455367076E+04  0.18463740154E+04 0.  0.
         23    2    3    3    0    0 -0.26542383741E+03  0.36494866240E+03 -0.26503998241E+03  0.53090350920E+03  0.89302878773E+02 0.  0.
    9900016    2    1    2    0    0  0.49794077745E+03  0.42244659603E+03  0.68135018939E+03  0.21060781950E+04  0.18827960958E+04 0.  0.
         24    2    5    5    0    0  0.65802162506E+03 -0.57467429787E+03  0.46485285413E+03  0.99402096915E+03  0.93522742934E+02 0.  0.
        -15    1    4    4    0    0 -0.97370073228E+02  0.14501042619E+03 -0.15332064473E+03  0.23241380115E+03  0.00000000000E+00 0.  1.
        -15    1    6    6    0    0  0.80335772127E+02 -0.90329088061E+02  0.33363057641E+02  0.12540444190E+03  0.00000000000E+00 0.  1.
         15    1    4    4    0    0 -0.16805376418E+03  0.21993823621E+03 -0.11171933768E+03  0.29848970805E+03  0.00000000000E+00 0. -1.
         15    1    5    5    0    0 -0.21030265549E+03  0.95010498672E+03  0.16597107517E+03  0.98715403585E+03  0.00000000000E+00 0. -1.
        -16    1    3    3    0    0 -0.23251694004E+03 -0.78739525843E+03  0.17296718949E+04  0.19146331984E+04  0.00000000000E+00 0.  1.
         16    1    6    6    0    0  0.57768585293E+03 -0.48434520981E+03  0.43148979649E+03  0.86861652725E+03  0.00000000000E+00 0. -1.
    9900018    1    5    5    0    0  0.50221807873E+02  0.47015907182E+02  0.50526260087E+02  0.12490318998E+03  0.91187600000E+02 0.  0.
<mgrwt>
<rscale>  0 0.40139705E+04</rscale>
<asrwt>0</asrwt>
<pdfrwt beam="1">  1        2 0.18504868E+00 0.40139705E+04</pdfrwt>
<pdfrwt beam="2">  1       -2 0.51519977E+00 0.40139705E+04</pdfrwt>
<totfact> 0.19853394E-02</totfact>
</mgrwt>
</event>
<event>
12    1  0.5894005E-012  0.5043612E+04  0.7818608E-02  0.7821815E-01
         -2   -1    0    0    0  501 -0.00000000000E+00  0.00000000000E+00  0.28036488758E+04  0.28036488758E+04  0.00000000000E+00 0.  1.
          2   -1    0    0  501    0  0.00000000000E+00 -0.00000000000E+00 -0.22682958683E+04  0.22682958683E+04  0.00000000000E+00 0. -1.
    9900016    2    1    2    0    0 -0.11294970430E+04  0.26334086515E+03  0.14989435320E+04  0.26457377561E+04  0.18460727452E+04 0.  0.
         23    2    3    3    0    0  0.39705303112E+03  0.74016678843E+02 -0.10348071687E+03  0.42448535041E+03  0.79686734645E+02 0.  0.
    9900016    2    1    2    0    0  0.10291104424E+04 -0.23115739498E+03 -0.88216434193E+03  0.22647800791E+04  0.17995868517E+04 0.  0.
        -15    1    5    5    0    0  0.15743474355E+03 -0.72577200981E+02  0.41464811679E+03  0.44942875891E+03  0.00000000000E+00 0.  1.
        -15    1    4    4    0    0  0.11354630302E+03  0.86054460738E+01 -0.64667732469E+02  0.13095316817E+03  0.00000000000E+00 0. -1.
         15    1    5    5    0    0  0.87951358934E+03 -0.66317478656E+02 -0.14136705110E+04  0.16662552252E+04  0.00000000000E+00 0. -1.
         15    1    4    4    0    0  0.28350672810E+03  0.65411232770E+02 -0.38812984406E+02  0.29353218224E+03  0.00000000000E+00 0.  1.
        -16    1    3    3    0    0 -0.15265500742E+04  0.18932418630E+03  0.16024242489E+04  0.22212524057E+04  0.00000000000E+00 0.  1.
         16    1    5    5    0    0 -0.78378904563E+01 -0.92262715345E+02  0.11685805229E+03  0.14909609503E+03  0.00000000000E+00 0. -1.
    9900018    1    1    2    0    0  0.10038660060E+03 -0.32183470165E+02 -0.81426182551E+02  0.16142690894E+03  0.91187600000E+02 0.  0.
<mgrwt>
<rscale>  0 0.50436119E+04</rscale>
<asrwt>0</asrwt>
<pdfrwt beam="1">  1        2 0.34896860E+00 0.50436119E+04</pdfrwt>
<pdfrwt beam="2">  1       -2 0.43133060E+00 0.50436119E+04</pdfrwt>
<totfact> 0.15846524E-02</totfact>
</mgrwt>
</event>
<event>
13    1  0.5894005E-012  0.4280751E+04  0.7818608E-02  0.7950187E-01
         -2   -1    0    0    0  501 -0.00000000000E+00  0.00000000000E+00  0.18462506939E+04  0.18462506939E+04  0.00000000000E+00 0.  1.
          2   -1    0    0  501    0  0.00000000000E+00 -0.00000000000E+00 -0.24813568808E+04  0.24813568808E+04  0.00000000000E+00 0. -1.
    9900016    2    1    2    0    0  0.72847642772E+03 -0.72068258338E+03 -0.39971594444E+03  0.21527336210E+04  0.18505209848E+04 0.  0.
         23    2    3    3    0    0 -0.35004067096E+03  0.29430247269E+01 -0.72840365221E+03  0.81300649878E+03  0.88716141590E+02 0.  0.
    9900016    2    1    2    0    0 -0.68091648560E+03  0.65418440118E+03 -0.15965714056E+03  0.20308786849E+04  0.17909141071E+04 0.  0.
         24    2    5    5    0    0 -0.45147307287E+03  0.22380738041E+03  0.80194905208E+03  0.95266018689E+03  0.10257421949E+03 0.  0.
        -15    1    4    4    0    0 -0.20801845939E+03  0.45203744106E+02 -0.42155279360E+03  0.47225185624E+03  0.00000000000E+00 0.  1.
        -15    1    6    6    0    0 -0.24088640259E+03  0.10701739144E+03  0.51106319346E+03  0.57503440657E+03  0.00000000000E+00 0.  1.
         15    1    5    5    0    0 -0.22944341273E+03  0.43037702077E+03 -0.96160619264E+03  0.10782184980E+04  0.00000000000E+00 0. -1.
         15    1    4    4    0    0 -0.14202221157E+03 -0.42260719379E+02 -0.30685085861E+03  0.34075464254E+03  0.00000000000E+00 0. -1.
        -16    1    3    3    0    0  0.10785170987E+04 -0.72362560810E+03  0.32868770777E+03  0.13397271222E+04  0.00000000000E+00 0.  1.
         16    1    6    6    0    0 -0.21058667028E+03  0.11678998896E+03  0.29088585862E+03  0.37762578032E+03  0.00000000000E+00 0. -1.
    9900018    1    1    2    0    0 -0.47559942122E+02  0.66498182197E+02 -0.75733101858E+02  0.14399526881E+03  0.91187600000E+02 0.  0.
<mgrwt>
<rscale>  0 0.42807508E+04</rscale>
<asrwt>0</asrwt>
<pdfrwt beam="1">  1        2 0.38174721E+00 0.42807508E+04</pdfrwt>
<pdfrwt beam="2">  1       -2 0.28403857E+00 0.42807508E+04</pdfrwt>
<totfact> 0.10951814E-01</totfact>
</mgrwt>
</event>
