<event>
12    1  0.1037177E-011  0.2995673E+04  0.7818608E-02  0.8981246E-01
          2   -1    0    0  501    0  0.00000000000E+00  0.00000000000E+00  0.69970602581E+03  0.69970602581E+03  0.00000000000E+00 0.  1.
         -2   -1    0    0    0  501 -0.00000000000E+00 -0.00000000000E+00 -0.35146673688E+04  0.35146673688E+04  0.00000000000E+00 0. -1.
         23    2    1    2    0    0 -0.50776982153E+02 -0.48313784538E+02 -0.20177185845E+03  0.23909749055E+03  0.10743930115E+03 0.  0.
    9900016    2    1    2    0    0 -0.44318657500E+02  0.49144399036E+02 -0.20386177321E+04  0.29998011488E+04  0.21996511905E+04 0.  0.
         24    2    4    4    0    0 -0.18771068742E+03 -0.52458694306E+03  0.26459929369E+03  0.62187398533E+03  0.79295046523E+02 0.  0.
        -15    1    5    5    0    0 -0.59302540758E+02 -0.17568865505E+03  0.13009755122E+03  0.22651416664E+03  0.00000000000E+00 0.  1.
        -15    1    3    3    0    0 -0.75921812127E+02 -0.29352787661E+02 -0.18772784884E+03  0.20461537804E+03  0.00000000000E+00 0.  1.
         15    1    4    4    0    0  0.14339202992E+03  0.57373134210E+03 -0.23032170258E+04  0.23779271635E+04  0.00000000000E+00 0. -1.
         15    1    3    3    0    0  0.25144829974E+02 -0.18960996877E+02 -0.14044009604E+02  0.34482112504E+02  0.00000000000E+00 0. -1.
        -16    1    1    2    0    0 -0.26403715008E+03  0.23082168942E+03 -0.23676308469E+03  0.42314421561E+03  0.00000000000E+00 0.  1.
         16    1    5    5    0    0 -0.12840814666E+03 -0.34889828802E+03  0.13450174247E+03  0.39535981869E+03  0.00000000000E+00 0. -1.
    9900018    1    1    2    0    0  0.35913278974E+03 -0.23165230392E+03 -0.33780866777E+03  0.55233053961E+03  0.91187600000E+02 0.  0.
<mgrwt>
<rscale>  0 0.13627321E+04</rscale>
<asrwt>0</asrwt>
<pdfrwt beam="1">  1        2 0.10764708E+00 0.29956734E+04</pdfrwt>
<pdfrwt beam="2">  1       -2 0.54071807E+00 0.29956734E+04</pdfrwt>
<totfact> 0.33181004E-02</totfact>
</mgrwt>
</event>
<event>
12    1  0.1037177E-011  0.4686525E+04  0.7818608E-02  0.8478531E-01
          2   -1    0    0  501    0  0.00000000000E+00  0.00000000000E+00  0.35071192065E+04  0.35071192065E+04  0.00000000000E+00 0. -1.
         -2   -1    0    0    0  501 -0.00000000000E+00 -0.00000000000E+00 -0.17999362598E+04  0.17999362598E+04  0.00000000000E+00 0.  1.
         23    2    1    2    0    0  0.14065689305E+03  0.19977853160E+03 -0.93050995401E+02  0.28666099540E+03  0.11755941175E+03 0.  0.
    9900016    2    1    2    0    0  0.28891018567E+03  0.31604625193E+01  0.11416170528E+04  0.24905879424E+04  0.21945978491E+04 0.  0.
         24    2    4    4    0    0  0.55446223593E+03 -0.47922663943E+03  0.16080379229E+04  0.17689483955E+04  0.79409833846E+02 0.  0.
        -15    1    5    5    0    0  0.36067984879E+03 -0.31823217773E+03  0.96264342510E+03  0.10761245449E+04  0.00000000000E+00 0.  1.
        -15    1    3    3    0    0  0.12283832024E+03  0.74449397078E+02 -0.37727184860E+02  0.14851028962E+03  0.00000000000E+00 0. -1.
         15    1    3    3    0    0  0.17818572812E+02  0.12532913452E+03 -0.55323810541E+02  0.13815070579E+03  0.00000000000E+00 0.  1.
         15    1    4    4    0    0 -0.26555205026E+03  0.48238710195E+03 -0.46642087004E+03  0.72163954682E+03  0.00000000000E+00 0. -1.
        -16    1    1    2    0    0 -0.23218130689E+03 -0.75292730965E+03 -0.69626619836E+03  0.10514724494E+04  0.00000000000E+00 0.  1.
         16    1    5    5    0    0  0.19378238714E+03 -0.16099446171E+03  0.64539449776E+03  0.69282385063E+03  0.00000000000E+00 0. -1.
    9900018    1    1    2    0    0 -0.19738577183E+03  0.54998831553E+03  0.13548830876E+04  0.14783340791E+04  0.91187600000E+02 0.  0.
<mgrwt>
<rscale>  0 0.22984549E+04</rscale>
<asrwt>0</asrwt>
<pdfrwt beam="1">  1        2 0.53955680E+00 0.46865252E+04</pdfrwt>
<pdfrwt beam="2">  1       -2 0.27691327E+00 0.46865252E+04</pdfrwt>
<totfact> 0.26005986E-02</totfact>
</mgrwt>
</event>
<event>
12    1  0.1037177E-011  0.3057882E+04  0.7818608E-02  0.9066775E-01
          1   -1    0    0  501    0  0.00000000000E+00  0.00000000000E+00  0.10077235926E+04  0.10077235926E+04  0.00000000000E+00 0. -1.
         -1   -1    0    0    0  501 -0.00000000000E+00 -0.00000000000E+00 -0.25053122736E+04  0.25053122736E+04  0.00000000000E+00 0.  1.
         23    2    1    2    0    0  0.39729974197E+02  0.20755251315E+02 -0.14613841848E+03  0.16982523970E+03  0.73992725161E+02 0.  0.
    9900016    2    1    2    0    0 -0.11531096982E+03 -0.60002011532E+03 -0.84174579133E+03  0.24394871333E+04  0.22066356151E+04 0.  0.
        -24    2    4    4    0    0  0.10103668235E+04 -0.16937373063E+03 -0.65819441349E+03  0.12203489494E+04  0.80641762033E+02 0.  0.
        -15    1    4    4    0    0 -0.11256777933E+04 -0.43064638469E+03 -0.18355137783E+03  0.12191381839E+04  0.00000000000E+00 0.  1.
        -15    1    3    3    0    0 -0.20322824524E+02  0.56860334270E+00 -0.19243538058E+02  0.27993825451E+02  0.00000000000E+00 0. -1.
         15    1    3    3    0    0  0.60052798721E+02  0.20186647972E+02 -0.12689488042E+03  0.14183141425E+03  0.00000000000E+00 0.  1.
         15    1    5    5    0    0  0.24109944235E+03 -0.13114842072E+02 -0.18026781253E+03  0.30132610975E+03  0.00000000000E+00 0. -1.
        -16    1    5    5    0    0  0.76926738116E+03 -0.15625888856E+03 -0.47792660096E+03  0.91902283969E+03  0.00000000000E+00 0.  1.
         16    1    1    2    0    0  0.20197243470E+03  0.47001640284E+03 -0.21950684770E+03  0.55667902736E+03  0.00000000000E+00 0. -1.
    9900018    1    1    2    0    0 -0.12639143908E+03  0.10924846117E+03 -0.29019762353E+03  0.34704446579E+03  0.91187600000E+02 0.  0.
<mgrwt>
<rscale>  0 0.12541038E+04</rscale>
<asrwt>0</asrwt>
<pdfrwt beam="1">  1        1 0.15503440E+00 0.30578815E+04</pdfrwt>
<pdfrwt beam="2">  1       -1 0.38543266E+00 0.30578815E+04</pdfrwt>
<totfact> 0.11309599E-01</totfact>
</mgrwt>
</event>
<event>
12    1  0.1037177E-011  0.5313381E+04  0.7818608E-02  0.8260866E-01
          2   -1    0    0  501    0  0.00000000000E+00  0.00000000000E+00  0.43974090815E+04  0.43974090815E+04  0.00000000000E+00 0. -1.
         -2   -1    0    0    0  501 -0.00000000000E+00 -0.00000000000E+00 -0.20332642986E+04  0.20332642986E+04  0.00000000000E+00 0.  1.
         23    2    1    2    0    0 -0.43237069457E+03  0.22352647641E+03  0.70656999088E+03  0.86474400868E+03  0.10785427835E+03 0.  0.
    9900016    2    1    2    0    0  0.20035578445E+03 -0.11031593651E+03  0.83083824270E+03  0.23662913976E+04  0.22037991620E+04 0.  0.
         24    2    4    4    0    0 -0.68084296550E+03 -0.82795946775E+03  0.33115297572E+03  0.11248370726E+04  0.80821548719E+02 0.  0.
        -15    1    5    5    0    0 -0.23854011584E+03 -0.25340007569E+03  0.76403907395E+02  0.35630119602E+03  0.00000000000E+00 0.  1.
        -15    1    3    3    0    0 -0.14630133499E+03  0.27360662140E+02  0.17150109707E+03  0.22707996994E+03  0.00000000000E+00 0. -1.
         15    1    3    3    0    0 -0.28606935958E+03  0.19616581427E+03  0.53506889381E+03  0.63766403874E+03  0.00000000000E+00 0.  1.
         15    1    4    4    0    0  0.88119874996E+03  0.71764353123E+03  0.49968526698E+03  0.12414543249E+04  0.00000000000E+00 0. -1.
        -16    1    1    2    0    0  0.48548268913E+03 -0.13584760307E+03 -0.11231499887E+04  0.12311027211E+04  0.00000000000E+00 0.  1.
         16    1    5    5    0    0 -0.44230284967E+03 -0.57455939206E+03  0.25474906833E+03  0.76853587661E+03  0.00000000000E+00 0. -1.
    9900018    1    1    2    0    0 -0.25346777901E+03  0.22637063173E+02  0.19498865381E+04  0.19685352528E+04  0.91187600000E+02 0.  0.
<mgrwt>
<rscale>  0 0.29407152E+04</rscale>
<asrwt>0</asrwt>
<pdfrwt beam="1">  1        2 0.67652447E+00 0.53133808E+04</pdfrwt>
<pdfrwt beam="2">  1       -2 0.31280989E+00 0.53133808E+04</pdfrwt>
<totfact> 0.28138872E-03</totfact>
</mgrwt>
</event>
<event>
11    1  0.1037177E-011  0.3563510E+04  0.7818608E-02  0.8689770E-01
         -1   -1    0    0    0  501 -0.00000000000E+00  0.00000000000E+00  0.12475506308E+04  0.12475506308E+04  0.00000000000E+00 0.  1.
          1   -1    0    0  501    0  0.00000000000E+00 -0.00000000000E+00 -0.36895412656E+04  0.36895412656E+04  0.00000000000E+00 0. -1.
    9900016    2    1    2    0    0  0.29174868492E+03 -0.73683385768E+03 -0.13971116620E+04  0.27395626339E+04  0.22192883995E+04 0.  0.
        -24    2    3    3    0    0 -0.27665110622E+03  0.70889938357E+03 -0.23850892693E+03  0.80162991447E+03  0.81546556888E+02 0.  0.
        -15    1    3    3    0    0  0.56839979115E+03 -0.14457332413E+04 -0.11586027350E+04  0.19379327194E+04  0.00000000000E+00 0.  1.
        -15    1    1    2    0    0  0.82828626623E+02  0.16227085397E+03  0.20688615086E+03  0.27567062022E+03  0.00000000000E+00 0.  1.
         15    1    1    2    0    0 -0.45619011701E+02  0.38511804922E+02  0.12962886363E+03  0.14271613655E+03  0.00000000000E+00 0. -1.
         15    1    4    4    0    0 -0.25814919987E+03  0.57795528210E+03 -0.19252844514E+03  0.66161961858E+03  0.00000000000E+00 0. -1.
        -16    1    4    4    0    0 -0.18501906353E+02  0.13094410147E+03 -0.45980481791E+02  0.14001029589E+03  0.00000000000E+00 0.  1.
         16    1    1    2    0    0 -0.32123908984E+03  0.69515625260E+03 -0.13988717525E+04  0.15947661108E+04  0.00000000000E+00 0. -1.
    9900018    1    1    2    0    0 -0.77192100092E+01 -0.15910505382E+03  0.17477765134E+02  0.18437639497E+03  0.91187600000E+02 0.  0.
<mgrwt>
<rscale>  0 0.18314140E+04</rscale>
<asrwt>0</asrwt>
<pdfrwt beam="1">  1        1 0.56762173E+00 0.35635099E+04</pdfrwt>
<pdfrwt beam="2">  1       -1 0.19193087E+00 0.35635099E+04</pdfrwt>
<totfact> 0.23885425E-02</totfact>
</mgrwt>
</event>
<event>
12    1  0.1037177E-011  0.3447886E+04  0.7818608E-02  0.8560491E-01
         -2   -1    0    0    0  501 -0.00000000000E+00  0.00000000000E+00  0.10041979760E+04  0.10041979760E+04  0.00000000000E+00 0. -1.
          2   -1    0    0  501    0  0.00000000000E+00 -0.00000000000E+00 -0.38657730024E+04  0.38657730024E+04  0.00000000000E+00 0.  1.
         23    2    1    2    0    0  0.42992077232E+02  0.46197251104E+03 -0.50310337988E+03  0.69261464114E+03  0.10646647645E+03 0.  0.
    9900016    2    1    2    0    0 -0.19122407182E+03 -0.20077344142E+03 -0.12887577187E+04  0.25767218494E+04  0.22139833809E+04 0.  0.
         24    2    4    4    0    0  0.16831287919E+03 -0.86715421927E+03 -0.15415406007E+04  0.17784553866E+04  0.79186319144E+02 0.  0.
        -15    1    5    5    0    0  0.92098962192E+01 -0.19962549473E+03 -0.38030765337E+03  0.42961502714E+03  0.00000000000E+00 0.  1.
        -15    1    3    3    0    0  0.75514926110E+02  0.37947958026E+03 -0.42054435951E+03  0.57145849737E+03  0.00000000000E+00 0.  1.
         15    1    3    3    0    0 -0.32522848879E+02  0.82492930788E+02 -0.82559020372E+02  0.12115614377E+03  0.00000000000E+00 0. -1.
         15    1    4    4    0    0 -0.35953695101E+03  0.66638077785E+03  0.25278288197E+03  0.79826646281E+03  0.00000000000E+00 0. -1.
        -16    1    1    2    0    0  0.40336145609E+03 -0.62082575008E+03 -0.65665152780E+03  0.98960411538E+03  0.00000000000E+00 0.  1.
         16    1    5    5    0    0  0.15910298297E+03 -0.66752872453E+03 -0.11612329473E+04  0.13488403594E+04  0.00000000000E+00 0. -1.
    9900018    1    1    2    0    0 -0.25512946150E+03  0.35962668046E+03 -0.41306240000E+03  0.61103037250E+03  0.91187600000E+02 0.  0.
<mgrwt>
<rscale>  0 0.21017093E+04</rscale>
<asrwt>0</asrwt>
<pdfrwt beam="1">  1        2 0.59473430E+00 0.34478859E+04</pdfrwt>
<pdfrwt beam="2">  1       -2 0.15449200E+00 0.34478859E+04</pdfrwt>
<totfact> 0.98193710E-02</totfact>
</mgrwt>
</event>
<event>
12    1  0.1037177E-011  0.3808217E+04  0.7818608E-02  0.8645606E-01
          2   -1    0    0  501    0  0.00000000000E+00  0.00000000000E+00  0.13945014795E+04  0.13945014795E+04  0.00000000000E+00 0. -1.
         -2   -1    0    0    0  501 -0.00000000000E+00 -0.00000000000E+00 -0.34287067787E+04  0.34287067787E+04  0.00000000000E+00 0.  1.
         23    2    1    2    0    0  0.15135499413E+03  0.15004641984E+03  0.27578777969E+03  0.36915542953E+03  0.12163292881E+03 0.  0.
    9900016    2    1    2    0    0 -0.31597443340E+03  0.25953978874E+03 -0.17327519826E+04  0.28376998504E+04  0.22097308124E+04 0.  0.
         24    2    4    4    0    0 -0.60764978489E+03  0.95369787783E+03 -0.22971985749E+03  0.11566181949E+04  0.78844990949E+02 0.  0.
        -15    1    3    3    0    0  0.52671457469E+02 -0.82167244123E+01  0.31892410073E+02  0.62120228688E+02  0.00000000000E+00 0.  1.
        -15    1    5    5    0    0 -0.36373675656E+03  0.49980637801E+03 -0.13456162900E+03  0.63262759628E+03  0.00000000000E+00 0.  1.
         15    1    3    3    0    0  0.98683536661E+02  0.15826314425E+03  0.24389536961E+03  0.30703520084E+03  0.00000000000E+00 0. -1.
         15    1    4    4    0    0  0.29167535150E+03 -0.69415808909E+03 -0.15030321251E+04  0.16810816555E+04  0.00000000000E+00 0. -1.
        -16    1    1    2    0    0  0.17743336556E+03 -0.94298835055E+03 -0.45246847510E+03  0.10608663203E+04  0.00000000000E+00 0.  1.
         16    1    5    5    0    0 -0.24391302834E+03  0.45389149982E+03 -0.95158228492E+02  0.52399059863E+03  0.00000000000E+00 0. -1.
    9900018    1    1    2    0    0 -0.12813926296E+02  0.53340214197E+03 -0.12477262118E+03  0.55548665795E+03  0.91187600000E+02 0.  0.
<mgrwt>
<rscale>  0 0.19186954E+04</rscale>
<asrwt>0</asrwt>
<pdfrwt beam="1">  1        2 0.21453869E+00 0.38082172E+04</pdfrwt>
<pdfrwt beam="2">  1       -2 0.52749335E+00 0.38082172E+04</pdfrwt>
<totfact> 0.12970320E-02</totfact>
</mgrwt>
</event>
<event>
12    1  0.1037177E-011  0.3138618E+04  0.7818608E-02  0.8205219E-01
          1   -1    0    0  501    0  0.00000000000E+00  0.00000000000E+00  0.17969014731E+04  0.17969014731E+04  0.00000000000E+00 0. -1.
         -1   -1    0    0    0  501 -0.00000000000E+00 -0.00000000000E+00 -0.13705427529E+04  0.13705427529E+04  0.00000000000E+00 0.  1.
         23    2    1    2    0    0 -0.60487741023E+02  0.98818679226E+02  0.34105362615E+03  0.36759007254E+03  0.73355213447E+02 0.  0.
    9900016    2    1    2    0    0  0.18915700688E+03 -0.14830915381E+03  0.18863623694E+03  0.22397755400E+04  0.22188363755E+04 0.  0.
         24    2    4    4    0    0 -0.88510961703E+03 -0.58850217575E+03  0.16473396598E+03  0.10785735789E+04  0.80186286525E+02 0.  0.
        -15    1    5    5    0    0 -0.83326700958E+03 -0.57115789015E+03  0.14564825939E+03  0.10206706914E+04  0.00000000000E+00 0.  1.
        -15    1    3    3    0    0 -0.11124448558E+02  0.52275401895E+02  0.69412987737E+02  0.87604987676E+02  0.00000000000E+00 0. -1.
         15    1    4    4    0    0  0.10742666239E+04  0.44019302194E+03  0.23902270963E+02  0.11612019611E+04  0.00000000000E+00 0. -1.
         15    1    3    3    0    0 -0.49363292465E+02  0.46543277331E+02  0.27164063842E+03  0.27998508487E+03  0.00000000000E+00 0.  1.
        -16    1    1    2    0    0  0.27337774954E+02 -0.81313593862E+02 -0.26891305338E+03  0.28226491947E+03  0.00000000000E+00 0.  1.
         16    1    5    5    0    0 -0.51842607452E+02 -0.17344285597E+02  0.19085706593E+02  0.57902887548E+02  0.00000000000E+00 0. -1.
    9900018    1    1    2    0    0 -0.15600704081E+03  0.13080406844E+03  0.16558191049E+03  0.27781369401E+03  0.91187600000E+02 0.  0.
<mgrwt>
<rscale>  0 0.31386177E+04</rscale>
<asrwt>0</asrwt>
<pdfrwt beam="1">  1        1 0.27644638E+00 0.31386177E+04</pdfrwt>
<pdfrwt beam="2">  1       -1 0.21085273E+00 0.31386177E+04</pdfrwt>
<totfact> 0.43680959E-01</totfact>
</mgrwt>
</event>
