<event>
12    1  0.8267757E-012  0.1316931E+04  0.7818608E-02  0.9734120E-01
          1   -1    0    0  501    0  0.00000000000E+00  0.00000000000E+00  0.93966828546E+03  0.93966828546E+03  0.00000000000E+00 0. -1.
         -1   -1    0    0    0  501 -0.00000000000E+00 -0.00000000000E+00 -0.56606799395E+03  0.56606799395E+03  0.00000000000E+00 0.  1.
         23    2    1    2    0    0 -0.47669653530E+02 -0.20595249075E+02  0.13458274367E+03  0.16729080026E+03  0.84717983958E+02 0.  0.
    9900016    2    1    2    0    0 -0.32646104297E+03  0.31512249610E+02  0.49095003477E+03  0.88726598390E+03  0.66229838826E+03 0.  0.
         23    2    4    4    0    0 -0.54932513290E+02  0.24109054389E+03  0.41960227182E+03  0.49569822125E+03  0.92241144074E+02 0.  0.
        -15    1    5    5    0    0 -0.27967484242E+02  0.15554408190E+03  0.34333298570E+03  0.37795989292E+03  0.00000000000E+00 0. -1.
        -15    1    3    3    0    0 -0.13418626538E+02 -0.22440411449E+02  0.13009659086E+03  0.13269798249E+03  0.00000000000E+00 0. -1.
         15    1    3    3    0    0 -0.34251026992E+02  0.18451623737E+01  0.44861528113E+01  0.34592817770E+02  0.00000000000E+00 0.  1.
         15    1    5    5    0    0 -0.26965029048E+02  0.85546461995E+02  0.76269286120E+02  0.11773832832E+03  0.00000000000E+00 0.  1.
        -16    1    1    2    0    0  0.37413069650E+03 -0.10917000535E+02 -0.25193248692E+03  0.45117949525E+03  0.00000000000E+00 0.  1.
         16    1    4    4    0    0 -0.78448577538E+02 -0.63573490530E+01 -0.23105914194E+02  0.82027303232E+02  0.00000000000E+00 0. -1.
    9900018    1    4    4    0    0 -0.19307995214E+03 -0.20322094523E+03  0.94453677145E+02  0.30954045942E+03  0.91187600000E+02 0.  0.
<mgrwt>
<rscale>  0 0.69021153E+03</rscale>
<asrwt>0</asrwt>
<pdfrwt beam="1">  1        1 0.14456435E+00 0.13169309E+04</pdfrwt>
<pdfrwt beam="2">  1       -1 0.87087384E-01 0.13169309E+04</pdfrwt>
<totfact> 0.21484870E+01</totfact>
</mgrwt>
</event>
<event>
12    1  0.8267757E-012  0.8902060E+03  0.7818608E-02  0.9437908E-01
         -2   -1    0    0    0  501 -0.00000000000E+00  0.00000000000E+00  0.24621615515E+03  0.24621615515E+03  0.00000000000E+00 0.  1.
          2   -1    0    0  501    0  0.00000000000E+00 -0.00000000000E+00 -0.80464538682E+03  0.80464538682E+03  0.00000000000E+00 0. -1.
    9900016    2    1    2    0    0 -0.15652728657E+02 -0.88517822474E+02 -0.39341989357E+03  0.86295599530E+03  0.76278006290E+03 0.  0.
         23    2    3    3    0    0 -0.47871044824E+02 -0.24774538904E+02 -0.79869627517E+02  0.13300914421E+03  0.91688932454E+02 0.  0.
         23    2    3    3    0    0  0.17028761858E+03  0.12995196604E+03 -0.77592322317E+02  0.24468310362E+03  0.89240496371E+02 0.  0.
        -15    1    5    5    0    0  0.15104973094E+03  0.95235319808E+02 -0.93927312501E+02  0.20176255200E+03  0.00000000000E+00 0.  1.
        -15    1    4    4    0    0  0.25625143821E+02 -0.19009285798E+02 -0.31499483689E+02  0.44835459349E+02  0.00000000000E+00 0. -1.
         15    1    4    4    0    0 -0.73496188646E+02 -0.57652531062E+01 -0.48370143828E+02  0.88173684866E+02  0.00000000000E+00 0.  1.
         15    1    5    5    0    0  0.19237887639E+02  0.34716646237E+02  0.16334990184E+02  0.42920551616E+02  0.00000000000E+00 0. -1.
        -16    1    3    3    0    0 -0.18407181486E+03  0.20775921283E+02 -0.12190408734E+03  0.22175364358E+03  0.00000000000E+00 0.  1.
         16    1    1    2    0    0  0.15652728657E+02  0.88517822474E+02 -0.16500933810E+03  0.18790554667E+03  0.00000000000E+00 0. -1.
    9900018    1    3    3    0    0  0.46002512453E+02 -0.21447117090E+03 -0.11405385640E+03  0.26351010389E+03  0.91187600000E+02 0.  0.
<mgrwt>
<rscale>  0 0.89020603E+03</rscale>
<asrwt>0</asrwt>
<pdfrwt beam="1">  1        2 0.12379160E+00 0.89020603E+03</pdfrwt>
<pdfrwt beam="2">  1       -2 0.37879408E-01 0.89020603E+03</pdfrwt>
<totfact> 0.22536406E+02</totfact>
</mgrwt>
</event>
<event>
12    1  0.8267757E-012  0.1002203E+04  0.7818608E-02  0.9977125E-01
         -2   -1    0    0    0  501 -0.00000000000E+00  0.00000000000E+00  0.53402419412E+03  0.53402419412E+03  0.00000000000E+00 0. -1.
          2   -1    0    0  501    0  0.00000000000E+00 -0.00000000000E+00 -0.57601097267E+03  0.57601097267E+03  0.00000000000E+00 0.  1.
         23    2    1    2    0    0 -0.43592945824E+02  0.13502259635E+02 -0.33621884279E+02  0.10779735667E+03  0.91690692336E+02 0.  0.
    9900016    2    1    2    0    0 -0.14922821777E+03  0.19340676540E+03 -0.74781523669E+02  0.71171670172E+03  0.66428393729E+03 0.  0.
         23    2    4    4    0    0  0.24484369684E+02 -0.11508444225E+03  0.98249901642E+02  0.17861473589E+03  0.91685699531E+02 0.  0.
        -15    1    3    3    0    0  0.18938993941E+02 -0.23086493482E+02 -0.75650552099E+01  0.30804248621E+02  0.00000000000E+00 0.  1.
        -15    1    5    5    0    0  0.39825925619E+02 -0.98097072221E+02  0.11017970143E+03  0.15280283550E+03  0.00000000000E+00 0. -1.
         15    1    3    3    0    0 -0.62531939765E+02  0.36588753118E+02 -0.26056829069E+02  0.76993108046E+02  0.00000000000E+00 0. -1.
         15    1    5    5    0    0 -0.15341555935E+02 -0.16987370032E+02 -0.11929799786E+02  0.25811900396E+02  0.00000000000E+00 0.  1.
        -16    1    4    4    0    0 -0.24335264430E+03  0.21750489551E+03 -0.28950753846E+02  0.32766909407E+03  0.00000000000E+00 0.  1.
         16    1    1    2    0    0  0.19282116359E+03 -0.20690902503E+03  0.66416629402E+02  0.29052110841E+03  0.00000000000E+00 0. -1.
    9900018    1    4    4    0    0  0.69640056845E+02  0.90986312134E+02 -0.14408067147E+03  0.20543287175E+03  0.91187600000E+02 0.  0.
<mgrwt>
<rscale>  0 0.56664733E+03</rscale>
<asrwt>0</asrwt>
<pdfrwt beam="1">  1        2 0.88617073E-01 0.10022029E+04</pdfrwt>
<pdfrwt beam="2">  1       -2 0.82157569E-01 0.10022029E+04</pdfrwt>
<totfact> 0.67666683E+01</totfact>
</mgrwt>
</event>
<event>
12    1  0.8267757E-012  0.1211627E+04  0.7818608E-02  0.9102740E-01
         -1   -1    0    0    0  501 -0.00000000000E+00  0.00000000000E+00  0.64813251459E+03  0.64813251459E+03  0.00000000000E+00 0.  1.
          1   -1    0    0  501    0  0.00000000000E+00 -0.00000000000E+00 -0.56625802062E+03  0.56625802062E+03  0.00000000000E+00 0. -1.
    9900016    2    1    2    0    0  0.10504789445E+03 -0.34862421114E+03 -0.28794939766E+02  0.83383617078E+03  0.74958635955E+03 0.  0.
         23    2    3    3    0    0  0.88122268932E+01 -0.12676500993E+02  0.24009109773E+02  0.88972003657E+02  0.84268802426E+02 0.  0.
         23    2    3    3    0    0 -0.86356854458E+02 -0.54921440205E+02  0.22153278963E+03  0.26176980964E+03  0.94724787948E+02 0.  0.
        -15    1    5    5    0    0 -0.50704500212E+02 -0.18830405197E+01  0.27987415257E+02  0.57946420046E+02  0.00000000000E+00 0.  1.
        -15    1    4    4    0    0 -0.13900097738E+02  0.45585748148E+01 -0.26901396114E+02  0.30621535467E+02  0.00000000000E+00 0. -1.
         15    1    4    4    0    0  0.22712324631E+02 -0.17235075808E+02  0.50910505887E+02  0.58350468190E+02  0.00000000000E+00 0.  1.
         15    1    5    5    0    0 -0.35652354246E+02 -0.53038399685E+02  0.19354537438E+03  0.20382338960E+03  0.00000000000E+00 0. -1.
        -16    1    3    3    0    0  0.40223917870E+02 -0.15925659215E+03 -0.20673776375E+03  0.26404758789E+03  0.00000000000E+00 0.  1.
         16    1    1    2    0    0 -0.10504789445E+03  0.34862421114E+03  0.11066943373E+03  0.38055436443E+03  0.00000000000E+00 0. -1.
    9900018    1    3    3    0    0  0.14236860415E+03 -0.12176967779E+03 -0.67599075426E+02  0.21904676959E+03  0.91187600000E+02 0.  0.
<mgrwt>
<rscale>  0 0.12116274E+04</rscale>
<asrwt>0</asrwt>
<pdfrwt beam="1">  1        1 0.87116619E-01 0.12116274E+04</pdfrwt>
<pdfrwt beam="2">  1       -1 0.99712694E-01 0.12116274E+04</pdfrwt>
<totfact> 0.35331461E+01</totfact>
</mgrwt>
</event>
<event>
12    1  0.8267757E-012  0.1028037E+04  0.7818608E-02  0.9278318E-01
          1   -1    0    0  501    0  0.00000000000E+00  0.00000000000E+00  0.14641006666E+04  0.14641006666E+04  0.00000000000E+00 0. -1.
         -1   -1    0    0    0  501 -0.00000000000E+00 -0.00000000000E+00 -0.18046234374E+03  0.18046234374E+03  0.00000000000E+00 0.  1.
    9900016    2    1    2    0    0 -0.82659659609E+02  0.19456465257E+03  0.11712152934E+04  0.14051325175E+04  0.74696994903E+03 0.  0.
         23    2    3    3    0    0 -0.25801558199E+02  0.37735999804E+02  0.14344505667E+03  0.17404257515E+03  0.87318999058E+02 0.  0.
         23    2    3    3    0    0 -0.20273508814E+03 -0.29343075787E+02  0.63493632498E+03  0.67339148118E+03  0.91375150290E+02 0.  0.
        -15    1    4    4    0    0 -0.18516761717E+01 -0.23958831293E+02  0.11961335066E+02  0.26842649611E+02  0.00000000000E+00 0. -1.
        -15    1    5    5    0    0 -0.82795741467E+02 -0.70452309153E+01  0.13284955422E+03  0.15669643946E+03  0.00000000000E+00 0.  1.
         15    1    5    5    0    0 -0.11993934667E+03 -0.22297844872E+02  0.50208677076E+03  0.51669504172E+03  0.00000000000E+00 0. -1.
         15    1    4    4    0    0 -0.23949882028E+02  0.61694831097E+02  0.13148372160E+03  0.14719992554E+03  0.00000000000E+00 0.  1.
        -16    1    1    2    0    0  0.82659659609E+02 -0.19456465257E+03  0.11242302941E+03  0.23943049283E+03  0.00000000000E+00 0.  1.
         16    1    3    3    0    0  0.11437795253E+03  0.15139395739E+03  0.44923682540E+02  0.19498867560E+03  0.00000000000E+00 0. -1.
    9900018    1    3    3    0    0  0.31499034199E+02  0.34777771158E+02  0.34791022924E+03  0.36270978554E+03  0.91187600000E+02 0.  0.
<mgrwt>
<rscale>  0 0.10280370E+04</rscale>
<asrwt>0</asrwt>
<pdfrwt beam="1">  1        1 0.22524625E+00 0.10280370E+04</pdfrwt>
<pdfrwt beam="2">  1       -1 0.27763439E-01 0.10280370E+04</pdfrwt>
<totfact> 0.81015578E+01</totfact>
</mgrwt>
</event>
<event>
12    1  0.8267757E-012  0.8563089E+03  0.7818608E-02  0.9481908E-01
         -2   -1    0    0    0  501 -0.00000000000E+00  0.00000000000E+00  0.77447958758E+02  0.77447958758E+02  0.00000000000E+00 0.  1.
          2   -1    0    0  501    0  0.00000000000E+00 -0.00000000000E+00 -0.23669601406E+04  0.23669601406E+04  0.00000000000E+00 0. -1.
         23    2    1    2    0    0  0.27449702439E+02 -0.32396142701E+02 -0.20683478646E+03  0.23008384112E+03  0.91405409184E+02 0.  0.
    9900016    2    1    2    0    0 -0.76114253908E+02 -0.24888817670E+02 -0.19523861187E+04  0.20639061010E+04  0.66444262680E+03 0.  0.
         23    2    4    4    0    0  0.16656562222E+03  0.20018994180E+03 -0.57714988677E+03  0.63985729585E+03  0.92169669323E+02 0.  0.
        -15    1    5    5    0    0  0.13029933649E+03  0.14689240857E+03 -0.51128993863E+03  0.54769763386E+03  0.00000000000E+00 0. -1.
        -15    1    3    3    0    0  0.41133549401E+00  0.23395270772E+02 -0.12629980979E+03  0.12844901652E+03  0.00000000000E+00 0.  1.
         15    1    3    3    0    0  0.27038366945E+02 -0.55791413473E+02 -0.80534976670E+02  0.10163482460E+03  0.00000000000E+00 0. -1.
         15    1    5    5    0    0  0.36266285734E+02  0.53297533227E+02 -0.65859948137E+02  0.92159661987E+02  0.00000000000E+00 0.  1.
        -16    1    4    4    0    0 -0.54988110704E+02 -0.12180474414E+03 -0.41493291376E+03  0.43592362971E+03  0.00000000000E+00 0.  1.
         16    1    1    2    0    0  0.48664551470E+02  0.57284960371E+02 -0.13029127675E+03  0.15041815732E+03  0.00000000000E+00 0. -1.
    9900018    1    4    4    0    0 -0.18769176543E+03 -0.10327401533E+03 -0.96030331813E+03  0.98812517540E+03  0.91187600000E+02 0.  0.
<mgrwt>
<rscale>  0 0.85630890E+03</rscale>
<asrwt>0</asrwt>
<pdfrwt beam="1">  1        2 0.36414771E+00 0.85630890E+03</pdfrwt>
<pdfrwt beam="2">  1       -2 0.11915071E-01 0.85630890E+03</pdfrwt>
<totfact> 0.21893440E+02</totfact>
</mgrwt>
</event>
<event>
12    1  0.8267757E-012  0.8650219E+03  0.7818608E-02  0.9470394E-01
          1   -1    0    0  501    0  0.00000000000E+00  0.00000000000E+00  0.76470355881E+03  0.76470355881E+03  0.00000000000E+00 0. -1.
         -1   -1    0    0    0  501 -0.00000000000E+00 -0.00000000000E+00 -0.24462515261E+03  0.24462515261E+03  0.00000000000E+00 0.  1.
    9900016    2    1    2    0    0  0.58691889606E+01 -0.23530797181E+02  0.34774744214E+03  0.83529967083E+03  0.75908438977E+03 0.  0.
         23    2    3    3    0    0 -0.16059546029E+02 -0.14075455327E+02  0.88879924847E+02  0.12962801354E+03  0.91911660811E+02 0.  0.
         23    2    3    3    0    0  0.78752499285E+02  0.10645241525E+03  0.10122987594E+03  0.18833139704E+03  0.87676419139E+02 0.  0.
        -15    1    4    4    0    0  0.32921334116E+02 -0.28054473566E+02  0.36955563989E+02  0.56890960941E+02  0.00000000000E+00 0. -1.
        -15    1    5    5    0    0  0.86042189097E+02  0.11738331074E+03  0.90653396560E+02  0.17146468515E+03  0.00000000000E+00 0.  1.
         15    1    4    4    0    0 -0.48980880145E+02  0.13979018239E+02  0.51924360858E+02  0.72737052602E+02  0.00000000000E+00 0.  1.
         15    1    5    5    0    0 -0.72896898121E+01 -0.10930895497E+02  0.10576479376E+02  0.16866711888E+02  0.00000000000E+00 0. -1.
        -16    1    3    3    0    0 -0.98996658584E+02  0.42096866230E+02 -0.13333983520E+03  0.17132424291E+03  0.00000000000E+00 0.  1.
         16    1    1    2    0    0 -0.58691889606E+01  0.23530797181E+02  0.17233096406E+03  0.17402904059E+03  0.00000000000E+00 0. -1.
    9900018    1    3    3    0    0  0.42172894288E+02 -0.15800462333E+03  0.29097747655E+03  0.34601601735E+03  0.91187600000E+02 0.  0.
<mgrwt>
<rscale>  0 0.86502191E+03</rscale>
<asrwt>0</asrwt>
<pdfrwt beam="1">  1        1 0.11764670E+00 0.86502191E+03</pdfrwt>
<pdfrwt beam="2">  1       -1 0.37634639E-01 0.86502191E+03</pdfrwt>
<totfact> 0.16301951E+02</totfact>
</mgrwt>
</event>
<event>
12    1  0.8267757E-012  0.1105417E+04  0.7818608E-02  0.9199928E-01
          2   -1    0    0  501    0  0.00000000000E+00  0.00000000000E+00  0.13667273833E+04  0.13667273833E+04  0.00000000000E+00 0. -1.
         -2   -1    0    0    0  501 -0.00000000000E+00 -0.00000000000E+00 -0.22351702150E+03  0.22351702150E+03  0.00000000000E+00 0.  1.
    9900016    2    1    2    0    0  0.30217531642E+03 -0.42384203237E+01  0.84098629480E+03  0.11628484845E+04  0.74406368257E+03 0.  0.
         23    2    3    3    0    0  0.27768788486E+02  0.67316466348E+01  0.55224234673E+02  0.10607290857E+03  0.85937914547E+02 0.  0.
         23    2    3    3    0    0 -0.78417069713E+02 -0.13471648247E+03  0.68524471845E+02  0.19328336502E+03  0.91460857647E+02 0.  0.
        -15    1    4    4    0    0 -0.55214607660E+01  0.38788771597E+02  0.79829281199E+01  0.39984778009E+02  0.00000000000E+00 0.  1.
        -15    1    5    5    0    0  0.99557904160E+01  0.16614151656E+01 -0.87321599839E+01  0.13346485723E+02  0.00000000000E+00 0. -1.
         15    1    5    5    0    0 -0.88372860129E+02 -0.13637789763E+03  0.77256631829E+02  0.17993687930E+03  0.00000000000E+00 0.  1.
         15    1    4    4    0    0  0.33290249252E+02 -0.32057124963E+02  0.47241306553E+02  0.66088130560E+02  0.00000000000E+00 0. -1.
        -16    1    3    3    0    0  0.32082742217E+03  0.15192278378E+03  0.65538506688E+03  0.74534579421E+03  0.00000000000E+00 0.  1.
         16    1    1    2    0    0 -0.30217531642E+03  0.42384203237E+01  0.30222406701E+03  0.42739592036E+03  0.00000000000E+00 0. -1.
    9900018    1    3    3    0    0  0.31996175470E+02 -0.28176368277E+02  0.61852521403E+02  0.11814641667E+03  0.91187600000E+02 0.  0.
<mgrwt>
<rscale>  0 0.11054173E+04</rscale>
<asrwt>0</asrwt>
<pdfrwt beam="1">  1        2 0.21026575E+00 0.11054173E+04</pdfrwt>
<pdfrwt beam="2">  1       -2 0.34387235E-01 0.11054173E+04</pdfrwt>
<totfact> 0.11882424E+02</totfact>
</mgrwt>
</event>
<event>
12    1  0.8267757E-012  0.8287044E+03  0.7818608E-02  0.1020283E+00
         -1   -1    0    0    0  501 -0.00000000000E+00  0.00000000000E+00  0.72433436133E+02  0.72433436133E+02  0.00000000000E+00 0.  1.
          1   -1    0    0  501    0  0.00000000000E+00 -0.00000000000E+00 -0.29143910741E+04  0.29143910741E+04  0.00000000000E+00 0. -1.
         23    2    1    2    0    0 -0.11325668097E+02  0.25745571103E+01 -0.29313739418E+03  0.30666862085E+03  0.89337629489E+02 0.  0.
    9900016    2    1    2    0    0  0.19276808348E+02  0.13175090458E+03 -0.21993206591E+04  0.23056475317E+04  0.67916808130E+03 0.  0.
         23    2    4    4    0    0  0.20546577413E+03  0.18458621925E+03 -0.15288378945E+04  0.15565235812E+04  0.95561993098E+02 0.  0.
        -15    1    5    5    0    0  0.46116289391E+02  0.11701164940E+02 -0.13847239402E+03  0.14641800884E+03  0.00000000000E+00 0.  1.
        -15    1    3    3    0    0 -0.44192099140E+01  0.42572677291E+02 -0.20789977723E+03  0.21225993414E+03  0.00000000000E+00 0.  1.
         15    1    3    3    0    0 -0.69064581828E+01 -0.39998120181E+02 -0.85237616955E+02  0.94408686713E+02  0.00000000000E+00 0. -1.
         15    1    5    5    0    0  0.15934948474E+03  0.17288505431E+03 -0.13903655005E+04  0.14101055724E+04  0.00000000000E+00 0. -1.
        -16    1    1    2    0    0 -0.79511402509E+01 -0.13432546169E+03 -0.34949958468E+03  0.37450835769E+03  0.00000000000E+00 0.  1.
         16    1    4    4    0    0 -0.16213940139E+03 -0.43709885707E+02 -0.61883544580E+03  0.64121529035E+03  0.00000000000E+00 0. -1.
    9900018    1    4    4    0    0 -0.24049564399E+02 -0.91254289668E+01 -0.51647318815E+02  0.10790866015E+03  0.91187600000E+02 0.  0.
<mgrwt>
<rscale>  0 0.47584798E+03</rscale>
<asrwt>0</asrwt>
<pdfrwt beam="1">  1        1 0.44836786E+00 0.82870438E+03</pdfrwt>
<pdfrwt beam="2">  1       -1 0.11143606E-01 0.82870438E+03</pdfrwt>
<totfact> 0.38268645E+01</totfact>
</mgrwt>
</event>
<event>
12    1  0.8267757E-012  0.1995733E+04  0.7818608E-02  0.9256811E-01
         -2   -1    0    0    0  501 -0.00000000000E+00  0.00000000000E+00  0.38924120783E+03  0.38924120783E+03  0.00000000000E+00 0.  1.
          2   -1    0    0  501    0  0.00000000000E+00 -0.00000000000E+00 -0.29932772017E+04  0.29932772017E+04  0.00000000000E+00 0. -1.
         23    2    1    2    0    0 -0.83780165886E+02  0.88286302986E+02 -0.28436225869E+03  0.32247977336E+03  0.91201549181E+02 0.  0.
    9900016    2    1    2    0    0 -0.94090831140E+02  0.74806025824E+03 -0.18034578797E+04  0.20612431258E+04  0.65407619221E+03 0.  0.
         23    2    4    4    0    0  0.13080445177E+03  0.14141857679E+02 -0.26262564711E+03  0.30754110192E+03  0.91101603247E+02 0.  0.
        -15    1    3    3    0    0 -0.11136811870E+00  0.28836604002E+02 -0.11666016900E+02  0.31107203081E+02  0.00000000000E+00 0.  1.
        -15    1    5    5    0    0  0.59116814587E+02  0.33492555166E+02 -0.19719644497E+03  0.20857369663E+03  0.00000000000E+00 0.  1.
         15    1    3    3    0    0 -0.83668797768E+02  0.59449698984E+02 -0.27269624179E+03  0.29137257028E+03  0.00000000000E+00 0. -1.
         15    1    5    5    0    0  0.71687637182E+02 -0.19350697487E+02 -0.65429202135E+02  0.98967405290E+02  0.00000000000E+00 0. -1.
        -16    1    1    2    0    0  0.17787099703E+03 -0.83634656123E+03 -0.51621585541E+03  0.99879551032E+03  0.00000000000E+00 0.  1.
         16    1    4    4    0    0 -0.17621403800E+03  0.68738731781E+03 -0.14234273786E+04  0.15905025036E+04  0.00000000000E+00 0. -1.
    9900018    1    4    4    0    0 -0.48681244904E+02  0.46531082752E+02 -0.11740485403E+03  0.16319952025E+03  0.91187600000E+02 0.  0.
<mgrwt>
<rscale>  0 0.10485807E+04</rscale>
<asrwt>0</asrwt>
<pdfrwt beam="1">  1        2 0.46050417E+00 0.19957330E+04</pdfrwt>
<pdfrwt beam="2">  1       -2 0.59883264E-01 0.19957330E+04</pdfrwt>
<totfact> 0.42448871E+00</totfact>
</mgrwt>
</event>
<event>
12    1  0.8267757E-012  0.9670366E+03  0.7818608E-02  0.1003624E+00
         -2   -1    0    0    0  501 -0.00000000000E+00  0.00000000000E+00  0.16193940063E+03  0.16193940063E+03  0.00000000000E+00 0.  1.
          2   -1    0    0  501    0  0.00000000000E+00 -0.00000000000E+00 -0.17422704524E+04  0.17422704524E+04  0.00000000000E+00 0. -1.
         23    2    1    2    0    0 -0.29927496944E+01  0.25785085642E+02 -0.16077993794E+03  0.18657046082E+03  0.91019345275E+02 0.  0.
    9900016    2    1    2    0    0 -0.14743702203E+03  0.12746373429E+03 -0.79110333293E+03  0.10535152093E+04  0.66788107759E+03 0.  0.
         23    2    4    4    0    0 -0.23455696106E+03 -0.12795739288E+03 -0.52590803056E+03  0.59678315792E+03  0.90447877841E+02 0.  0.
        -15    1    3    3    0    0 -0.27513547436E+02  0.51886860078E+02 -0.95565079569E+02  0.11216918460E+03  0.00000000000E+00 0.  1.
        -15    1    5    5    0    0 -0.16095449932E+03 -0.38409675306E+02 -0.32964417877E+03  0.36884541288E+03  0.00000000000E+00 0. -1.
         15    1    5    5    0    0 -0.73602461739E+02 -0.89547717574E+02 -0.19626385179E+03  0.22793774504E+03  0.00000000000E+00 0.  1.
         15    1    3    3    0    0  0.24520797742E+02 -0.26101774435E+02 -0.65214858370E+02  0.74401276218E+02  0.00000000000E+00 0. -1.
        -16    1    4    4    0    0  0.10200041811E+02  0.25036579071E+03 -0.15769457086E+03  0.29606527606E+03  0.00000000000E+00 0.  1.
         16    1    1    2    0    0  0.15042977172E+03 -0.15324881993E+03 -0.62844778086E+03  0.66412418289E+03  0.00000000000E+00 0. -1.
    9900018    1    4    4    0    0  0.76919897223E+02  0.50553364571E+01 -0.10750073151E+03  0.16066677530E+03  0.91187600000E+02 0.  0.
<mgrwt>
<rscale>  0 0.54089213E+03</rscale>
<asrwt>0</asrwt>
<pdfrwt beam="1">  1        2 0.26804162E+00 0.96703656E+03</pdfrwt>
<pdfrwt beam="2">  1       -2 0.24913753E-01 0.96703656E+03</pdfrwt>
<totfact> 0.13435367E+02</totfact>
</mgrwt>
</event>
<event>
12    1  0.8267757E-012  0.8905259E+03  0.7818608E-02  0.9437503E-01
         -2   -1    0    0    0  501 -0.00000000000E+00  0.00000000000E+00  0.81737179365E+03  0.81737179365E+03  0.00000000000E+00 0.  1.
          2   -1    0    0  501    0  0.00000000000E+00 -0.00000000000E+00 -0.24255681993E+03  0.24255681993E+03  0.00000000000E+00 0. -1.
    9900016    2    1    2    0    0  0.36196217683E+02 -0.75483417870E+02  0.60439575591E+03  0.97114271818E+03  0.75552368378E+03 0.  0.
         23    2    3    3    0    0 -0.13696161547E+02  0.48643789077E+01  0.37443214355E+02  0.99340777053E+02  0.90858949262E+02 0.  0.
         23    2    3    3    0    0 -0.50025600991E+02 -0.16242553411E+03  0.23157410677E+03  0.30123645139E+03  0.90731570220E+02 0.  0.
        -15    1    5    5    0    0 -0.24616191054E+02 -0.14844236619E+03  0.14128628586E+03  0.20640471776E+03  0.00000000000E+00 0.  1.
        -15    1    4    4    0    0 -0.39388410000E+02 -0.29289515197E+02  0.23199178138E+02  0.54291108011E+02  0.00000000000E+00 0. -1.
         15    1    4    4    0    0  0.25692248452E+02  0.34153894104E+02  0.14244036217E+02  0.45049669042E+02  0.00000000000E+00 0.  1.
         15    1    5    5    0    0 -0.25409409936E+02 -0.13983167924E+02  0.90287820917E+02  0.94831733636E+02  0.00000000000E+00 0. -1.
        -16    1    3    3    0    0  0.26445773679E+03  0.50537886773E+02  0.17269388796E+03  0.31986739673E+03  0.00000000000E+00 0.  1.
         16    1    1    2    0    0 -0.36196217683E+02  0.75483417870E+02 -0.29580782193E+02  0.88785895406E+02  0.00000000000E+00 0. -1.
    9900018    1    3    3    0    0 -0.16453975657E+03  0.31539850562E+02  0.16268454682E+03  0.25069809300E+03  0.91187600000E+02 0.  0.
<mgrwt>
<rscale>  0 0.89052592E+03</rscale>
<asrwt>0</asrwt>
<pdfrwt beam="1">  1        2 0.37316434E-01 0.89052592E+03</pdfrwt>
<pdfrwt beam="2">  1       -2 0.12574951E+00 0.89052592E+03</pdfrwt>
<totfact> 0.65964541E+01</totfact>
</mgrwt>
</event>
<event>
12    1  0.8267757E-012  0.9903406E+03  0.7818608E-02  0.1001881E+00
          2   -1    0    0  501    0  0.00000000000E+00  0.00000000000E+00  0.36234625219E+04  0.36234625219E+04  0.00000000000E+00 0. -1.
         -2   -1    0    0    0  501 -0.00000000000E+00 -0.00000000000E+00 -0.83636715411E+02  0.83636715411E+02  0.00000000000E+00 0.  1.
         23    2    1    2    0    0  0.22802292497E+02 -0.35492041645E+01  0.15928773516E+03  0.18448485641E+03  0.90163952210E+02 0.  0.
    9900016    2    1    2    0    0  0.17017283097E+03  0.11518008074E+03  0.18865421780E+04  0.20120765363E+04  0.66871918988E+03 0.  0.
         23    2    4    4    0    0 -0.10924342520E+03 -0.91824304779E+02  0.74778541437E+03  0.76674478285E+03  0.91371260175E+02 0.  0.
        -15    1    5    5    0    0 -0.64640658320E+02 -0.97792474864E+02  0.62666514948E+03  0.63753509112E+03  0.00000000000E+00 0. -1.
        -15    1    3    3    0    0  0.43409689337E+02 -0.31161586275E+02  0.65278456989E+02  0.84360669357E+02  0.00000000000E+00 0. -1.
         15    1    3    3    0    0 -0.20607396840E+02  0.27612382110E+02  0.94009278170E+02  0.10012418705E+03  0.00000000000E+00 0.  1.
         15    1    5    5    0    0 -0.44602766883E+02  0.59681700851E+01  0.12112026489E+03  0.12920969172E+03  0.00000000000E+00 0.  1.
        -16    1    4    4    0    0  0.10080855725E+03  0.84593029861E+02  0.66140246605E+02  0.14728502346E+03  0.00000000000E+00 0.  1.
         16    1    1    2    0    0 -0.19297512347E+03 -0.11163087657E+03  0.14939958933E+04  0.15105378446E+04  0.00000000000E+00 0. -1.
    9900018    1    4    4    0    0  0.17860769893E+03  0.12241135565E+03  0.10726165171E+04  0.10980467300E+04  0.91187600000E+02 0.  0.
<mgrwt>
<rscale>  0 0.54832898E+03</rscale>
<asrwt>0</asrwt>
<pdfrwt beam="1">  1        2 0.55745565E+00 0.99034056E+03</pdfrwt>
<pdfrwt beam="2">  1       -2 0.12867190E-01 0.99034056E+03</pdfrwt>
<totfact> 0.31443488E+01</totfact>
</mgrwt>
</event>
<event>
12    1  0.8267757E-012  0.1183596E+04  0.7818608E-02  0.9127337E-01
         -1   -1    0    0    0  501 -0.00000000000E+00  0.00000000000E+00  0.33956889239E+03  0.33956889239E+03  0.00000000000E+00 0.  1.
          1   -1    0    0  501    0  0.00000000000E+00 -0.00000000000E+00 -0.10313813794E+04  0.10313813794E+04  0.00000000000E+00 0. -1.
    9900016    2    1    2    0    0 -0.32382292905E+03  0.66917029207E+02 -0.61449496196E+03  0.10313664414E+04  0.75945605535E+03 0.  0.
         23    2    3    3    0    0 -0.63800826795E+02  0.56660566925E+02 -0.10009471566E+03  0.16099763889E+03  0.92845690694E+02 0.  0.
         23    2    3    3    0    0 -0.99960691407E+02 -0.15651467787E+03 -0.42029690049E+03  0.46886514485E+03  0.93252642178E+02 0.  0.
        -15    1    5    5    0    0 -0.48594848283E+02 -0.15798490949E+02 -0.60887803928E+02  0.79488214618E+02  0.00000000000E+00 0. -1.
        -15    1    4    4    0    0 -0.31682648967E+02 -0.90917491159E+01 -0.77807881971E+02  0.84501577763E+02  0.00000000000E+00 0. -1.
         15    1    4    4    0    0 -0.32118177828E+02  0.65752316041E+02 -0.22286833688E+02  0.76496061125E+02  0.00000000000E+00 0.  1.
         15    1    5    5    0    0 -0.51365843124E+02 -0.14071618692E+03 -0.35940909656E+03  0.38937693023E+03  0.00000000000E+00 0.  1.
        -16    1    3    3    0    0  0.32399113873E+02  0.10837419008E+03  0.63949662656E+02  0.12993932049E+03  0.00000000000E+00 0.  1.
         16    1    1    2    0    0  0.32382292905E+03 -0.66917029207E+02 -0.77317525045E+02  0.33958383038E+03  0.00000000000E+00 0. -1.
    9900018    1    3    3    0    0 -0.19246052472E+03  0.58396950073E+02 -0.15805300846E+03  0.27156433718E+03  0.91187600000E+02 0.  0.
<mgrwt>
<rscale>  0 0.11835963E+04</rscale>
<asrwt>0</asrwt>
<pdfrwt beam="1">  1        1 0.15867406E+00 0.11835963E+04</pdfrwt>
<pdfrwt beam="2">  1       -1 0.52241368E-01 0.11835963E+04</pdfrwt>
<totfact> 0.52295379E+01</totfact>
</mgrwt>
</event>
<event>
12    1  0.8267757E-012  0.8079558E+03  0.7818608E-02  0.1018966E+00
          2   -1    0    0  501    0  0.00000000000E+00  0.00000000000E+00  0.27122616916E+03  0.27122616916E+03  0.00000000000E+00 0. -1.
         -2   -1    0    0    0  501 -0.00000000000E+00 -0.00000000000E+00 -0.79815759866E+03  0.79815759866E+03  0.00000000000E+00 0.  1.
         23    2    1    2    0    0 -0.43938613877E+02  0.16146587826E+02  0.62483669304E+01  0.10135830040E+03  0.89683604315E+02 0.  0.
    9900016    2    1    2    0    0 -0.51920525340E+02  0.25261694697E+02 -0.32891925092E+03  0.73862191278E+03  0.65881754852E+03 0.  0.
         23    2    4    4    0    0  0.26152498194E+01 -0.12485942271E+03 -0.41718087673E+03  0.44407142023E+03  0.86964518005E+02 0.  0.
        -15    1    3    3    0    0 -0.23838026732E+02 -0.34735174018E+02 -0.11800541141E+02  0.43749704042E+02  0.00000000000E+00 0. -1.
        -15    1    5    5    0    0 -0.24154478157E+02 -0.10017589324E+03 -0.37218934023E+03  0.38619108403E+03  0.00000000000E+00 0.  1.
         15    1    5    5    0    0  0.26769727977E+02 -0.24683529473E+02 -0.44991536494E+02  0.57880336206E+02  0.00000000000E+00 0. -1.
         15    1    3    3    0    0 -0.20100587145E+02  0.50881761843E+02  0.18048908071E+02  0.57608596358E+02  0.00000000000E+00 0.  1.
        -16    1    1    2    0    0  0.95859139217E+02 -0.41408282523E+02 -0.20426054550E+03  0.22940355464E+03  0.00000000000E+00 0.  1.
         16    1    4    4    0    0  0.65775166120E+01  0.14994878933E+03 -0.54878486252E+01  0.15019327424E+03  0.00000000000E+00 0. -1.
    9900018    1    4    4    0    0 -0.61113291772E+02  0.17232807909E+00  0.93749474428E+02  0.14435721831E+03  0.91187600000E+02 0.  0.
<mgrwt>
<rscale>  0 0.48061668E+03</rscale>
<asrwt>0</asrwt>
<pdfrwt beam="1">  1        2 0.41727104E-01 0.80795582E+03</pdfrwt>
<pdfrwt beam="2">  1       -2 0.12279347E+00 0.80795582E+03</pdfrwt>
<totfact> 0.62033857E+01</totfact>
</mgrwt>
</event>
<event>
12    1  0.8267757E-012  0.8839870E+03  0.7818608E-02  0.9445823E-01
         -2   -1    0    0    0  501 -0.00000000000E+00  0.00000000000E+00  0.33505305907E+03  0.33505305907E+03  0.00000000000E+00 0.  1.
          2   -1    0    0  501    0  0.00000000000E+00 -0.00000000000E+00 -0.58306656836E+03  0.58306656836E+03  0.00000000000E+00 0. -1.
    9900016    2    1    2    0    0 -0.13596452305E+03 -0.43109420019E+01 -0.21717233697E+03  0.77863445382E+03  0.73525699791E+03 0.  0.
         23    2    3    3    0    0 -0.14713246315E+02  0.12785160090E+02 -0.47158695198E+02  0.96664903142E+02  0.82098849146E+02 0.  0.
         23    2    3    3    0    0 -0.57802634192E+02 -0.89603598392E+02 -0.23557902867E+02  0.14162866049E+03  0.90187323497E+02 0.  0.
        -15    1    4    4    0    0 -0.48950216815E+02  0.10522452210E+02 -0.27753968986E+02  0.57246209667E+02  0.00000000000E+00 0.  1.
        -15    1    5    5    0    0 -0.23608750933E+02 -0.76785047942E+02 -0.51694942391E+02  0.95528444858E+02  0.00000000000E+00 0.  1.
         15    1    5    5    0    0 -0.34193883259E+02 -0.12818550450E+02  0.28137039524E+02  0.46100215630E+02  0.00000000000E+00 0. -1.
         15    1    4    4    0    0  0.34236970500E+02  0.22627078808E+01 -0.19404726211E+02  0.39418693475E+02  0.00000000000E+00 0. -1.
        -16    1    3    3    0    0 -0.21282060700E+02  0.28431519649E+03 -0.67688750157E+02  0.29303553361E+03  0.00000000000E+00 0.  1.
         16    1    1    2    0    0  0.13596452305E+03  0.43109420019E+01 -0.30841172319E+02  0.13948517362E+03  0.00000000000E+00 0. -1.
    9900018    1    3    3    0    0 -0.42166581840E+02 -0.21180770019E+03 -0.78766988752E+02  0.24730535658E+03  0.91187600000E+02 0.  0.
<mgrwt>
<rscale>  0 0.88398696E+03</rscale>
<asrwt>0</asrwt>
<pdfrwt beam="1">  1        2 0.89702547E-01 0.88398696E+03</pdfrwt>
<pdfrwt beam="2">  1       -2 0.51546625E-01 0.88398696E+03</pdfrwt>
<totfact> 0.18328402E+02</totfact>
</mgrwt>
</event>
<event>
12    1  0.8267757E-012  0.9776785E+03  0.7818608E-02  0.1000766E+00
          1   -1    0    0  501    0  0.00000000000E+00  0.00000000000E+00  0.30754869240E+03  0.30754869240E+03  0.00000000000E+00 0. -1.
         -1   -1    0    0    0  501 -0.00000000000E+00 -0.00000000000E+00 -0.94714404580E+03  0.94714404580E+03  0.00000000000E+00 0.  1.
         23    2    1    2    0    0 -0.12424848084E+02  0.49638346405E+02 -0.40522736734E+02  0.10807023699E+03  0.86132117400E+02 0.  0.
    9900016    2    1    2    0    0  0.24400785444E+03  0.59062086649E+02 -0.34263671305E+03  0.78439902648E+03  0.65943441866E+03 0.  0.
         23    2    4    4    0    0  0.21768432396E+03 -0.14176369523E+03 -0.34109618216E+03  0.43801835010E+03  0.89610598434E+02 0.  0.
        -15    1    3    3    0    0 -0.13133881173E+02  0.21819292318E+02  0.25734940528E+02  0.36205904434E+02  0.00000000000E+00 0. -1.
        -15    1    5    5    0    0  0.11236745155E+02 -0.24043329033E+02 -0.83153809161E+02  0.87286322472E+02  0.00000000000E+00 0.  1.
         15    1    5    5    0    0  0.20644757880E+03 -0.11772036620E+03 -0.25794237300E+03  0.35073202762E+03  0.00000000000E+00 0. -1.
         15    1    3    3    0    0  0.70903308981E+00  0.27819054087E+02 -0.66257677261E+02  0.71864332560E+02  0.00000000000E+00 0.  1.
        -16    1    1    2    0    0 -0.23158300636E+03 -0.10870043305E+03 -0.25643590361E+03  0.36222347472E+03  0.00000000000E+00 0.  1.
         16    1    4    4    0    0 -0.11233521327E+03  0.10349093497E+03  0.13879884542E+02  0.15336956985E+03  0.00000000000E+00 0. -1.
    9900018    1    4    4    0    0  0.13865874375E+03  0.97334846905E+02 -0.15420415427E+02  0.19301110654E+03  0.91187600000E+02 0.  0.
<mgrwt>
<rscale>  0 0.55315645E+03</rscale>
<asrwt>0</asrwt>
<pdfrwt beam="1">  1        1 0.47315184E-01 0.97767845E+03</pdfrwt>
<pdfrwt beam="2">  1       -1 0.14571447E+00 0.97767845E+03</pdfrwt>
<totfact> 0.32151922E+01</totfact>
</mgrwt>
</event>
<event>
12    1  0.8267757E-012  0.1665208E+04  0.7818608E-02  0.9437778E-01
          2   -1    0    0  501    0  0.00000000000E+00  0.00000000000E+00  0.11997306737E+04  0.11997306737E+04  0.00000000000E+00 0. -1.
         -2   -1    0    0    0  501 -0.00000000000E+00 -0.00000000000E+00 -0.67699806265E+03  0.67699806265E+03  0.00000000000E+00 0.  1.
         23    2    1    2    0    0  0.81219904579E+02  0.59704622807E+02  0.21775134561E+02  0.13779959667E+03  0.91396156777E+02 0.  0.
    9900016    2    1    2    0    0  0.54198550275E+03  0.17395588517E+03 -0.51581419770E+02  0.87389651337E+03  0.66107907094E+03 0.  0.
         23    2    4    4    0    0  0.91112556471E+02  0.68747381597E+02  0.19286249224E+03  0.24361458387E+03  0.95521851624E+02 0.  0.
        -15    1    5    5    0    0  0.85363201315E+02  0.14264388963E+02  0.78663839156E+02  0.11695447200E+03  0.00000000000E+00 0.  1.
        -15    1    3    3    0    0  0.34207546422E+02  0.71169303655E+02 -0.10463698120E+02  0.79653719268E+02  0.00000000000E+00 0.  1.
         15    1    5    5    0    0  0.57493551560E+01  0.54482992634E+02  0.11419865309E+03  0.12666011187E+03  0.00000000000E+00 0. -1.
         15    1    3    3    0    0  0.47012358157E+02 -0.11464680848E+02  0.32238832682E+02  0.58145877405E+02  0.00000000000E+00 0. -1.
        -16    1    4    4    0    0  0.17125544925E+03  0.29657596258E+02 -0.27475568078E+03  0.32511334337E+03  0.00000000000E+00 0.  1.
         16    1    1    2    0    0 -0.62320540733E+03 -0.23366050798E+03  0.55253889629E+03  0.86503262634E+03  0.00000000000E+00 0. -1.
    9900018    1    4    4    0    0  0.27961749702E+03  0.75550907319E+02  0.30311768769E+02  0.30516858613E+03  0.91187600000E+02 0.  0.
<mgrwt>
<rscale>  0 0.89030843E+03</rscale>
<asrwt>0</asrwt>
<pdfrwt beam="1">  1        2 0.18457395E+00 0.16652075E+04</pdfrwt>
<pdfrwt beam="2">  1       -2 0.10415355E+00 0.16652075E+04</pdfrwt>
<totfact> 0.13499389E+01</totfact>
</mgrwt>
</event>
<event>
12    1  0.8267757E-012  0.8356087E+03  0.7818608E-02  0.1017008E+00
         -2   -1    0    0    0  501 -0.00000000000E+00  0.00000000000E+00  0.18176752238E+03  0.18176752238E+03  0.00000000000E+00 0.  1.
          2   -1    0    0  501    0  0.00000000000E+00 -0.00000000000E+00 -0.12019652690E+04  0.12019652690E+04  0.00000000000E+00 0. -1.
         23    2    1    2    0    0 -0.27136496912E+02  0.23034198420E+02 -0.13690420508E+03  0.16781777535E+03  0.90294410642E+02 0.  0.
    9900016    2    1    2    0    0 -0.15020310841E+02  0.11437239884E+03 -0.78434969699E+03  0.10414224552E+04  0.67531446579E+03 0.  0.
         23    2    4    4    0    0  0.14737420380E+03 -0.45664378360E+02 -0.41309669748E+03  0.45014073739E+03  0.90406916736E+02 0.  0.
        -15    1    3    3    0    0 -0.37242023283E+02  0.37976329737E+02 -0.13977391826E+03  0.14955239264E+03  0.00000000000E+00 0. -1.
        -15    1    5    5    0    0  0.13252102184E+03 -0.67741298518E+01 -0.26590740225E+03  0.29717748340E+03  0.00000000000E+00 0. -1.
         15    1    5    5    0    0  0.14853181960E+02 -0.38890248508E+02 -0.14718929523E+03  0.15296325400E+03  0.00000000000E+00 0.  1.
         15    1    3    3    0    0  0.10105526372E+02 -0.14942131317E+02  0.28697131863E+01  0.18265382704E+02  0.00000000000E+00 0.  1.
        -16    1    1    2    0    0  0.42156807753E+02 -0.13740659726E+03 -0.98943844601E+02  0.17449256086E+03  0.00000000000E+00 0.  1.
         16    1    4    4    0    0 -0.24035517479E+03  0.11853954256E+03 -0.89996855971E+02  0.28270420457E+03  0.00000000000E+00 0. -1.
    9900018    1    4    4    0    0  0.77960660150E+02  0.41497234643E+02 -0.28125614353E+03  0.30857751325E+03  0.91187600000E+02 0.  0.
<mgrwt>
<rscale>  0 0.48781912E+03</rscale>
<asrwt>0</asrwt>
<pdfrwt beam="1">  1        2 0.18491772E+00 0.83560867E+03</pdfrwt>
<pdfrwt beam="2">  1       -2 0.27964236E-01 0.83560867E+03</pdfrwt>
<totfact> 0.22185527E+02</totfact>
</mgrwt>
</event>
<event>
12    1  0.8267757E-012  0.9966799E+03  0.7818608E-02  0.9312194E-01
         -2   -1    0    0    0  501 -0.00000000000E+00  0.00000000000E+00  0.18992069687E+03  0.18992069687E+03  0.00000000000E+00 0.  1.
          2   -1    0    0  501    0  0.00000000000E+00 -0.00000000000E+00 -0.13076126048E+04  0.13076126048E+04  0.00000000000E+00 0. -1.
    9900016    2    1    2    0    0 -0.19705039808E+03  0.40186757840E+02 -0.95770816717E+03  0.12405534733E+04  0.76244616316E+03 0.  0.
         23    2    3    3    0    0 -0.52822094531E+02 -0.33108097111E+02 -0.12631149110E+03  0.16868547205E+03  0.92810968810E+02 0.  0.
         23    2    3    3    0    0  0.57685529157E+02 -0.13111450224E+03 -0.16802912235E+03  0.23903249452E+03  0.91564810422E+02 0.  0.
        -15    1    5    5    0    0  0.67934573503E+02 -0.46700933535E+02 -0.62186390366E+02  0.10326291985E+03  0.00000000000E+00 0. -1.
        -15    1    4    4    0    0  0.59794142546E+00  0.21374123087E+02 -0.31355408268E+00  0.21384784026E+02  0.00000000000E+00 0.  1.
         15    1    5    5    0    0 -0.10249044346E+02 -0.84413568702E+02 -0.10584273199E+03  0.13576957467E+03  0.00000000000E+00 0.  1.
         15    1    4    4    0    0 -0.53420035956E+02 -0.54482220198E+02 -0.12599793701E+03  0.14730068802E+03  0.00000000000E+00 0. -1.
        -16    1    1    2    0    0  0.19705039808E+03 -0.40186757840E+02 -0.15998374078E+03  0.25697982840E+03  0.00000000000E+00 0.  1.
         16    1    3    3    0    0  0.91653476938E+02 -0.21656046062E+02 -0.26484142029E+03  0.28108774799E+03  0.00000000000E+00 0. -1.
    9900018    1    3    3    0    0 -0.29356730965E+03  0.22606540325E+03 -0.39852613343E+03  0.55174775873E+03  0.91187600000E+02 0.  0.
<mgrwt>
<rscale>  0 0.99667988E+03</rscale>
<asrwt>0</asrwt>
<pdfrwt beam="1">  1        2 0.20117117E+00 0.99667988E+03</pdfrwt>
<pdfrwt beam="2">  1       -2 0.29218569E-01 0.99667988E+03</pdfrwt>
<totfact> 0.17575818E+02</totfact>
</mgrwt>
</event>
<event>
12    1  0.8267757E-012  0.1402764E+04  0.7818608E-02  0.9630505E-01
         -2   -1    0    0    0  501 -0.00000000000E+00  0.00000000000E+00  0.40474821379E+03  0.40474821379E+03  0.00000000000E+00 0.  1.
          2   -1    0    0  501    0  0.00000000000E+00 -0.00000000000E+00 -0.14295322319E+04  0.14295322319E+04  0.00000000000E+00 0. -1.
         23    2    1    2    0    0  0.70148855123E+02 -0.86470878772E+01 -0.54527482084E+02  0.12865923739E+03  0.92651600414E+02 0.  0.
    9900016    2    1    2    0    0  0.46679683448E+03  0.17604488842E+03 -0.68550950788E+03  0.10752137470E+04  0.66126411443E+03 0.  0.
         23    2    4    4    0    0  0.76885062273E+02 -0.97444372603E+02 -0.84999843618E+02  0.17639111433E+03  0.92098497534E+02 0.  0.
        -15    1    3    3    0    0 -0.12362400988E+02  0.21297765559E+02  0.12537477733E+01  0.24657567996E+02  0.00000000000E+00 0. -1.
        -15    1    5    5    0    0  0.66627797485E+02 -0.56260715549E+02 -0.98783077051E+02  0.13176732457E+03  0.00000000000E+00 0. -1.
         15    1    5    5    0    0  0.10257264788E+02 -0.41183657054E+02  0.13783233433E+02  0.44623789767E+02  0.00000000000E+00 0.  1.
         15    1    3    3    0    0  0.82511256111E+02 -0.29944853436E+02 -0.55781229857E+02  0.10400166939E+03  0.00000000000E+00 0.  1.
        -16    1    4    4    0    0  0.95958683614E+02  0.34031078258E+03 -0.33008810103E+03  0.48371236509E+03  0.00000000000E+00 0.  1.
         16    1    1    2    0    0 -0.53694568960E+03 -0.16739780054E+03 -0.28474702819E+03  0.63040746130E+03  0.00000000000E+00 0. -1.
    9900018    1    4    4    0    0  0.29395308859E+03 -0.66821521551E+02 -0.27042156323E+03  0.41511026763E+03  0.91187600000E+02 0.  0.
<mgrwt>
<rscale>  0 0.75309657E+03</rscale>
<asrwt>0</asrwt>
<pdfrwt beam="1">  1        2 0.21992804E+00 0.14027637E+04</pdfrwt>
<pdfrwt beam="2">  1       -2 0.62268955E-01 0.14027637E+04</pdfrwt>
<totfact> 0.32346015E+01</totfact>
</mgrwt>
</event>
<event>
12    1  0.8267757E-012  0.1428595E+04  0.7818608E-02  0.8933376E-01
          1   -1    0    0  501    0  0.00000000000E+00  0.00000000000E+00  0.70527613401E+03  0.70527613401E+03  0.00000000000E+00 0. -1.
         -1   -1    0    0    0  501 -0.00000000000E+00 -0.00000000000E+00 -0.72343459273E+03  0.72343459273E+03  0.00000000000E+00 0.  1.
    9900016    2    1    2    0    0  0.33059617331E+03 -0.30028854034E+03  0.24690880333E+03  0.90935758034E+03  0.75266208520E+03 0.  0.
         23    2    3    3    0    0  0.12316190878E+02 -0.28882576034E+02  0.32852303853E+02  0.10249142292E+03  0.91865805102E+02 0.  0.
         23    2    3    3    0    0  0.21272275063E+03 -0.15716240502E+03  0.34290936048E+03  0.44260133621E+03  0.91422771346E+02 0.  0.
        -15    1    4    4    0    0  0.33226586987E+02 -0.30883619883E+01 -0.20853246368E+02  0.39349738838E+02  0.00000000000E+00 0.  1.
        -15    1    5    5    0    0  0.20093395347E+01 -0.35511371082E+02  0.32334287895E+02  0.48068712227E+02  0.00000000000E+00 0.  1.
         15    1    4    4    0    0 -0.20910396109E+02 -0.25794214046E+02  0.53705550221E+02  0.63141684078E+02  0.00000000000E+00 0. -1.
         15    1    5    5    0    0  0.21071341110E+03 -0.12165103393E+03  0.31057507258E+03  0.39453262398E+03  0.00000000000E+00 0. -1.
        -16    1    1    2    0    0 -0.33059617331E+03  0.30028854034E+03 -0.26506726205E+03  0.51935314640E+03  0.00000000000E+00 0.  1.
         16    1    3    3    0    0  0.87640511465E+02 -0.10887354317E+03 -0.20216592278E+03  0.24577503532E+03  0.00000000000E+00 0. -1.
    9900018    1    3    3    0    0  0.17916720338E+02 -0.53700161199E+01  0.73313061783E+02  0.11848978590E+03  0.91187600000E+02 0.  0.
<mgrwt>
<rscale>  0 0.14285953E+04</rscale>
<asrwt>0</asrwt>
<pdfrwt beam="1">  1        1 0.10850402E+00 0.14285953E+04</pdfrwt>
<pdfrwt beam="2">  1       -1 0.11129763E+00 0.14285953E+04</pdfrwt>
<totfact> 0.19456844E+01</totfact>
</mgrwt>
</event>
<event>
12    1  0.8267757E-012  0.8712539E+03  0.7818608E-02  0.9462247E-01
          2   -1    0    0  501    0  0.00000000000E+00  0.00000000000E+00  0.10800589253E+04  0.10800589253E+04  0.00000000000E+00 0.  1.
         -2   -1    0    0    0  501 -0.00000000000E+00 -0.00000000000E+00 -0.17570413549E+03  0.17570413549E+03  0.00000000000E+00 0. -1.
    9900016    2    1    2    0    0 -0.10093963060E+03 -0.26040694867E+02  0.79648823092E+03  0.11057559898E+04  0.75989201881E+03 0.  0.
         23    2    3    3    0    0 -0.52527807877E+02 -0.28606711188E+02  0.90415815431E+02  0.14095564511E+03  0.90088621273E+02 0.  0.
         23    2    3    3    0    0  0.14404637626E+03 -0.76448013602E+02  0.23477023206E+02  0.18837601924E+03  0.91327414886E+02 0.  0.
        -15    1    5    5    0    0  0.73269251458E+02  0.90188541715E+01  0.23284975699E+02  0.77407448176E+02  0.00000000000E+00 0.  1.
        -15    1    4    4    0    0 -0.37703297355E+02  0.48961466366E+01 -0.53749806211E+01  0.38397933538E+02  0.00000000000E+00 0. -1.
         15    1    5    5    0    0  0.70777124798E+02 -0.85466867774E+02  0.19204750702E+00  0.11096857106E+03  0.00000000000E+00 0. -1.
         15    1    4    4    0    0 -0.14824510523E+02 -0.33502857825E+02  0.95790796052E+02  0.10255771157E+03  0.00000000000E+00 0.  1.
        -16    1    1    2    0    0  0.10093963060E+03  0.26040694867E+02  0.10786655892E+03  0.15000707099E+03  0.00000000000E+00 0.  1.
         16    1    3    3    0    0 -0.11952664847E+03  0.62328453092E+02  0.68696181865E+02  0.15129646778E+03  0.00000000000E+00 0. -1.
    9900018    1    3    3    0    0 -0.72931550509E+02  0.16685576831E+02  0.61389921042E+03  0.62512785770E+03  0.91187600000E+02 0.  0.
<mgrwt>
<rscale>  0 0.87125385E+03</rscale>
<asrwt>0</asrwt>
<pdfrwt beam="1">  1        2 0.16616291E+00 0.87125385E+03</pdfrwt>
<pdfrwt beam="2">  1       -2 0.27031406E-01 0.87125385E+03</pdfrwt>
<totfact> 0.27936314E+02</totfact>
</mgrwt>
</event>
<event>
12    1  0.8267757E-012  0.1189545E+04  0.7818608E-02  0.9753878E-01
         -4   -1    0    0    0  501 -0.00000000000E+00  0.00000000000E+00  0.79147863685E+03  0.79147863685E+03  0.00000000000E+00 0. -1.
          4   -1    0    0  501    0  0.00000000000E+00 -0.00000000000E+00 -0.54689462652E+03  0.54689462652E+03  0.00000000000E+00 0.  1.
         23    2    1    2    0    0  0.71338497959E+02 -0.48078487335E+02  0.26017064902E+02  0.12891510809E+03  0.92420209866E+02 0.  0.
    9900016    2    1    2    0    0  0.27484347344E+03 -0.20089113824E+03  0.23731867410E+03  0.78263329764E+03  0.66354995380E+03 0.  0.
         23    2    4    4    0    0  0.83000931744E+02 -0.19215867386E+03  0.37127208053E+03  0.43598967617E+03  0.91814646654E+02 0.  0.
        -15    1    3    3    0    0 -0.21044676543E+02 -0.99391555554E+01 -0.58752261890E+01  0.24003822753E+02  0.00000000000E+00 0.  1.
        -15    1    5    5    0    0  0.85986984501E+02 -0.84123896524E+02  0.20464873369E+03  0.23738512100E+03  0.00000000000E+00 0. -1.
         15    1    5    5    0    0 -0.29860527576E+01 -0.10803477734E+03  0.16662334684E+03  0.19860455518E+03  0.00000000000E+00 0.  1.
         15    1    3    3    0    0  0.92383174502E+02 -0.38139331779E+02  0.31892291091E+02  0.10491128534E+03  0.00000000000E+00 0. -1.
        -16    1    1    2    0    0 -0.34618197140E+03  0.24896962557E+03 -0.18751728664E+02  0.42682485765E+03  0.00000000000E+00 0.  1.
         16    1    4    4    0    0  0.17060043967E+03 -0.47792102929E+02  0.17918101542E+01  0.17717732841E+03  0.00000000000E+00 0. -1.
    9900018    1    4    4    0    0  0.21242102024E+02  0.39059638555E+02 -0.13574521659E+03  0.16946629306E+03  0.91187600000E+02 0.  0.
<mgrwt>
<rscale>  0 0.67897576E+03</rscale>
<asrwt>0</asrwt>
<pdfrwt beam="1">  1        4 0.84137635E-01 0.11895451E+04</pdfrwt>
<pdfrwt beam="2">  1       -4 0.12176594E+00 0.11895451E+04</pdfrwt>
<totfact> 0.12348391E+00</totfact>
</mgrwt>
</event>
<event>
12    1  0.8267757E-012  0.1365387E+04  0.7818608E-02  0.9674330E-01
          4   -1    0    0  501    0  0.00000000000E+00  0.00000000000E+00  0.81525793201E+03  0.81525793201E+03  0.00000000000E+00 0. -1.
         -4   -1    0    0    0  501 -0.00000000000E+00 -0.00000000000E+00 -0.70142227930E+03  0.70142227930E+03  0.00000000000E+00 0.  1.
         23    2    1    2    0    0 -0.49351467981E+02 -0.37251714084E+02  0.10494851779E+03  0.15126406689E+03  0.89684831217E+02 0.  0.
    9900016    2    1    2    0    0 -0.30515562819E+03  0.19273793942E+02  0.40514251226E+03  0.83342290113E+03  0.66103089212E+03 0.  0.
         23    2    4    4    0    0  0.10675700863E+03 -0.13409552580E+03  0.91593843786E+02  0.21461874531E+03  0.91066484981E+02 0.  0.
        -15    1    5    5    0    0  0.28922134338E+02 -0.34747447901E+02  0.74658980087E+02  0.87280228563E+02  0.00000000000E+00 0. -1.
        -15    1    3    3    0    0 -0.68128913603E+02 -0.46532870023E+02  0.10018369340E+03  0.12978300846E+03  0.00000000000E+00 0. -1.
         15    1    3    3    0    0  0.18777445623E+02  0.92811559386E+01  0.47648243901E+01  0.21481058427E+02  0.00000000000E+00 0.  1.
         15    1    5    5    0    0  0.77834874296E+02 -0.99348077897E+02  0.16934863699E+02  0.12733851675E+03  0.00000000000E+00 0.  1.
        -16    1    1    2    0    0  0.35450709617E+03  0.17977920142E+02 -0.39625537734E+03  0.53199324330E+03  0.00000000000E+00 0.  1.
         16    1    4    4    0    0 -0.15980510292E+03  0.59055671168E+02  0.28649222963E+03  0.33332122773E+03  0.00000000000E+00 0. -1.
    9900018    1    4    4    0    0 -0.25210753390E+03  0.94313648572E+02  0.27056438846E+02  0.28548292810E+03  0.91187600000E+02 0.  0.
<mgrwt>
<rscale>  0 0.72565933E+03</rscale>
<asrwt>0</asrwt>
<pdfrwt beam="1">  1        4 0.12542430E+00 0.13653872E+04</pdfrwt>
<pdfrwt beam="2">  1       -4 0.10791112E+00 0.13653872E+04</pdfrwt>
<totfact> 0.62966065E-01</totfact>
</mgrwt>
</event>
<event>
12    1  0.8267757E-012  0.1128491E+04  0.7818608E-02  0.9177859E-01
          2   -1    0    0  501    0  0.00000000000E+00  0.00000000000E+00  0.14488895407E+04  0.14488895407E+04  0.00000000000E+00 0. -1.
         -2   -1    0    0    0  501 -0.00000000000E+00 -0.00000000000E+00 -0.21973602140E+03  0.21973602140E+03  0.00000000000E+00 0.  1.
         23    2    1    2    0    0 -0.31333857477E+02 -0.46180537922E+01  0.99532709821E+02  0.13989123090E+03  0.93057289420E+02 0.  0.
    9900016    2    1    2    0    0 -0.32878949753E+01 -0.75499482556E+02  0.12294270751E+04  0.13961493546E+04  0.65729073110E+03 0.  0.
         23    2    4    4    0    0 -0.46544303740E+02 -0.19493165576E+03  0.12014314335E+03  0.25106763830E+03  0.91846945934E+02 0.  0.
        -15    1    3    3    0    0 -0.21232782729E+02 -0.56203106800E+01  0.11734867708E+03  0.11938647732E+03  0.00000000000E+00 0. -1.
        -15    1    5    5    0    0  0.16636544368E+02 -0.11409499390E+03  0.44465287590E+02  0.12357833160E+03  0.00000000000E+00 0.  1.
         15    1    3    3    0    0 -0.10101074749E+02  0.10022568878E+01 -0.17815967261E+02  0.20504753581E+02  0.00000000000E+00 0.  1.
         15    1    5    5    0    0 -0.63180848109E+02 -0.80836661862E+02  0.75677855758E+02  0.12748930669E+03  0.00000000000E+00 0. -1.
        -16    1    1    2    0    0  0.34621752453E+02  0.80117536348E+02 -0.99806265606E+02  0.13258497663E+03  0.00000000000E+00 0.  1.
         16    1    4    4    0    0 -0.27312167503E+02  0.46467200633E+02  0.85330424541E+03  0.85500484821E+03  0.00000000000E+00 0. -1.
    9900018    1    4    4    0    0  0.70568576268E+02  0.72964972574E+02  0.25597968637E+03  0.29007686810E+03  0.91187600000E+02 0.  0.
<mgrwt>
<rscale>  0 0.11284914E+04</rscale>
<asrwt>0</asrwt>
<pdfrwt beam="1">  1        2 0.22290608E+00 0.11284914E+04</pdfrwt>
<pdfrwt beam="2">  1       -2 0.33805543E-01 0.11284914E+04</pdfrwt>
<totfact> 0.11001780E+02</totfact>
</mgrwt>
</event>
<event>
12    1  0.8267757E-012  0.8095691E+03  0.7818608E-02  0.9546269E-01
          2   -1    0    0  501    0  0.00000000000E+00  0.00000000000E+00  0.86307956237E+03  0.86307956237E+03  0.00000000000E+00 0. -1.
         -2   -1    0    0    0  501 -0.00000000000E+00 -0.00000000000E+00 -0.18984408322E+03  0.18984408322E+03  0.00000000000E+00 0.  1.
    9900016    2    1    2    0    0  0.32038676644E+01  0.82425397839E+01  0.69542505325E+03  0.10290367992E+04  0.75843425902E+03 0.  0.
         23    2    3    3    0    0 -0.12716857231E+02 -0.27546303920E+02  0.72606889558E+02  0.11992726025E+03  0.90500110618E+02 0.  0.
         23    2    3    3    0    0 -0.98195621400E+02  0.24574524986E+03  0.22140828903E+03  0.35638752414E+03  0.89203862136E+02 0.  0.
        -15    1    4    4    0    0  0.17552338280E+02  0.77814605031E+00  0.76310868956E+02  0.78307335616E+02  0.00000000000E+00 0. -1.
        -15    1    5    5    0    0  0.15999166098E+02  0.51616437837E+02  0.43519916988E+02  0.69384531024E+02  0.00000000000E+00 0.  1.
         15    1    5    5    0    0 -0.11419478750E+03  0.19412881202E+03  0.17788837204E+03  0.28700299311E+03  0.00000000000E+00 0. -1.
         15    1    4    4    0    0 -0.30269195511E+02 -0.28324449970E+02 -0.37039793985E+01  0.41619924632E+02  0.00000000000E+00 0.  1.
        -16    1    1    2    0    0 -0.32038676644E+01 -0.82425397839E+01 -0.22189574096E+02  0.23886846352E+02  0.00000000000E+00 0.  1.
         16    1    3    3    0    0  0.39352886333E+02 -0.46684382048E+01  0.28710585382E+03  0.28982790631E+03  0.00000000000E+00 0. -1.
    9900018    1    3    3    0    0  0.74763459963E+02 -0.20528796795E+03  0.11430402085E+03  0.26289410854E+03  0.91187600000E+02 0.  0.
<mgrwt>
<rscale>  0 0.80956914E+03</rscale>
<asrwt>0</asrwt>
<pdfrwt beam="1">  1        2 0.13278147E+00 0.80956914E+03</pdfrwt>
<pdfrwt beam="2">  1       -2 0.29206783E-01 0.80956914E+03</pdfrwt>
<totfact> 0.33635539E+02</totfact>
</mgrwt>
</event>
<event>
12    1  0.8267757E-012  0.1097825E+04  0.7818608E-02  0.9942030E-01
         -1   -1    0    0    0  501 -0.00000000000E+00  0.00000000000E+00  0.32616249833E+03  0.32616249833E+03  0.00000000000E+00 0.  1.
          1   -1    0    0  501    0  0.00000000000E+00 -0.00000000000E+00 -0.10855652000E+04  0.10855652000E+04  0.00000000000E+00 0. -1.
         23    2    1    2    0    0  0.14935409312E+02 -0.42914743854E+00 -0.93211047813E+02  0.12758195406E+03  0.85823102653E+02 0.  0.
    9900016    2    1    2    0    0 -0.10552225692E+03 -0.79592665778E+02 -0.83164821480E+03  0.10792424961E+04  0.67502272041E+03 0.  0.
         23    2    4    4    0    0  0.98229984058E+02 -0.95916570474E+02 -0.15176050516E+03  0.21968437241E+03  0.79880249727E+02 0.  0.
        -15    1    3    3    0    0 -0.16730198714E+02 -0.29348959406E+02 -0.72444467304E+02  0.79934109179E+02  0.00000000000E+00 0.  1.
        -15    1    5    5    0    0  0.48319588218E+02 -0.41628376932E+02 -0.16902461585E+02  0.65980281745E+02  0.00000000000E+00 0.  1.
         15    1    5    5    0    0  0.49910395840E+02 -0.54288193541E+02 -0.13485804358E+03  0.15370409067E+03  0.00000000000E+00 0. -1.
         15    1    3    3    0    0  0.31665608026E+02  0.28919811968E+02 -0.20766580509E+02  0.47647844882E+02  0.00000000000E+00 0. -1.
        -16    1    1    2    0    0  0.90586847611E+02  0.80021813216E+02  0.16545656094E+03  0.20490324816E+03  0.00000000000E+00 0.  1.
         16    1    4    4    0    0  0.64417649483E+02  0.12853956312E+03 -0.37506091897E+02  0.14858923172E+03  0.00000000000E+00 0. -1.
    9900018    1    4    4    0    0 -0.26816989046E+03 -0.11221565843E+03 -0.64238161774E+03  0.71096889198E+03  0.91187600000E+02 0.  0.
<mgrwt>
<rscale>  0 0.58266881E+03</rscale>
<asrwt>0</asrwt>
<pdfrwt beam="1">  1        1 0.16701003E+00 0.10978247E+04</pdfrwt>
<pdfrwt beam="2">  1       -1 0.50178846E-01 0.10978247E+04</pdfrwt>
<totfact> 0.51623157E+01</totfact>
</mgrwt>
</event>
<event>
12    1  0.8267757E-012  0.1632982E+04  0.7818608E-02  0.8800538E-01
         -2   -1    0    0    0  501 -0.00000000000E+00  0.00000000000E+00  0.36253558599E+03  0.36253558599E+03  0.00000000000E+00 0.  1.
          2   -1    0    0  501    0  0.00000000000E+00 -0.00000000000E+00 -0.18388741892E+04  0.18388741892E+04  0.00000000000E+00 0. -1.
    9900016    2    1    2    0    0  0.33034541318E+03  0.38322422246E+02 -0.15579973376E+03  0.83963901409E+03  0.75506517394E+03 0.  0.
         23    2    3    3    0    0  0.30906837128E+02  0.11658612706E+02  0.15929892108E+01  0.96731874569E+02  0.90903036866E+02 0.  0.
         23    2    3    3    0    0  0.40126441161E+03  0.14939641853E+03 -0.59100277113E+02  0.44145926977E+03  0.89783217892E+02 0.  0.
        -15    1    4    4    0    0  0.57416253790E+02 -0.24282782421E+00  0.21715773656E+02  0.61386154710E+02  0.00000000000E+00 0.  1.
        -15    1    5    5    0    0  0.24946944449E+03  0.46094808660E+02 -0.27992015370E+02  0.25523183196E+03  0.00000000000E+00 0.  1.
         15    1    5    5    0    0  0.15179496711E+03  0.10330160987E+03 -0.31108261743E+02  0.18622743780E+03  0.00000000000E+00 0. -1.
         15    1    4    4    0    0 -0.26509416663E+02  0.11901440530E+02 -0.20122784445E+02  0.35345719859E+02  0.00000000000E+00 0. -1.
        -16    1    3    3    0    0 -0.84395551159E+02 -0.11690205416E+03  0.25685265643E+02  0.14645283266E+03  0.00000000000E+00 0.  1.
         16    1    1    2    0    0 -0.33034541318E+03 -0.38322422246E+02 -0.13205388694E+04  0.13617707611E+04  0.00000000000E+00 0. -1.
    9900018    1    3    3    0    0 -0.17430284393E+02 -0.58305548297E+01 -0.12397771150E+03  0.15499503710E+03  0.91187600000E+02 0.  0.
<mgrwt>
<rscale>  0 0.16329817E+04</rscale>
<asrwt>0</asrwt>
<pdfrwt beam="1">  1        2 0.28290372E+00 0.16329817E+04</pdfrwt>
<pdfrwt beam="2">  1       -2 0.55774705E-01 0.16329817E+04</pdfrwt>
<totfact> 0.23713639E+01</totfact>
</mgrwt>
</event>
<event>
12    1  0.8267757E-012  0.8755489E+03  0.7818608E-02  0.9456673E-01
          1   -1    0    0  501    0  0.00000000000E+00  0.00000000000E+00  0.12485992334E+04  0.12485992334E+04  0.00000000000E+00 0. -1.
         -1   -1    0    0    0  501 -0.00000000000E+00 -0.00000000000E+00 -0.15348917652E+03  0.15348917652E+03  0.00000000000E+00 0.  1.
    9900016    2    1    2    0    0 -0.10432929349E+03  0.31475735562E+01  0.89662423913E+03  0.11778315738E+04  0.75660933205E+03 0.  0.
         23    2    3    3    0    0 -0.45192197613E+01 -0.24164565994E+02  0.10514714797E+03  0.14237339996E+03  0.92789615217E+02 0.  0.
         23    2    3    3    0    0  0.14640873711E+03 -0.16304717656E+02  0.58874802363E+03  0.61388059655E+03  0.92324370385E+02 0.  0.
        -15    1    5    5    0    0  0.12416651101E+03 -0.25755258860E+02  0.56814069094E+03  0.58212069240E+03  0.00000000000E+00 0.  1.
        -15    1    4    4    0    0  0.16720887386E+02  0.31700926856E+02  0.45677821976E+02  0.58060315698E+02  0.00000000000E+00 0. -1.
         15    1    5    5    0    0  0.22242226101E+02  0.94505412043E+01  0.20607332692E+02  0.31759904151E+02  0.00000000000E+00 0. -1.
         15    1    4    4    0    0 -0.21240107147E+02 -0.55865492851E+02  0.59469325995E+02  0.84313084260E+02  0.00000000000E+00 0.  1.
        -16    1    3    3    0    0  0.26244407350E+02  0.49108797081E+02 -0.18759773959E+02  0.58756888846E+02  0.00000000000E+00 0.  1.
         16    1    1    2    0    0  0.10432929349E+03 -0.31475735562E+01  0.19848581770E+03  0.22425683608E+03  0.00000000000E+00 0. -1.
    9900018    1    3    3    0    0 -0.27246321819E+03 -0.54919398746E+01  0.22148884149E+03  0.36282068845E+03  0.91187600000E+02 0.  0.
<mgrwt>
<rscale>  0 0.87554890E+03</rscale>
<asrwt>0</asrwt>
<pdfrwt beam="1">  1        1 0.19209218E+00 0.87554890E+03</pdfrwt>
<pdfrwt beam="2">  1       -1 0.23613720E-01 0.87554890E+03</pdfrwt>
<totfact> 0.15334512E+02</totfact>
</mgrwt>
</event>
<event>
12    1  0.8267757E-012  0.9003976E+03  0.7818608E-02  0.1007633E+00
          2   -1    0    0  501    0  0.00000000000E+00  0.00000000000E+00  0.17623609811E+04  0.17623609811E+04  0.00000000000E+00 0.  1.
         -2   -1    0    0    0  501 -0.00000000000E+00 -0.00000000000E+00 -0.14343142202E+03  0.14343142202E+03  0.00000000000E+00 0. -1.
         23    2    1    2    0    0 -0.35327665898E+01 -0.31971755370E+02  0.13568563672E+03  0.17064734336E+03  0.98362849710E+02 0.  0.
    9900016    2    1    2    0    0 -0.20261142710E+03  0.59338879506E+02  0.11065688876E+04  0.13048794791E+04  0.65851595197E+03 0.  0.
         23    2    4    4    0    0 -0.22329866888E+02  0.11143286963E+03  0.18563840979E+03  0.23602034958E+03  0.91258308335E+02 0.  0.
        -15    1    3    3    0    0  0.38709854007E+02  0.13787991029E+02  0.49952030425E+02  0.64682044165E+02  0.00000000000E+00 0.  1.
        -15    1    5    5    0    0  0.88222275521E+01  0.16515111743E+02  0.10769891909E+03  0.10931439881E+03  0.00000000000E+00 0. -1.
         15    1    3    3    0    0 -0.42242620597E+02 -0.45759746399E+02  0.85733606296E+02  0.10596529920E+03  0.00000000000E+00 0. -1.
         15    1    5    5    0    0 -0.31152094440E+02  0.94917757888E+02  0.77939490696E+02  0.12670595077E+03  0.00000000000E+00 0.  1.
        -16    1    1    2    0    0  0.20614419369E+03 -0.27367124137E+02  0.37667503483E+03  0.43026558070E+03  0.00000000000E+00 0.  1.
         16    1    4    4    0    0 -0.28299409655E+03 -0.30997077674E+02  0.87863380911E+03  0.92360372889E+03  0.00000000000E+00 0. -1.
    9900018    1    4    4    0    0  0.10271253633E+03 -0.21096912451E+02  0.42296668683E+02  0.14525540062E+03  0.91187600000E+02 0.  0.
<mgrwt>
<rscale>  0 0.52426280E+03</rscale>
<asrwt>0</asrwt>
<pdfrwt beam="1">  1        2 0.27113244E+00 0.90039760E+03</pdfrwt>
<pdfrwt beam="2">  1       -2 0.22066374E-01 0.90039760E+03</pdfrwt>
<totfact> 0.16362336E+02</totfact>
</mgrwt>
</event>
<event>
12    1  0.8267757E-012  0.1187483E+04  0.7818608E-02  0.9123884E-01
         -2   -1    0    0    0  501 -0.00000000000E+00  0.00000000000E+00  0.15235104757E+03  0.15235104757E+03  0.00000000000E+00 0. -1.
          2   -1    0    0  501    0  0.00000000000E+00 -0.00000000000E+00 -0.23139254727E+04  0.23139254727E+04  0.00000000000E+00 0.  1.
    9900016    2    1    2    0    0 -0.19032740047E+03 -0.11786629323E+03 -0.93094782876E+03  0.12154532705E+04  0.74869607350E+03 0.  0.
         23    2    3    3    0    0 -0.15596769666E+02 -0.99895146360E+01 -0.69142504126E+02  0.11615978305E+03  0.91484204616E+02 0.  0.
         23    2    3    3    0    0  0.67009742628E+02 -0.11392902112E+03 -0.35660163339E+03  0.39103636128E+03  0.90964737349E+02 0.  0.
        -15    1    5    5    0    0 -0.17171767658E+02 -0.54213750953E+02 -0.11417258511E+03  0.12755147818E+03  0.00000000000E+00 0. -1.
        -15    1    4    4    0    0  0.19586483002E+02  0.13444806870E+02 -0.69954783780E+02  0.73878717652E+02  0.00000000000E+00 0. -1.
         15    1    5    5    0    0  0.84181510287E+02 -0.59715270169E+02 -0.24242904829E+03  0.26348488309E+03  0.00000000000E+00 0.  1.
         15    1    4    4    0    0 -0.35183252669E+02 -0.23434321506E+02  0.81227965356E+00  0.42281065396E+02  0.00000000000E+00 0.  1.
        -16    1    1    2    0    0  0.19032740047E+03  0.11786629323E+03 -0.12306265964E+04  0.12508232498E+04  0.00000000000E+00 0.  1.
         16    1    3    3    0    0 -0.17579365285E+03 -0.14772147635E+02  0.13641408645E+02  0.17693985633E+03  0.00000000000E+00 0. -1.
    9900018    1    3    3    0    0 -0.65946720586E+02  0.20824390161E+02 -0.51884509989E+03  0.53131726986E+03  0.91187600000E+02 0.  0.
<mgrwt>
<rscale>  0 0.11874830E+04</rscale>
<asrwt>0</asrwt>
<pdfrwt beam="1">  1        2 0.35598854E+00 0.11874830E+04</pdfrwt>
<pdfrwt beam="2">  1       -2 0.23438622E-01 0.11874830E+04</pdfrwt>
<totfact> 0.71173808E+01</totfact>
</mgrwt>
</event>
<event>
12    1  0.8267757E-012  0.1197971E+04  0.7818608E-02  0.9803372E-01
         -1   -1    0    0    0  501 -0.00000000000E+00  0.00000000000E+00  0.29284579338E+03  0.29284579338E+03  0.00000000000E+00 0.  1.
          1   -1    0    0  501    0  0.00000000000E+00 -0.00000000000E+00 -0.15831509087E+04  0.15831509087E+04  0.00000000000E+00 0. -1.
         23    2    1    2    0    0 -0.39979306740E+02 -0.33249999771E+02  0.12956797685E+02  0.10579172922E+03  0.91214603616E+02 0.  0.
    9900016    2    1    2    0    0 -0.73284314696E+02 -0.18482395377E+03 -0.31942343460E+03  0.75614232748E+03  0.65588825586E+03 0.  0.
         23    2    4    4    0    0  0.10296640815E+03  0.40702690689E+02 -0.14669740784E+03  0.20543399745E+03  0.91783482208E+02 0.  0.
        -15    1    3    3    0    0 -0.42733056076E+02 -0.61840533543E+02  0.24542521107E+01  0.75208969039E+02  0.00000000000E+00 0.  1.
        -15    1    5    5    0    0  0.56505606131E+02  0.63777606540E+02 -0.59340228530E+02  0.10383510650E+03  0.00000000000E+00 0.  1.
         15    1    5    5    0    0  0.46460802018E+02 -0.23074915851E+02 -0.87357179308E+02  0.10159889095E+03  0.00000000000E+00 0. -1.
         15    1    3    3    0    0  0.27537493360E+01  0.28590533772E+02  0.10502545574E+02  0.30582760181E+02  0.00000000000E+00 0. -1.
        -16    1    4    4    0    0  0.36166690208E+01 -0.27326663730E+02 -0.25479636640E+03  0.25628307626E+03  0.00000000000E+00 0.  1.
         16    1    1    2    0    0  0.11326362144E+03  0.21807395354E+03 -0.98383847841E+03  0.10140626454E+04  0.00000000000E+00 0. -1.
    9900018    1    4    4    0    0 -0.17986739187E+03 -0.19819998073E+03  0.82070339643E+02  0.29442525377E+03  0.91187600000E+02 0.  0.
<mgrwt>
<rscale>  0 0.65181917E+03</rscale>
<asrwt>0</asrwt>
<pdfrwt beam="1">  1        1 0.24356168E+00 0.11979708E+04</pdfrwt>
<pdfrwt beam="2">  1       -1 0.45053198E-01 0.11979708E+04</pdfrwt>
<totfact> 0.27708269E+01</totfact>
</mgrwt>
</event>
<event>
12    1  0.8267757E-012  0.1256967E+04  0.7818608E-02  0.9064405E-01
         -2   -1    0    0    0  501 -0.00000000000E+00  0.00000000000E+00  0.53995607504E+03  0.53995607504E+03  0.00000000000E+00 0.  1.
          2   -1    0    0  501    0  0.00000000000E+00 -0.00000000000E+00 -0.73152476028E+03  0.73152476028E+03  0.00000000000E+00 0. -1.
    9900016    2    1    2    0    0  0.10115383791E+03  0.76625547086E+02 -0.52155686243E+03  0.91793342622E+03  0.74463188277E+03 0.  0.
         23    2    3    3    0    0  0.29467072642E+02  0.17480458792E+02 -0.36827434116E+02  0.10284272883E+03  0.89702241671E+02 0.  0.
         23    2    3    3    0    0  0.31640985515E+01  0.15323700385E+03  0.75490262644E+02  0.19309984255E+03  0.89984324021E+02 0.  0.
        -15    1    4    4    0    0  0.12757136385E+01 -0.29611768046E+02  0.93886360318E+01  0.31090685721E+02  0.00000000000E+00 0.  1.
        -15    1    5    5    0    0  0.43847439126E+02  0.49854199940E+02  0.23413508881E+02  0.70400508291E+02  0.00000000000E+00 0. -1.
         15    1    5    5    0    0 -0.40683340574E+02  0.10338280391E+03  0.52076753763E+02  0.12269933426E+03  0.00000000000E+00 0.  1.
         15    1    4    4    0    0  0.28191359003E+02  0.47092226838E+02 -0.46216070148E+02  0.71752043113E+02  0.00000000000E+00 0. -1.
        -16    1    1    2    0    0 -0.10115383791E+03 -0.76625547086E+02  0.32998817720E+03  0.35354740910E+03  0.00000000000E+00 0.  1.
         16    1    3    3    0    0  0.12519672880E+03 -0.35703226200E+02 -0.17677903531E+03  0.21954445698E+03  0.00000000000E+00 0. -1.
    9900018    1    3    3    0    0 -0.56674062078E+02 -0.58388689356E+02 -0.38344065564E+03  0.40244639786E+03  0.91187600000E+02 0.  0.
<mgrwt>
<rscale>  0 0.12569666E+04</rscale>
<asrwt>0</asrwt>
<pdfrwt beam="1">  1        2 0.11254227E+00 0.12569666E+04</pdfrwt>
<pdfrwt beam="2">  1       -2 0.83070165E-01 0.12569666E+04</pdfrwt>
<totfact> 0.48355483E+01</totfact>
</mgrwt>
</event>
<event>
12    1  0.8267757E-012  0.1255091E+04  0.7818608E-02  0.9065957E-01
         -1   -1    0    0    0  501 -0.00000000000E+00  0.00000000000E+00  0.44951908905E+03  0.44951908905E+03  0.00000000000E+00 0.  1.
          1   -1    0    0  501    0  0.00000000000E+00 -0.00000000000E+00 -0.87607688727E+03  0.87607688727E+03  0.00000000000E+00 0. -1.
    9900016    2    1    2    0    0 -0.14948652428E+03  0.23656155385E+03 -0.59720530132E+03  0.99783362336E+03  0.74880583484E+03 0.  0.
         23    2    3    3    0    0 -0.35602868154E+02  0.12111979434E+02 -0.10064107912E+03  0.13962890467E+03  0.89181500022E+02 0.  0.
         23    2    3    3    0    0  0.51500302392E+02  0.37594874328E+03 -0.38047451128E+03  0.54503721802E+03  0.91186493371E+02 0.  0.
        -15    1    5    5    0    0 -0.11383309897E+02  0.94049498876E+02 -0.14086579015E+03  0.16975882545E+03  0.00000000000E+00 0.  1.
        -15    1    4    4    0    0  0.21992709186E+02  0.29293707483E+01 -0.70639388289E+02  0.74041769618E+02  0.00000000000E+00 0. -1.
         15    1    5    5    0    0  0.62883612289E+02  0.28189924441E+03 -0.23960872114E+03  0.37527839258E+03  0.00000000000E+00 0. -1.
         15    1    4    4    0    0 -0.57595577340E+02  0.91826086852E+01 -0.30001690826E+02  0.65587135048E+02  0.00000000000E+00 0.  1.
        -16    1    1    2    0    0  0.14948652428E+03 -0.23656155385E+03  0.17064750310E+03  0.32776235295E+03  0.00000000000E+00 0.  1.
         16    1    3    3    0    0 -0.12680610266E+03 -0.11932310413E+03 -0.11570339917E+03  0.20905756966E+03  0.00000000000E+00 0. -1.
    9900018    1    3    3    0    0 -0.38577855865E+02 -0.32176064736E+02 -0.38631174989E+00  0.10410993101E+03  0.91187600000E+02 0.  0.
<mgrwt>
<rscale>  0 0.12550909E+04</rscale>
<asrwt>0</asrwt>
<pdfrwt beam="1">  1        1 0.13478106E+00 0.12550909E+04</pdfrwt>
<pdfrwt beam="2">  1       -1 0.69156783E-01 0.12550909E+04</pdfrwt>
<totfact> 0.39720704E+01</totfact>
</mgrwt>
</event>
<event>
12    1  0.8267757E-012  0.1039083E+04  0.7818608E-02  0.9266688E-01
         -3   -1    0    0    0  501 -0.00000000000E+00  0.00000000000E+00  0.53913851764E+03  0.53913851764E+03  0.00000000000E+00 0.  1.
          3   -1    0    0  501    0  0.00000000000E+00 -0.00000000000E+00 -0.50065675559E+03  0.50065675559E+03  0.00000000000E+00 0. -1.
    9900016    2    1    2    0    0  0.14037205649E+03  0.97796926338E+02 -0.15293765324E+03  0.78306594963E+03  0.74868805430E+03 0.  0.
         23    2    3    3    0    0  0.40731964381E+02 -0.45709092046E+01 -0.25261331560E+02  0.10461889311E+03  0.92881600924E+02 0.  0.
         23    2    3    3    0    0 -0.25124537546E+03 -0.11188282291E+02 -0.11296121793E+03  0.29156790016E+03  0.94879857167E+02 0.  0.
        -15    1    5    5    0    0 -0.17402815031E+03  0.36640591678E+02 -0.78927548138E+02  0.19457103565E+03  0.00000000000E+00 0.  1.
        -15    1    4    4    0    0  0.36186404540E+01 -0.45399039417E+02 -0.17985446382E+02  0.48965739250E+02  0.00000000000E+00 0. -1.
         15    1    5    5    0    0 -0.77217225152E+02 -0.47828873969E+02 -0.34033669791E+02  0.96996864510E+02  0.00000000000E+00 0. -1.
         15    1    4    4    0    0  0.37113323927E+02  0.40828130212E+02 -0.72758851777E+01  0.55653153861E+02  0.00000000000E+00 0.  1.
        -16    1    1    2    0    0 -0.14037205649E+03 -0.97796926338E+02  0.19141941530E+03  0.25672932360E+03  0.00000000000E+00 0.  1.
         16    1    3    3    0    0  0.86887564936E+02  0.13266584027E+02  0.12892799655E+02  0.88835102719E+02  0.00000000000E+00 0. -1.
    9900018    1    3    3    0    0  0.26399790263E+03  0.10028953381E+03 -0.27607903407E+02  0.29804405364E+03  0.91187600000E+02 0.  0.
<mgrwt>
<rscale>  0 0.10390829E+04</rscale>
<asrwt>0</asrwt>
<pdfrwt beam="1">  1        3 0.77024116E-01 0.10390829E+04</pdfrwt>
<pdfrwt beam="2">  1       -3 0.82944388E-01 0.10390829E+04</pdfrwt>
<totfact> 0.55439043E+00</totfact>
</mgrwt>
</event>
<event>
12    1  0.8267757E-012  0.2095447E+04  0.7818608E-02  0.8563252E-01
         -2   -1    0    0    0  501 -0.00000000000E+00  0.00000000000E+00  0.63994922758E+03  0.63994922758E+03  0.00000000000E+00 0.  1.
          2   -1    0    0  501    0  0.00000000000E+00 -0.00000000000E+00 -0.17153310497E+04  0.17153310497E+04  0.00000000000E+00 0. -1.
    9900016    2    1    2    0    0 -0.70057866191E+03 -0.16990290246E+03  0.12242156860E+02  0.10504418285E+04  0.76393763283E+03 0.  0.
         23    2    3    3    0    0 -0.21360731789E+02 -0.67312354625E+00 -0.12144468615E+01  0.91249183774E+02  0.88702901308E+02 0.  0.
         23    2    3    3    0    0 -0.54748715936E+00 -0.10923469037E+03 -0.38007895302E+02  0.14642283145E+03  0.89791581688E+02 0.  0.
        -15    1    4    4    0    0 -0.34582625505E+02  0.35914816507E+02 -0.11165373677E+02  0.51093028888E+02  0.00000000000E+00 0.  1.
        -15    1    5    5    0    0 -0.22967676507E+01 -0.92660569395E+02 -0.66040931580E+02  0.11380975752E+03  0.00000000000E+00 0.  1.
         15    1    4    4    0    0  0.13221893716E+02 -0.36587940054E+02  0.99509268151E+01  0.40156154887E+02  0.00000000000E+00 0. -1.
         15    1    5    5    0    0  0.17492804913E+01 -0.16574120976E+02  0.28033036278E+02  0.32613073932E+02  0.00000000000E+00 0. -1.
        -16    1    3    3    0    0 -0.28780875473E+03  0.18342084558E+03  0.35008760119E+02  0.34307826976E+03  0.00000000000E+00 0.  1.
         16    1    1    2    0    0  0.70057866191E+03  0.16990290246E+03 -0.10876239790E+04  0.13048384488E+04  0.00000000000E+00 0. -1.
    9900018    1    3    3    0    0 -0.39086168823E+03 -0.24341593412E+03  0.16455738905E+02  0.46969154351E+03  0.91187600000E+02 0.  0.
<mgrwt>
<rscale>  0 0.20954472E+04</rscale>
<asrwt>0</asrwt>
<pdfrwt beam="1">  1        2 0.26389708E+00 0.20954472E+04</pdfrwt>
<pdfrwt beam="2">  1       -2 0.98453729E-01 0.20954472E+04</pdfrwt>
<totfact> 0.75976613E+00</totfact>
</mgrwt>
</event>
<event>
12    1  0.8267757E-012  0.1006789E+04  0.7818608E-02  0.9301130E-01
          1   -1    0    0  501    0  0.00000000000E+00  0.00000000000E+00  0.49122646868E+03  0.49122646868E+03  0.00000000000E+00 0. -1.
         -1   -1    0    0    0  501 -0.00000000000E+00 -0.00000000000E+00 -0.51586364101E+03  0.51586364101E+03  0.00000000000E+00 0.  1.
    9900016    2    1    2    0    0 -0.96996826209E+01  0.10021685975E+02 -0.24069188128E+03  0.79058570952E+03  0.75292673240E+03 0.  0.
         23    2    3    3    0    0  0.16049600999E+02 -0.14277407191E+02  0.12858956539E+02  0.92775431703E+02  0.89333610226E+02 0.  0.
         23    2    3    3    0    0 -0.58775968674E+02  0.16930259161E+02  0.16163214206E+03  0.19546420583E+03  0.91323919363E+02 0.  0.
        -15    1    4    4    0    0 -0.23923185348E+02 -0.35942064285E+02 -0.59274985381E+01  0.43580798767E+02  0.00000000000E+00 0. -1.
        -15    1    5    5    0    0 -0.82552000832E+02  0.21579473579E+02  0.11899663491E+03  0.14642645130E+03  0.00000000000E+00 0.  1.
         15    1    4    4    0    0  0.39972786347E+02  0.21664657093E+02  0.18786455077E+02  0.49194632936E+02  0.00000000000E+00 0.  1.
         15    1    5    5    0    0  0.23776032158E+02 -0.46492144180E+01  0.42635507144E+02  0.49037754529E+02  0.00000000000E+00 0. -1.
        -16    1    3    3    0    0  0.11313364223E+03  0.82010710897E+02 -0.22157867672E+03  0.26195817927E+03  0.00000000000E+00 0.  1.
         16    1    1    2    0    0  0.96996826209E+01 -0.10021685975E+02  0.21605470895E+03  0.21650440016E+03  0.00000000000E+00 0. -1.
    9900018    1    3    3    0    0 -0.80106957178E+02 -0.74641876892E+02 -0.19360430315E+03  0.24038789272E+03  0.91187600000E+02 0.  0.
<mgrwt>
<rscale>  0 0.10067887E+04</rscale>
<asrwt>0</asrwt>
<pdfrwt beam="1">  1        1 0.75573303E-01 0.10067887E+04</pdfrwt>
<pdfrwt beam="2">  1       -1 0.79363637E-01 0.10067887E+04</pdfrwt>
<totfact> 0.72269060E+01</totfact>
</mgrwt>
</event>
