<event>
11    1  0.1790597E-013  0.1068526E+04  0.7818608E-02  0.9662046E-01
         -1   -1    0    0    0  501 -0.00000000000E+00  0.00000000000E+00  0.11234466386E+04  0.11234466386E+04  0.00000000000E+00 0. -1.
          1   -1    0    0  501    0  0.00000000000E+00 -0.00000000000E+00 -0.10440811434E+04  0.10440811434E+04  0.00000000000E+00 0.  1.
         23    2    1    2    0    0  0.18034898195E+03  0.10294864381E+03 -0.22489883143E+03  0.32364253810E+03  0.10507535170E+03 0.  0.
         24    2    1    2    0    0  0.57778318637E+02 -0.22139816963E+03  0.82905272306E+03  0.86223873059E+03  0.61414389938E+02 0.  0.
        -15    1    3    3    0    0  0.12245492226E+03  0.65950238608E+02 -0.73338643095E+02  0.15723612349E+03  0.00000000000E+00 0. -1.
        -15    1    4    4    0    0  0.17682280393E+02 -0.46106522059E+02  0.10264941357E+03  0.11390951023E+03  0.00000000000E+00 0.  1.
         15    1    1    2    0    0 -0.22955796631E+03  0.34434743013E+03 -0.17064325442E+03  0.44765068169E+03  0.00000000000E+00 0. -1.
         15    1    3    3    0    0  0.57894059688E+02  0.36998405200E+02 -0.15156018834E+03  0.16640641461E+03  0.00000000000E+00 0.  1.
        -16    1    1    2    0    0  0.10732888126E+03 -0.57760933527E+02 -0.26785097335E+03  0.29427870824E+03  0.00000000000E+00 0.  1.
         16    1    4    4    0    0  0.40096038244E+02 -0.17529164757E+03  0.72640330949E+03  0.74832922035E+03  0.00000000000E+00 0. -1.
    9900018    1    1    2    0    0 -0.11589821554E+03 -0.16813697078E+03 -0.86294168699E+02  0.23971712340E+03  0.91187600000E+02 0.  0.
<mgrwt>
<rscale>  0 0.73322221E+03</rscale>
<asrwt>0</asrwt>
<pdfrwt beam="1">  1        1 0.16062787E+00 0.10685264E+04</pdfrwt>
<pdfrwt beam="2">  1       -1 0.17283795E+00 0.10685264E+04</pdfrwt>
<totfact> 0.32641678E+00</totfact>
</mgrwt>
</event>
<event>
12    1  0.1790597E-013  0.2800110E+04  0.7818608E-02  0.8922871E-01
          2   -1    0    0  501    0  0.00000000000E+00  0.00000000000E+00  0.36840495025E+04  0.36840495025E+04  0.00000000000E+00 0. -1.
         -2   -1    0    0    0  501 -0.00000000000E+00 -0.00000000000E+00 -0.63800357598E+03  0.63800357598E+03  0.00000000000E+00 0.  1.
         23    2    1    2    0    0  0.56819648423E+02  0.15265462088E+03  0.49914697412E+03  0.53690996896E+03  0.11221723248E+03 0.  0.
    9900016    2    1    2    0    0  0.15772912499E+03 -0.84303540048E+02  0.99348826967E+03  0.22154973547E+04  0.19721622710E+04 0.  0.
        -24    2    4    4    0    0  0.70799776311E+03  0.30689462055E+03  0.28376710177E+03  0.82463602158E+03  0.63684058753E+02 0.  0.
        -15    1    3    3    0    0  0.30982945197E+02 -0.25249657385E+01  0.34919127223E+02  0.46751083315E+02  0.00000000000E+00 0.  1.
        -15    1    4    4    0    0 -0.40410462489E+03 -0.63922392463E+03  0.77398867638E+03  0.10821119373E+04  0.00000000000E+00 0.  1.
         15    1    5    5    0    0  0.47858199141E+03  0.23757994221E+03  0.20661145199E+03  0.57286407073E+03  0.00000000000E+00 0. -1.
         15    1    3    3    0    0  0.25836703226E+02  0.15517958661E+03  0.46422784690E+03  0.49015888564E+03  0.00000000000E+00 0. -1.
        -16    1    5    5    0    0  0.22941577170E+03  0.69314678344E+02  0.77155649786E+02  0.25177195085E+03  0.00000000000E+00 0.  1.
         16    1    1    2    0    0 -0.21454877341E+03 -0.68351080827E+02  0.15534106827E+04  0.15696457548E+04  0.00000000000E+00 0. -1.
    9900018    1    4    4    0    0 -0.14616401324E+03  0.24802576403E+03 -0.64267508481E+02  0.30874939584E+03  0.91187600000E+02 0.  0.
<mgrwt>
<rscale>  0 0.14435690E+04</rscale>
<asrwt>0</asrwt>
<pdfrwt beam="1">  1        2 0.56677683E+00 0.28001097E+04</pdfrwt>
<pdfrwt beam="2">  1       -2 0.98154399E-01 0.28001097E+04</pdfrwt>
<totfact> 0.44725819E-01</totfact>
</mgrwt>
</event>
<event>
12    1  0.1790597E-013  0.2474560E+04  0.7818608E-02  0.8955565E-01
         -1   -1    0    0    0  501 -0.00000000000E+00  0.00000000000E+00  0.17673318765E+04  0.17673318765E+04  0.00000000000E+00 0.  1.
          1   -1    0    0  501    0  0.00000000000E+00 -0.00000000000E+00 -0.10523559100E+04  0.10523559100E+04  0.00000000000E+00 0. -1.
         23    2    1    2    0    0 -0.23584149173E+03  0.59682510855E+02  0.42124262804E+02  0.25528174978E+03  0.64893042239E+02 0.  0.
    9900016    2    1    2    0    0 -0.26444771945E+02  0.36441490392E+03  0.12105325309E+03  0.18206760915E+04  0.17795252153E+04 0.  0.
         24    2    4    4    0    0  0.24780736349E+03  0.59704039048E+02  0.86011900592E+03  0.90343623866E+03  0.10686099050E+03 0.  0.
        -15    1    5    5    0    0  0.16413696305E+03  0.63831975218E+02  0.71009321911E+03  0.73160634465E+03  0.00000000000E+00 0.  1.
        -15    1    3    3    0    0 -0.96229397785E+02  0.11196766587E+02  0.46424062036E+02  0.10742745513E+03  0.00000000000E+00 0.  1.
         15    1    3    3    0    0 -0.13961209394E+03  0.48485744268E+02 -0.42997992321E+01  0.14785429465E+03  0.00000000000E+00 0. -1.
         15    1    4    4    0    0 -0.11226154923E+03  0.26093607324E+03 -0.64409415466E+03  0.70395139734E+03  0.00000000000E+00 0. -1.
        -16    1    1    2    0    0  0.26228626367E+03 -0.42409741478E+03  0.55179845059E+03  0.74372994521E+03  0.00000000000E+00 0.  1.
         16    1    5    5    0    0  0.83670400444E+02 -0.41279361705E+01  0.15002578681E+03  0.17182989401E+03  0.00000000000E+00 0. -1.
    9900018    1    4    4    0    0 -0.16199058621E+03  0.43774791634E+02 -0.94971598176E+02  0.21328845552E+03  0.91187600000E+02 0.  0.
<mgrwt>
<rscale>  0 0.13975901E+04</rscale>
<asrwt>0</asrwt>
<pdfrwt beam="1">  1        1 0.16190091E+00 0.24745603E+04</pdfrwt>
<pdfrwt beam="2">  1       -1 0.27189721E+00 0.24745603E+04</pdfrwt>
<totfact> 0.61146785E-01</totfact>
</mgrwt>
</event>
