<event>
10    1  0.7716362E-013  0.1040977E+04  0.7818608E-02  0.9264709E-01
         -2   -1    0    0    0  501 -0.00000000000E+00  0.00000000000E+00  0.19429349623E+03  0.19429349623E+03  0.00000000000E+00 0.  1.
          2   -1    0    0  501    0  0.00000000000E+00 -0.00000000000E+00 -0.13943257319E+04  0.13943257319E+04  0.00000000000E+00 0. -1.
    9900016    2    1    2    0    0 -0.93254844294E+02 -0.11763406641E+03 -0.12347411884E+04  0.14345447300E+04  0.71470171426E+03 0.  0.
        -15    1    3    3    0    0  0.21019097679E+02  0.11057672387E+03 -0.40929955937E+02  0.11976759003E+03  0.00000000000E+00 0.  1.
        -15    1    3    3    0    0  0.10131522544E+03 -0.85007326237E+02 -0.20276792607E+03  0.24208645617E+03  0.00000000000E+00 0.  1.
         15    1    3    3    0    0 -0.31674767325E+02 -0.77632793026E+02 -0.27357756438E+03  0.28613777306E+03  0.00000000000E+00 0. -1.
         15    1    3    3    0    0 -0.64576977984E+02  0.28944091991E+02 -0.78263488521E+02  0.10551360188E+03  0.00000000000E+00 0. -1.
        -16    1    1    2    0    0  0.93254844294E+02  0.11763406641E+03  0.34708952789E+02  0.15407449811E+03  0.00000000000E+00 0.  1.
         16    1    3    3    0    0 -0.18144663887E+02  0.28577355829E+02 -0.31610906703E+02  0.46315694061E+02  0.00000000000E+00 0. -1.
    9900018    1    3    3    0    0 -0.10119275821E+03 -0.12309211884E+03 -0.60759134683E+03  0.63472361479E+03  0.91187600000E+02 0.  0.
<mgrwt>
<rscale>  0 0.10409773E+04</rscale>
<asrwt>0</asrwt>
<pdfrwt beam="1">  1        2 0.21451165E+00 0.10409773E+04</pdfrwt>
<pdfrwt beam="2">  1       -2 0.29891307E-01 0.10409773E+04</pdfrwt>
<totfact> 0.14978229E+02</totfact>
</mgrwt>
</event>
<event>
11    1  0.7716362E-013  0.1009073E+04  0.7818608E-02  0.9298649E-01
          1   -1    0    0  501    0  0.00000000000E+00  0.00000000000E+00  0.52932706751E+03  0.52932706751E+03  0.00000000000E+00 0. -1.
         -1   -1    0    0    0  501 -0.00000000000E+00 -0.00000000000E+00 -0.48090692820E+03  0.48090692820E+03  0.00000000000E+00 0.  1.
    9900016    2    1    2    0    0  0.80363779351E+01  0.25177745591E+03  0.70309652348E+02  0.75737905418E+03  0.71079048517E+03 0.  0.
         23    2    3    3    0    0  0.94335611608E+02  0.10049358955E+03  0.33540523488E+02  0.17993014409E+03  0.11068749197E+03 0.  0.
        -15    1    4    4    0    0  0.61025624053E+02  0.15793763508E+01 -0.17835841037E+02  0.63598258201E+02  0.00000000000E+00 0. -1.
        -15    1    3    3    0    0  0.66702623088E+00 -0.11634089599E+02  0.26796578264E+02  0.29220772944E+02  0.00000000000E+00 0. -1.
         15    1    4    4    0    0  0.33309987556E+02  0.98914213198E+02  0.51376364525E+02  0.11633188589E+03  0.00000000000E+00 0.  1.
         15    1    3    3    0    0  0.68994324158E+02 -0.60707660002E+02  0.32341464558E+02  0.97424879156E+02  0.00000000000E+00 0.  1.
        -16    1    1    2    0    0 -0.80363779351E+01 -0.25177745591E+03 -0.21889513032E+02  0.25285494153E+03  0.00000000000E+00 0.  1.
         16    1    3    3    0    0 -0.67281858561E+02  0.29540872714E+03  0.46772468735E+00  0.30297422882E+03  0.00000000000E+00 0. -1.
    9900018    1    3    3    0    0 -0.88678725501E+02 -0.71783111170E+02 -0.22836638649E+02  0.14782902917E+03  0.91187600000E+02 0.  0.
<mgrwt>
<rscale>  0 0.10090729E+04</rscale>
<asrwt>0</asrwt>
<pdfrwt beam="1">  1        1 0.81434934E-01 0.10090729E+04</pdfrwt>
<pdfrwt beam="2">  1       -1 0.73985681E-01 0.10090729E+04</pdfrwt>
<totfact> 0.75510190E+01</totfact>
</mgrwt>
</event>
<event>
10    1  0.7716362E-013  0.1111572E+04  0.7818608E-02  0.9193986E-01
         -2   -1    0    0    0  501 -0.00000000000E+00  0.00000000000E+00  0.13230985605E+03  0.13230985605E+03  0.00000000000E+00 0.  1.
          2   -1    0    0  501    0  0.00000000000E+00 -0.00000000000E+00 -0.23346575416E+04  0.23346575416E+04  0.00000000000E+00 0. -1.
    9900016    2    1    2    0    0  0.18075617923E+03 -0.12972266756E+03 -0.10123558556E+04  0.12563554358E+04  0.70997453189E+03 0.  0.
        -15    1    3    3    0    0 -0.38049678602E+02 -0.58578761814E+02 -0.15866300732E+03  0.17335858579E+03  0.00000000000E+00 0.  1.
        -15    1    3    3    0    0 -0.22644932084E+02  0.12906826577E+03 -0.82841380809E+02  0.15502936674E+03  0.00000000000E+00 0.  1.
         15    1    3    3    0    0  0.53567184273E+01 -0.80815155046E+02 -0.19639252767E+03  0.21243777593E+03  0.00000000000E+00 0. -1.
         15    1    3    3    0    0  0.13077580893E+03 -0.28468244614E+02 -0.33611305156E+03  0.36177995603E+03  0.00000000000E+00 0. -1.
        -16    1    3    3    0    0  0.10201819148E+03 -0.83560499376E+02 -0.22561044575E+03  0.26132382532E+03  0.00000000000E+00 0.  1.
         16    1    1    2    0    0 -0.18075617923E+03  0.12972266756E+03 -0.11899918300E+04  0.12106119619E+04  0.00000000000E+00 0. -1.
    9900018    1    3    3    0    0  0.33000710817E+01 -0.73682724803E+01 -0.12735442490E+02  0.92425926004E+02  0.91187600000E+02 0.  0.
<mgrwt>
<rscale>  0 0.11115722E+04</rscale>
<asrwt>0</asrwt>
<pdfrwt beam="1">  1        2 0.35917810E+00 0.11115722E+04</pdfrwt>
<pdfrwt beam="2">  1       -2 0.20355362E-01 0.11115722E+04</pdfrwt>
<totfact> 0.89608866E+01</totfact>
</mgrwt>
</event>
<event>
11    1  0.7716362E-013  0.8878420E+03  0.7818608E-02  0.9440908E-01
          2   -1    0    0  501    0  0.00000000000E+00  0.00000000000E+00  0.43166529721E+03  0.43166529721E+03  0.00000000000E+00 0. -1.
         -2   -1    0    0    0  501 -0.00000000000E+00 -0.00000000000E+00 -0.45652466599E+03  0.45652466599E+03  0.00000000000E+00 0.  1.
    9900016    2    1    2    0    0 -0.86421175860E+02  0.48876550820E+01  0.67545572801E+02  0.76157565895E+03  0.75361964617E+03 0.  0.
         23    2    3    3    0    0  0.29725048858E+02  0.20036717217E+02 -0.72355142575E+02  0.13800734458E+03  0.11191832707E+03 0.  0.
        -15    1    4    4    0    0  0.62425880347E+02  0.34544153639E+02 -0.19111789886E+02  0.73861692375E+02  0.00000000000E+00 0.  1.
        -15    1    3    3    0    0 -0.13080054428E+02  0.63227368557E+02  0.29592325959E+02  0.71024599359E+02  0.00000000000E+00 0. -1.
         15    1    4    4    0    0 -0.32700831489E+02 -0.14507436422E+02 -0.53243352689E+02  0.64145652208E+02  0.00000000000E+00 0.  1.
         15    1    3    3    0    0 -0.69963146281E+02 -0.87783259877E+02  0.10759913088E+03  0.15549377968E+03  0.00000000000E+00 0. -1.
        -16    1    1    2    0    0  0.86421175860E+02 -0.48876550820E+01 -0.92404941590E+02  0.12661430425E+03  0.00000000000E+00 0.  1.
         16    1    3    3    0    0  0.99578207152E+02  0.15165750614E+03 -0.11128851107E+02  0.18176817608E+03  0.00000000000E+00 0. -1.
    9900018    1    3    3    0    0 -0.13268123116E+03 -0.14225067695E+03  0.13838109641E+02  0.21528175926E+03  0.91187600000E+02 0.  0.
<mgrwt>
<rscale>  0 0.88784200E+03</rscale>
<asrwt>0</asrwt>
<pdfrwt beam="1">  1        2 0.66410046E-01 0.88784200E+03</pdfrwt>
<pdfrwt beam="2">  1       -2 0.70234564E-01 0.88784200E+03</pdfrwt>
<totfact> 0.13520390E+02</totfact>
</mgrwt>
</event>
<event>
11    1  0.7716362E-013  0.9865781E+03  0.7818608E-02  0.9323389E-01
         -2   -1    0    0    0  501 -0.00000000000E+00  0.00000000000E+00  0.67662691441E+03  0.67662691441E+03  0.00000000000E+00 0.  1.
          2   -1    0    0  501    0  0.00000000000E+00 -0.00000000000E+00 -0.35962812518E+03  0.35962812518E+03  0.00000000000E+00 0. -1.
    9900016    2    1    2    0    0 -0.17442021047E+03  0.56828435745E+02  0.39513450382E+03  0.83686328745E+03  0.71453271782E+03 0.  0.
         23    2    3    3    0    0  0.24938387914E+02  0.23640896194E+02  0.11257139530E+03  0.17408929820E+03  0.12827294939E+03 0.  0.
        -15    1    4    4    0    0  0.34095851135E+02 -0.19063395664E+02  0.12311155560E+03  0.12916034701E+03  0.00000000000E+00 0.  1.
        -15    1    3    3    0    0  0.23582330038E+02 -0.46085323895E+02  0.15568047209E+03  0.16406216126E+03  0.00000000000E+00 0.  1.
         15    1    3    3    0    0 -0.10630623409E+03  0.48636077042E+02  0.54981073654E+02  0.12918746787E+03  0.00000000000E+00 0. -1.
         15    1    4    4    0    0 -0.91574632212E+01  0.42704291858E+02 -0.10540160300E+02  0.44928951188E+02  0.00000000000E+00 0. -1.
        -16    1    3    3    0    0 -0.72738318345E+02  0.40356281106E+02 -0.12370610774E+03  0.14907277911E+03  0.00000000000E+00 0.  1.
         16    1    1    2    0    0  0.17442021047E+03 -0.56828435745E+02 -0.78135714591E+02  0.19939175215E+03  0.00000000000E+00 0. -1.
    9900018    1    3    3    0    0 -0.43896375995E+02 -0.97194947014E+01  0.19560767053E+03  0.22045158100E+03  0.91187600000E+02 0.  0.
<mgrwt>
<rscale>  0 0.98657806E+03</rscale>
<asrwt>0</asrwt>
<pdfrwt beam="1">  1        2 0.55327404E-01 0.98657806E+03</pdfrwt>
<pdfrwt beam="2">  1       -2 0.10409645E+00 0.98657806E+03</pdfrwt>
<totfact> 0.67219544E+01</totfact>
</mgrwt>
</event>
<event>
10    1  0.7716362E-013  0.8865450E+03  0.7818608E-02  0.9442559E-01
          2   -1    0    0  501    0  0.00000000000E+00  0.00000000000E+00  0.13273752862E+04  0.13273752862E+04  0.00000000000E+00 0. -1.
         -2   -1    0    0    0  501 -0.00000000000E+00 -0.00000000000E+00 -0.14802935586E+03  0.14802935586E+03  0.00000000000E+00 0.  1.
    9900016    2    1    2    0    0  0.14973940555E+03 -0.23582673681E+02  0.10275779570E+04  0.12609016123E+04  0.71482752179E+03 0.  0.
        -15    1    3    3    0    0 -0.35372631252E+02 -0.12931589104E+03  0.79658538770E+02  0.15594648286E+03  0.00000000000E+00 0.  1.
        -15    1    3    3    0    0  0.22953593761E+02  0.10291379106E+03  0.16379441983E+03  0.19479919873E+03  0.00000000000E+00 0.  1.
         15    1    3    3    0    0 -0.67718485307E+02 -0.50914170772E+02  0.10475664489E+03  0.13472936090E+03  0.00000000000E+00 0. -1.
         15    1    3    3    0    0 -0.33916102401E+02  0.30686447226E+02  0.16695104434E+03  0.17310289209E+03  0.00000000000E+00 0. -1.
        -16    1    1    2    0    0 -0.14973940555E+03  0.23582673681E+02  0.15176797329E+03  0.21450302979E+03  0.00000000000E+00 0.  1.
         16    1    3    3    0    0  0.99058673406E+02 -0.19868344471E+02  0.80436194875E+02  0.12914082753E+03  0.00000000000E+00 0. -1.
    9900018    1    3    3    0    0  0.16473435734E+03  0.42915494321E+02  0.43198111433E+03  0.47318285014E+03  0.91187600000E+02 0.  0.
<mgrwt>
<rscale>  0 0.88654500E+03</rscale>
<asrwt>0</asrwt>
<pdfrwt beam="1">  1        2 0.20421157E+00 0.88654500E+03</pdfrwt>
<pdfrwt beam="2">  1       -2 0.22773748E-01 0.88654500E+03</pdfrwt>
<totfact> 0.27104264E+02</totfact>
</mgrwt>
</event>
<event>
11    1  0.7716362E-013  0.1036002E+04  0.7818608E-02  0.9269916E-01
         -1   -1    0    0    0  501 -0.00000000000E+00  0.00000000000E+00  0.27227854266E+03  0.27227854266E+03  0.00000000000E+00 0.  1.
          1   -1    0    0  501    0  0.00000000000E+00 -0.00000000000E+00 -0.98548071633E+03  0.98548071633E+03  0.00000000000E+00 0. -1.
    9900016    2    1    2    0    0 -0.92033587613E+02 -0.13451371101E+03 -0.79009549771E+03  0.10775463211E+04  0.71434659581E+03 0.  0.
         23    2    3    3    0    0  0.19214946322E+02 -0.47959579582E+02  0.58843096003E+02  0.10809412105E+03  0.74515056348E+02 0.  0.
        -15    1    3    3    0    0  0.24622283602E+02 -0.84766487658E+01 -0.15383742695E+03  0.15602584515E+03  0.00000000000E+00 0.  1.
        -15    1    4    4    0    0  0.40256581900E+02 -0.42421599467E+02  0.16952445388E+02  0.60889817640E+02  0.00000000000E+00 0.  1.
         15    1    3    3    0    0 -0.91382906565E+02 -0.12132125360E+03 -0.43153292514E+03  0.45748262007E+03  0.00000000000E+00 0. -1.
         15    1    4    4    0    0 -0.21041635578E+02 -0.55379801155E+01  0.41890650615E+02  0.47204303411E+02  0.00000000000E+00 0. -1.
        -16    1    1    2    0    0  0.92033587613E+02  0.13451371101E+03  0.76893324035E+02  0.18021293788E+03  0.00000000000E+00 0.  1.
         16    1    3    3    0    0  0.46569121047E+02  0.69160696124E+02 -0.18471079293E+03  0.20265725240E+03  0.00000000000E+00 0. -1.
    9900018    1    3    3    0    0 -0.91057032019E+02 -0.25916925186E+02 -0.78857448680E+02  0.15328648243E+03  0.91187600000E+02 0.  0.
<mgrwt>
<rscale>  0 0.10360024E+04</rscale>
<asrwt>0</asrwt>
<pdfrwt beam="1">  1        1 0.15161242E+00 0.10360024E+04</pdfrwt>
<pdfrwt beam="2">  1       -1 0.41889007E-01 0.10360024E+04</pdfrwt>
<totfact> 0.86883417E+01</totfact>
</mgrwt>
</event>
<event>
11    1  0.7716362E-013  0.7745596E+03  0.7818608E-02  0.9597589E-01
          1   -1    0    0  501    0  0.00000000000E+00  0.00000000000E+00  0.27808491600E+03  0.27808491600E+03  0.00000000000E+00 0. -1.
         -1   -1    0    0    0  501 -0.00000000000E+00 -0.00000000000E+00 -0.53935190906E+03  0.53935190906E+03  0.00000000000E+00 0.  1.
    9900016    2    1    2    0    0  0.11539621943E+02 -0.44873511099E+02 -0.18921200461E+03  0.73177051761E+03  0.70536523368E+03 0.  0.
         23    2    3    3    0    0 -0.17782569628E+03 -0.17054996134E+03 -0.92330610071E+02  0.27017030873E+03  0.61300787882E+02 0.  0.
        -15    1    3    3    0    0  0.78856665962E+02  0.54077942059E+02 -0.53050043583E+02  0.10934854690E+03  0.00000000000E+00 0.  1.
        -15    1    4    4    0    0 -0.39756934399E+02 -0.78387016965E+02 -0.32976229515E+02  0.93875289478E+02  0.00000000000E+00 0. -1.
         15    1    4    4    0    0 -0.13806876188E+03 -0.92162944372E+02 -0.59354380556E+02  0.17629501926E+03  0.00000000000E+00 0.  1.
         15    1    3    3    0    0  0.46462215862E+02  0.37909850902E+02  0.49443513289E+02  0.77721009415E+02  0.00000000000E+00 0. -1.
        -16    1    1    2    0    0 -0.11539621943E+02  0.44873511099E+02 -0.72054988446E+02  0.85666307454E+02  0.00000000000E+00 0.  1.
         16    1    3    3    0    0  0.11251230998E+02 -0.65642396259E+02  0.40032907319E+02  0.77705521387E+02  0.00000000000E+00 0. -1.
    9900018    1    3    3    0    0  0.52795205404E+02  0.99331053538E+02 -0.13330777156E+03  0.19682513118E+03  0.91187600000E+02 0.  0.
<mgrwt>
<rscale>  0 0.77455957E+03</rscale>
<asrwt>0</asrwt>
<pdfrwt beam="1">  1        1 0.42782295E-01 0.77455957E+03</pdfrwt>
<pdfrwt beam="2">  1       -1 0.82977216E-01 0.77455957E+03</pdfrwt>
<totfact> 0.14148460E+02</totfact>
</mgrwt>
</event>
<event>
11    1  0.7716362E-013  0.8823060E+03  0.7818608E-02  0.9447974E-01
         -2   -1    0    0    0  501 -0.00000000000E+00  0.00000000000E+00  0.42399795217E+03  0.42399795217E+03  0.00000000000E+00 0.  1.
          2   -1    0    0  501    0  0.00000000000E+00 -0.00000000000E+00 -0.45900210333E+03  0.45900210333E+03  0.00000000000E+00 0. -1.
    9900016    2    1    2    0    0 -0.89452522978E+02  0.19152857068E+02 -0.16342487546E+03  0.72532802807E+03  0.70073138405E+03 0.  0.
         23    2    3    3    0    0  0.56497232295E+02  0.14623038884E+03 -0.26032106289E+02  0.19316303359E+03  0.10981358345E+03 0.  0.
        -15    1    3    3    0    0 -0.75162391677E+02 -0.10551717722E+03  0.68546633338E+02  0.14656705207E+03  0.00000000000E+00 0.  1.
        -15    1    4    4    0    0  0.71471034132E+02  0.81710622054E+02  0.22734091886E+02  0.11091245832E+03  0.00000000000E+00 0.  1.
         15    1    3    3    0    0 -0.10737119584E+02  0.84282933385E+02  0.65761848809E+01  0.85218218736E+02  0.00000000000E+00 0. -1.
         15    1    4    4    0    0 -0.14973801836E+02  0.64519766785E+02 -0.48766198175E+02  0.82250575268E+02  0.00000000000E+00 0. -1.
        -16    1    1    2    0    0  0.89452522978E+02 -0.19152857068E+02  0.12842072430E+03  0.15767202742E+03  0.00000000000E+00 0.  1.
         16    1    3    3    0    0 -0.69572901611E+02 -0.66848073571E+02 -0.47314377473E+02  0.10746024332E+03  0.00000000000E+00 0. -1.
    9900018    1    3    3    0    0  0.95226575991E+01 -0.38995214370E+02 -0.16520120992E+03  0.19291948036E+03  0.91187600000E+02 0.  0.
<mgrwt>
<rscale>  0 0.88230596E+03</rscale>
<asrwt>0</asrwt>
<pdfrwt beam="1">  1        2 0.70615708E-01 0.88230596E+03</pdfrwt>
<pdfrwt beam="2">  1       -2 0.65230454E-01 0.88230596E+03</pdfrwt>
<totfact> 0.14799800E+02</totfact>
</mgrwt>
</event>
<event>
11    1  0.7716362E-013  0.1167809E+04  0.7818608E-02  0.9141509E-01
         -1   -1    0    0    0  501 -0.00000000000E+00  0.00000000000E+00  0.10138737422E+04  0.10138737422E+04  0.00000000000E+00 0.  1.
          1   -1    0    0  501    0  0.00000000000E+00 -0.00000000000E+00 -0.33627907965E+03  0.33627907965E+03  0.00000000000E+00 0. -1.
    9900016    2    1    2    0    0 -0.24584966373E+03  0.39545840699E+02  0.15639338669E+03  0.77252257627E+03  0.71437126816E+03 0.  0.
         23    2    3    3    0    0 -0.30132596858E+02 -0.29933674950E+00 -0.14247020009E+02  0.67909622665E+02  0.59166513126E+02 0.  0.
        -15    1    3    3    0    0  0.80917385732E+02 -0.59724196311E+02 -0.12578625237E+01  0.10057924814E+03  0.00000000000E+00 0. -1.
        -15    1    4    4    0    0 -0.16688289261E+02  0.27854323389E+01  0.22792052593E+02  0.28385476801E+02  0.00000000000E+00 0.  1.
         15    1    3    3    0    0 -0.87175791476E+01 -0.27746204579E+02 -0.37754770356E+02  0.47657850763E+02  0.00000000000E+00 0.  1.
         15    1    4    4    0    0 -0.13444307597E+02 -0.30847690884E+01 -0.37039072602E+02  0.39524145865E+02  0.00000000000E+00 0. -1.
        -16    1    1    2    0    0  0.24584966373E+03 -0.39545840699E+02  0.52120127590E+03  0.57763024563E+03  0.00000000000E+00 0.  1.
         16    1    3    3    0    0 -0.35059510379E+03  0.14958905000E+03  0.89536060146E+02  0.39154886892E+03  0.00000000000E+00 0. -1.
    9900018    1    3    3    0    0  0.62678230340E+02 -0.22273471665E+02  0.12011697944E+03  0.16482698578E+03  0.91187600000E+02 0.  0.
<mgrwt>
<rscale>  0 0.11678091E+04</rscale>
<asrwt>0</asrwt>
<pdfrwt beam="1">  1        1 0.51735243E-01 0.11678091E+04</pdfrwt>
<pdfrwt beam="2">  1       -1 0.15598057E+00 0.11678091E+04</pdfrwt>
<totfact> 0.23486975E+01</totfact>
</mgrwt>
</event>
<event>
10    1  0.7716362E-013  0.9399505E+03  0.7818608E-02  0.9376975E-01
          2   -1    0    0  501    0  0.00000000000E+00  0.00000000000E+00  0.13553063755E+04  0.13553063755E+04  0.00000000000E+00 0. -1.
         -2   -1    0    0    0  501 -0.00000000000E+00 -0.00000000000E+00 -0.16297180717E+03  0.16297180717E+03  0.00000000000E+00 0.  1.
    9900016    2    1    2    0    0  0.15232592130E+03  0.57455355226E+02  0.11324109910E+04  0.13447986759E+04  0.70684122837E+03 0.  0.
        -15    1    3    3    0    0  0.12057225918E+03 -0.11870267799E+03  0.37616344152E+03  0.41246445930E+03  0.00000000000E+00 0.  1.
        -15    1    3    3    0    0  0.36341236803E+02 -0.67244691239E+02  0.85475223513E+02  0.11466711746E+03  0.00000000000E+00 0.  1.
         15    1    3    3    0    0 -0.89638479217E+02 -0.10747525741E+02  0.50388778833E+02  0.10339049907E+03  0.00000000000E+00 0. -1.
         15    1    3    3    0    0  0.88035229220E+01  0.52081650626E+02  0.21606265818E+03  0.22242543157E+03  0.00000000000E+00 0. -1.
        -16    1    3    3    0    0  0.89832202299E+02  0.14090894008E+03  0.21156753882E+03  0.26960337062E+03  0.00000000000E+00 0.  1.
         16    1    1    2    0    0 -0.15232592130E+03 -0.57455355226E+02  0.59923577370E+02  0.17347950677E+03  0.00000000000E+00 0. -1.
    9900018    1    3    3    0    0 -0.13584820686E+02  0.61159659492E+02  0.19275335008E+03  0.22224779788E+03  0.91187600000E+02 0.  0.
<mgrwt>
<rscale>  0 0.93995049E+03</rscale>
<asrwt>0</asrwt>
<pdfrwt beam="1">  1        2 0.20850867E+00 0.93995049E+03</pdfrwt>
<pdfrwt beam="2">  1       -2 0.25072587E-01 0.93995049E+03</pdfrwt>
<totfact> 0.21907255E+02</totfact>
</mgrwt>
</event>
<event>
11    1  0.7716362E-013  0.1501777E+04  0.7818608E-02  0.8883272E-01
         -2   -1    0    0    0  501 -0.00000000000E+00  0.00000000000E+00  0.30930055926E+03  0.30930055926E+03  0.00000000000E+00 0.  1.
          2   -1    0    0  501    0  0.00000000000E+00 -0.00000000000E+00 -0.18229311410E+04  0.18229311410E+04  0.00000000000E+00 0. -1.
    9900016    2    1    2    0    0 -0.11171444959E+02  0.14729335362E+03 -0.11270143893E+03  0.72353634769E+03  0.69927326482E+03 0.  0.
         23    2    3    3    0    0  0.56164848932E+02 -0.30393727051E+02  0.18474134850E+02  0.10110802013E+03  0.76179191228E+02 0.  0.
        -15    1    3    3    0    0 -0.58879896536E+02  0.10834401311E+03 -0.19520852745E+03  0.23089312805E+03  0.00000000000E+00 0.  1.
        -15    1    4    4    0    0  0.69690957869E+02 -0.45952629719E+01  0.86971723144E+01  0.70381722462E+02  0.00000000000E+00 0.  1.
         15    1    4    4    0    0 -0.13526108937E+02 -0.25798464079E+02  0.97769625358E+01  0.30726297666E+02  0.00000000000E+00 0. -1.
         15    1    3    3    0    0 -0.20235764784E+02  0.84818167276E+02  0.24816730073E+02  0.90661335573E+02  0.00000000000E+00 0. -1.
        -16    1    3    3    0    0  0.43208840260E+02  0.63317374792E+02 -0.92142111015E+02  0.11985934444E+03  0.00000000000E+00 0.  1.
         16    1    1    2    0    0  0.11171444959E+02 -0.14729335362E+03 -0.14009291428E+04  0.14086953526E+04  0.00000000000E+00 0. -1.
    9900018    1    3    3    0    0 -0.31429472830E+02 -0.78792474512E+02  0.13135833461E+03  0.18101451950E+03  0.91187600000E+02 0.  0.
<mgrwt>
<rscale>  0 0.15017771E+04</rscale>
<asrwt>0</asrwt>
<pdfrwt beam="1">  1        2 0.28045094E+00 0.15017771E+04</pdfrwt>
<pdfrwt beam="2">  1       -2 0.47584702E-01 0.15017771E+04</pdfrwt>
<totfact> 0.33879300E+01</totfact>
</mgrwt>
</event>
<event>
11    1  0.7716362E-013  0.8847013E+03  0.7818608E-02  0.9444910E-01
         -1   -1    0    0    0  501 -0.00000000000E+00  0.00000000000E+00  0.62324743355E+03  0.62324743355E+03  0.00000000000E+00 0.  1.
          1   -1    0    0  501    0  0.00000000000E+00 -0.00000000000E+00 -0.31395895013E+03  0.31395895013E+03  0.00000000000E+00 0. -1.
    9900016    2    1    2    0    0 -0.70208997348E+02  0.69735910396E+02  0.38469030341E+03  0.81279643647E+03  0.70912552986E+03 0.  0.
         23    2    3    3    0    0 -0.19870645870E+02 -0.67571423190E+01 -0.21578934048E+02  0.11168303576E+03  0.10754974915E+03 0.  0.
        -15    1    4    4    0    0 -0.43378083318E+02 -0.30258834398E+02  0.21652506658E+02  0.57149682554E+02  0.00000000000E+00 0.  1.
        -15    1    3    3    0    0 -0.14419080932E+02  0.13277577623E+03  0.93755172207E+02  0.16317888639E+03  0.00000000000E+00 0.  1.
         15    1    3    3    0    0 -0.46901522806E+02  0.30517826347E+02  0.18599532844E+03  0.19423015412E+03  0.00000000000E+00 0. -1.
         15    1    4    4    0    0  0.23507437448E+02  0.23501692079E+02 -0.43231440706E+02  0.54533353202E+02  0.00000000000E+00 0. -1.
        -16    1    3    3    0    0  0.13143819399E+03 -0.10358454033E+03  0.72569647716E+02  0.18240644069E+03  0.00000000000E+00 0.  1.
         16    1    1    2    0    0  0.70208997348E+02 -0.69735910396E+02 -0.75401819982E+02  0.12440994721E+03  0.00000000000E+00 0. -1.
    9900018    1    3    3    0    0 -0.12045594173E+03  0.16783990468E+02  0.53949089088E+02  0.16129791952E+03  0.91187600000E+02 0.  0.
<mgrwt>
<rscale>  0 0.88470133E+03</rscale>
<asrwt>0</asrwt>
<pdfrwt beam="1">  1        1 0.48301377E-01 0.88470133E+03</pdfrwt>
<pdfrwt beam="2">  1       -1 0.95884220E-01 0.88470133E+03</pdfrwt>
<totfact> 0.87427627E+01</totfact>
</mgrwt>
</event>
<event>
11    1  0.7716362E-013  0.7847651E+03  0.7818608E-02  0.9582335E-01
          2   -1    0    0  501    0  0.00000000000E+00  0.00000000000E+00  0.94868819316E+03  0.94868819316E+03  0.00000000000E+00 0. -1.
         -2   -1    0    0    0  501 -0.00000000000E+00 -0.00000000000E+00 -0.16229153292E+03  0.16229153292E+03  0.00000000000E+00 0.  1.
    9900016    2    1    2    0    0  0.59077396398E+02 -0.80739675938E+01  0.76159529715E+03  0.10464008183E+04  0.71510275360E+03 0.  0.
         23    2    3    3    0    0 -0.10897266092E+03  0.28563547171E+02 -0.92470737809E+01  0.13598900238E+03  0.75608090433E+02 0.  0.
        -15    1    4    4    0    0 -0.45244553753E+02  0.15523662863E+02  0.33280510134E+02  0.58272172671E+02  0.00000000000E+00 0. -1.
        -15    1    3    3    0    0  0.22453982726E+02 -0.17635992641E+02  0.75517592873E+02  0.80734852511E+02  0.00000000000E+00 0.  1.
         15    1    4    4    0    0 -0.63728107168E+02  0.13039884308E+02 -0.42527583915E+02  0.77716829706E+02  0.00000000000E+00 0.  1.
         15    1    3    3    0    0 -0.22115503191E+02  0.13040844135E+03  0.32058446289E+03  0.34679944479E+03  0.00000000000E+00 0. -1.
        -16    1    1    2    0    0 -0.59077396398E+02  0.80739675938E+01  0.24801363091E+02  0.64578907772E+02  0.00000000000E+00 0.  1.
         16    1    3    3    0    0 -0.38223943855E+02 -0.96042984167E+01  0.51016613162E+02  0.64467102079E+02  0.00000000000E+00 0. -1.
    9900018    1    3    3    0    0  0.20593552164E+03 -0.13980566506E+03  0.32372370200E+03  0.41841041656E+03  0.91187600000E+02 0.  0.
<mgrwt>
<rscale>  0 0.78476509E+03</rscale>
<asrwt>0</asrwt>
<pdfrwt beam="1">  1        2 0.14595203E+00 0.78476509E+03</pdfrwt>
<pdfrwt beam="2">  1       -2 0.24967929E-01 0.78476509E+03</pdfrwt>
<totfact> 0.39277211E+02</totfact>
</mgrwt>
</event>
<event>
11    1  0.7716362E-013  0.1392983E+04  0.7818608E-02  0.8958913E-01
         -2   -1    0    0    0  501 -0.00000000000E+00  0.00000000000E+00  0.15533806270E+03  0.15533806270E+03  0.00000000000E+00 0.  1.
          2   -1    0    0  501    0  0.00000000000E+00 -0.00000000000E+00 -0.31228702274E+04  0.31228702274E+04  0.00000000000E+00 0. -1.
    9900016    2    1    2    0    0  0.32428323695E+03  0.33883347598E+03 -0.13955368758E+04  0.16377397806E+04  0.71742642492E+03 0.  0.
         23    2    3    3    0    0  0.98685006324E+02 -0.43601020108E+02 -0.13070245239E+03  0.18488395278E+03  0.73886165872E+02 0.  0.
        -15    1    3    3    0    0  0.27083569522E+02  0.15758959145E+02  0.95331187264E+00  0.31349215858E+02  0.00000000000E+00 0. -1.
        -15    1    4    4    0    0  0.10992554231E+03 -0.31777274480E+02 -0.11324704536E+03  0.16099165602E+03  0.00000000000E+00 0.  1.
         15    1    3    3    0    0  0.22750953384E+02  0.13465611302E+03 -0.14456932041E+03  0.19887222797E+03  0.00000000000E+00 0.  1.
         15    1    4    4    0    0 -0.11240535985E+02 -0.11823745629E+02 -0.17455407022E+02  0.23892296755E+02  0.00000000000E+00 0. -1.
        -16    1    3    3    0    0 -0.21080111043E+02  0.70886704965E+02 -0.79761210558E+03  0.80103331204E+03  0.00000000000E+00 0.  1.
         16    1    1    2    0    0 -0.32428323695E+03 -0.33883347598E+03 -0.15719952889E+04  0.16404685095E+04  0.00000000000E+00 0. -1.
    9900018    1    3    3    0    0  0.19684381876E+03  0.16113271895E+03 -0.32360630929E+03  0.42160107200E+03  0.91187600000E+02 0.  0.
<mgrwt>
<rscale>  0 0.13929833E+04</rscale>
<asrwt>0</asrwt>
<pdfrwt beam="1">  1        2 0.48044155E+00 0.13929833E+04</pdfrwt>
<pdfrwt beam="2">  1       -2 0.23898165E-01 0.13929833E+04</pdfrwt>
<totfact> 0.22297708E+01</totfact>
</mgrwt>
</event>
<event>
10    1  0.7716362E-013  0.9256296E+03  0.7818608E-02  0.9394098E-01
         -1   -1    0    0    0  501 -0.00000000000E+00  0.00000000000E+00  0.14073605995E+03  0.14073605995E+03  0.00000000000E+00 0.  1.
          1   -1    0    0  501    0  0.00000000000E+00 -0.00000000000E+00 -0.15219804312E+04  0.15219804312E+04  0.00000000000E+00 0. -1.
    9900016    2    1    2    0    0 -0.11710072301E+03 -0.79959059844E+01 -0.82309670436E+03  0.10923610477E+04  0.70851108664E+03 0.  0.
        -15    1    3    3    0    0  0.79479883089E+02 -0.57136271481E+02 -0.14536912498E+03  0.17525349592E+03  0.00000000000E+00 0. -1.
        -15    1    3    3    0    0 -0.51086029662E+02 -0.11281000047E+03 -0.19545835725E+03  0.23138679316E+03  0.00000000000E+00 0.  1.
         15    1    3    3    0    0 -0.62319392953E+01  0.12887365199E+02 -0.12478849172E+01  0.14369358577E+02  0.00000000000E+00 0. -1.
         15    1    3    3    0    0 -0.63007351751E+02  0.11373178955E+01 -0.14111897340E+02  0.64578367223E+02  0.00000000000E+00 0.  1.
        -16    1    3    3    0    0  0.69061067475E+02  0.14623896749E+03 -0.38308624531E+03  0.41582488862E+03  0.00000000000E+00 0.  1.
         16    1    1    2    0    0  0.11710072301E+03  0.79959059844E+01 -0.55814766694E+03  0.57035544352E+03  0.00000000000E+00 0. -1.
    9900018    1    3    3    0    0 -0.14531635287E+03  0.16867153767E+01 -0.83823194562E+02  0.19094814416E+03  0.91187600000E+02 0.  0.
<mgrwt>
<rscale>  0 0.92562958E+03</rscale>
<asrwt>0</asrwt>
<pdfrwt beam="1">  1        1 0.23415086E+00 0.92562958E+03</pdfrwt>
<pdfrwt beam="2">  1       -1 0.21651700E-01 0.92562958E+03</pdfrwt>
<totfact> 0.11387460E+02</totfact>
</mgrwt>
</event>
<event>
11    1  0.7716362E-013  0.7734907E+03  0.7818608E-02  0.9599201E-01
          1   -1    0    0  501    0  0.00000000000E+00  0.00000000000E+00  0.50308024414E+03  0.50308024414E+03  0.00000000000E+00 0. -1.
         -1   -1    0    0    0  501 -0.00000000000E+00 -0.00000000000E+00 -0.29731233778E+03  0.29731233778E+03  0.00000000000E+00 0.  1.
    9900016    2    1    2    0    0 -0.43198473041E+02  0.42008970373E+02  0.19468394445E+03  0.73912500585E+03  0.71047383793E+03 0.  0.
         23    2    3    3    0    0 -0.78412999548E+01 -0.43217523024E+02 -0.16987562103E+02  0.91678873481E+02  0.78658745829E+02 0.  0.
        -15    1    4    4    0    0  0.30170365023E+02 -0.42437394995E+02 -0.10161248576E+02  0.53051243079E+02  0.00000000000E+00 0.  1.
        -15    1    3    3    0    0 -0.15047744385E+03 -0.21921403499E+02  0.90704916685E+02  0.17706323997E+03  0.00000000000E+00 0.  1.
         15    1    4    4    0    0 -0.38011664978E+02 -0.78012802803E+00 -0.68263135278E+01  0.38627630402E+02  0.00000000000E+00 0. -1.
         15    1    3    3    0    0  0.12833037983E+02 -0.78642751850E+01  0.31671111334E+01  0.15380646312E+02  0.00000000000E+00 0. -1.
        -16    1    3    3    0    0  0.24239566950E+02  0.21541822045E+03  0.18472186594E+03  0.28480648529E+03  0.00000000000E+00 0.  1.
         16    1    1    2    0    0  0.43198473041E+02 -0.42008970373E+02  0.11083961912E+02  0.61267576062E+02  0.00000000000E+00 0. -1.
    9900018    1    3    3    0    0  0.78047665831E+02 -0.10040604837E+03 -0.66922387203E+02  0.17019576080E+03  0.91187600000E+02 0.  0.
<mgrwt>
<rscale>  0 0.77349069E+03</rscale>
<asrwt>0</asrwt>
<pdfrwt beam="1">  1        1 0.77396960E-01 0.77349069E+03</pdfrwt>
<pdfrwt beam="2">  1       -1 0.45740360E-01 0.77349069E+03</pdfrwt>
<totfact> 0.21124134E+02</totfact>
</mgrwt>
</event>
<event>
11    1  0.7716362E-013  0.2766027E+04  0.7818608E-02  0.8313894E-01
         -2   -1    0    0    0  501 -0.00000000000E+00  0.00000000000E+00  0.13523840162E+04  0.13523840162E+04  0.00000000000E+00 0.  1.
          2   -1    0    0  501    0  0.00000000000E+00 -0.00000000000E+00 -0.14143367003E+04  0.14143367003E+04  0.00000000000E+00 0. -1.
    9900016    2    1    2    0    0 -0.32731279794E+03 -0.54613280914E+03 -0.11561947019E+04  0.15007190157E+04  0.71412650305E+03 0.  0.
         23    2    3    3    0    0 -0.92936599009E+02 -0.22944212085E+03 -0.51939896132E+03  0.57975979672E+03  0.71170517902E+02 0.  0.
        -15    1    3    3    0    0 -0.25522597885E+02  0.65280091316E+02  0.34297995285E+02  0.78033619713E+02  0.00000000000E+00 0.  1.
        -15    1    4    4    0    0 -0.61525307316E+02 -0.20609942822E+03 -0.40072851859E+03  0.45480290606E+03  0.00000000000E+00 0.  1.
         15    1    4    4    0    0 -0.31411291693E+02 -0.23342692630E+02 -0.11867044273E+03  0.12495689065E+03  0.00000000000E+00 0. -1.
         15    1    3    3    0    0 -0.20668353601E+02 -0.13302617260E+03 -0.11175991861E+03  0.17496691928E+03  0.00000000000E+00 0. -1.
        -16    1    1    2    0    0  0.32731279794E+03  0.54613280914E+03  0.10942420178E+04  0.12660017008E+04  0.00000000000E+00 0.  1.
         16    1    3    3    0    0  0.22746307364E+02 -0.63321831071E+02 -0.13617524078E+03  0.15189056913E+03  0.00000000000E+00 0. -1.
    9900018    1    3    3    0    0 -0.21093155481E+03 -0.18562277594E+03 -0.42315857653E+03  0.51606811086E+03  0.91187600000E+02 0.  0.
<mgrwt>
<rscale>  0 0.27660270E+04</rscale>
<asrwt>0</asrwt>
<pdfrwt beam="1">  1        2 0.21759026E+00 0.27660270E+04</pdfrwt>
<pdfrwt beam="2">  1       -2 0.20805908E+00 0.27660270E+04</pdfrwt>
<totfact> 0.14603985E+00</totfact>
</mgrwt>
</event>
<event>
11    1  0.7716362E-013  0.1368526E+04  0.7818608E-02  0.8976922E-01
          1   -1    0    0  501    0  0.00000000000E+00  0.00000000000E+00  0.47450969796E+03  0.47450969796E+03  0.00000000000E+00 0. -1.
         -1   -1    0    0    0  501 -0.00000000000E+00 -0.00000000000E+00 -0.98673542412E+03  0.98673542412E+03  0.00000000000E+00 0.  1.
    9900016    2    1    2    0    0 -0.59410987909E+02  0.47917825008E+03 -0.46543940914E+03  0.97613645354E+03  0.70927221257E+03 0.  0.
         23    2    3    3    0    0 -0.14059101977E+03  0.20355617400E+02 -0.18981503140E+03  0.25890341088E+03  0.10402424726E+03 0.  0.
        -15    1    4    4    0    0 -0.13125140903E+03 -0.11720724450E+02 -0.10747732311E+03  0.17004611943E+03  0.00000000000E+00 0. -1.
        -15    1    3    3    0    0 -0.27706896276E+02  0.11305743611E+03 -0.59740871015E+01  0.11655619107E+03  0.00000000000E+00 0.  1.
         15    1    3    3    0    0  0.70828145787E+02  0.77089068070E+02 -0.10284226671E+03  0.14675109020E+03  0.00000000000E+00 0. -1.
         15    1    4    4    0    0 -0.93396107469E+01  0.32076341850E+02 -0.82337708294E+02  0.88857291442E+02  0.00000000000E+00 0.  1.
        -16    1    3    3    0    0 -0.52110271356E+02  0.79607928256E+02  0.75083245099E+02  0.12120394514E+03  0.00000000000E+00 0.  1.
         16    1    1    2    0    0  0.59410987909E+02 -0.47917825008E+03 -0.46786317020E+02  0.48510866854E+03  0.00000000000E+00 0. -1.
    9900018    1    3    3    0    0  0.90169053709E+02  0.18906820024E+03 -0.24189126903E+03  0.33272181626E+03  0.91187600000E+02 0.  0.
<mgrwt>
<rscale>  0 0.13685255E+04</rscale>
<asrwt>0</asrwt>
<pdfrwt beam="1">  1        1 0.73001492E-01 0.13685255E+04</pdfrwt>
<pdfrwt beam="2">  1       -1 0.15180545E+00 0.13685255E+04</pdfrwt>
<totfact> 0.15727230E+01</totfact>
</mgrwt>
</event>
<event>
11    1  0.7716362E-013  0.8699308E+03  0.7818608E-02  0.9463970E-01
          2   -1    0    0  501    0  0.00000000000E+00  0.00000000000E+00  0.51105201351E+03  0.51105201351E+03  0.00000000000E+00 0.  1.
         -2   -1    0    0    0  501 -0.00000000000E+00 -0.00000000000E+00 -0.37020674122E+03  0.37020674122E+03  0.00000000000E+00 0. -1.
    9900016    2    1    2    0    0 -0.85730038253E+02 -0.95651084415E+02  0.44444878615E+02  0.72066048167E+03  0.70772693406E+03 0.  0.
         23    2    3    3    0    0  0.42508914110E+01 -0.73019439142E+00 -0.10971871800E+03  0.13473869352E+03  0.78087868395E+02 0.  0.
        -15    1    3    3    0    0 -0.17383370051E+02  0.83686272748E+02 -0.54020239122E+00  0.85474356502E+02  0.00000000000E+00 0.  1.
        -15    1    4    4    0    0  0.26769291368E+02  0.14286927977E+02 -0.10225493916E+03  0.10666200754E+03  0.00000000000E+00 0.  1.
         15    1    3    3    0    0 -0.89869374984E+02  0.83019548848E+01  0.14156241096E+03  0.16788491061E+03  0.00000000000E+00 0. -1.
         15    1    4    4    0    0 -0.22518399957E+02 -0.15017122368E+02 -0.74637788445E+01  0.28076685977E+02  0.00000000000E+00 0. -1.
        -16    1    1    2    0    0  0.85730038253E+02  0.95651084415E+02  0.96400393680E+02  0.16059827306E+03  0.00000000000E+00 0.  1.
         16    1    3    3    0    0  0.52179398896E+02  0.22768774766E+01 -0.83712912605E+02  0.98669780465E+02  0.00000000000E+00 0. -1.
    9900018    1    3    3    0    0 -0.34907583525E+02 -0.18918599513E+03  0.96854300653E+02  0.23389274057E+03  0.91187600000E+02 0.  0.
<mgrwt>
<rscale>  0 0.86993080E+03</rscale>
<asrwt>0</asrwt>
<pdfrwt beam="1">  1        2 0.78623387E-01 0.86993080E+03</pdfrwt>
<pdfrwt beam="2">  1       -2 0.56954883E-01 0.86993080E+03</pdfrwt>
<totfact> 0.17436826E+02</totfact>
</mgrwt>
</event>
<event>
11    1  0.7716362E-013  0.1749482E+04  0.7818608E-02  0.8733635E-01
          2   -1    0    0  501    0  0.00000000000E+00  0.00000000000E+00  0.59919979369E+03  0.59919979369E+03  0.00000000000E+00 0. -1.
         -2   -1    0    0    0  501 -0.00000000000E+00 -0.00000000000E+00 -0.12769899853E+04  0.12769899853E+04  0.00000000000E+00 0.  1.
    9900016    2    1    2    0    0 -0.26113633674E+03 -0.33148640163E+02  0.33682064256E+03  0.82798838444E+03  0.70910196784E+03 0.  0.
         23    2    3    3    0    0 -0.63252077198E+02  0.32450156358E+02 -0.73728359009E+02  0.12325812410E+03  0.68577374664E+02 0.  0.
        -15    1    3    3    0    0  0.86063941404E+02 -0.27470605473E+02  0.75898873959E+01  0.90660038417E+02  0.00000000000E+00 0.  1.
        -15    1    4    4    0    0 -0.42902688852E+02  0.46103876064E+02 -0.23225838281E+02  0.67124121318E+02  0.00000000000E+00 0.  1.
         15    1    4    4    0    0 -0.20349388346E+02 -0.13653719706E+02 -0.50502520728E+02  0.56134002777E+02  0.00000000000E+00 0. -1.
         15    1    3    3    0    0 -0.11398776800E+03  0.92161554099E+02  0.31133093914E+03  0.34411323278E+03  0.00000000000E+00 0. -1.
        -16    1    1    2    0    0  0.26113633674E+03  0.33148640163E+02 -0.10146108342E+04  0.10482013946E+04  0.00000000000E+00 0.  1.
         16    1    3    3    0    0 -0.12895853872E+02  0.12762410067E+02 -0.58423508573E+01  0.19060829504E+02  0.00000000000E+00 0. -1.
    9900018    1    3    3    0    0 -0.15706457908E+03 -0.14305215521E+03  0.97470525896E+02  0.25089615965E+03  0.91187600000E+02 0.  0.
<mgrwt>
<rscale>  0 0.17494824E+04</rscale>
<asrwt>0</asrwt>
<pdfrwt beam="1">  1        2 0.92184584E-01 0.17494824E+04</pdfrwt>
<pdfrwt beam="2">  1       -2 0.19646000E+00 0.17494824E+04</pdfrwt>
<totfact> 0.66028135E+00</totfact>
</mgrwt>
</event>
<event>
11    1  0.7716362E-013  0.1177473E+04  0.7818608E-02  0.9132806E-01
          2   -1    0    0  501    0  0.00000000000E+00  0.00000000000E+00  0.10498555436E+04  0.10498555436E+04  0.00000000000E+00 0. -1.
         -2   -1    0    0    0  501 -0.00000000000E+00 -0.00000000000E+00 -0.33015061945E+03  0.33015061945E+03  0.00000000000E+00 0.  1.
    9900016    2    1    2    0    0  0.48618203525E+02  0.23724564360E+03  0.16039686025E+03  0.77051889044E+03  0.71366867846E+03 0.  0.
         23    2    3    3    0    0 -0.70053637617E+02  0.19007432767E+03  0.17606390271E+03  0.27930554870E+03  0.77313191084E+02 0.  0.
        -15    1    4    4    0    0  0.74118650519E+01  0.88601039332E+02  0.78938583518E+02  0.11889650912E+03  0.00000000000E+00 0.  1.
        -15    1    3    3    0    0  0.10750427335E+03  0.48609778238E+02  0.16101381566E+03  0.19961344685E+03  0.00000000000E+00 0.  1.
         15    1    4    4    0    0 -0.77465502669E+02  0.10147328834E+03  0.97125319191E+02  0.16040903958E+03  0.00000000000E+00 0. -1.
         15    1    3    3    0    0  0.12384384323E+02  0.49813062796E+02  0.11845522473E+02  0.52678559233E+02  0.00000000000E+00 0. -1.
        -16    1    3    3    0    0  0.19682001786E+02  0.18871362811E+02 -0.20021474434E+02  0.33828522982E+02  0.00000000000E+00 0.  1.
         16    1    1    2    0    0 -0.48618203525E+02 -0.23724564360E+03  0.55930806386E+03  0.60948727256E+03  0.00000000000E+00 0. -1.
    9900018    1    3    3    0    0 -0.20898818321E+02 -0.70122887917E+02 -0.16850490615E+03  0.20509281267E+03  0.91187600000E+02 0.  0.
<mgrwt>
<rscale>  0 0.11774726E+04</rscale>
<asrwt>0</asrwt>
<pdfrwt beam="1">  1        2 0.16151624E+00 0.11774726E+04</pdfrwt>
<pdfrwt beam="2">  1       -2 0.50792404E-01 0.11774726E+04</pdfrwt>
<totfact> 0.84765324E+01</totfact>
</mgrwt>
</event>
<event>
11    1  0.7716362E-013  0.8126576E+03  0.7818608E-02  0.9541874E-01
         -1   -1    0    0    0  501 -0.00000000000E+00  0.00000000000E+00  0.31562143358E+03  0.31562143358E+03  0.00000000000E+00 0.  1.
          1   -1    0    0  501    0  0.00000000000E+00 -0.00000000000E+00 -0.52310482238E+03  0.52310482238E+03  0.00000000000E+00 0. -1.
    9900016    2    1    2    0    0  0.38981671287E+02 -0.58709985508E+02 -0.11296753408E+03  0.72082935233E+03  0.70842561947E+03 0.  0.
         23    2    3    3    0    0 -0.73143291980E+02  0.31366508562E+02 -0.88772065386E+02  0.14068655087E+03  0.74688867851E+02 0.  0.
        -15    1    4    4    0    0  0.13425621159E+02  0.76636401461E+01 -0.28960537327E+02  0.32828210522E+02  0.00000000000E+00 0. -1.
        -15    1    3    3    0    0  0.18367257837E+03 -0.85157092832E+02  0.38773638541E+02  0.20613282501E+03  0.00000000000E+00 0. -1.
         15    1    4    4    0    0 -0.86568913139E+02  0.23702868416E+02 -0.59811528059E+02  0.10785834035E+03  0.00000000000E+00 0.  1.
         15    1    3    3    0    0  0.65953251614E+02 -0.51211095223E+01 -0.43999780632E+02  0.79448334513E+02  0.00000000000E+00 0.  1.
        -16    1    3    3    0    0 -0.98087814063E+02 -0.84684870898E+02  0.59013967350E+02  0.14239169558E+03  0.00000000000E+00 0.  1.
         16    1    1    2    0    0 -0.38981671287E+02  0.58709985508E+02 -0.94515854712E+02  0.11789690363E+03  0.00000000000E+00 0. -1.
    9900018    1    3    3    0    0 -0.39413052649E+02  0.84886579182E+02 -0.77983293952E+02  0.15216994636E+03  0.91187600000E+02 0.  0.
<mgrwt>
<rscale>  0 0.81265760E+03</rscale>
<asrwt>0</asrwt>
<pdfrwt beam="1">  1        1 0.80477665E-01 0.81265760E+03</pdfrwt>
<pdfrwt beam="2">  1       -1 0.48557144E-01 0.81265760E+03</pdfrwt>
<totfact> 0.17858232E+02</totfact>
</mgrwt>
</event>
<event>
11    1  0.7716362E-013  0.1318766E+04  0.7818608E-02  0.9014815E-01
          1   -1    0    0  501    0  0.00000000000E+00  0.00000000000E+00  0.99615512450E+03  0.99615512450E+03  0.00000000000E+00 0. -1.
         -1   -1    0    0    0  501 -0.00000000000E+00 -0.00000000000E+00 -0.43646389741E+03  0.43646389741E+03  0.00000000000E+00 0.  1.
    9900016    2    1    2    0    0  0.32997282668E+03  0.16727293884E+03  0.50499625924E+02  0.80322376525E+03  0.71116517240E+03 0.  0.
         23    2    3    3    0    0  0.13984921921E+02 -0.17966126780E+02 -0.30339056545E+02  0.76826577096E+02  0.66809466722E+02 0.  0.
        -15    1    3    3    0    0  0.27409063648E+03  0.42853939715E+02 -0.39802072500E+02  0.28026120340E+03  0.00000000000E+00 0.  1.
        -15    1    4    4    0    0  0.19758346945E+02  0.19102112390E+02  0.16396753551E+01  0.27531282335E+02  0.00000000000E+00 0. -1.
         15    1    4    4    0    0 -0.57734250242E+01 -0.37068239169E+02 -0.31978731900E+02  0.49295294761E+02  0.00000000000E+00 0.  1.
         15    1    3    3    0    0  0.35365576075E+02  0.34893785960E+02  0.10064917991E+03  0.11224329684E+03  0.00000000000E+00 0. -1.
        -16    1    3    3    0    0 -0.11697029483E+03  0.52617859957E+02  0.89772192164E+02  0.15655585440E+03  0.00000000000E+00 0.  1.
         16    1    1    2    0    0 -0.32997282668E+03 -0.16727293884E+03  0.50919160116E+03  0.62939525666E+03  0.00000000000E+00 0. -1.
    9900018    1    3    3    0    0  0.12350198703E+03  0.54873479988E+02 -0.69780617101E+02  0.17733683352E+03  0.91187600000E+02 0.  0.
<mgrwt>
<rscale>  0 0.13187657E+04</rscale>
<asrwt>0</asrwt>
<pdfrwt beam="1">  1        1 0.15325463E+00 0.13187657E+04</pdfrwt>
<pdfrwt beam="2">  1       -1 0.67148292E-01 0.13187657E+04</pdfrwt>
<totfact> 0.33588481E+01</totfact>
</mgrwt>
</event>
<event>
11    1  0.7716362E-013  0.8863340E+03  0.7818608E-02  0.9442828E-01
         -1   -1    0    0    0  501 -0.00000000000E+00  0.00000000000E+00  0.19291174506E+03  0.19291174506E+03  0.00000000000E+00 0.  1.
          1   -1    0    0  501    0  0.00000000000E+00 -0.00000000000E+00 -0.10180664417E+04  0.10180664417E+04  0.00000000000E+00 0. -1.
    9900016    2    1    2    0    0  0.79209139549E+01 -0.23885193395E+02 -0.88647823817E+03  0.11446922901E+04  0.72377035656E+03 0.  0.
         23    2    3    3    0    0 -0.20952463556E+03 -0.97477058370E+02 -0.35708380727E+03  0.42959907335E+03  0.60366949540E+02 0.  0.
        -15    1    3    3    0    0 -0.40413829732E+02 -0.25715218418E+02 -0.22536938608E+02  0.52938300820E+02  0.00000000000E+00 0. -1.
        -15    1    4    4    0    0 -0.76705392414E+02 -0.31841869526E+02 -0.79580235106E+02  0.11502450043E+03  0.00000000000E+00 0.  1.
         15    1    4    4    0    0 -0.13281924314E+03 -0.65635188844E+02 -0.27750357216E+03  0.31457457292E+03  0.00000000000E+00 0.  1.
         15    1    3    3    0    0  0.20348869221E+03  0.12032562182E+03 -0.19879407384E+03  0.30887697700E+03  0.00000000000E+00 0. -1.
        -16    1    1    2    0    0 -0.79209139549E+01  0.23885193395E+02  0.61323541536E+02  0.66285896599E+02  0.00000000000E+00 0.  1.
         16    1    3    3    0    0  0.21945304276E+01 -0.15338909516E+00  0.13844183873E+02  0.14017878553E+02  0.00000000000E+00 0. -1.
    9900018    1    3    3    0    0  0.52176156607E+02 -0.20865149337E+02 -0.32190760232E+03  0.33926006043E+03  0.91187600000E+02 0.  0.
<mgrwt>
<rscale>  0 0.88633396E+03</rscale>
<asrwt>0</asrwt>
<pdfrwt beam="1">  1        1 0.15662560E+00 0.88633396E+03</pdfrwt>
<pdfrwt beam="2">  1       -1 0.29678730E-01 0.88633396E+03</pdfrwt>
<totfact> 0.15335229E+02</totfact>
</mgrwt>
</event>
<event>
11    1  0.7716362E-013  0.2211207E+04  0.7818608E-02  0.8513778E-01
         -2   -1    0    0    0  501 -0.00000000000E+00  0.00000000000E+00  0.16768315998E+04  0.16768315998E+04  0.00000000000E+00 0.  1.
          2   -1    0    0  501    0  0.00000000000E+00 -0.00000000000E+00 -0.72896955659E+03  0.72896955659E+03  0.00000000000E+00 0. -1.
    9900016    2    1    2    0    0 -0.33739022493E+03  0.28008546969E+03  0.14868788305E+04  0.17109492791E+04  0.72405714191E+03 0.  0.
         23    2    3    3    0    0 -0.17152983673E+03  0.16983250211E+02  0.31171969698E+03  0.36421870514E+03  0.75994605138E+02 0.  0.
        -15    1    4    4    0    0 -0.23735828921E+02  0.30596988489E+02  0.48778919015E+02  0.62281202778E+02  0.00000000000E+00 0. -1.
        -15    1    3    3    0    0  0.82992535367E+02  0.16289307863E+03  0.31374658847E+03  0.36312372240E+03  0.00000000000E+00 0.  1.
         15    1    3    3    0    0  0.15715503735E+00 -0.49455453176E+02  0.43859262972E+02  0.66102204918E+02  0.00000000000E+00 0. -1.
         15    1    4    4    0    0 -0.14779400781E+03 -0.13613738278E+02  0.26294077797E+03  0.30193750236E+03  0.00000000000E+00 0.  1.
        -16    1    3    3    0    0 -0.10250491129E+02 -0.45628894433E+02  0.94117778761E+01  0.47703774886E+02  0.00000000000E+00 0.  1.
         16    1    1    2    0    0  0.33739022493E+03 -0.28008546969E+03 -0.53901678738E+03  0.69485187723E+03  0.00000000000E+00 0. -1.
    9900018    1    3    3    0    0 -0.23875958748E+03  0.19529348845E+03  0.80814150425E+03  0.86980087177E+03  0.91187600000E+02 0.  0.
<mgrwt>
<rscale>  0 0.22112071E+04</rscale>
<asrwt>0</asrwt>
<pdfrwt beam="1">  1        2 0.11214916E+00 0.22112071E+04</pdfrwt>
<pdfrwt beam="2">  1       -2 0.25797409E+00 0.22112071E+04</pdfrwt>
<totfact> 0.20393972E+00</totfact>
</mgrwt>
</event>
