<event>
12    1  0.9281699E-014  0.3632691E+04  0.7818608E-02  0.8083044E-01
         -2   -1    0    0    0  501 -0.00000000000E+00  0.00000000000E+00  0.96197388463E+03  0.96197388463E+03  0.00000000000E+00 0.  1.
          2   -1    0    0  501    0  0.00000000000E+00 -0.00000000000E+00 -0.34295226228E+04  0.34295226228E+04  0.00000000000E+00 0. -1.
         24    2    1    2    0    0  0.41855965800E+03 -0.15464963787E+02 -0.18914637916E+04  0.19389350079E+04  0.80014607316E+02 0.  0.
    9900016    2    1    2    0    0 -0.27128822722E+03 -0.26091336495E+03 -0.52117505557E+03  0.21346166128E+04  0.20355076906E+04 0.  0.
         23    2    4    4    0    0 -0.79723739048E+02 -0.15088617535E+03 -0.42219096934E+03  0.46450109597E+03  0.91616270896E+02 0.  0.
        -15    1    3    3    0    0  0.21979967115E+03 -0.46900134877E+02 -0.10418712124E+04  0.10658363577E+04  0.00000000000E+00 0.  1.
        -15    1    5    5    0    0 -0.20905841387E+02 -0.12464293811E+03 -0.23969856810E+03  0.27097660374E+03  0.00000000000E+00 0. -1.
         15    1    5    5    0    0 -0.58817897661E+02 -0.26243237239E+02 -0.18249240124E+03  0.19352449224E+03  0.00000000000E+00 0.  1.
         15    1    1    2    0    0 -0.14727143078E+03  0.27637832873E+03 -0.54909890991E+02  0.31794488681E+03  0.00000000000E+00 0. -1.
        -16    1    4    4    0    0 -0.53591362748E+03  0.57257200082E+03  0.25227045430E+03  0.82382188266E+03  0.00000000000E+00 0.  1.
         16    1    3    3    0    0  0.19875998685E+03  0.31435171090E+02 -0.84959257925E+03  0.87309865025E+03  0.00000000000E+00 0. -1.
    9900018    1    4    4    0    0  0.34434913931E+03 -0.68259919042E+03 -0.35125454054E+03  0.84629363412E+03  0.91187600000E+02 0.  0.
<mgrwt>
<rscale>  0 0.36326911E+04</rscale>
<asrwt>0</asrwt>
<pdfrwt beam="1">  1        2 0.52761887E+00 0.36326911E+04</pdfrwt>
<pdfrwt beam="2">  1       -2 0.14799598E+00 0.36326911E+04</pdfrwt>
<totfact> 0.22930383E-01</totfact>
</mgrwt>
</event>
<event>
11    1  0.9281699E-014  0.2789770E+04  0.7818608E-02  0.8306452E-01
          1   -1    0    0  501    0  0.00000000000E+00  0.00000000000E+00  0.13952543964E+04  0.13952543964E+04  0.00000000000E+00 0.  1.
         -1   -1    0    0    0  501 -0.00000000000E+00 -0.00000000000E+00 -0.13945152026E+04  0.13945152026E+04  0.00000000000E+00 0. -1.
         24    2    1    2    0    0 -0.23553653255E+02  0.32784856125E+03  0.58071418113E+03  0.67219940003E+03  0.81139506629E+02 0.  0.
         23    2    1    2    0    0 -0.39478168193E+03 -0.90114481715E+02 -0.80121650550E+03  0.90263812600E+03  0.93992029590E+02 0.  0.
        -15    1    4    4    0    0 -0.31748617660E+03 -0.10914444836E+03 -0.63211471571E+03  0.71573668116E+03  0.00000000000E+00 0. -1.
        -15    1    3    3    0    0 -0.48676633137E+02  0.19185241892E+03  0.37991207530E+03  0.42838061373E+03  0.00000000000E+00 0.  1.
         15    1    1    2    0    0 -0.17095077626E+03 -0.38107530421E+02 -0.12623726479E+02  0.17560099729E+03  0.00000000000E+00 0. -1.
         15    1    4    4    0    0 -0.77295505325E+02  0.19029966642E+02 -0.16910178979E+03  0.18690144485E+03  0.00000000000E+00 0.  1.
        -16    1    1    2    0    0  0.13114911283E+03 -0.29224311752E+03  0.41984453353E+03  0.52808669920E+03  0.00000000000E+00 0.  1.
         16    1    3    3    0    0  0.25122979882E+02  0.13599614233E+03  0.20080210583E+03  0.24381878630E+03  0.00000000000E+00 0. -1.
    9900018    1    1    2    0    0  0.45813699860E+03  0.92616568400E+02 -0.18597928887E+03  0.51124437651E+03  0.91187600000E+02 0.  0.
<mgrwt>
<rscale>  0 0.27897695E+04</rscale>
<asrwt>0</asrwt>
<pdfrwt beam="1">  1        1 0.21465452E+00 0.27897695E+04</pdfrwt>
<pdfrwt beam="2">  1       -1 0.21454080E+00 0.27897695E+04</pdfrwt>
<totfact> 0.80346454E-01</totfact>
</mgrwt>
</event>
<event>
11    1  0.9281699E-014  0.2691140E+04  0.7818608E-02  0.8337885E-01
         -2   -1    0    0    0  501 -0.00000000000E+00  0.00000000000E+00  0.13201023643E+04  0.13201023643E+04  0.00000000000E+00 0.  1.
          2   -1    0    0  501    0  0.00000000000E+00 -0.00000000000E+00 -0.13715292441E+04  0.13715292441E+04  0.00000000000E+00 0. -1.
         24    2    1    2    0    0 -0.59235243032E+03 -0.37258719846E+03  0.20604627013E+03  0.73430290935E+03  0.83923030750E+02 0.  0.
         23    2    1    2    0    0  0.36924977783E+03  0.13615795913E+03 -0.62293698126E+03  0.74294075164E+03  0.95005734392E+02 0.  0.
        -15    1    3    3    0    0 -0.18559671879E+03 -0.15509000225E+03  0.95122658377E+02  0.25989877060E+03  0.00000000000E+00 0.  1.
        -15    1    4    4    0    0  0.10075390146E+03  0.42118005102E+01 -0.11073665370E+03  0.14977214158E+03  0.00000000000E+00 0. -1.
         15    1    1    2    0    0  0.53052733288E+02  0.31013405109E+03  0.11402465567E+03  0.33466303091E+03  0.00000000000E+00 0. -1.
         15    1    4    4    0    0  0.26849587637E+03  0.13194615862E+03 -0.51220032757E+03  0.59316861006E+03  0.00000000000E+00 0.  1.
        -16    1    1    2    0    0 -0.22354553554E+03 -0.36872240441E+02  0.38998736001E+03  0.45102362415E+03  0.00000000000E+00 0.  1.
         16    1    3    3    0    0 -0.40675571153E+03 -0.21749719621E+03  0.11092361175E+03  0.47440413875E+03  0.00000000000E+00 0. -1.
    9900018    1    1    2    0    0  0.39359545474E+03 -0.36832571328E+02 -0.13854818432E+03  0.42870129237E+03  0.91187600000E+02 0.  0.
<mgrwt>
<rscale>  0 0.26911403E+04</rscale>
<asrwt>0</asrwt>
<pdfrwt beam="1">  1        2 0.21100450E+00 0.26911403E+04</pdfrwt>
<pdfrwt beam="2">  1       -2 0.20309267E+00 0.26911403E+04</pdfrwt>
<totfact> 0.16746730E+00</totfact>
</mgrwt>
</event>
<event>
11    1  0.9281699E-014  0.3498743E+04  0.7818608E-02  0.8824661E-01
          1   -1    0    0  501    0  0.00000000000E+00  0.00000000000E+00  0.12870274709E+04  0.12870274709E+04  0.00000000000E+00 0. -1.
         -1   -1    0    0    0  501 -0.00000000000E+00 -0.00000000000E+00 -0.25868059257E+04  0.25868059257E+04  0.00000000000E+00 0.  1.
        -24    2    1    2    0    0 -0.48573011185E+03 -0.92519211336E+03  0.34684526102E+02  0.10481419704E+04  0.74056636954E+02 0.  0.
         23    2    1    2    0    0  0.10267878133E+03 -0.61330725181E+02 -0.49751061081E+02  0.15849088740E+03  0.91322523649E+02 0.  0.
        -15    1    1    2    0    0  0.86926186076E+03  0.48731424943E+03 -0.58335495056E+03  0.11547269628E+04  0.00000000000E+00 0.  1.
        -15    1    4    4    0    0  0.15257069628E+02  0.22865192587E+02 -0.46417226850E+00  0.27492010868E+02  0.00000000000E+00 0. -1.
         15    1    3    3    0    0 -0.48159271441E+03 -0.89032262818E+03  0.37436221694E+02  0.10129202316E+04  0.00000000000E+00 0. -1.
         15    1    4    4    0    0  0.87421711698E+02 -0.84195917768E+02 -0.49286888812E+02  0.13099887654E+03  0.00000000000E+00 0.  1.
        -16    1    3    3    0    0 -0.41373974409E+01 -0.34869485184E+02 -0.27516955918E+01  0.35221738787E+02  0.00000000000E+00 0.  1.
         16    1    1    2    0    0 -0.25190336731E+03  0.79213458834E+03 -0.15825390471E+03  0.84615412949E+03  0.00000000000E+00 0. -1.
    9900018    1    1    2    0    0 -0.23430716293E+03 -0.29292599922E+03 -0.54310306454E+03  0.66631944646E+03  0.91187600000E+02 0.  0.
<mgrwt>
<rscale>  0 0.15933223E+04</rscale>
<asrwt>0</asrwt>
<pdfrwt beam="1">  1        1 0.19800423E+00 0.34987428E+04</pdfrwt>
<pdfrwt beam="2">  1       -1 0.39797014E+00 0.34987428E+04</pdfrwt>
<totfact> 0.55366252E-02</totfact>
</mgrwt>
</event>
<event>
11    1  0.9281699E-014  0.3624650E+04  0.7818608E-02  0.8613249E-01
          1   -1    0    0  501    0  0.00000000000E+00  0.00000000000E+00  0.22319663209E+04  0.22319663209E+04  0.00000000000E+00 0. -1.
         -1   -1    0    0    0  501 -0.00000000000E+00 -0.00000000000E+00 -0.22646131321E+04  0.22646131321E+04  0.00000000000E+00 0.  1.
         24    2    1    2    0    0 -0.26137822731E+03  0.17850130674E+03 -0.73519205839E+03  0.80447242644E+03  0.80543329766E+02 0.  0.
         23    2    1    2    0    0  0.46746284520E+01  0.44759135445E+03 -0.34406925274E+02  0.45840576144E+03  0.92693758612E+02 0.  0.
        -15    1    3    3    0    0 -0.30842093778E+02  0.21414621022E+02 -0.17106792172E+03  0.17514009987E+03  0.00000000000E+00 0.  1.
        -15    1    4    4    0    0 -0.12949467278E+02  0.71301782231E+02  0.25797749094E+02  0.76923057079E+02  0.00000000000E+00 0.  1.
         15    1    1    2    0    0 -0.10892698957E+04  0.98710856820E+02  0.91264103440E+03  0.14244881174E+04  0.00000000000E+00 0. -1.
         15    1    4    4    0    0  0.17624095730E+02  0.37628957222E+03 -0.60204674369E+02  0.38148270436E+03  0.00000000000E+00 0. -1.
        -16    1    1    2    0    0 -0.51390678026E+02 -0.31162654396E+03 -0.14834181704E+03  0.34893752932E+03  0.00000000000E+00 0.  1.
         16    1    3    3    0    0 -0.23053613353E+03  0.15708668572E+03 -0.56412413668E+03  0.62933232658E+03  0.00000000000E+00 0. -1.
    9900018    1    1    2    0    0  0.13973641726E+04 -0.41317697405E+03 -0.27347044903E+02  0.14602756185E+04  0.91187600000E+02 0.  0.
<mgrwt>
<rscale>  0 0.19858848E+04</rscale>
<asrwt>0</asrwt>
<pdfrwt beam="1">  1        1 0.34337943E+00 0.36246496E+04</pdfrwt>
<pdfrwt beam="2">  1       -1 0.34840202E+00 0.36246496E+04</pdfrwt>
<totfact> 0.25886719E-02</totfact>
</mgrwt>
</event>
