<event>
11    1  0.1137199E-011  0.3243383E+04  0.7818608E-02  0.8177453E-01
          2   -1    0    0  501    0  0.00000000000E+00  0.00000000000E+00  0.18107958482E+04  0.18107958482E+04  0.00000000000E+00 0. -1.
         -2   -1    0    0    0  501 -0.00000000000E+00 -0.00000000000E+00 -0.14523359413E+04  0.14523359413E+04  0.00000000000E+00 0.  1.
    9900016    2    1    2    0    0 -0.80262405385E+03  0.64922427946E+02 -0.20863137934E+02  0.23730159173E+04  0.22321175999E+04 0.  0.
         24    2    3    3    0    0 -0.20207012933E+03 -0.79481196088E+03 -0.59883616669E+03  0.10186321306E+04  0.80301136616E+02 0.  0.
        -15    1    3    3    0    0 -0.26275206569E+02  0.25496778768E+02  0.54761603161E+01  0.37019731760E+02  0.00000000000E+00 0. -1.
        -15    1    4    4    0    0 -0.33958140252E+02 -0.28382452620E+03 -0.19617408097E+03  0.34668975613E+03  0.00000000000E+00 0.  1.
         15    1    3    3    0    0 -0.28635814107E+03  0.82314123638E+03  0.49368163530E+03  0.10016406726E+04  0.00000000000E+00 0. -1.
         15    1    3    3    0    0 -0.55561234401E+02 -0.87997407434E+00  0.93499582958E+01  0.56349328680E+02  0.00000000000E+00 0.  1.
        -16    1    1    2    0    0  0.80262405385E+03 -0.64922427946E+02  0.37932304488E+03  0.89011587215E+03  0.00000000000E+00 0.  1.
         16    1    4    4    0    0 -0.16811198908E+03 -0.51098743468E+03 -0.40266208572E+03  0.67194237442E+03  0.00000000000E+00 0. -1.
    9900018    1    3    3    0    0 -0.23235934248E+03  0.11976347749E+02  0.69465274844E+02  0.25937405372E+03  0.91187600000E+02 0.  0.
<mgrwt>
<rscale>  0 0.32433834E+04</rscale>
<asrwt>0</asrwt>
<pdfrwt beam="1">  1        2 0.27858398E+00 0.32433834E+04</pdfrwt>
<pdfrwt beam="2">  1       -2 0.22343630E+00 0.32433834E+04</pdfrwt>
<totfact> 0.67138311E-01</totfact>
</mgrwt>
</event>
<event>
12    1  0.1137199E-011  0.4033510E+04  0.7818608E-02  0.7997820E-01
          1   -1    0    0  501    0  0.00000000000E+00  0.00000000000E+00  0.41168602689E+04  0.41168602689E+04  0.00000000000E+00 0. -1.
         -1   -1    0    0    0  501 -0.00000000000E+00 -0.00000000000E+00 -0.98796193993E+03  0.98796193993E+03  0.00000000000E+00 0.  1.
    9900016    2    1    2    0    0 -0.49179525013E+03  0.11496310571E+04  0.12606471670E+04  0.28567393501E+04  0.22379039969E+04 0.  0.
         23    2    3    3    0    0 -0.25864855671E+02  0.26509392989E+01 -0.12340300916E+01  0.75821878086E+02  0.71213875952E+02 0.  0.
        -24    2    3    3    0    0  0.25419957007E+03 -0.27208869152E+03  0.52605592960E+03  0.64944711978E+03  0.79981515682E+02 0.  0.
        -15    1    4    4    0    0 -0.46587483060E+02  0.32534571605E+01  0.15471868989E+02  0.49197126861E+02  0.00000000000E+00 0. -1.
        -15    1    3    3    0    0  0.27119851660E+03  0.65563790947E+03  0.74833689640E+02  0.71344921672E+03  0.00000000000E+00 0.  1.
         15    1    4    4    0    0  0.20722627389E+02 -0.60251786158E+00 -0.16705899081E+02  0.26624751225E+02  0.00000000000E+00 0.  1.
         15    1    5    5    0    0  0.19407660642E+03 -0.23280380425E+03  0.37486858083E+03  0.48206824551E+03  0.00000000000E+00 0. -1.
        -16    1    5    5    0    0  0.60122963657E+02 -0.39284887267E+02  0.15118734877E+03  0.16737887428E+03  0.00000000000E+00 0.  1.
         16    1    1    2    0    0  0.49179525013E+03 -0.11496310571E+04  0.18682511620E+04  0.22480828587E+04  0.00000000000E+00 0. -1.
    9900018    1    3    3    0    0 -0.99132848113E+03  0.76343089986E+03  0.66099157784E+03  0.14180211355E+04  0.91187600000E+02 0.  0.
<mgrwt>
<rscale>  0 0.40335103E+04</rscale>
<asrwt>0</asrwt>
<pdfrwt beam="1">  1        1 0.63336311E+00 0.40335103E+04</pdfrwt>
<pdfrwt beam="2">  1       -1 0.15199415E+00 0.40335103E+04</pdfrwt>
<totfact> 0.19742072E-02</totfact>
</mgrwt>
</event>
<event>
12    1  0.1137199E-011  0.3026981E+04  0.7818608E-02  0.8236068E-01
         -2   -1    0    0    0  501 -0.00000000000E+00  0.00000000000E+00  0.10502110650E+04  0.10502110650E+04  0.00000000000E+00 0. -1.
          2   -1    0    0  501    0  0.00000000000E+00 -0.00000000000E+00 -0.21811358901E+04  0.21811358901E+04  0.00000000000E+00 0.  1.
    9900016    2    1    2    0    0 -0.54558842692E+03 -0.41021512943E+01 -0.45154736842E+03  0.23600047216E+04  0.22512315964E+04 0.  0.
         23    2    3    3    0    0 -0.86962708859E+01 -0.17195243915E+02 -0.24385067680E+02  0.11315999838E+03  0.10880832765E+03 0.  0.
         24    2    3    3    0    0 -0.82853582297E+03  0.29761749437E+03  0.46133139868E+03  0.99720301862E+03  0.80866668328E+02 0.  0.
        -15    1    4    4    0    0 -0.20190161292E+02 -0.15127446392E+02 -0.65620276313E+02  0.70302936715E+02  0.00000000000E+00 0.  1.
        -15    1    5    5    0    0 -0.38288754516E+03  0.10572079338E+03  0.17744131199E+03  0.43504617869E+03  0.00000000000E+00 0.  1.
         15    1    4    4    0    0  0.11493890406E+02 -0.20677975231E+01  0.41235208633E+02  0.42857061662E+02  0.00000000000E+00 0. -1.
         15    1    3    3    0    0  0.36256530129E+03 -0.41714386242E+03 -0.91777619183E+03  0.10713429600E+04  0.00000000000E+00 0. -1.
        -16    1    1    2    0    0  0.54558842692E+03  0.41021512943E+01 -0.67937745666E+03  0.87134223349E+03  0.00000000000E+00 0.  1.
         16    1    5    5    0    0 -0.44564827781E+03  0.19189670099E+03  0.28389008669E+03  0.56215683993E+03  0.00000000000E+00 0. -1.
    9900018    1    3    3    0    0 -0.70921634361E+02  0.13261946067E+03  0.29282492403E+02  0.17829874460E+03  0.91187600000E+02 0.  0.
<mgrwt>
<rscale>  0 0.30269807E+04</rscale>
<asrwt>0</asrwt>
<pdfrwt beam="1">  1        2 0.33555937E+00 0.30269807E+04</pdfrwt>
<pdfrwt beam="2">  1       -2 0.16157093E+00 0.30269807E+04</pdfrwt>
<totfact> 0.11084859E+00</totfact>
</mgrwt>
</event>
<event>
11    1  0.1137199E-011  0.3140810E+04  0.7818608E-02  0.8204626E-01
          2   -1    0    0  501    0  0.00000000000E+00  0.00000000000E+00  0.18231525698E+04  0.18231525698E+04  0.00000000000E+00 0. -1.
         -2   -1    0    0    0  501 -0.00000000000E+00 -0.00000000000E+00 -0.13526963895E+04  0.13526963895E+04  0.00000000000E+00 0.  1.
    9900016    2    1    2    0    0  0.88520775831E+02  0.39184468387E+03 -0.34026585558E+03  0.22710570477E+04  0.22091946671E+04 0.  0.
        -24    2    3    3    0    0  0.56486620079E+02  0.68390344008E+03 -0.66366746318E+03  0.95775705782E+03  0.77002769642E+02 0.  0.
        -15    1    3    3    0    0 -0.86120849962E+02  0.40174970848E+03  0.38599779878E+03  0.56374988224E+03  0.00000000000E+00 0.  1.
        -15    1    3    3    0    0  0.95551174899E+01 -0.17598921327E+02 -0.13559701924E+02  0.24184454064E+02  0.00000000000E+00 0.  1.
         15    1    4    4    0    0 -0.87405650690E+01  0.23595893948E+03 -0.26038595483E+03  0.35150229597E+03  0.00000000000E+00 0. -1.
         15    1    3    3    0    0  0.19710412617E+01  0.11258146822E+02  0.17152915586E+02  0.20611971925E+02  0.00000000000E+00 0. -1.
        -16    1    4    4    0    0  0.65227185148E+02  0.44794450059E+03 -0.40328150836E+03  0.60625476186E+03  0.00000000000E+00 0.  1.
         16    1    1    2    0    0 -0.88520775831E+02 -0.39184468387E+03  0.81072203581E+03  0.90479191165E+03  0.00000000000E+00 0. -1.
    9900018    1    3    3    0    0  0.10662884696E+03 -0.68746769018E+03 -0.66189404834E+02  0.70475368162E+03  0.91187600000E+02 0.  0.
<mgrwt>
<rscale>  0 0.31408100E+04</rscale>
<asrwt>0</asrwt>
<pdfrwt beam="1">  1        2 0.28048501E+00 0.31408100E+04</pdfrwt>
<pdfrwt beam="2">  1       -2 0.20810714E+00 0.31408100E+04</pdfrwt>
<totfact> 0.83491463E-01</totfact>
</mgrwt>
</event>
<event>
12    1  0.1137199E-011  0.2875719E+04  0.7818608E-02  0.8280139E-01
          1   -1    0    0  501    0  0.00000000000E+00  0.00000000000E+00  0.11954028333E+04  0.11954028333E+04  0.00000000000E+00 0. -1.
         -1   -1    0    0    0  501 -0.00000000000E+00 -0.00000000000E+00 -0.17294917891E+04  0.17294917891E+04  0.00000000000E+00 0.  1.
    9900016    2    1    2    0    0 -0.53700253676E+03 -0.66683791929E+02 -0.63994898080E+03  0.23735101854E+04  0.22206299668E+04 0.  0.
         23    2    3    3    0    0 -0.12574930190E+02 -0.43104858860E+00  0.47793314777E+01  0.61140586535E+02  0.59640712943E+02 0.  0.
        -24    2    3    3    0    0 -0.35131552218E+02 -0.82258784937E+03  0.32781389073E+03  0.88975339875E+03  0.79461737497E+02 0.  0.
        -15    1    3    3    0    0 -0.49659439500E+03  0.36867756452E+03 -0.72790272329E+03  0.95518140387E+03  0.00000000000E+00 0.  1.
        -15    1    4    4    0    0  0.95072360377E+00  0.25319152074E+02  0.15998798312E+02  0.29965394784E+02  0.00000000000E+00 0. -1.
         15    1    4    4    0    0 -0.13525653794E+02 -0.25750200662E+02 -0.11219466834E+02  0.31175191752E+02  0.00000000000E+00 0.  1.
         15    1    5    5    0    0 -0.51404158785E+02 -0.36804043571E+03  0.12907079679E+03  0.39338965473E+03  0.00000000000E+00 0. -1.
        -16    1    5    5    0    0  0.16272606567E+02 -0.45454741366E+03  0.19874309394E+03  0.49636374402E+03  0.00000000000E+00 0.  1.
         16    1    1    2    0    0  0.53700253676E+03  0.66683791929E+02  0.10586002502E+03  0.55138443712E+03  0.00000000000E+00 0. -1.
    9900018    1    3    3    0    0  0.72983406481E+01  0.38765754151E+03 -0.24463947972E+03  0.46743479620E+03  0.91187600000E+02 0.  0.
<mgrwt>
<rscale>  0 0.28757186E+04</rscale>
<asrwt>0</asrwt>
<pdfrwt beam="1">  1        1 0.18390813E+00 0.28757186E+04</pdfrwt>
<pdfrwt beam="2">  1       -1 0.26607566E+00 0.28757186E+04</pdfrwt>
<totfact> 0.50747897E-01</totfact>
</mgrwt>
</event>
<event>
11    1  0.1137199E-011  0.3406404E+04  0.7818608E-02  0.8136336E-01
         -1   -1    0    0    0  501 -0.00000000000E+00  0.00000000000E+00  0.10226672990E+04  0.10226672990E+04  0.00000000000E+00 0.  1.
          1   -1    0    0  501    0  0.00000000000E+00 -0.00000000000E+00 -0.28365996179E+04  0.28365996179E+04  0.00000000000E+00 0. -1.
    9900016    2    1    2    0    0 -0.73477132140E+03 -0.32529177124E+03 -0.63178886989E+03  0.24298730716E+04  0.22044097479E+04 0.  0.
        -24    2    3    3    0    0 -0.89528971036E+03  0.21963234570E+03 -0.65189932154E+03  0.11319430921E+04  0.80872773330E+02 0.  0.
        -15    1    3    3    0    0  0.57464600542E+03 -0.31039559838E+02  0.14332204047E+03  0.59306213258E+03  0.00000000000E+00 0.  1.
        -15    1    3    3    0    0 -0.24214180846E+02  0.21306707019E+01  0.36199254470E+01  0.24575804603E+02  0.00000000000E+00 0. -1.
         15    1    4    4    0    0 -0.45071984708E+03  0.90129536097E+02 -0.28166294659E+03  0.53907859289E+03  0.00000000000E+00 0. -1.
         15    1    3    3    0    0  0.47248064308E+01 -0.39021597394E+02 -0.24230662841E+02  0.46175035254E+02  0.00000000000E+00 0.  1.
        -16    1    4    4    0    0 -0.44456986328E+03  0.12950280961E+03 -0.37023637495E+03  0.59286449916E+03  0.00000000000E+00 0.  1.
         16    1    1    2    0    0  0.73477132140E+03  0.32529177124E+03 -0.11821434490E+04  0.14293938454E+04  0.00000000000E+00 0. -1.
    9900018    1    3    3    0    0 -0.39463824205E+03 -0.47699363041E+03 -0.10260085142E+03  0.63411700706E+03  0.91187600000E+02 0.  0.
<mgrwt>
<rscale>  0 0.34064044E+04</rscale>
<asrwt>0</asrwt>
<pdfrwt beam="1">  1        1 0.43639994E+00 0.34064044E+04</pdfrwt>
<pdfrwt beam="2">  1       -1 0.15733343E+00 0.34064044E+04</pdfrwt>
<totfact> 0.19746260E-01</totfact>
</mgrwt>
</event>
<event>
12    1  0.1137199E-011  0.3367931E+04  0.7818608E-02  0.9039911E-01
         -2   -1    0    0    0  501 -0.00000000000E+00  0.00000000000E+00  0.11636327112E+04  0.11636327112E+04  0.00000000000E+00 0.  1.
          2   -1    0    0  501    0  0.00000000000E+00 -0.00000000000E+00 -0.25422108524E+04  0.25422108524E+04  0.00000000000E+00 0. -1.
         23    2    1    2    0    0 -0.82190114911E+01 -0.11057444767E+02 -0.33417887040E+02  0.79217956333E+02  0.70490497209E+02 0.  0.
    9900016    2    1    2    0    0 -0.69096702883E+03 -0.30145005899E+03 -0.16267524605E+04  0.28106499768E+04  0.21645142992E+04 0.  0.
         24    2    4    4    0    0 -0.46001622738E+03  0.16312470582E+03 -0.18476953304E+04  0.19124901444E+04  0.73592928005E+02 0.  0.
        -15    1    5    5    0    0 -0.12476207848E+03  0.46963954965E+02 -0.64090189828E+03  0.65461930350E+03  0.00000000000E+00 0.  1.
        -15    1    3    3    0    0  0.24788284443E+02  0.87262313482E+01  0.27299252636E+01  0.26420799593E+02  0.00000000000E+00 0.  1.
         15    1    3    3    0    0 -0.33007295934E+02 -0.19783676115E+02 -0.36147812304E+02  0.52797156740E+02  0.00000000000E+00 0. -1.
         15    1    4    4    0    0 -0.41818009852E+03 -0.82389083453E+02  0.44582684455E+02  0.42854424699E+03  0.00000000000E+00 0. -1.
        -16    1    1    2    0    0  0.69918604032E+03  0.31250750375E+03  0.28159220631E+03  0.81597563047E+03  0.00000000000E+00 0.  1.
         16    1    5    5    0    0 -0.33525414890E+03  0.11616075085E+03 -0.12067934322E+04  0.12578708409E+04  0.00000000000E+00 0. -1.
    9900018    1    4    4    0    0  0.18722929708E+03 -0.38218568135E+03  0.17636018545E+03  0.46961558548E+03  0.91187600000E+02 0.  0.
<mgrwt>
<rscale>  0 0.12870345E+04</rscale>
<asrwt>0</asrwt>
<pdfrwt beam="1">  1        2 0.39110936E+00 0.33679307E+04</pdfrwt>
<pdfrwt beam="2">  1       -2 0.17902042E+00 0.33679307E+04</pdfrwt>
<totfact> 0.50187959E-01</totfact>
</mgrwt>
</event>
<event>
11    1  0.1137199E-011  0.2906327E+04  0.7818608E-02  0.8270998E-01
         -1   -1    0    0    0  501 -0.00000000000E+00  0.00000000000E+00  0.16206108342E+04  0.16206108342E+04  0.00000000000E+00 0.  1.
          1   -1    0    0  501    0  0.00000000000E+00 -0.00000000000E+00 -0.13030173623E+04  0.13030173623E+04  0.00000000000E+00 0. -1.
    9900016    2    1    2    0    0  0.39291020774E+03  0.46862869272E+03  0.17535911887E+03  0.22957572749E+04  0.22058466315E+04 0.  0.
        -24    2    3    3    0    0 -0.53218102605E+03  0.35047935689E+03  0.42170430341E+03  0.76819614136E+03  0.78983339939E+02 0.  0.
        -15    1    3    3    0    0  0.20672574786E+03  0.11176558199E+03 -0.59438540017E+03  0.63915654114E+03  0.00000000000E+00 0.  1.
        -15    1    3    3    0    0 -0.20816160285E+02  0.15371499432E+02 -0.61795425856E+01  0.26604177687E+02  0.00000000000E+00 0. -1.
         15    1    4    4    0    0 -0.41901042532E+03  0.27529194914E+03  0.36879920041E+03  0.62238914195E+03  0.00000000000E+00 0. -1.
         15    1    3    3    0    0 -0.20055002028E+02  0.12170987774E+01  0.15544453842E+02  0.25403040783E+02  0.00000000000E+00 0.  1.
        -16    1    4    4    0    0 -0.11317060074E+03  0.75187407746E+02  0.52905102995E+02  0.14580699941E+03  0.00000000000E+00 0.  1.
         16    1    1    2    0    0 -0.39291020774E+03 -0.46862869272E+03  0.14223435307E+03  0.62787092159E+03  0.00000000000E+00 0. -1.
    9900018    1    3    3    0    0  0.75923664824E+03 -0.10204844363E+02  0.33867530438E+03  0.83639737390E+03  0.91187600000E+02 0.  0.
<mgrwt>
<rscale>  0 0.29063269E+04</rscale>
<asrwt>0</asrwt>
<pdfrwt beam="1">  1        1 0.20046421E+00 0.29063269E+04</pdfrwt>
<pdfrwt beam="2">  1       -1 0.24932474E+00 0.29063269E+04</pdfrwt>
<totfact> 0.54383915E-01</totfact>
</mgrwt>
</event>
<event>
11    1  0.1137199E-011  0.2799640E+04  0.7818608E-02  0.8303380E-01
         -1   -1    0    0    0  501 -0.00000000000E+00  0.00000000000E+00  0.19065146327E+04  0.19065146327E+04  0.00000000000E+00 0.  1.
          1   -1    0    0  501    0  0.00000000000E+00 -0.00000000000E+00 -0.10277899628E+04  0.10277899628E+04  0.00000000000E+00 0. -1.
    9900016    2    1    2    0    0  0.36942069336E+03  0.38447251080E+03  0.74033470309E+03  0.23834484045E+04  0.22019173609E+04 0.  0.
        -24    2    3    3    0    0 -0.58329904719E+03 -0.20305692380E+03  0.10100368674E+04  0.11866206687E+04  0.80151388631E+02 0.  0.
        -15    1    3    3    0    0  0.57142869190E+03  0.38794313205E+03 -0.15626532442E+03  0.70813097323E+03  0.00000000000E+00 0.  1.
        -15    1    3    3    0    0 -0.36172072634E+01  0.19079642311E+02  0.75681741207E+01  0.20842125579E+02  0.00000000000E+00 0.  1.
         15    1    4    4    0    0 -0.35736125512E+03 -0.13183753300E+03  0.69392076718E+03  0.79158968721E+03  0.00000000000E+00 0. -1.
         15    1    3    3    0    0  0.19971260341E+02 -0.74309082246E+01  0.14834752770E+02  0.25964197010E+02  0.00000000000E+00 0. -1.
        -16    1    4    4    0    0 -0.22593779207E+03 -0.71219390801E+02  0.31611610018E+03  0.39503098145E+03  0.00000000000E+00 0.  1.
         16    1    1    2    0    0 -0.36942069336E+03 -0.38447251080E+03  0.13838996679E+03  0.55085619099E+03  0.00000000000E+00 0. -1.
    9900018    1    3    3    0    0  0.36493699557E+03  0.18793756847E+03 -0.13583976674E+03  0.44189044004E+03  0.91187600000E+02 0.  0.
<mgrwt>
<rscale>  0 0.27996404E+04</rscale>
<asrwt>0</asrwt>
<pdfrwt beam="1">  1        1 0.15812153E+00 0.27996404E+04</pdfrwt>
<pdfrwt beam="2">  1       -1 0.29330994E+00 0.27996404E+04</pdfrwt>
<totfact> 0.45478445E-01</totfact>
</mgrwt>
</event>
<event>
11    1  0.1137199E-011  0.2769018E+04  0.7818608E-02  0.8312952E-01
          1   -1    0    0  501    0  0.00000000000E+00  0.00000000000E+00  0.43494559892E+04  0.43494559892E+04  0.00000000000E+00 0. -1.
         -1   -1    0    0    0  501 -0.00000000000E+00 -0.00000000000E+00 -0.44071371360E+03  0.44071371360E+03  0.00000000000E+00 0.  1.
    9900016    2    1    2    0    0  0.36450908297E+03 -0.35740116369E+03  0.32905169485E+04  0.39884184830E+04  0.21953081205E+04 0.  0.
         24    2    3    3    0    0 -0.12615300612E+02  0.42644535077E+03 -0.94947742740E+01  0.43382050926E+03  0.78072405555E+02 0.  0.
        -15    1    3    3    0    0  0.22349297916E+02  0.31208451604E+00  0.62954239578E+01  0.23221129966E+02  0.00000000000E+00 0.  1.
        -15    1    4    4    0    0  0.16634338189E+02  0.18425224041E+03  0.27648149021E+02  0.18705616656E+03  0.00000000000E+00 0.  1.
         15    1    3    3    0    0  0.21495718585E+03 -0.85224168816E+03  0.16229909008E+04  0.18457036465E+04  0.00000000000E+00 0. -1.
         15    1    3    3    0    0 -0.14350041021E+02  0.13630868911E+02  0.44443863925E+02  0.48651632091E+02  0.00000000000E+00 0. -1.
        -16    1    1    2    0    0 -0.36450908297E+03  0.35740116369E+03  0.61822532719E+03  0.80175121986E+03  0.00000000000E+00 0.  1.
         16    1    4    4    0    0 -0.29249638801E+02  0.24219311036E+03 -0.37142923295E+02  0.24676434270E+03  0.00000000000E+00 0. -1.
    9900018    1    3    3    0    0  0.15416794084E+03  0.54452220273E+02  0.16262815341E+04  0.16370215651E+04  0.91187600000E+02 0.  0.
<mgrwt>
<rscale>  0 0.27690178E+04</rscale>
<asrwt>0</asrwt>
<pdfrwt beam="1">  1        1 0.66914705E+00 0.27690178E+04</pdfrwt>
<pdfrwt beam="2">  1       -1 0.67802113E-01 0.27690178E+04</pdfrwt>
<totfact> 0.87248289E-02</totfact>
</mgrwt>
</event>
<event>
11    1  0.1137199E-011  0.2623997E+04  0.7818608E-02  0.8360096E-01
          2   -1    0    0  501    0  0.00000000000E+00  0.00000000000E+00  0.12984218604E+04  0.12984218604E+04  0.00000000000E+00 0. -1.
         -2   -1    0    0    0  501 -0.00000000000E+00 -0.00000000000E+00 -0.13257166934E+04  0.13257166934E+04  0.00000000000E+00 0.  1.
    9900016    2    1    2    0    0 -0.37348635335E+03 -0.98533633478E+02  0.41297222207E+02  0.22318302528E+04  0.21977624720E+04 0.  0.
        -24    2    3    3    0    0  0.25006261059E+03 -0.75628201970E+03  0.63032290993E+03  0.10187629193E+04  0.77955835915E+02 0.  0.
        -15    1    3    3    0    0  0.15865852314E+02 -0.20528860723E+02 -0.21057016205E+02  0.33414926660E+02  0.00000000000E+00 0. -1.
        -15    1    3    3    0    0 -0.10808388202E+03  0.38897677820E+03 -0.28831765244E+03  0.49609689400E+03  0.00000000000E+00 0.  1.
         15    1    4    4    0    0  0.17601454044E+02 -0.99222942973E+02  0.53704581295E+02  0.11418925365E+03  0.00000000000E+00 0. -1.
         15    1    3    3    0    0 -0.12260116096E+01  0.18303240063E+02  0.23719592584E+01  0.18496969805E+02  0.00000000000E+00 0.  1.
        -16    1    4    4    0    0  0.23246115655E+03 -0.65705907673E+03  0.57661832863E+03  0.90457366562E+03  0.00000000000E+00 0.  1.
         16    1    1    2    0    0  0.37348635335E+03  0.98533633478E+02 -0.68592055247E+02  0.39230830109E+03  0.00000000000E+00 0. -1.
    9900018    1    3    3    0    0 -0.53010492262E+03  0.27099722869E+03 -0.28202297834E+03  0.66505854302E+03  0.91187600000E+02 0.  0.
<mgrwt>
<rscale>  0 0.26239966E+04</rscale>
<asrwt>0</asrwt>
<pdfrwt beam="1">  1        2 0.19975721E+00 0.26239966E+04</pdfrwt>
<pdfrwt beam="2">  1       -2 0.20395641E+00 0.26239966E+04</pdfrwt>
<totfact> 0.18326471E+00</totfact>
</mgrwt>
</event>
<event>
12    1  0.1137199E-011  0.3445934E+04  0.7818608E-02  0.8126724E-01
         -1   -1    0    0    0  501 -0.00000000000E+00  0.00000000000E+00  0.20400497793E+04  0.20400497793E+04  0.00000000000E+00 0.  1.
          1   -1    0    0  501    0  0.00000000000E+00 -0.00000000000E+00 -0.14551684419E+04  0.14551684419E+04  0.00000000000E+00 0. -1.
    9900016    2    1    2    0    0  0.65580046022E+03 -0.22817608891E+03 -0.34181300735E+03  0.23372454323E+04  0.22053891964E+04 0.  0.
         23    2    3    3    0    0  0.37060606804E+02  0.46535195087E+01  0.12932200089E+02  0.67357524339E+02  0.54540356301E+02 0.  0.
         24    2    3    3    0    0  0.15381387289E+03  0.28592191706E+03  0.30280705183E+03  0.45151275701E+03  0.82229003108E+02 0.  0.
        -15    1    5    5    0    0  0.11083745170E+03  0.19486071525E+03  0.15453003145E+03  0.27227774362E+03  0.00000000000E+00 0.  1.
        -15    1    4    4    0    0  0.21869221270E+02 -0.15414388519E+02  0.27424432755E+02  0.38314040824E+02  0.00000000000E+00 0.  1.
         15    1    4    4    0    0  0.15191385534E+02  0.20067908027E+02 -0.14492232666E+02  0.29043483515E+02  0.00000000000E+00 0. -1.
         15    1    3    3    0    0 -0.54303350755E+03 -0.35850977884E+01 -0.33399526391E+03  0.63753515947E+03  0.00000000000E+00 0. -1.
        -16    1    1    2    0    0 -0.65580046022E+03  0.22817608891E+03  0.92669434481E+03  0.11579727889E+04  0.00000000000E+00 0.  1.
         16    1    5    5    0    0  0.42976421192E+02  0.91061201807E+02  0.14827702037E+03  0.17923501339E+03  0.00000000000E+00 0. -1.
    9900018    1    3    3    0    0  0.10079594881E+04 -0.51516642769E+03 -0.32355699536E+03  0.11808399915E+04  0.91187600000E+02 0.  0.
<mgrwt>
<rscale>  0 0.34459345E+04</rscale>
<asrwt>0</asrwt>
<pdfrwt beam="1">  1        1 0.22387207E+00 0.34459345E+04</pdfrwt>
<pdfrwt beam="2">  1       -1 0.31385381E+00 0.34459345E+04</pdfrwt>
<totfact> 0.15458083E-01</totfact>
</mgrwt>
</event>
<event>
11    1  0.1137199E-011  0.2786302E+04  0.7818608E-02  0.8307534E-01
          2   -1    0    0  501    0  0.00000000000E+00  0.00000000000E+00  0.11432028187E+04  0.11432028187E+04  0.00000000000E+00 0. -1.
         -2   -1    0    0    0  501 -0.00000000000E+00 -0.00000000000E+00 -0.16977469273E+04  0.16977469273E+04  0.00000000000E+00 0.  1.
    9900016    2    1    2    0    0 -0.51119967425E+03  0.34183834642E+02 -0.35587749048E+03  0.22914389939E+04  0.22048923404E+04 0.  0.
        -24    2    3    3    0    0  0.69196421369E+03 -0.22230287632E+03 -0.50891821568E+03  0.89109491077E+03  0.82579343007E+02 0.  0.
        -15    1    3    3    0    0 -0.17569340174E+02  0.42899891837E+02  0.14794882227E+02  0.48661802000E+02  0.00000000000E+00 0. -1.
        -15    1    3    3    0    0 -0.91693753668E+03 -0.16694727070E+02 -0.57324448528E+02  0.91887934599E+03  0.00000000000E+00 0.  1.
         15    1    4    4    0    0  0.24205425716E+03 -0.58648797881E+02 -0.13266624076E+03  0.28218837031E+03  0.00000000000E+00 0. -1.
         15    1    3    3    0    0 -0.13034179702E+02 -0.13905623659E+02  0.94543347704E+00  0.19082716114E+02  0.00000000000E+00 0.  1.
        -16    1    4    4    0    0  0.44990995653E+03 -0.16365407844E+03 -0.37625197492E+03  0.60890654046E+03  0.00000000000E+00 0.  1.
         16    1    1    2    0    0  0.51119967425E+03 -0.34183834642E+02 -0.19866661820E+03  0.54951075212E+03  0.00000000000E+00 0. -1.
    9900018    1    3    3    0    0 -0.25562283138E+03  0.24418716985E+03  0.19462485803E+03  0.41372021899E+03  0.91187600000E+02 0.  0.
<mgrwt>
<rscale>  0 0.27863015E+04</rscale>
<asrwt>0</asrwt>
<pdfrwt beam="1">  1        2 0.17587736E+00 0.27863015E+04</pdfrwt>
<pdfrwt beam="2">  1       -2 0.26119184E+00 0.27863015E+04</pdfrwt>
<totfact> 0.97957476E-01</totfact>
</mgrwt>
</event>
<event>
12    1  0.1137199E-011  0.2749817E+04  0.7818608E-02  0.8319020E-01
          1   -1    0    0  501    0  0.00000000000E+00  0.00000000000E+00  0.13200118346E+04  0.13200118346E+04  0.00000000000E+00 0. -1.
         -1   -1    0    0    0  501 -0.00000000000E+00 -0.00000000000E+00 -0.14320877089E+04  0.14320877089E+04  0.00000000000E+00 0.  1.
    9900016    2    1    2    0    0 -0.15312764624E+03  0.41138447348E+03  0.12139405771E+03  0.22549139944E+04  0.22084418362E+04 0.  0.
         23    2    3    3    0    0  0.15562178134E+02 -0.80131406858E+00  0.17693277422E+02  0.63483150652E+02  0.58942640409E+02 0.  0.
         24    2    3    3    0    0  0.30961082532E+03 -0.57524761835E+03 -0.39047260561E+03  0.76500040053E+03  0.77382630589E+02 0.  0.
        -15    1    5    5    0    0  0.17980505811E+03 -0.38332426193E+03 -0.28528044544E+03  0.51054116510E+03  0.00000000000E+00 0.  1.
        -15    1    4    4    0    0 -0.21804521283E+02 -0.18780218442E+01  0.13860048219E+02  0.25904923298E+02  0.00000000000E+00 0. -1.
         15    1    3    3    0    0 -0.62501004723E+03  0.52696341473E+03  0.16324420224E+03  0.83365260700E+03  0.00000000000E+00 0. -1.
         15    1    4    4    0    0  0.37366699417E+02  0.10767077757E+01  0.38332292024E+01  0.37578227354E+02  0.00000000000E+00 0.  1.
        -16    1    1    2    0    0  0.15312764624E+03 -0.41138447348E+03 -0.23346993210E+03  0.49718554912E+03  0.00000000000E+00 0.  1.
         16    1    5    5    0    0  0.12980576721E+03 -0.19192335642E+03 -0.10519216017E+03  0.25445923544E+03  0.00000000000E+00 0. -1.
    9900018    1    3    3    0    0  0.14670939754E+03  0.46046999117E+03  0.33092918366E+03  0.59277783619E+03  0.91187600000E+02 0.  0.
<mgrwt>
<rscale>  0 0.27498165E+04</rscale>
<asrwt>0</asrwt>
<pdfrwt beam="1">  1        1 0.20307874E+00 0.27498165E+04</pdfrwt>
<pdfrwt beam="2">  1       -1 0.22032119E+00 0.27498165E+04</pdfrwt>
<totfact> 0.83336032E-01</totfact>
</mgrwt>
</event>
<event>
11    1  0.1137199E-011  0.3088284E+04  0.7818608E-02  0.8218961E-01
         -2   -1    0    0    0  501 -0.00000000000E+00  0.00000000000E+00  0.19330344481E+04  0.19330344481E+04  0.00000000000E+00 0.  1.
          2   -1    0    0  501    0  0.00000000000E+00 -0.00000000000E+00 -0.12334881470E+04  0.12334881470E+04  0.00000000000E+00 0. -1.
    9900016    2    1    2    0    0 -0.88635361869E+02  0.19448124779E+03  0.12722898966E+04  0.25552007410E+04  0.22055951719E+04 0.  0.
        -24    2    3    3    0    0  0.67196498665E+03  0.11693977176E+03 -0.32290693250E+03  0.75869723102E+03  0.78362923700E+02 0.  0.
        -15    1    3    3    0    0  0.36593777350E+01  0.12224128773E+02  0.36497662215E+02  0.38663933023E+02  0.00000000000E+00 0. -1.
        -15    1    3    3    0    0 -0.57403661930E+03  0.31768194798E+00  0.11511101791E+04  0.12863019808E+04  0.00000000000E+00 0.  1.
         15    1    3    3    0    0 -0.13338218054E+02 -0.63086160229E+01  0.30092967872E+01  0.15058637526E+02  0.00000000000E+00 0.  1.
         15    1    4    4    0    0  0.11169124409E+03 -0.38330859669E+01 -0.33740021218E+02  0.11673909194E+03  0.00000000000E+00 0. -1.
        -16    1    4    4    0    0  0.56027374255E+03  0.12077285773E+03 -0.28916691128E+03  0.64195813908E+03  0.00000000000E+00 0.  1.
         16    1    1    2    0    0  0.88635361869E+02 -0.19448124779E+03 -0.57274359555E+03  0.61132185415E+03  0.00000000000E+00 0. -1.
    9900018    1    3    3    0    0 -0.17688488890E+03  0.71308281331E+02  0.40457969099E+03  0.45647895862E+03  0.91187600000E+02 0.  0.
<mgrwt>
<rscale>  0 0.30882844E+04</rscale>
<asrwt>0</asrwt>
<pdfrwt beam="1">  1        2 0.18976741E+00 0.30882844E+04</pdfrwt>
<pdfrwt beam="2">  1       -2 0.29738992E+00 0.30882844E+04</pdfrwt>
<totfact> 0.50690031E-01</totfact>
</mgrwt>
</event>
<event>
11    1  0.1137199E-011  0.3358137E+04  0.7818608E-02  0.8148258E-01
          1   -1    0    0  501    0  0.00000000000E+00  0.00000000000E+00  0.15438304704E+04  0.15438304704E+04  0.00000000000E+00 0.  1.
         -1   -1    0    0    0  501 -0.00000000000E+00 -0.00000000000E+00 -0.18261527316E+04  0.18261527316E+04  0.00000000000E+00 0. -1.
    9900016    2    1    2    0    0 -0.23427721293E+03 -0.55780430695E+03  0.54573993421E+03  0.23444499472E+04  0.21983134494E+04 0.  0.
        -24    2    3    3    0    0  0.68115760565E+03  0.75551531573E+02 -0.24035403622E+03  0.73083172395E+03  0.81616348591E+02 0.  0.
        -15    1    3    3    0    0 -0.38462422185E+03 -0.44734104191E+03 -0.20735634643E+02  0.59032174816E+03  0.00000000000E+00 0.  1.
        -15    1    3    3    0    0  0.16672092317E+02 -0.20317277485E+02  0.99622162587E+01  0.28106870680E+02  0.00000000000E+00 0. -1.
         15    1    4    4    0    0  0.12720129475E+03  0.46397643637E+02 -0.50847296424E+02  0.14463180243E+03  0.00000000000E+00 0. -1.
         15    1    3    3    0    0 -0.67333066755E+01  0.12694968312E+02  0.42412508813E+01  0.14982918550E+02  0.00000000000E+00 0.  1.
        -16    1    4    4    0    0  0.55395631090E+03  0.29153887936E+02 -0.18950673980E+03  0.58619992153E+03  0.00000000000E+00 0.  1.
         16    1    1    2    0    0  0.23427721293E+03  0.55780430695E+03 -0.82806219534E+03  0.10255332548E+04  0.00000000000E+00 0. -1.
    9900018    1    3    3    0    0 -0.54074938236E+03 -0.17839248745E+03  0.79262613793E+03  0.98020668587E+03  0.91187600000E+02 0.  0.
<mgrwt>
<rscale>  0 0.33581365E+04</rscale>
<asrwt>0</asrwt>
<pdfrwt beam="1">  1        1 0.23751238E+00 0.33581365E+04</pdfrwt>
<pdfrwt beam="2">  1       -1 0.28094657E+00 0.33581365E+04</pdfrwt>
<totfact> 0.22099228E-01</totfact>
</mgrwt>
</event>
<event>
12    1  0.1137199E-011  0.3617125E+04  0.7818608E-02  0.8086580E-01
         -1   -1    0    0    0  501 -0.00000000000E+00  0.00000000000E+00  0.20305082726E+04  0.20305082726E+04  0.00000000000E+00 0.  1.
          1   -1    0    0  501    0  0.00000000000E+00 -0.00000000000E+00 -0.16108767867E+04  0.16108767867E+04  0.00000000000E+00 0. -1.
    9900016    2    1    2    0    0 -0.13877044980E+03  0.11115890024E+04  0.34683869728E+03  0.25188049339E+04  0.22291688731E+04 0.  0.
         23    2    3    3    0    0 -0.35622731732E+02  0.32019283186E+02  0.20337028835E+02  0.93121001958E+02  0.77225078518E+02 0.  0.
         24    2    3    3    0    0 -0.28105157877E+03  0.46726499528E+03 -0.85854569167E+03  0.10201138329E+04  0.78771579109E+02 0.  0.
        -15    1    4    4    0    0  0.22769489375E+02  0.75553534466E+01 -0.57131740421E+01  0.24661171297E+02  0.00000000000E+00 0. -1.
        -15    1    5    5    0    0 -0.16194826195E+03  0.22962381869E+03 -0.37868183532E+03  0.47154455787E+03  0.00000000000E+00 0.  1.
         15    1    3    3    0    0  0.18813902426E+03  0.30367248180E+03  0.30936387766E+03  0.47256669101E+03  0.00000000000E+00 0. -1.
         15    1    4    4    0    0 -0.58392221108E+02  0.24463929739E+02  0.26050202877E+02  0.68459830661E+02  0.00000000000E+00 0.  1.
        -16    1    1    2    0    0  0.13877044980E+03 -0.11115890024E+04  0.72792788611E+02  0.11225801254E+04  0.00000000000E+00 0.  1.
         16    1    5    5    0    0 -0.11910331682E+03  0.23764117659E+03 -0.47986385635E+03  0.54856927504E+03  0.00000000000E+00 0. -1.
    9900018    1    3    3    0    0 -0.10235163555E+02  0.30863224210E+03  0.87568348246E+03  0.93300340797E+03  0.91187600000E+02 0.  0.
<mgrwt>
<rscale>  0 0.36171252E+04</rscale>
<asrwt>0</asrwt>
<pdfrwt beam="1">  1        1 0.24782720E+00 0.36171252E+04</pdfrwt>
<pdfrwt beam="2">  1       -1 0.31238589E+00 0.36171252E+04</pdfrwt>
<totfact> 0.12156267E-01</totfact>
</mgrwt>
</event>
<event>
11    1  0.1137199E-011  0.2946727E+04  0.7818608E-02  0.8259109E-01
          2   -1    0    0  501    0  0.00000000000E+00  0.00000000000E+00  0.44582144141E+04  0.44582144141E+04  0.00000000000E+00 0. -1.
         -2   -1    0    0    0  501 -0.00000000000E+00 -0.00000000000E+00 -0.48692153564E+03  0.48692153564E+03  0.00000000000E+00 0.  1.
    9900016    2    1    2    0    0  0.18814915861E+03 -0.34610578224E+03  0.39652263608E+04  0.45511484867E+04  0.21988049338E+04 0.  0.
         24    2    3    3    0    0  0.37560289195E+02  0.69155441216E+03  0.91781338248E+03  0.11526348676E+04  0.80792651876E+02 0.  0.
        -15    1    3    3    0    0 -0.16928158846E+02 -0.47376187554E+00  0.15769757517E+02  0.23140273645E+02  0.00000000000E+00 0. -1.
        -15    1    4    4    0    0 -0.18421957887E+02  0.23003132333E+03  0.34187519064E+03  0.41247111926E+03  0.00000000000E+00 0.  1.
         15    1    3    3    0    0  0.30268561904E+02 -0.30009700494E+01  0.36218787520E+02  0.47296852225E+02  0.00000000000E+00 0.  1.
         15    1    3    3    0    0 -0.42352918842E+03 -0.58377028585E+03  0.16189023774E+04  0.17722893747E+04  0.00000000000E+00 0. -1.
        -16    1    1    2    0    0 -0.18814915861E+03  0.34610578224E+03  0.60665176020E+01  0.39398746303E+03  0.00000000000E+00 0.  1.
         16    1    4    4    0    0  0.55982247082E+02  0.46152308883E+03  0.57593819184E+03  0.74016374832E+03  0.00000000000E+00 0. -1.
    9900018    1    3    3    0    0  0.56077765478E+03 -0.45041517662E+03  0.13765220559E+04  0.15557871185E+04  0.91187600000E+02 0.  0.
<mgrwt>
<rscale>  0 0.29467274E+04</rscale>
<asrwt>0</asrwt>
<pdfrwt beam="1">  1        2 0.68587911E+00 0.29467274E+04</pdfrwt>
<pdfrwt beam="2">  1       -2 0.74911009E-01 0.29467274E+04</pdfrwt>
<totfact> 0.18595956E-01</totfact>
</mgrwt>
</event>
<event>
11    1  0.1137199E-011  0.2675288E+04  0.7818608E-02  0.8343068E-01
          1   -1    0    0  501    0  0.00000000000E+00  0.00000000000E+00  0.75637619068E+03  0.75637619068E+03  0.00000000000E+00 0. -1.
         -1   -1    0    0    0  501 -0.00000000000E+00 -0.00000000000E+00 -0.23656106209E+04  0.23656106209E+04  0.00000000000E+00 0.  1.
    9900016    2    1    2    0    0 -0.10996195769E+03  0.16691795438E+03 -0.90877975746E+03  0.23935707325E+04  0.22052997457E+04 0.  0.
         24    2    3    3    0    0  0.67437384325E+03 -0.38952520710E+03 -0.30694487959E+03  0.84094076963E+03  0.80350802640E+02 0.  0.
        -15    1    3    3    0    0  0.17285104751E+02  0.80048131198E+00  0.48643158482E+01  0.17974347979E+02  0.00000000000E+00 0. -1.
        -15    1    4    4    0    0  0.27143106753E+03 -0.20042171764E+03 -0.14575135928E+03  0.36754203577E+03  0.00000000000E+00 0.  1.
         15    1    3    3    0    0  0.39162760711E+01 -0.26216311189E+02 -0.16408129908E+02  0.31174651846E+02  0.00000000000E+00 0.  1.
         15    1    3    3    0    0 -0.56051590338E+03  0.67514961494E+03 -0.29785202794E+02  0.87800469179E+03  0.00000000000E+00 0. -1.
        -16    1    1    2    0    0  0.10996195769E+03 -0.16691795438E+03 -0.70045467278E+03  0.72841607907E+03  0.00000000000E+00 0.  1.
         16    1    4    4    0    0  0.40294277572E+03 -0.18910348946E+03 -0.16119352031E+03  0.47339873386E+03  0.00000000000E+00 0. -1.
    9900018    1    3    3    0    0 -0.24502127839E+03 -0.93290623593E+02 -0.56050586101E+03  0.62547627128E+03  0.91187600000E+02 0.  0.
<mgrwt>
<rscale>  0 0.26752881E+04</rscale>
<asrwt>0</asrwt>
<pdfrwt beam="1">  1        1 0.11636557E+00 0.26752881E+04</pdfrwt>
<pdfrwt beam="2">  1       -1 0.36394009E+00 0.26752881E+04</pdfrwt>
<totfact> 0.26533392E-01</totfact>
</mgrwt>
</event>
<event>
12    1  0.1137199E-011  0.2902612E+04  0.7818608E-02  0.9121692E-01
          2   -1    0    0  501    0  0.00000000000E+00  0.00000000000E+00  0.91858968670E+03  0.91858968670E+03  0.00000000000E+00 0. -1.
         -2   -1    0    0    0  501 -0.00000000000E+00 -0.00000000000E+00 -0.24391332602E+04  0.24391332602E+04  0.00000000000E+00 0.  1.
         23    2    1    2    0    0  0.28889325673E+02  0.44138950829E+02 -0.23013905479E+01  0.82022020308E+02  0.62765239574E+02 0.  0.
    9900016    2    1    2    0    0  0.13064994449E+03 -0.24248380526E+03 -0.52584708789E+03  0.22511808025E+04  0.21715045572E+04 0.  0.
         24    2    4    4    0    0 -0.62864906711E+03  0.19524863598E+03  0.17109858721E+02  0.66301711885E+03  0.77312826740E+02 0.  0.
        -15    1    3    3    0    0 -0.50976947674E+01 -0.10737892556E+02  0.10910519974E+02  0.16134691648E+02  0.00000000000E+00 0. -1.
        -15    1    5    5    0    0 -0.16105288226E+03  0.16798126816E+02  0.13826874287E+02  0.16251581585E+03  0.00000000000E+00 0.  1.
         15    1    3    3    0    0  0.33987020441E+02  0.54876843384E+02 -0.13211910522E+02  0.65887328660E+02  0.00000000000E+00 0.  1.
         15    1    4    4    0    0  0.21264550549E+03 -0.74371980242E+03 -0.31255330586E+02  0.77415382916E+03  0.00000000000E+00 0. -1.
        -16    1    1    2    0    0 -0.15953927017E+03  0.19834485443E+03 -0.99239509510E+03  0.10245201241E+04  0.00000000000E+00 0.  1.
         16    1    5    5    0    0 -0.46759618485E+03  0.17845050917E+03  0.32829844334E+01  0.50050130299E+03  0.00000000000E+00 0. -1.
    9900018    1    4    4    0    0  0.54665350612E+03  0.30598736117E+03 -0.51170161602E+03  0.81400985448E+03  0.91187600000E+02 0.  0.
<mgrwt>
<rscale>  0 0.11899580E+04</rscale>
<asrwt>0</asrwt>
<pdfrwt beam="1">  1        2 0.14132149E+00 0.29026121E+04</pdfrwt>
<pdfrwt beam="2">  1       -2 0.37525127E+00 0.29026121E+04</pdfrwt>
<totfact> 0.26321136E-01</totfact>
</mgrwt>
</event>
<event>
11    1  0.1137199E-011  0.2789536E+04  0.7818608E-02  0.8306524E-01
          2   -1    0    0  501    0  0.00000000000E+00  0.00000000000E+00  0.38420435616E+04  0.38420435616E+04  0.00000000000E+00 0.  1.
         -2   -1    0    0    0  501 -0.00000000000E+00 -0.00000000000E+00 -0.50633932591E+03  0.50633932591E+03  0.00000000000E+00 0. -1.
    9900016    2    1    2    0    0  0.25342900955E+03  0.45621827000E+03  0.27917968200E+04  0.35945946881E+04  0.22033202478E+04 0.  0.
        -24    2    3    3    0    0 -0.58066389191E+03  0.42447183886E+03  0.15983956894E+04  0.17545678233E+04  0.79325717547E+02 0.  0.
        -15    1    3    3    0    0  0.85595330381E+01 -0.16971801600E+02  0.50399178666E+02  0.53864504691E+02  0.00000000000E+00 0. -1.
        -15    1    3    3    0    0  0.36630353538E+03 -0.18095456315E+03 -0.11364588094E+03  0.42407336654E+03  0.00000000000E+00 0.  1.
         15    1    4    4    0    0 -0.46418862865E+03  0.31803672336E+03  0.11765662976E+04  0.13041958032E+04  0.00000000000E+00 0. -1.
         15    1    3    3    0    0  0.14650687870E+02  0.21861204074E+02  0.61463848424E+02  0.66860747541E+02  0.00000000000E+00 0.  1.
        -16    1    4    4    0    0 -0.11647526326E+03  0.10643511550E+03  0.42182939178E+03  0.45037202015E+03  0.00000000000E+00 0.  1.
         16    1    1    2    0    0 -0.25342900955E+03 -0.45621827000E+03  0.54390741565E+03  0.75378819941E+03  0.00000000000E+00 0. -1.
    9900018    1    3    3    0    0  0.44457914517E+03  0.20781159181E+03  0.11951839845E+04  0.12952282460E+04  0.91187600000E+02 0.  0.
<mgrwt>
<rscale>  0 0.27895360E+04</rscale>
<asrwt>0</asrwt>
<pdfrwt beam="1">  1        2 0.59108361E+00 0.27895360E+04</pdfrwt>
<pdfrwt beam="2">  1       -2 0.77898360E-01 0.27895360E+04</pdfrwt>
<totfact> 0.58303976E-01</totfact>
</mgrwt>
</event>
