<event>
13    1  0.1030558E-011  0.4938231E+04  0.7818608E-02  0.7838107E-01
         -1   -1    0    0    0  501 -0.00000000000E+00  0.00000000000E+00  0.30942737973E+04  0.30942737973E+04  0.00000000000E+00 0.  1.
          1   -1    0    0  501    0  0.00000000000E+00 -0.00000000000E+00 -0.19702620901E+04  0.19702620901E+04  0.00000000000E+00 0. -1.
    9900016    2    1    2    0    0 -0.15655474089E+04 -0.22553896895E+03  0.64636405414E+03  0.25521510791E+04  0.18957537087E+04 0.  0.
        -24    2    3    3    0    0  0.22412361282E+03  0.13511976078E+03  0.67493119479E+03  0.72627781769E+03  0.58809924300E+02 0.  0.
    9900016    2    1    2    0    0  0.15655474089E+04  0.22553896895E+03  0.47764765302E+03  0.25123848082E+04  0.18926498958E+04 0.  0.
         23    2    5    5    0    0 -0.39744341983E+03  0.71204832131E+02 -0.10393356614E+03  0.42876579872E+03  0.10003261415E+03 0.  0.
        -15    1    3    3    0    0 -0.17896710217E+04 -0.36065872973E+03 -0.28567140648E+02  0.18258732614E+04  0.00000000000E+00 0.  1.
        -15    1    6    6    0    0 -0.56844774815E+02  0.53754638768E+01  0.19835583939E+02  0.60445631983E+02  0.00000000000E+00 0. -1.
         15    1    6    6    0    0 -0.34059864502E+03  0.65829368254E+02 -0.12376915007E+03  0.36832016673E+03  0.00000000000E+00 0.  1.
         15    1    4    4    0    0  0.55934556247E+02  0.21412443547E+02  0.22181562237E+03  0.22975930373E+03  0.00000000000E+00 0. -1.
        -16    1    4    4    0    0  0.16818905657E+03  0.11370731723E+03  0.45311557242E+03  0.49651851397E+03  0.00000000000E+00 0.  1.
         16    1    5    5    0    0  0.18309311898E+04  0.15792571635E+03  0.56293563780E+03  0.19220161513E+04  0.00000000000E+00 0. -1.
    9900018    1    5    5    0    0  0.13205963890E+03 -0.35915795300E+01  0.18645581356E+02  0.16160285816E+03  0.91187600000E+02 0.  0.
<mgrwt>
<rscale>  0 0.49382306E+04</rscale>
<asrwt>0</asrwt>
<pdfrwt beam="1">  1        1 0.30311724E+00 0.49382306E+04</pdfrwt>
<pdfrwt beam="2">  1       -1 0.47604212E+00 0.49382306E+04</pdfrwt>
<totfact> 0.48816254E-03</totfact>
</mgrwt>
</event>
<event>
13    1  0.1030558E-011  0.4678673E+04  0.7818608E-02  0.7880082E-01
         -1   -1    0    0    0  501 -0.00000000000E+00  0.00000000000E+00  0.25444646798E+04  0.25444646798E+04  0.00000000000E+00 0.  1.
          1   -1    0    0  501    0  0.00000000000E+00 -0.00000000000E+00 -0.21507453544E+04  0.21507453544E+04  0.00000000000E+00 0. -1.
    9900016    2    1    2    0    0  0.50842386462E+03  0.11873495461E+04 -0.38902685983E+03  0.22807347380E+04  0.18390528205E+04 0.  0.
         24    2    3    3    0    0  0.40942506554E+03 -0.37299263609E+03  0.22526688405E+03  0.60090579089E+03  0.59918357852E+02 0.  0.
    9900016    2    1    2    0    0 -0.50842386462E+03 -0.11873495461E+04  0.78274618519E+03  0.24144752962E+04  0.18838008373E+04 0.  0.
         23    2    5    5    0    0  0.21470259840E+03 -0.43915158645E+03 -0.50100492564E+03  0.70591894513E+03  0.91456546680E+02 0.  0.
        -15    1    4    4    0    0  0.10765996794E+03 -0.74203940363E+02  0.33651536040E+02  0.13501599661E+03  0.00000000000E+00 0.  1.
        -15    1    6    6    0    0  0.31446074473E+02 -0.10720760572E+03 -0.16516236767E+03  0.19940143936E+03  0.00000000000E+00 0.  1.
         15    1    6    6    0    0  0.18325652393E+03 -0.33194398073E+03 -0.33584255797E+03  0.50651750577E+03  0.00000000000E+00 0. -1.
         15    1    3    3    0    0  0.98998799075E+02  0.15603421822E+04 -0.61429374388E+03  0.16798289471E+04  0.00000000000E+00 0. -1.
        -16    1    5    5    0    0 -0.70679219942E+03 -0.65005421482E+03  0.12364529126E+04  0.15655483066E+04  0.00000000000E+00 0.  1.
         16    1    4    4    0    0  0.30176509760E+03 -0.29878869572E+03  0.19161534802E+03  0.46588979428E+03  0.00000000000E+00 0. -1.
    9900018    1    5    5    0    0 -0.16334263600E+02 -0.98143744805E+02  0.47298198234E+02  0.14300804439E+03  0.91187600000E+02 0.  0.
<mgrwt>
<rscale>  0 0.46786731E+04</rscale>
<asrwt>0</asrwt>
<pdfrwt beam="1">  1        1 0.33088390E+00 0.46786731E+04</pdfrwt>
<pdfrwt beam="2">  1       -1 0.39145610E+00 0.46786731E+04</pdfrwt>
<totfact> 0.14261594E-02</totfact>
</mgrwt>
</event>
<event>
12    1  0.1030558E-011  0.5321164E+04  0.7818608E-02  0.7780788E-01
          2   -1    0    0  501    0  0.00000000000E+00  0.00000000000E+00  0.28307323224E+04  0.28307323224E+04  0.00000000000E+00 0. -1.
         -2   -1    0    0    0  501 -0.00000000000E+00 -0.00000000000E+00 -0.25006591551E+04  0.25006591551E+04  0.00000000000E+00 0.  1.
    9900016    2    1    2    0    0 -0.89565355319E+03 -0.56519921986E+03 -0.14128210110E+04  0.25541067889E+04  0.18454681884E+04 0.  0.
    9900016    2    1    2    0    0  0.89565355319E+03  0.56519921986E+03  0.17428941783E+04  0.27772846885E+04  0.18852014956E+04 0.  0.
         23    2    4    4    0    0 -0.10527304399E+03  0.16642941728E+03 -0.33395429250E+03  0.39831609275E+03  0.91373275841E+02 0.  0.
        -15    1    5    5    0    0 -0.10366811475E+03  0.81255817672E+02 -0.19462983170E+03  0.23501139825E+03  0.00000000000E+00 0.  1.
        -15    1    3    3    0    0 -0.65036322785E+03 -0.18321174352E+03 -0.18140026437E+04  0.19357542361E+04  0.00000000000E+00 0.  1.
         15    1    5    5    0    0 -0.16049292414E+01  0.85173599604E+02 -0.13932446081E+03  0.16330469450E+03  0.00000000000E+00 0. -1.
         15    1    3    3    0    0 -0.14457088033E+03 -0.32274463164E+03  0.30540699330E+03  0.46726680628E+03  0.00000000000E+00 0. -1.
        -16    1    3    3    0    0 -0.10071944501E+03 -0.59242844710E+02  0.95774639413E+02  0.15108574654E+03  0.00000000000E+00 0.  1.
         16    1    4    4    0    0  0.97522122071E+03  0.40529036109E+03  0.19755623380E+04  0.22401257236E+04  0.00000000000E+00 0. -1.
    9900018    1    4    4    0    0  0.25705376461E+02 -0.65205585003E+01  0.10128613280E+03  0.13884287218E+03  0.91187600000E+02 0.  0.
<mgrwt>
<rscale>  0 0.53211640E+04</rscale>
<asrwt>0</asrwt>
<pdfrwt beam="1">  1        2 0.43549728E+00 0.53211640E+04</pdfrwt>
<pdfrwt beam="2">  1       -2 0.38471679E+00 0.53211640E+04</pdfrwt>
<totfact> 0.14679233E-02</totfact>
</mgrwt>
</event>
<event>
12    1  0.1030558E-011  0.4708699E+04  0.7818608E-02  0.7875085E-01
          2   -1    0    0  501    0  0.00000000000E+00  0.00000000000E+00  0.36725412719E+04  0.36725412719E+04  0.00000000000E+00 0. -1.
         -2   -1    0    0    0  501 -0.00000000000E+00 -0.00000000000E+00 -0.15092987009E+04  0.15092987009E+04  0.00000000000E+00 0.  1.
    9900016    2    1    2    0    0  0.72500493705E+03  0.12597895360E+03 -0.26811618336E+03  0.20098177899E+04  0.18509398708E+04 0.  0.
    9900016    2    1    2    0    0 -0.72500493705E+03 -0.12597895360E+03  0.24313587543E+04  0.31720221829E+04  0.18996622019E+04 0.  0.
         23    2    4    4    0    0  0.42855053729E+03 -0.15655596406E+03  0.36416148918E+02  0.46725545868E+03  0.94001036521E+02 0.  0.
        -15    1    3    3    0    0 -0.43492150166E+03 -0.17875290281E+03 -0.60263082339E+03  0.76437766985E+03  0.00000000000E+00 0.  1.
        -15    1    5    5    0    0  0.27037445732E+03 -0.61527122494E+02 -0.82131429653E+01  0.27740834466E+03  0.00000000000E+00 0.  1.
         15    1    3    3    0    0  0.68960629499E+03  0.17388732921E+03  0.18461233225E+03  0.73476211018E+03  0.00000000000E+00 0. -1.
         15    1    5    5    0    0  0.15817607997E+03 -0.95028841567E+02  0.44629291883E+02  0.18984711401E+03  0.00000000000E+00 0. -1.
        -16    1    3    3    0    0  0.47032014372E+03  0.13084452721E+03  0.14990230779E+03  0.51067800987E+03  0.00000000000E+00 0.  1.
         16    1    4    4    0    0 -0.10848868969E+04  0.39557873904E+02  0.23361054474E+04  0.25760304862E+04  0.00000000000E+00 0. -1.
    9900018    1    4    4    0    0 -0.68668577388E+02 -0.89808634455E+01  0.58837157978E+02  0.12873623803E+03  0.91187600000E+02 0.  0.
<mgrwt>
<rscale>  0 0.47086991E+04</rscale>
<asrwt>0</asrwt>
<pdfrwt beam="1">  1        2 0.56500635E+00 0.47086991E+04</pdfrwt>
<pdfrwt beam="2">  1       -2 0.23219980E+00 0.47086991E+04</pdfrwt>
<totfact> 0.37638900E-02</totfact>
</mgrwt>
</event>
<event>
13    1  0.1030558E-011  0.5468266E+04  0.7818608E-02  0.7760071E-01
          2   -1    0    0  501    0  0.00000000000E+00  0.00000000000E+00  0.45929754368E+04  0.45929754368E+04  0.00000000000E+00 0. -1.
         -2   -1    0    0    0  501 -0.00000000000E+00 -0.00000000000E+00 -0.16275907493E+04  0.16275907493E+04  0.00000000000E+00 0.  1.
    9900016    2    1    2    0    0 -0.13329045892E+04 -0.79684753021E+02  0.31566759772E+04  0.38880522654E+04  0.18355824387E+04 0.  0.
         24    2    3    3    0    0 -0.20995793390E+03 -0.52655588683E+03  0.71590891433E+02  0.57467740168E+03  0.61525801855E+02 0.  0.
    9900016    2    1    2    0    0  0.13329045892E+04  0.79684753021E+02 -0.19129128976E+03  0.23325139207E+04  0.19029042353E+04 0.  0.
         23    2    5    5    0    0  0.61027793744E+02 -0.34536176400E+03  0.59985553979E+03  0.70079820562E+03  0.91062158681E+02 0.  0.
        -15    1    6    6    0    0  0.81683726978E+01 -0.86346230521E+02  0.81937184472E+02  0.11931511236E+03  0.00000000000E+00 0.  1.
        -15    1    4    4    0    0 -0.35694978306E+02 -0.15652600201E+03  0.32519055378E+02  0.16380479158E+03  0.00000000000E+00 0.  1.
         15    1    6    6    0    0  0.52859421046E+02 -0.25901553348E+03  0.51791835532E+03  0.58148309327E+03  0.00000000000E+00 0. -1.
         15    1    3    3    0    0 -0.11229466553E+04  0.44687113381E+03  0.30850850858E+04  0.33133748637E+04  0.00000000000E+00 0. -1.
        -16    1    5    5    0    0  0.12055849862E+04  0.35322307502E+03 -0.81283325926E+03  0.14962952941E+04  0.00000000000E+00 0.  1.
         16    1    4    4    0    0 -0.17426295560E+03 -0.37002988482E+03  0.39071836054E+02  0.41087261010E+03  0.00000000000E+00 0. -1.
    9900018    1    5    5    0    0  0.66291809285E+02  0.71823441997E+02  0.21686429710E+02  0.13542042101E+03  0.91187600000E+02 0.  0.
<mgrwt>
<rscale>  0 0.54682664E+04</rscale>
<asrwt>0</asrwt>
<pdfrwt beam="1">  1        2 0.70661160E+00 0.54682664E+04</pdfrwt>
<pdfrwt beam="2">  1       -2 0.25039858E+00 0.54682664E+04</pdfrwt>
<totfact> 0.44003072E-03</totfact>
</mgrwt>
</event>
<event>
13    1  0.1030558E-011  0.4983986E+04  0.7818608E-02  0.7830982E-01
         -2   -1    0    0    0  501 -0.00000000000E+00  0.00000000000E+00  0.15363700351E+04  0.15363700351E+04  0.00000000000E+00 0.  1.
          2   -1    0    0  501    0  0.00000000000E+00 -0.00000000000E+00 -0.40420139986E+04  0.40420139986E+04  0.00000000000E+00 0. -1.
    9900016    2    1    2    0    0  0.10156471959E+04  0.91947061836E+03 -0.22865170609E+04  0.32429445854E+04  0.18470419242E+04 0.  0.
         24    2    3    3    0    0 -0.17884292667E+03 -0.41130779374E+03 -0.22320689025E+03  0.51255510854E+03  0.10831680304E+03 0.  0.
    9900016    2    1    2    0    0 -0.10156471959E+04 -0.91947061836E+03 -0.21912690257E+03  0.23354394483E+04  0.18786418957E+04 0.  0.
         23    2    5    5    0    0 -0.63760297447E+02 -0.20087195230E+03 -0.88466414506E+03  0.91287209658E+03  0.79308879740E+02 0.  0.
        -15    1    4    4    0    0 -0.14591113964E+03 -0.32609082670E+03 -0.22311653357E+03  0.42119624343E+03  0.00000000000E+00 0.  1.
        -15    1    6    6    0    0 -0.12276249908E+02 -0.15714659502E+03 -0.62221041778E+03  0.64186568894E+03  0.00000000000E+00 0. -1.
         15    1    6    6    0    0 -0.51484047539E+02 -0.43725357271E+02 -0.26245372728E+03  0.27100640764E+03  0.00000000000E+00 0.  1.
         15    1    3    3    0    0  0.11944901226E+04  0.13307784121E+04 -0.20633101707E+04  0.27303894769E+04  0.00000000000E+00 0. -1.
        -16    1    5    5    0    0 -0.91144521879E+03 -0.69146955421E+03  0.65591385044E+03  0.13187439139E+04  0.00000000000E+00 0.  1.
         16    1    4    4    0    0 -0.32931787030E+02 -0.85216967041E+02 -0.90356676172E-01  0.91358865104E+02  0.00000000000E+00 0. -1.
    9900018    1    5    5    0    0 -0.40441679678E+02 -0.27129111852E+02  0.96233920485E+01  0.10382343778E+03  0.91187600000E+02 0.  0.
<mgrwt>
<rscale>  0 0.49839860E+04</rscale>
<asrwt>0</asrwt>
<pdfrwt beam="1">  1        2 0.62184829E+00 0.49839860E+04</pdfrwt>
<pdfrwt beam="2">  1       -2 0.23636463E+00 0.49839860E+04</pdfrwt>
<totfact> 0.17893029E-02</totfact>
</mgrwt>
</event>
