<event>
11    1  0.3219869E-012  0.2438264E+04  0.7818608E-02  0.8425315E-01
         -2   -1    0    0    0  501 -0.00000000000E+00  0.00000000000E+00  0.62851115673E+03  0.62851115673E+03  0.00000000000E+00 0.  1.
          2   -1    0    0  501    0  0.00000000000E+00 -0.00000000000E+00 -0.23647681531E+04  0.23647681531E+04  0.00000000000E+00 0. -1.
    9900016    2    1    2    0    0  0.51589362982E+02 -0.15351193129E+03 -0.14850888189E+04  0.26244285357E+04  0.21577555383E+04 0.  0.
         24    2    3    3    0    0  0.12202837565E+03 -0.50249875156E+03 -0.72421001675E+03  0.89346791023E+03  0.80055221267E+02 0.  0.
        -15    1    4    4    0    0 -0.27653234680E+01 -0.10155311960E+03 -0.11354204300E+03  0.15235641976E+03  0.00000000000E+00 0.  1.
        -15    1    3    3    0    0  0.12292155565E+03  0.58766548551E+02  0.13646394798E+03  0.19283574661E+03  0.00000000000E+00 0.  1.
         15    1    3    3    0    0  0.17868418972E+03  0.63864247832E+03 -0.23767602256E+03  0.70447295652E+03  0.00000000000E+00 0. -1.
         15    1    3    3    0    0 -0.37204475804E+03 -0.34842220660E+03 -0.65966672760E+03  0.83365192229E+03  0.00000000000E+00 0. -1.
        -16    1    1    2    0    0 -0.67011152228E+02  0.15658115817E+03 -0.20147312450E+03  0.26381731087E+03  0.00000000000E+00 0.  1.
         16    1    4    4    0    0  0.12479369911E+03 -0.40094563197E+03 -0.61066797375E+03  0.74111149047E+03  0.00000000000E+00 0. -1.
    9900018    1    1    2    0    0  0.15421789246E+02 -0.30692268880E+01 -0.49695052954E+02  0.10503346333E+03  0.91187600000E+02 0.  0.
<mgrwt>
<rscale>  0 0.24382643E+04</rscale>
<asrwt>0</asrwt>
<pdfrwt beam="1">  1        2 0.36381049E+00 0.24382643E+04</pdfrwt>
<pdfrwt beam="2">  1       -2 0.96694022E-01 0.24382643E+04</pdfrwt>
<totfact> 0.33375316E+00</totfact>
</mgrwt>
</event>
<event>
11    1  0.3219869E-012  0.2709356E+04  0.7818608E-02  0.8331976E-01
          2   -1    0    0  501    0  0.00000000000E+00  0.00000000000E+00  0.17196073473E+04  0.17196073473E+04  0.00000000000E+00 0. -1.
         -2   -1    0    0    0  501 -0.00000000000E+00 -0.00000000000E+00 -0.10671928039E+04  0.10671928039E+04  0.00000000000E+00 0.  1.
    9900016    2    1    2    0    0 -0.35274242548E+02 -0.14064890930E+02  0.11987060337E+03  0.22529039614E+04  0.22493921856E+04 0.  0.
        -24    2    3    3    0    0  0.29432148708E+03  0.30735145669E+03  0.27957405360E+03  0.51581283395E+03  0.82529828135E+02 0.  0.
        -15    1    3    3    0    0 -0.16056582097E+03 -0.10801495139E+03  0.31752084713E+03  0.37184418908E+03  0.00000000000E+00 0.  1.
        -15    1    3    3    0    0  0.38512624141E+03  0.20604443990E+03 -0.37654857872E+03  0.57668480574E+03  0.00000000000E+00 0.  1.
         15    1    4    4    0    0  0.13501635882E+03  0.14449598693E+03  0.81370967618E+02  0.21384513499E+03  0.00000000000E+00 0. -1.
         15    1    3    3    0    0 -0.56526316382E+03 -0.36772687562E+03 -0.10776174880E+03  0.68290416159E+03  0.00000000000E+00 0. -1.
        -16    1    4    4    0    0  0.15930512826E+03  0.16285546976E+03  0.19820308598E+03  0.30196769895E+03  0.00000000000E+00 0.  1.
         16    1    1    2    0    0  0.35274242548E+02  0.14064890930E+02  0.53254394006E+03  0.53389618976E+03  0.00000000000E+00 0. -1.
    9900018    1    3    3    0    0  0.11107013742E+02 -0.51718960513E+02  0.70860301616E+01  0.10565797106E+03  0.91187600000E+02 0.  0.
<mgrwt>
<rscale>  0 0.27093561E+04</rscale>
<asrwt>0</asrwt>
<pdfrwt beam="1">  1        2 0.26455498E+00 0.27093561E+04</pdfrwt>
<pdfrwt beam="2">  1       -2 0.16418351E+00 0.27093561E+04</pdfrwt>
<totfact> 0.19679875E+00</totfact>
</mgrwt>
</event>
<event>
11    1  0.3219869E-012  0.3562068E+04  0.7818608E-02  0.8099236E-01
         -2   -1    0    0    0  501 -0.00000000000E+00  0.00000000000E+00  0.13025920157E+04  0.13025920157E+04  0.00000000000E+00 0.  1.
          2   -1    0    0  501    0  0.00000000000E+00 -0.00000000000E+00 -0.24352078715E+04  0.24352078715E+04  0.00000000000E+00 0. -1.
    9900016    2    1    2    0    0 -0.10310003140E+03  0.45524415926E+03 -0.18014505876E+04  0.29221916728E+04  0.22530208814E+04 0.  0.
         24    2    3    3    0    0 -0.52351873008E+03  0.70949771984E+01 -0.58315570953E+03  0.78773755759E+03  0.79609538614E+02 0.  0.
        -15    1    3    3    0    0  0.70404004994E+02  0.14087019681E+03  0.18558276294E+03  0.24339699704E+03  0.00000000000E+00 0.  1.
        -15    1    4    4    0    0 -0.11600173250E+03  0.34821714969E+02 -0.13541122842E+03  0.18167320815E+03  0.00000000000E+00 0.  1.
         15    1    3    3    0    0  0.58883284683E+03  0.36604385582E+03 -0.34119762051E+03  0.77274060468E+03  0.00000000000E+00 0. -1.
         15    1    3    3    0    0 -0.22113913482E+03 -0.43732661806E+02 -0.92137274601E+03  0.94854773193E+03  0.00000000000E+00 0. -1.
        -16    1    1    2    0    0  0.10310003140E+03 -0.45524415926E+03  0.66883473180E+03  0.81560821445E+03  0.00000000000E+00 0.  1.
         16    1    4    4    0    0 -0.40751699758E+03 -0.27726737770E+02 -0.44774448110E+03  0.60606434944E+03  0.00000000000E+00 0. -1.
    9900018    1    3    3    0    0 -0.17679018317E+02 -0.15032208752E+02 -0.14130727449E+03  0.16976878160E+03  0.91187600000E+02 0.  0.
<mgrwt>
<rscale>  0 0.35620681E+04</rscale>
<asrwt>0</asrwt>
<pdfrwt beam="1">  1        2 0.37464737E+00 0.35620681E+04</pdfrwt>
<pdfrwt beam="2">  1       -2 0.20039877E+00 0.35620681E+04</pdfrwt>
<totfact> 0.41009799E-01</totfact>
</mgrwt>
</event>
<event>
11    1  0.3219869E-012  0.2737027E+04  0.7818608E-02  0.8323090E-01
          1   -1    0    0  501    0  0.00000000000E+00  0.00000000000E+00  0.10519312061E+04  0.10519312061E+04  0.00000000000E+00 0. -1.
         -1   -1    0    0    0  501 -0.00000000000E+00 -0.00000000000E+00 -0.17803722467E+04  0.17803722467E+04  0.00000000000E+00 0.  1.
    9900016    2    1    2    0    0 -0.18308011530E+03  0.28273780093E+02 -0.96900553383E+03  0.23701656633E+04  0.21550860335E+04 0.  0.
        -24    2    3    3    0    0 -0.25590642846E+03  0.52840943613E+03 -0.42927624637E+02  0.59408579260E+03  0.79940701104E+02 0.  0.
        -15    1    3    3    0    0  0.32718822694E+03 -0.11962721109E+03 -0.11288228765E+04  0.11813568013E+04  0.00000000000E+00 0.  1.
        -15    1    3    3    0    0 -0.32326540754E+02 -0.16445453319E+03  0.22903072951E+03  0.28380516870E+03  0.00000000000E+00 0.  1.
         15    1    4    4    0    0 -0.86345495288E+02  0.10283181147E+03 -0.15231085877E+02  0.13513664190E+03  0.00000000000E+00 0. -1.
         15    1    3    3    0    0 -0.22203537304E+03 -0.21605391176E+03 -0.26285762169E+02  0.31091790068E+03  0.00000000000E+00 0. -1.
        -16    1    4    4    0    0 -0.16956093317E+03  0.42557762466E+03 -0.27696538760E+02  0.45894915070E+03  0.00000000000E+00 0.  1.
         16    1    1    2    0    0  0.14955369346E+03 -0.45162615136E+02  0.30615060158E+03  0.34370650253E+03  0.00000000000E+00 0. -1.
    9900018    1    1    2    0    0  0.33526421840E+02  0.16888835043E+02 -0.65586108357E+02  0.11843128689E+03  0.91187600000E+02 0.  0.
<mgrwt>
<rscale>  0 0.27370269E+04</rscale>
<asrwt>0</asrwt>
<pdfrwt beam="1">  1        1 0.16183557E+00 0.27370269E+04</pdfrwt>
<pdfrwt beam="2">  1       -1 0.27390342E+00 0.27370269E+04</pdfrwt>
<totfact> 0.58511229E-01</totfact>
</mgrwt>
</event>
<event>
11    1  0.3219869E-012  0.2713294E+04  0.7818608E-02  0.8330704E-01
          2   -1    0    0  501    0  0.00000000000E+00  0.00000000000E+00  0.14433301979E+04  0.14433301979E+04  0.00000000000E+00 0. -1.
         -2   -1    0    0    0  501 -0.00000000000E+00 -0.00000000000E+00 -0.12751702326E+04  0.12751702326E+04  0.00000000000E+00 0.  1.
    9900016    2    1    2    0    0 -0.15677586438E+03 -0.27745578537E+03 -0.18698876231E+03  0.21787087129E+04  0.21471484517E+04 0.  0.
         24    2    3    3    0    0  0.11578602054E+02 -0.22307682780E+03  0.20774941597E+02  0.23836603112E+03  0.80557007546E+02 0.  0.
        -15    1    3    3    0    0  0.45389470894E+03 -0.20206203252E+02 -0.39806543997E+03  0.60405694429E+03  0.00000000000E+00 0.  1.
        -15    1    4    4    0    0 -0.17425238765E+02 -0.14980099936E+03  0.42376951486E+02  0.15665179339E+03  0.00000000000E+00 0.  1.
         15    1    3    3    0    0 -0.70086246470E+03 -0.26673364788E+03  0.52919179852E+03  0.91782296384E+03  0.00000000000E+00 0. -1.
         15    1    3    3    0    0  0.78613289323E+02  0.23256089357E+03 -0.33889006245E+03  0.41846277362E+03  0.00000000000E+00 0. -1.
        -16    1    1    2    0    0  0.16525729991E+03  0.25362522781E+03  0.31536141435E+03  0.43713676694E+03  0.00000000000E+00 0.  1.
         16    1    4    4    0    0  0.29003840819E+02 -0.73275828440E+02 -0.21602009888E+02  0.81714237725E+02  0.00000000000E+00 0. -1.
    9900018    1    1    2    0    0 -0.84814355279E+01  0.23830557558E+02  0.39787313255E+02  0.10265495074E+03  0.91187600000E+02 0.  0.
<mgrwt>
<rscale>  0 0.27132945E+04</rscale>
<asrwt>0</asrwt>
<pdfrwt beam="1">  1        2 0.22205080E+00 0.27132945E+04</pdfrwt>
<pdfrwt beam="2">  1       -2 0.19618004E+00 0.27132945E+04</pdfrwt>
<totfact> 0.16886066E+00</totfact>
</mgrwt>
</event>
<event>
11    1  0.3219869E-012  0.3648738E+04  0.7818608E-02  0.8079418E-01
          2   -1    0    0  501    0  0.00000000000E+00  0.00000000000E+00  0.30011182763E+04  0.30011182763E+04  0.00000000000E+00 0. -1.
         -2   -1    0    0    0  501 -0.00000000000E+00 -0.00000000000E+00 -0.11090275480E+04  0.11090275480E+04  0.00000000000E+00 0.  1.
    9900016    2    1    2    0    0  0.10191297781E+04 -0.17705973851E+03  0.78477753283E+03  0.25948510780E+04  0.22466420910E+04 0.  0.
        -24    2    3    3    0    0  0.45032629173E+02 -0.33603954071E+03 -0.23391774810E+03  0.41962786733E+03  0.80121929282E+02 0.  0.
        -15    1    3    3    0    0  0.17386374315E+03  0.42342468526E+02  0.87385082064E+03  0.89198472103E+03  0.00000000000E+00 0.  1.
        -15    1    3    3    0    0 -0.16460894081E+03  0.46431015694E+02 -0.11654552376E+03  0.20696570180E+03  0.00000000000E+00 0.  1.
         15    1    3    3    0    0  0.94052695053E+03  0.38687315436E+02  0.21073581381E+03  0.96462284665E+03  0.00000000000E+00 0. -1.
         15    1    4    4    0    0  0.53363520158E+01 -0.27779465571E+03 -0.18370098649E+03  0.33308317254E+03  0.00000000000E+00 0. -1.
        -16    1    4    4    0    0  0.39696277157E+02 -0.58244884994E+02 -0.50216761612E+02  0.86544694782E+02  0.00000000000E+00 0.  1.
         16    1    1    2    0    0 -0.10191297781E+04  0.17705973851E+03  0.11073131955E+04  0.15152947464E+04  0.00000000000E+00 0. -1.
    9900018    1    3    3    0    0  0.24315396018E+02  0.31519002541E+02  0.50654170230E+02  0.11164994116E+03  0.91187600000E+02 0.  0.
<mgrwt>
<rscale>  0 0.36487383E+04</rscale>
<asrwt>0</asrwt>
<pdfrwt beam="1">  1        2 0.46171050E+00 0.36487383E+04</pdfrwt>
<pdfrwt beam="2">  1       -2 0.17061962E+00 0.36487383E+04</pdfrwt>
<totfact> 0.29752802E-01</totfact>
</mgrwt>
</event>
<event>
11    1  0.3219869E-012  0.2535807E+04  0.7818608E-02  0.8390339E-01
          2   -1    0    0  501    0  0.00000000000E+00  0.00000000000E+00  0.25433194490E+04  0.25433194490E+04  0.00000000000E+00 0. -1.
         -2   -1    0    0    0  501 -0.00000000000E+00 -0.00000000000E+00 -0.63207913201E+03  0.63207913201E+03  0.00000000000E+00 0.  1.
    9900016    2    1    2    0    0  0.15453846110E+02  0.20998231407E+03  0.16354465065E+04  0.27062696334E+04  0.21458981009E+04 0.  0.
         24    2    3    3    0    0  0.52624768894E+03 -0.37468495183E+03  0.50289663966E+03  0.82256213551E+03  0.79862340008E+02 0.  0.
        -15    1    3    3    0    0  0.12142306151E+02  0.14369101574E+03 -0.66339254181E+02  0.15873071614E+03  0.00000000000E+00 0.  1.
        -15    1    4    4    0    0  0.66257464357E+02 -0.79403892201E+02  0.64657736259E+02  0.12196578429E+03  0.00000000000E+00 0.  1.
         15    1    3    3    0    0 -0.26733844629E+03 -0.32736745553E+03  0.32151460532E+03  0.53104701979E+03  0.00000000000E+00 0. -1.
         15    1    3    3    0    0 -0.25559770269E+03  0.76834370570E+03  0.87737451572E+03  0.11939297620E+04  0.00000000000E+00 0. -1.
        -16    1    1    2    0    0 -0.45391247885E+02 -0.24570809677E+03  0.10724842202E+03  0.27191001862E+03  0.00000000000E+00 0.  1.
         16    1    4    4    0    0  0.45999022458E+03 -0.29528105963E+03  0.43823890340E+03  0.70059635122E+03  0.00000000000E+00 0. -1.
    9900018    1    1    2    0    0  0.29937401775E+02  0.35725782692E+02  0.16854538846E+03  0.19721892895E+03  0.91187600000E+02 0.  0.
<mgrwt>
<rscale>  0 0.25358069E+04</rscale>
<asrwt>0</asrwt>
<pdfrwt beam="1">  1        2 0.39127991E+00 0.25358069E+04</pdfrwt>
<pdfrwt beam="2">  1       -2 0.97242945E-01 0.25358069E+04</pdfrwt>
<totfact> 0.25769816E+00</totfact>
</mgrwt>
</event>
<event>
11    1  0.3219869E-012  0.3418301E+04  0.7818608E-02  0.8133429E-01
         -2   -1    0    0    0  501 -0.00000000000E+00  0.00000000000E+00  0.14131807730E+04  0.14131807730E+04  0.00000000000E+00 0.  1.
          2   -1    0    0  501    0  0.00000000000E+00 -0.00000000000E+00 -0.20671066797E+04  0.20671066797E+04  0.00000000000E+00 0. -1.
    9900016    2    1    2    0    0  0.68669914520E+03  0.38412664872E+03 -0.10351032636E+04  0.26059847731E+04  0.22584527608E+04 0.  0.
         24    2    3    3    0    0  0.45025216796E+03  0.89935487779E+03 -0.73446585908E+03  0.12479703474E+04  0.80147856105E+02 0.  0.
        -15    1    3    3    0    0  0.10693774899E+03 -0.21243741753E+03  0.22241699048E+03  0.32562963038E+03  0.00000000000E+00 0.  1.
        -15    1    4    4    0    0  0.29462533258E+03  0.66270220636E+03 -0.51087172930E+03  0.88711229543E+03  0.00000000000E+00 0.  1.
         15    1    3    3    0    0  0.24158541002E+03 -0.48210327730E+03 -0.37966407531E+03  0.65949366213E+03  0.00000000000E+00 0. -1.
         15    1    3    3    0    0 -0.13016167079E+03  0.17309924637E+03 -0.18905020411E+02  0.21740011369E+03  0.00000000000E+00 0. -1.
        -16    1    1    2    0    0 -0.68669914520E+03 -0.38412664872E+03  0.38117735693E+03  0.87430267969E+03  0.00000000000E+00 0.  1.
         16    1    4    4    0    0  0.15562683537E+03  0.23665267143E+03 -0.22359412978E+03  0.36085805195E+03  0.00000000000E+00 0. -1.
    9900018    1    3    3    0    0  0.18085489019E+02  0.62132193843E+01 -0.12448529929E+03  0.15549101949E+03  0.91187600000E+02 0.  0.
<mgrwt>
<rscale>  0 0.34183010E+04</rscale>
<asrwt>0</asrwt>
<pdfrwt beam="1">  1        2 0.31801641E+00 0.34183010E+04</pdfrwt>
<pdfrwt beam="2">  1       -2 0.21741243E+00 0.34183010E+04</pdfrwt>
<totfact> 0.52052183E-01</totfact>
</mgrwt>
</event>
<event>
11    1  0.3219869E-012  0.2728807E+04  0.7818608E-02  0.8325718E-01
          2   -1    0    0  501    0  0.00000000000E+00  0.00000000000E+00  0.85585075991E+03  0.85585075991E+03  0.00000000000E+00 0. -1.
         -2   -1    0    0    0  501 -0.00000000000E+00 -0.00000000000E+00 -0.21751426051E+04  0.21751426051E+04  0.00000000000E+00 0.  1.
    9900016    2    1    2    0    0  0.12706422588E+03  0.58767435415E+02 -0.15016770763E+04  0.26382147847E+04  0.21646118082E+04 0.  0.
        -24    2    3    3    0    0 -0.11884278830E+03  0.49036206501E+03 -0.64292011548E+02  0.51479149375E+03  0.79361553363E+02 0.  0.
        -15    1    3    3    0    0  0.12890727643E+03 -0.63891249947E+03 -0.18670473272E+03  0.67800068224E+03  0.00000000000E+00 0.  1.
        -15    1    3    3    0    0  0.80686968684E+02  0.24613017889E+03 -0.13272086746E+04  0.13522475061E+04  0.00000000000E+00 0.  1.
         15    1    3    3    0    0  0.36312769073E+02 -0.38812309022E+02  0.76528342611E+02  0.93175102641E+02  0.00000000000E+00 0. -1.
         15    1    4    4    0    0 -0.35039255189E+02  0.88289292287E+02  0.15935833994E+02  0.96315623560E+02  0.00000000000E+00 0. -1.
        -16    1    4    4    0    0 -0.83803533115E+02  0.40207277272E+03 -0.80227845542E+02  0.41847587019E+03  0.00000000000E+00 0.  1.
         16    1    1    2    0    0 -0.14977820526E+03 -0.46376256998E+02  0.23640768385E+03  0.28367738889E+03  0.00000000000E+00 0. -1.
    9900018    1    1    2    0    0  0.22713979382E+02 -0.12391178417E+02 -0.54022452802E+02  0.10910119139E+03  0.91187600000E+02 0.  0.
<mgrwt>
<rscale>  0 0.27288074E+04</rscale>
<asrwt>0</asrwt>
<pdfrwt beam="1">  1        2 0.13166935E+00 0.27288074E+04</pdfrwt>
<pdfrwt beam="2">  1       -2 0.33463733E+00 0.27288074E+04</pdfrwt>
<totfact> 0.53453919E-01</totfact>
</mgrwt>
</event>
<event>
11    1  0.3219869E-012  0.3109956E+04  0.7818608E-02  0.8213011E-01
          1   -1    0    0  501    0  0.00000000000E+00  0.00000000000E+00  0.24987983540E+04  0.24987983540E+04  0.00000000000E+00 0. -1.
         -1   -1    0    0    0  501 -0.00000000000E+00 -0.00000000000E+00 -0.96764804046E+03  0.96764804046E+03  0.00000000000E+00 0.  1.
    9900016    2    1    2    0    0  0.45236524261E+03  0.41222697372E+03  0.67967659484E+03  0.24178411855E+04  0.22381756710E+04 0.  0.
         24    2    3    3    0    0  0.82005337791E+03  0.73054166302E+03  0.19125537072E+03  0.11175585507E+04  0.78611916601E+02 0.  0.
        -15    1    4    4    0    0  0.40140308958E+03  0.31152417757E+03  0.69252754430E+02  0.51280376123E+03  0.00000000000E+00 0.  1.
        -15    1    3    3    0    0 -0.32377792415E+02 -0.49696897314E+02  0.10250423756E+03  0.11842812910E+03  0.00000000000E+00 0.  1.
         15    1    3    3    0    0  0.20507677717E+03 -0.17545494970E+03 -0.14748658102E+03  0.30756010061E+03  0.00000000000E+00 0. -1.
         15    1    3    3    0    0 -0.56374266561E+03 -0.13194680995E+03  0.50583362143E+03  0.76881948873E+03  0.00000000000E+00 0. -1.
        -16    1    1    2    0    0 -0.45236524261E+03 -0.41222697372E+03  0.85147371870E+03  0.10486052089E+04  0.00000000000E+00 0.  1.
         16    1    4    4    0    0  0.41865028833E+03  0.41901748545E+03  0.12200261629E+03  0.60475478949E+03  0.00000000000E+00 0. -1.
    9900018    1    3    3    0    0  0.23355545554E+02  0.38783967667E+02  0.27569946156E+02  0.10547491636E+03  0.91187600000E+02 0.  0.
<mgrwt>
<rscale>  0 0.31099565E+04</rscale>
<asrwt>0</asrwt>
<pdfrwt beam="1">  1        1 0.38443051E+00 0.31099565E+04</pdfrwt>
<pdfrwt beam="2">  1       -1 0.14886893E+00 0.31099565E+04</pdfrwt>
<totfact> 0.40735965E-01</totfact>
</mgrwt>
</event>
<event>
11    1  0.3219869E-012  0.2709575E+04  0.7818608E-02  0.8331905E-01
          2   -1    0    0  501    0  0.00000000000E+00  0.00000000000E+00  0.33073438672E+04  0.33073438672E+04  0.00000000000E+00 0. -1.
         -2   -1    0    0    0  501 -0.00000000000E+00 -0.00000000000E+00 -0.55496188916E+03  0.55496188916E+03  0.00000000000E+00 0.  1.
    9900016    2    1    2    0    0  0.71851979558E+02 -0.18088124782E+03  0.18138555349E+04  0.29038107813E+04  0.22592397879E+04 0.  0.
        -24    2    3    3    0    0 -0.68907163921E+03 -0.17049717146E+03  0.91636964794E+03  0.11618281302E+04  0.78881321999E+02 0.  0.
        -15    1    3    3    0    0  0.75292280903E+03 -0.37209727758E+03  0.53516766844E+03  0.99586825117E+03  0.00000000000E+00 0.  1.
        -15    1    3    3    0    0 -0.15452264383E+03  0.14902136193E+03  0.34892481607E+02  0.21749045735E+03  0.00000000000E+00 0.  1.
         15    1    3    3    0    0  0.20770229056E+03  0.20797115962E+03  0.16550028602E+03  0.33731674938E+03  0.00000000000E+00 0. -1.
         15    1    4    4    0    0 -0.36617747582E+03 -0.10331485419E+03  0.55127471102E+03  0.66982364090E+03  0.00000000000E+00 0. -1.
        -16    1    4    4    0    0 -0.32289416339E+03 -0.67182317274E+02  0.36509493692E+03  0.49200448928E+03  0.00000000000E+00 0.  1.
         16    1    1    2    0    0 -0.71851979558E+02  0.18088124782E+03  0.93852644313E+03  0.95849497507E+03  0.00000000000E+00 0. -1.
    9900018    1    3    3    0    0 -0.45178836995E+02  0.47206796625E+01  0.16192545093E+03  0.19130719323E+03  0.91187600000E+02 0.  0.
<mgrwt>
<rscale>  0 0.27095755E+04</rscale>
<asrwt>0</asrwt>
<pdfrwt beam="1">  1        2 0.50882212E+00 0.27095755E+04</pdfrwt>
<pdfrwt beam="2">  1       -2 0.85378754E-01 0.27095755E+04</pdfrwt>
<totfact> 0.11514374E+00</totfact>
</mgrwt>
</event>
<event>
11    1  0.3219869E-012  0.2910083E+04  0.7818608E-02  0.8269884E-01
          2   -1    0    0  501    0  0.00000000000E+00  0.00000000000E+00  0.19757120286E+04  0.19757120286E+04  0.00000000000E+00 0. -1.
         -2   -1    0    0    0  501 -0.00000000000E+00 -0.00000000000E+00 -0.10715858430E+04  0.10715858430E+04  0.00000000000E+00 0.  1.
    9900016    2    1    2    0    0  0.19079459602E+03 -0.23920951153E+03  0.24378222558E+03  0.21853626836E+04  0.21500596543E+04 0.  0.
        -24    2    3    3    0    0  0.27477598647E+03 -0.76365232892E+02 -0.63535155208E+03  0.70106029438E+03  0.80501242814E+02 0.  0.
        -15    1    3    3    0    0  0.86187455970E+02  0.23643331839E+03 -0.63953136918E+02  0.25965168078E+03  0.00000000000E+00 0.  1.
        -15    1    3    3    0    0 -0.33261261381E+03 -0.52804529952E+02  0.20774141566E+03  0.39569680948E+03  0.00000000000E+00 0.  1.
         15    1    3    3    0    0  0.16244376739E+03 -0.34647306707E+03  0.73534549892E+03  0.82895389893E+03  0.00000000000E+00 0. -1.
         15    1    4    4    0    0  0.15147818499E+03 -0.78314501454E+02 -0.41268054521E+03  0.44652439357E+03  0.00000000000E+00 0. -1.
        -16    1    4    4    0    0  0.12329780148E+03  0.19492685621E+01 -0.22267100687E+03  0.25453590081E+03  0.00000000000E+00 0.  1.
         16    1    1    2    0    0 -0.22075214149E+03  0.24306113446E+03  0.68769334736E+03  0.76205797880E+03  0.00000000000E+00 0. -1.
    9900018    1    1    2    0    0  0.29957545469E+02 -0.38516229273E+01 -0.27349387338E+02  0.99877209168E+02  0.91187600000E+02 0.  0.
<mgrwt>
<rscale>  0 0.29100825E+04</rscale>
<asrwt>0</asrwt>
<pdfrwt beam="1">  1        2 0.30395570E+00 0.29100825E+04</pdfrwt>
<pdfrwt beam="2">  1       -2 0.16485936E+00 0.29100825E+04</pdfrwt>
<totfact> 0.13794229E+00</totfact>
</mgrwt>
</event>
<event>
11    1  0.3957297E-012  0.2846280E+04  0.7818608E-02  0.8289043E-01
          1   -1    0    0  501    0  0.00000000000E+00  0.00000000000E+00  0.16218868951E+04  0.16218868951E+04  0.00000000000E+00 0. -1.
         -1   -1    0    0    0  501 -0.00000000000E+00 -0.00000000000E+00 -0.12487472579E+04  0.12487472579E+04  0.00000000000E+00 0.  1.
    9900016    2    1    2    0    0  0.72915894540E+02  0.10794505689E+03 -0.21425644459E+03  0.22689672851E+04  0.22550693679E+04 0.  0.
        -24    2    3    3    0    0  0.22649496378E+02  0.24404073988E+03 -0.75347751440E+03  0.79620144630E+03  0.78354935896E+02 0.  0.
        -15    1    3    3    0    0 -0.18157119310E+03 -0.37608399157E+03  0.11397298508E+03  0.43289387638E+03  0.00000000000E+00 0.  1.
        -15    1    3    3    0    0 -0.10584744138E+03  0.34031413435E+03  0.34174001930E+02  0.35802968214E+03  0.00000000000E+00 0.  1.
         15    1    3    3    0    0  0.40153708339E+03 -0.89402036283E+02  0.39446411830E+03  0.56993569291E+03  0.00000000000E+00 0. -1.
         15    1    4    4    0    0  0.30454088891E+02  0.12637565447E+03 -0.28730146247E+03  0.31534170025E+03  0.00000000000E+00 0. -1.
        -16    1    4    4    0    0 -0.78045925133E+01  0.11766508540E+03 -0.46617605193E+03  0.48085974606E+03  0.00000000000E+00 0.  1.
         16    1    1    2    0    0 -0.72915894540E+02 -0.10794505689E+03  0.58739608183E+03  0.60166686790E+03  0.00000000000E+00 0. -1.
    9900018    1    3    3    0    0 -0.63852050744E+02 -0.10923789480E+02 -0.33900355018E+01  0.11190658736E+03  0.91187600000E+02 0.  0.
<mgrwt>
<rscale>  0 0.28462795E+04</rscale>
<asrwt>0</asrwt>
<pdfrwt beam="1">  1        1 0.24952106E+00 0.28462795E+04</pdfrwt>
<pdfrwt beam="2">  1       -1 0.19211496E+00 0.28462795E+04</pdfrwt>
<totfact> 0.79378366E-01</totfact>
</mgrwt>
</event>
<event>
11    1  0.3219869E-012  0.2466271E+04  0.7818608E-02  0.8415101E-01
          2   -1    0    0  501    0  0.00000000000E+00  0.00000000000E+00  0.25166754931E+04  0.25166754931E+04  0.00000000000E+00 0. -1.
         -2   -1    0    0    0  501 -0.00000000000E+00 -0.00000000000E+00 -0.60421902262E+03  0.60421902262E+03  0.00000000000E+00 0.  1.
    9900016    2    1    2    0    0 -0.63170352910E+01  0.40781716670E+02  0.18578229085E+04  0.28390297494E+04  0.21463645788E+04 0.  0.
         24    2    3    3    0    0  0.64447234041E+03 -0.40758666913E+03  0.91730747721E+03  0.11956871971E+04  0.82118055803E+02 0.  0.
        -15    1    3    3    0    0  0.93567861715E+01  0.97418338252E+02  0.76743910881E+02  0.12436844428E+03  0.00000000000E+00 0.  1.
        -15    1    4    4    0    0  0.21632941356E+03 -0.92107320441E+02  0.27854533395E+03  0.36451293079E+03  0.00000000000E+00 0.  1.
         15    1    3    3    0    0 -0.44103155896E+03  0.70534747279E+03  0.54768600326E+03  0.99598386108E+03  0.00000000000E+00 0. -1.
         15    1    3    3    0    0 -0.21911460292E+03 -0.35439742524E+03  0.31608551716E+03  0.52299024694E+03  0.00000000000E+00 0. -1.
        -16    1    1    2    0    0  0.60577132085E+02 -0.72247606257E+02 -0.68320563689E+02  0.11643455228E+03  0.00000000000E+00 0.  1.
         16    1    4    4    0    0  0.42814292685E+03 -0.31547934869E+03  0.63876214326E+03  0.83117426628E+03  0.00000000000E+00 0. -1.
    9900018    1    1    2    0    0 -0.54260096794E+02  0.31465889587E+02  0.12295412563E+03  0.16543021403E+03  0.91187600000E+02 0.  0.
<mgrwt>
<rscale>  0 0.24662710E+04</rscale>
<asrwt>0</asrwt>
<pdfrwt beam="1">  1        2 0.38718084E+00 0.24662710E+04</pdfrwt>
<pdfrwt beam="2">  1       -2 0.92956774E-01 0.24662710E+04</pdfrwt>
<totfact> 0.29849013E+00</totfact>
</mgrwt>
</event>
<event>
11    1  0.3219869E-012  0.2571816E+04  0.7818608E-02  0.8377838E-01
          2   -1    0    0  501    0  0.00000000000E+00  0.00000000000E+00  0.24416035880E+04  0.24416035880E+04  0.00000000000E+00 0. -1.
         -2   -1    0    0    0  501 -0.00000000000E+00 -0.00000000000E+00 -0.67724328131E+03  0.67724328131E+03  0.00000000000E+00 0.  1.
    9900016    2    1    2    0    0  0.19399493780E+03  0.12891537884E+03  0.16685337930E+04  0.27257466495E+04  0.21427637686E+04 0.  0.
         24    2    3    3    0    0  0.41567367488E+03 -0.28252285919E+03  0.38211519510E+03  0.63628877031E+03  0.79041805036E+02 0.  0.
        -15    1    4    4    0    0  0.18786424403E+03 -0.82680038011E+02  0.14082206983E+03  0.24891729193E+03  0.00000000000E+00 0.  1.
        -15    1    3    3    0    0  0.11016839380E+03  0.34056861420E+03 -0.11023149850E+03  0.37453309498E+03  0.00000000000E+00 0.  1.
         15    1    3    3    0    0  0.16439251654E+03 -0.32022302786E+03  0.57604036072E+03  0.67925708259E+03  0.00000000000E+00 0. -1.
         15    1    3    3    0    0 -0.49623964742E+03  0.39109265169E+03  0.82060973571E+03  0.10356677016E+04  0.00000000000E+00 0. -1.
        -16    1    1    2    0    0 -0.15853839191E+03 -0.11397818631E+03 -0.63683240986E+02  0.20538014472E+03  0.00000000000E+00 0.  1.
         16    1    4    4    0    0  0.22780943085E+03 -0.19984282118E+03  0.24129312526E+03  0.38737147838E+03  0.00000000000E+00 0. -1.
    9900018    1    1    2    0    0 -0.35456545892E+02 -0.14937192537E+02  0.15950975461E+03  0.18772007505E+03  0.91187600000E+02 0.  0.
<mgrwt>
<rscale>  0 0.25718162E+04</rscale>
<asrwt>0</asrwt>
<pdfrwt beam="1">  1        2 0.37563132E+00 0.25718162E+04</pdfrwt>
<pdfrwt beam="2">  1       -2 0.10419128E+00 0.25718162E+04</pdfrwt>
<totfact> 0.24976235E+00</totfact>
</mgrwt>
</event>
<event>
11    1  0.3219869E-012  0.3186353E+04  0.7818608E-02  0.8192431E-01
          2   -1    0    0  501    0  0.00000000000E+00  0.00000000000E+00  0.15135004709E+04  0.15135004709E+04  0.00000000000E+00 0. -1.
         -2   -1    0    0    0  501 -0.00000000000E+00 -0.00000000000E+00 -0.16770467959E+04  0.16770467959E+04  0.00000000000E+00 0.  1.
    9900016    2    1    2    0    0  0.50947589352E+03 -0.13811454220E+03 -0.71680522147E+03  0.24258664710E+04  0.22566295879E+04 0.  0.
        -24    2    3    3    0    0  0.18565106872E+02  0.54816382550E+03 -0.50196009920E+03  0.74782286301E+03  0.80292281473E+02 0.  0.
        -15    1    3    3    0    0  0.61427558314E+02 -0.48038467436E+03  0.36875111001E+02  0.48569800709E+03  0.00000000000E+00 0.  1.
        -15    1    3    3    0    0  0.53619766141E+02 -0.24699982316E+03 -0.56057495685E+03  0.61492135612E+03  0.00000000000E+00 0.  1.
         15    1    4    4    0    0  0.47385859085E+02  0.36232948159E+03 -0.35080549971E+03  0.50654967327E+03  0.00000000000E+00 0. -1.
         15    1    3    3    0    0  0.28534499802E+03  0.34965383676E+02  0.33982761113E+03  0.44511476187E+03  0.00000000000E+00 0. -1.
        -16    1    4    4    0    0 -0.28820752213E+02  0.18583434391E+03 -0.15115459950E+03  0.24127318973E+03  0.00000000000E+00 0.  1.
         16    1    1    2    0    0 -0.50947589352E+03  0.13811454220E+03  0.55325889653E+03  0.76468079578E+03  0.00000000000E+00 0. -1.
    9900018    1    3    3    0    0  0.90518464177E+02  0.61407461453E+01 -0.30972887549E+02  0.13230948294E+03  0.91187600000E+02 0.  0.
<mgrwt>
<rscale>  0 0.31863528E+04</rscale>
<asrwt>0</asrwt>
<pdfrwt beam="1">  1        2 0.23284623E+00 0.31863528E+04</pdfrwt>
<pdfrwt beam="2">  1       -2 0.25800720E+00 0.31863528E+04</pdfrwt>
<totfact> 0.60337311E-01</totfact>
</mgrwt>
</event>
<event>
11    1  0.3219869E-012  0.2661658E+04  0.7818608E-02  0.8347554E-01
         -2   -1    0    0    0  501 -0.00000000000E+00  0.00000000000E+00  0.23042097594E+04  0.23042097594E+04  0.00000000000E+00 0.  1.
          2   -1    0    0  501    0  0.00000000000E+00 -0.00000000000E+00 -0.76863940047E+03  0.76863940047E+03  0.00000000000E+00 0. -1.
    9900016    2    1    2    0    0 -0.15799581233E+03 -0.32840109278E+03  0.12743381067E+04  0.25382054959E+04  0.21646569185E+04 0.  0.
        -24    2    3    3    0    0  0.66701302249E+03 -0.50923355343E+02  0.37574667907E+03  0.77122944326E+03  0.78164742860E+02 0.  0.
        -15    1    3    3    0    0 -0.61473556130E+03 -0.30123718252E+03  0.15762322853E+03  0.70248753202E+03  0.00000000000E+00 0.  1.
        -15    1    3    3    0    0  0.23006432092E+03  0.13547467610E+03  0.45541953251E+03  0.52791091125E+03  0.00000000000E+00 0.  1.
         15    1    3    3    0    0 -0.44033759444E+03 -0.11171523101E+03  0.28554866657E+03  0.53657760939E+03  0.00000000000E+00 0. -1.
         15    1    4    4    0    0  0.26117581736E+03 -0.58258895327E+02  0.14756453981E+03  0.30558501251E+03  0.00000000000E+00 0. -1.
        -16    1    4    4    0    0  0.40583720513E+03  0.73355399843E+01  0.22818213926E+03  0.46564443075E+03  0.00000000000E+00 0.  1.
         16    1    1    2    0    0  0.16405737230E+03  0.33218621794E+03  0.17823280494E+03  0.41113189800E+03  0.00000000000E+00 0. -1.
    9900018    1    1    2    0    0 -0.60615599661E+01 -0.37851251643E+01  0.82999447323E+02  0.12351176596E+03  0.91187600000E+02 0.  0.
<mgrwt>
<rscale>  0 0.26616584E+04</rscale>
<asrwt>0</asrwt>
<pdfrwt beam="1">  1        2 0.11825222E+00 0.26616584E+04</pdfrwt>
<pdfrwt beam="2">  1       -2 0.35449381E+00 0.26616584E+04</pdfrwt>
<totfact> 0.46586350E-01</totfact>
</mgrwt>
</event>
<event>
11    1  0.3219869E-012  0.3146224E+04  0.7818608E-02  0.8203165E-01
          2   -1    0    0  501    0  0.00000000000E+00  0.00000000000E+00  0.10723470160E+04  0.10723470160E+04  0.00000000000E+00 0.  1.
         -2   -1    0    0    0  501 -0.00000000000E+00 -0.00000000000E+00 -0.23077240443E+04  0.23077240443E+04  0.00000000000E+00 0. -1.
    9900016    2    1    2    0    0 -0.34305932878E+03  0.25881123069E+03 -0.14811704379E+04  0.26482061468E+04  0.21527788957E+04 0.  0.
         24    2    3    3    0    0 -0.79319833034E+03 -0.54344955514E+03 -0.10094078987E+04  0.13964620915E+04  0.81859983491E+02 0.  0.
        -15    1    3    3    0    0  0.17852884254E+03  0.24035177392E+02 -0.10958143805E+03  0.21085143807E+03  0.00000000000E+00 0.  1.
        -15    1    4    4    0    0 -0.45061377344E+03 -0.35512714891E+03 -0.61799505920E+03  0.84325912856E+03  0.00000000000E+00 0.  1.
         15    1    3    3    0    0  0.24377858739E+03  0.49284492153E+03 -0.48097772316E+03  0.73052288570E+03  0.00000000000E+00 0. -1.
         15    1    3    3    0    0  0.27831571627E+02  0.28538068691E+03  0.11879662201E+03  0.31036973151E+03  0.00000000000E+00 0. -1.
        -16    1    1    2    0    0  0.36122489890E+03 -0.32807724106E+03  0.32955226795E+03  0.58883172553E+03  0.00000000000E+00 0.  1.
         16    1    4    4    0    0 -0.34258455690E+03 -0.18832240623E+03 -0.39141283946E+03  0.55320296294E+03  0.00000000000E+00 0. -1.
    9900018    1    1    2    0    0 -0.18165570113E+02  0.69266010368E+02 -0.83758858333E+02  0.14303318801E+03  0.91187600000E+02 0.  0.
<mgrwt>
<rscale>  0 0.31462238E+04</rscale>
<asrwt>0</asrwt>
<pdfrwt beam="1">  1        2 0.16497647E+00 0.31462238E+04</pdfrwt>
<pdfrwt beam="2">  1       -2 0.35503447E+00 0.31462238E+04</pdfrwt>
<totfact> 0.27707168E-01</totfact>
</mgrwt>
</event>
<event>
11    1  0.3332037E-012  0.2804590E+04  0.7818608E-02  0.8301845E-01
          2   -1    0    0  501    0  0.00000000000E+00  0.00000000000E+00  0.20086522253E+04  0.20086522253E+04  0.00000000000E+00 0. -1.
         -2   -1    0    0    0  501 -0.00000000000E+00 -0.00000000000E+00 -0.97898031188E+03  0.97898031188E+03  0.00000000000E+00 0.  1.
    9900016    2    1    2    0    0 -0.15991865518E+03 -0.14763216669E+03  0.11568727664E+04  0.24475250672E+04  0.21458460159E+04 0.  0.
         24    2    3    3    0    0 -0.24957567797E+01  0.17265295247E+03  0.68563502732E+03  0.71158503626E+03  0.80265823009E+02 0.  0.
        -15    1    3    3    0    0 -0.13202802112E+03  0.76709155716E+02 -0.32232939185E+03  0.35666781433E+03  0.00000000000E+00 0.  1.
        -15    1    4    4    0    0 -0.38259174989E+02  0.10710026013E+03  0.46288170897E+03  0.47664840993E+03  0.00000000000E+00 0.  1.
         15    1    3    3    0    0  0.15390488190E+03 -0.44744168370E+02 -0.23097113026E+03  0.28113416066E+03  0.00000000000E+00 0. -1.
         15    1    3    3    0    0 -0.17929975917E+03 -0.35225010650E+03  0.10245382612E+04  0.10981380559E+04  0.00000000000E+00 0. -1.
        -16    1    1    2    0    0  0.19502397773E+03  0.18521795480E+03 -0.25791313965E+03  0.37263820292E+03  0.00000000000E+00 0.  1.
         16    1    4    4    0    0  0.35763418209E+02  0.65552692343E+02  0.22275331834E+03  0.23493662632E+03  0.00000000000E+00 0. -1.
    9900018    1    1    2    0    0 -0.35105322554E+02 -0.37585788113E+02  0.13071228664E+03  0.16746926707E+03  0.91187600000E+02 0.  0.
<mgrwt>
<rscale>  0 0.28045898E+04</rscale>
<asrwt>0</asrwt>
<pdfrwt beam="1">  1        2 0.30902342E+00 0.28045898E+04</pdfrwt>
<pdfrwt beam="2">  1       -2 0.15061236E+00 0.28045898E+04</pdfrwt>
<totfact> 0.17036166E+00</totfact>
</mgrwt>
</event>
<event>
11    1  0.3219869E-012  0.2658162E+04  0.7818608E-02  0.8348709E-01
          1   -1    0    0  501    0  0.00000000000E+00  0.00000000000E+00  0.29386867174E+04  0.29386867174E+04  0.00000000000E+00 0. -1.
         -1   -1    0    0    0  501 -0.00000000000E+00 -0.00000000000E+00 -0.60110405829E+03  0.60110405829E+03  0.00000000000E+00 0.  1.
    9900016    2    1    2    0    0 -0.29965429462E+03  0.22983518264E+03  0.19456547995E+04  0.29955258084E+04  0.22461044861E+04 0.  0.
        -24    2    3    3    0    0 -0.49808255743E+03 -0.19720712656E+03  0.10709386273E+04  0.12001794724E+04  0.80897081835E+02 0.  0.
        -15    1    3    3    0    0 -0.17427246097E+03 -0.19936452231E+03  0.39715070249E+03  0.47733194309E+03  0.00000000000E+00 0.  1.
        -15    1    3    3    0    0  0.53599611744E+03  0.13480270725E+03  0.33237370574E+02  0.55368613004E+03  0.00000000000E+00 0.  1.
         15    1    4    4    0    0 -0.17330313162E+03 -0.44256016348E+02  0.42667239419E+03  0.46264662798E+03  0.00000000000E+00 0. -1.
         15    1    3    3    0    0 -0.16991821834E+03  0.49785768831E+03  0.34452612965E+03  0.62883442395E+03  0.00000000000E+00 0. -1.
        -16    1    4    4    0    0 -0.32477942581E+03 -0.15295111021E+03  0.64426623310E+03  0.73753284446E+03  0.00000000000E+00 0.  1.
         16    1    1    2    0    0  0.29965429462E+03 -0.22983518264E+03  0.39192785955E+03  0.54426496723E+03  0.00000000000E+00 0. -1.
    9900018    1    3    3    0    0  0.66228246754E+01 -0.62535640474E+01  0.99801969509E+02  0.13549383891E+03  0.91187600000E+02 0.  0.
<mgrwt>
<rscale>  0 0.26581622E+04</rscale>
<asrwt>0</asrwt>
<pdfrwt beam="1">  1        1 0.45210564E+00 0.26581622E+04</pdfrwt>
<pdfrwt beam="2">  1       -1 0.92477550E-01 0.26581622E+04</pdfrwt>
<totfact> 0.65988271E-01</totfact>
</mgrwt>
</event>
<event>
11    1  0.3219869E-012  0.2851903E+04  0.7818608E-02  0.8287333E-01
          2   -1    0    0  501    0  0.00000000000E+00  0.00000000000E+00  0.16442890754E+04  0.16442890754E+04  0.00000000000E+00 0. -1.
         -2   -1    0    0    0  501 -0.00000000000E+00 -0.00000000000E+00 -0.12366058281E+04  0.12366058281E+04  0.00000000000E+00 0.  1.
    9900016    2    1    2    0    0  0.22627920998E+03  0.31252121416E+03  0.72347389119E+03  0.23823013608E+04  0.22367551301E+04 0.  0.
        -24    2    3    3    0    0 -0.47585206376E+03  0.32117021248E+03 -0.46625652655E+02  0.58265900435E+03  0.87932200562E+02 0.  0.
        -15    1    3    3    0    0  0.22827530204E+02  0.22421527962E+03 -0.33094041950E+03  0.40039374247E+03  0.00000000000E+00 0.  1.
        -15    1    3    3    0    0  0.44532933833E+03 -0.24964566121E+03  0.54168720074E+03  0.74435623138E+03  0.00000000000E+00 0.  1.
         15    1    4    4    0    0 -0.43853275255E+03  0.26253804591E+03 -0.45681724731E+02  0.51315106994E+03  0.00000000000E+00 0. -1.
         15    1    3    3    0    0  0.21099968237E+03 -0.16430479971E+01  0.49865395792E+03  0.54146037281E+03  0.00000000000E+00 0. -1.
        -16    1    4    4    0    0 -0.37319311216E+02  0.58632166570E+02 -0.94392792451E+00  0.69507934412E+02  0.00000000000E+00 0.  1.
         16    1    1    2    0    0 -0.22627920998E+03 -0.31252121416E+03 -0.31579064389E+03  0.49859354282E+03  0.00000000000E+00 0. -1.
    9900018    1    3    3    0    0  0.22974722842E+02  0.18424431275E+02  0.60698804679E+02  0.11343200977E+03  0.91187600000E+02 0.  0.
<mgrwt>
<rscale>  0 0.28519028E+04</rscale>
<asrwt>0</asrwt>
<pdfrwt beam="1">  1        2 0.25296755E+00 0.28519028E+04</pdfrwt>
<pdfrwt beam="2">  1       -2 0.19024705E+00 0.28519028E+04</pdfrwt>
<totfact> 0.14095307E+00</totfact>
</mgrwt>
</event>
<event>
11    1  0.3219869E-012  0.4098111E+04  0.7818608E-02  0.7985042E-01
          2   -1    0    0  501    0  0.00000000000E+00  0.00000000000E+00  0.12359522130E+04  0.12359522130E+04  0.00000000000E+00 0. -1.
         -2   -1    0    0    0  501 -0.00000000000E+00 -0.00000000000E+00 -0.33970802488E+04  0.33970802488E+04  0.00000000000E+00 0.  1.
    9900016    2    1    2    0    0 -0.96448631303E+03 -0.87165347319E+03 -0.79786418908E+03  0.26366854223E+04  0.21506996830E+04 0.  0.
        -24    2    3    3    0    0 -0.43304992737E+02 -0.17281567757E+03 -0.72385779345E+03  0.74956202490E+03  0.78310556341E+02 0.  0.
        -15    1    3    3    0    0  0.18272549745E+03 -0.52904918639E+02 -0.38706224988E+03  0.43128264876E+03  0.00000000000E+00 0.  1.
        -15    1    3    3    0    0 -0.67344821053E+03 -0.66184927725E+03  0.38391695527E+03  0.10192983796E+04  0.00000000000E+00 0.  1.
         15    1    4    4    0    0 -0.65914051227E+02 -0.11606402158E+03 -0.50407651551E+03  0.52144860988E+03  0.00000000000E+00 0. -1.
         15    1    3    3    0    0 -0.43045860723E+03  0.15916400263E+02 -0.70861101024E+02  0.43654236905E+03  0.00000000000E+00 0. -1.
        -16    1    4    4    0    0  0.22609058490E+02 -0.56751655989E+02 -0.21978127793E+03  0.22811341502E+03  0.00000000000E+00 0.  1.
         16    1    1    2    0    0  0.10204954095E+04  0.88461796479E+03 -0.12670310617E+04  0.18518443606E+04  0.00000000000E+00 0. -1.
    9900018    1    1    2    0    0 -0.56009096499E+02 -0.12964491599E+02 -0.96232784933E+02  0.14450267895E+03  0.91187600000E+02 0.  0.
<mgrwt>
<rscale>  0 0.40981112E+04</rscale>
<asrwt>0</asrwt>
<pdfrwt beam="1">  1        2 0.19014649E+00 0.40981112E+04</pdfrwt>
<pdfrwt beam="2">  1       -2 0.52262773E+00 0.40981112E+04</pdfrwt>
<totfact> 0.17054713E-02</totfact>
</mgrwt>
</event>
<event>
11    1  0.3219869E-012  0.2909463E+04  0.7818608E-02  0.8270067E-01
          1   -1    0    0  501    0  0.00000000000E+00  0.00000000000E+00  0.22808906248E+04  0.22808906248E+04  0.00000000000E+00 0. -1.
         -1   -1    0    0    0  501 -0.00000000000E+00 -0.00000000000E+00 -0.92781478992E+03  0.92781478992E+03  0.00000000000E+00 0.  1.
    9900016    2    1    2    0    0 -0.53937825927E+03 -0.21276965813E+02  0.86281748246E+03  0.24795038870E+04  0.22609962189E+04 0.  0.
        -24    2    3    3    0    0 -0.50088370948E+03  0.19680832827E+03 -0.25529965776E+03  0.60091930499E+03  0.79423468578E+02 0.  0.
        -15    1    3    3    0    0 -0.39511061612E+03  0.74283941767E+00  0.10694775143E+04  0.11401294244E+04  0.00000000000E+00 0.  1.
        -15    1    3    3    0    0  0.23988870711E+03 -0.14212607488E+03 -0.22452845153E+03  0.35799362914E+03  0.00000000000E+00 0.  1.
         15    1    3    3    0    0  0.85278348167E+02 -0.26828533483E+02  0.25518754869E+03  0.27039388285E+03  0.00000000000E+00 0. -1.
         15    1    4    4    0    0 -0.22458630262E+03  0.66309335909E+02 -0.73847172685E+02  0.24553887730E+03  0.00000000000E+00 0. -1.
        -16    1    4    4    0    0 -0.27629740685E+03  0.13049899236E+03 -0.18145248508E+03  0.35538042768E+03  0.00000000000E+00 0.  1.
         16    1    1    2    0    0  0.53937825927E+03  0.21276965813E+02  0.49025835238E+03  0.72920152765E+03  0.00000000000E+00 0. -1.
    9900018    1    3    3    0    0  0.31449011049E+02 -0.49873525136E+02  0.17980528733E+02  0.11006764562E+03  0.91187600000E+02 0.  0.
<mgrwt>
<rscale>  0 0.29094632E+04</rscale>
<asrwt>0</asrwt>
<pdfrwt beam="1">  1        1 0.35090625E+00 0.29094632E+04</pdfrwt>
<pdfrwt beam="2">  1       -1 0.14274074E+00 0.29094632E+04</pdfrwt>
<totfact> 0.65511469E-01</totfact>
</mgrwt>
</event>
<event>
11    1  0.3219869E-012  0.3030129E+04  0.7818608E-02  0.8235179E-01
         -2   -1    0    0    0  501 -0.00000000000E+00  0.00000000000E+00  0.12099186765E+04  0.12099186765E+04  0.00000000000E+00 0.  1.
          2   -1    0    0  501    0  0.00000000000E+00 -0.00000000000E+00 -0.18971691610E+04  0.18971691610E+04  0.00000000000E+00 0. -1.
    9900016    2    1    2    0    0  0.10199876603E+03 -0.67936304032E+03 -0.49981104942E+03  0.23949983553E+04  0.22392561595E+04 0.  0.
         24    2    3    3    0    0  0.37984984708E+03  0.83959598645E+02 -0.25225668464E+03  0.47187044493E+03  0.87710668213E+02 0.  0.
        -15    1    4    4    0    0  0.30983215416E+03  0.42861902700E+02 -0.16874408969E+03  0.35539790976E+03  0.00000000000E+00 0.  1.
        -15    1    3    3    0    0  0.23523244730E+03 -0.54101425378E+02  0.11149972844E+03  0.26588241373E+03  0.00000000000E+00 0.  1.
         15    1    3    3    0    0 -0.21334993975E+03 -0.13279342265E+03  0.47229644151E+03  0.53499179298E+03  0.00000000000E+00 0. -1.
         15    1    3    3    0    0 -0.29594955601E+03 -0.52433944331E+03 -0.81891704414E+03  0.10164364794E+04  0.00000000000E+00 0. -1.
        -16    1    1    2    0    0 -0.10199876603E+03  0.67936304032E+03 -0.18743943514E+03  0.71208948221E+03  0.00000000000E+00 0.  1.
         16    1    4    4    0    0  0.70017692926E+02  0.41097695945E+02 -0.83512594951E+02  0.11647253518E+03  0.00000000000E+00 0. -1.
    9900018    1    3    3    0    0 -0.37840325872E+01 -0.52088347625E+02 -0.12433490581E+02  0.10581722423E+03  0.91187600000E+02 0.  0.
<mgrwt>
<rscale>  0 0.30301290E+04</rscale>
<asrwt>0</asrwt>
<pdfrwt beam="1">  1        2 0.29187218E+00 0.30301290E+04</pdfrwt>
<pdfrwt beam="2">  1       -2 0.18614134E+00 0.30301290E+04</pdfrwt>
<totfact> 0.10711608E+00</totfact>
</mgrwt>
</event>
<event>
11    1  0.3219869E-012  0.3747362E+04  0.7818608E-02  0.8057546E-01
         -2   -1    0    0    0  501 -0.00000000000E+00  0.00000000000E+00  0.12651315514E+04  0.12651315514E+04  0.00000000000E+00 0. -1.
          2   -1    0    0  501    0  0.00000000000E+00 -0.00000000000E+00 -0.27749523370E+04  0.27749523370E+04  0.00000000000E+00 0.  1.
    9900016    2    1    2    0    0 -0.10885123115E+04 -0.52664647870E+02 -0.49950628478E+03  0.24637019945E+04  0.21523680847E+04 0.  0.
         24    2    3    3    0    0 -0.48104583814E+02 -0.38537103667E+03  0.12172159367E+03  0.41467624783E+03  0.79469222110E+02 0.  0.
        -15    1    3    3    0    0 -0.14429454831E+03  0.25554092133E+03 -0.89906396452E+03  0.94574737189E+03  0.00000000000E+00 0.  1.
        -15    1    4    4    0    0 -0.65422294539E+02 -0.29038699638E+03  0.11033934114E+03  0.31745779955E+03  0.00000000000E+00 0.  1.
         15    1    3    3    0    0 -0.37145417827E+02  0.43344573707E+02  0.23580727331E+03  0.24261822743E+03  0.00000000000E+00 0. -1.
         15    1    3    3    0    0 -0.85896776152E+03  0.33820893762E+02  0.42028812756E+02  0.86066014738E+03  0.00000000000E+00 0. -1.
        -16    1    1    2    0    0  0.10887870985E+04  0.69462296628E+02 -0.10052640304E+04  0.14835222032E+04  0.00000000000E+00 0.  1.
         16    1    4    4    0    0  0.17317710725E+02 -0.94984040286E+02  0.11382252529E+02  0.97218448282E+02  0.00000000000E+00 0. -1.
    9900018    1    1    2    0    0 -0.27478698776E+00 -0.16797648757E+02 -0.50504704790E+01  0.92859690703E+02  0.91187600000E+02 0.  0.
<mgrwt>
<rscale>  0 0.37473616E+04</rscale>
<asrwt>0</asrwt>
<pdfrwt beam="1">  1        2 0.42691574E+00 0.37473616E+04</pdfrwt>
<pdfrwt beam="2">  1       -2 0.19463563E+00 0.37473616E+04</pdfrwt>
<totfact> 0.27819011E-01</totfact>
</mgrwt>
</event>
<event>
11    1  0.3219869E-012  0.2673021E+04  0.7818608E-02  0.8343812E-01
          2   -1    0    0  501    0  0.00000000000E+00  0.00000000000E+00  0.21253260030E+04  0.21253260030E+04  0.00000000000E+00 0. -1.
         -2   -1    0    0    0  501 -0.00000000000E+00 -0.00000000000E+00 -0.84046398046E+03  0.84046398046E+03  0.00000000000E+00 0.  1.
    9900016    2    1    2    0    0 -0.31470524269E+03  0.94132126445E+02  0.87166727101E+03  0.24379356951E+04  0.22529594704E+04 0.  0.
        -24    2    3    3    0    0 -0.56712109944E+03  0.11881053025E+03  0.70988599462E+03  0.91986986823E+03  0.80499475814E+02 0.  0.
        -15    1    3    3    0    0 -0.33733102235E+02  0.28729672768E+03 -0.25793769310E+03  0.38756829778E+03  0.00000000000E+00 0.  1.
        -15    1    3    3    0    0  0.57690393094E+03 -0.26626860455E+03  0.10836836967E+03  0.64456250190E+03  0.00000000000E+00 0.  1.
         15    1    3    3    0    0 -0.21338126474E+03 -0.48013274979E+02  0.29190214588E+03  0.36475156132E+03  0.00000000000E+00 0. -1.
         15    1    4    4    0    0 -0.54868061830E+02  0.36646799593E+02  0.72383088195E+02  0.97942858781E+02  0.00000000000E+00 0. -1.
        -16    1    4    4    0    0 -0.51225303761E+03  0.82163730660E+02  0.63750290642E+03  0.82192700945E+03  0.00000000000E+00 0.  1.
         16    1    1    2    0    0  0.31470524269E+03 -0.94132126445E+02  0.41319475151E+03  0.52785428831E+03  0.00000000000E+00 0. -1.
    9900018    1    3    3    0    0 -0.77373707227E+02  0.23067480438E+01  0.19448453942E+02  0.12118346591E+03  0.91187600000E+02 0.  0.
<mgrwt>
<rscale>  0 0.26730207E+04</rscale>
<asrwt>0</asrwt>
<pdfrwt beam="1">  1        2 0.32697323E+00 0.26730207E+04</pdfrwt>
<pdfrwt beam="2">  1       -2 0.12930215E+00 0.26730207E+04</pdfrwt>
<totfact> 0.22014284E+00</totfact>
</mgrwt>
</event>
<event>
11    1  0.3219869E-012  0.2473192E+04  0.7818608E-02  0.8412599E-01
         -2   -1    0    0    0  501 -0.00000000000E+00  0.00000000000E+00  0.77598145861E+03  0.77598145861E+03  0.00000000000E+00 0.  1.
          2   -1    0    0  501    0  0.00000000000E+00 -0.00000000000E+00 -0.19706264582E+04  0.19706264582E+04  0.00000000000E+00 0. -1.
    9900016    2    1    2    0    0  0.10595041550E+03  0.10352073187E+03 -0.12648402236E+04  0.25826890284E+04  0.22468911397E+04 0.  0.
        -24    2    3    3    0    0  0.43329617125E+03 -0.97641664133E+02 -0.41787194564E+03  0.61510157730E+03  0.80333808926E+02 0.  0.
        -15    1    3    3    0    0  0.44280818977E+02 -0.27730686359E+03  0.17901778500E+03  0.33302740858E+03  0.00000000000E+00 0.  1.
        -15    1    3    3    0    0  0.13314632852E+03  0.33366988063E+03  0.54839777303E+02  0.36341565075E+03  0.00000000000E+00 0.  1.
         15    1    3    3    0    0 -0.49470448899E+03  0.12142030234E+03 -0.10572728231E+04  0.11735847833E+04  0.00000000000E+00 0. -1.
         15    1    4    4    0    0  0.62698791963E+02  0.14151549736E+02 -0.59509600562E+02  0.87594505722E+02  0.00000000000E+00 0. -1.
        -16    1    4    4    0    0  0.37059737928E+03 -0.11179321387E+03 -0.35836234508E+03  0.52750707158E+03  0.00000000000E+00 0.  1.
         16    1    1    2    0    0 -0.10595041550E+03 -0.10352073187E+03  0.70195224083E+02  0.16391888835E+03  0.00000000000E+00 0. -1.
    9900018    1    3    3    0    0 -0.10068414254E+02  0.23379076623E+02 -0.23553017215E+02  0.97559608461E+02  0.91187600000E+02 0.  0.
<mgrwt>
<rscale>  0 0.24731919E+04</rscale>
<asrwt>0</asrwt>
<pdfrwt beam="1">  1        2 0.30317329E+00 0.24731919E+04</pdfrwt>
<pdfrwt beam="2">  1       -2 0.11938177E+00 0.24731919E+04</pdfrwt>
<totfact> 0.33353410E+00</totfact>
</mgrwt>
</event>
<event>
11    1  0.3219869E-012  0.2569827E+04  0.7818608E-02  0.8378523E-01
          2   -1    0    0  501    0  0.00000000000E+00  0.00000000000E+00  0.15427602622E+04  0.15427602622E+04  0.00000000000E+00 0. -1.
         -2   -1    0    0    0  501 -0.00000000000E+00 -0.00000000000E+00 -0.10701616507E+04  0.10701616507E+04  0.00000000000E+00 0.  1.
    9900016    2    1    2    0    0 -0.22988500945E+02 -0.14572543589E+03  0.68537174904E+03  0.23540072901E+04  0.22471874674E+04 0.  0.
         24    2    3    3    0    0  0.62327609532E+03 -0.46749776607E+03 -0.11530787031E+03  0.79161689237E+03  0.79587354752E+02 0.  0.
        -15    1    3    3    0    0 -0.67053234416E+02 -0.79513459328E+02 -0.17150915048E+03  0.20058393544E+03  0.00000000000E+00 0.  1.
        -15    1    4    4    0    0  0.43358308939E+03 -0.36073508853E+03 -0.10488475019E+03  0.57369409124E+03  0.00000000000E+00 0.  1.
         15    1    3    3    0    0  0.11383658266E+02 -0.82974514258E+02  0.23732123989E+03  0.25166590670E+03  0.00000000000E+00 0. -1.
         15    1    3    3    0    0 -0.54770553517E+03  0.48176503128E+03  0.66868191955E+03  0.98955263031E+03  0.00000000000E+00 0. -1.
        -16    1    1    2    0    0  0.22988500945E+02  0.14572543589E+03 -0.21277313756E+03  0.25891462282E+03  0.00000000000E+00 0.  1.
         16    1    4    4    0    0  0.18969300594E+03 -0.10676267755E+03 -0.10423120112E+02  0.21792280113E+03  0.00000000000E+00 0. -1.
    9900018    1    3    3    0    0 -0.42889484947E+02  0.24952724898E+01  0.66185610384E+02  0.12058792526E+03  0.91187600000E+02 0.  0.
<mgrwt>
<rscale>  0 0.25698271E+04</rscale>
<asrwt>0</asrwt>
<pdfrwt beam="1">  1        2 0.23734773E+00 0.25698271E+04</pdfrwt>
<pdfrwt beam="2">  1       -2 0.16464026E+00 0.25698271E+04</pdfrwt>
<totfact> 0.24805777E+00</totfact>
</mgrwt>
</event>
<event>
11    1  0.3219869E-012  0.2445977E+04  0.7818608E-02  0.8422488E-01
         -2   -1    0    0    0  501 -0.00000000000E+00  0.00000000000E+00  0.24980924957E+04  0.24980924957E+04  0.00000000000E+00 0.  1.
          2   -1    0    0  501    0  0.00000000000E+00 -0.00000000000E+00 -0.59873736302E+03  0.59873736302E+03  0.00000000000E+00 0. -1.
    9900016    2    1    2    0    0 -0.17104491935E+03 -0.69590298969E+02  0.17922842192E+04  0.28056731266E+04  0.21506789153E+04 0.  0.
         24    2    3    3    0    0 -0.18911387946E+03  0.46733955892E+02  0.54828249193E+03  0.58734865568E+03  0.80103872187E+02 0.  0.
        -15    1    3    3    0    0  0.21525460065E+03 -0.87633146474E+02 -0.47333272095E+02  0.23718041679E+03  0.00000000000E+00 0.  1.
        -15    1    4    4    0    0 -0.48004220034E+02  0.39269304283E+02  0.10350478515E+03  0.12066368115E+03  0.00000000000E+00 0.  1.
         15    1    3    3    0    0 -0.50355302860E+03 -0.46399369852E+03  0.12086247129E+03  0.69531542615E+03  0.00000000000E+00 0. -1.
         15    1    3    3    0    0  0.30636738805E+03  0.43530259013E+03  0.11704725281E+04  0.12858286280E+04  0.00000000000E+00 0. -1.
        -16    1    1    2    0    0  0.16904605166E+03  0.32475110995E+02  0.72686449996E+02  0.18685427592E+03  0.00000000000E+00 0.  1.
         16    1    4    4    0    0 -0.14110965943E+03  0.74646516093E+01  0.44477770678E+03  0.46668497453E+03  0.00000000000E+00 0. -1.
    9900018    1    1    2    0    0  0.19988676916E+01  0.37115187974E+02  0.34384463469E+02  0.10430245621E+03  0.91187600000E+02 0.  0.
<mgrwt>
<rscale>  0 0.24459774E+04</rscale>
<asrwt>0</asrwt>
<pdfrwt beam="1">  1        2 0.92113442E-01 0.24459774E+04</pdfrwt>
<pdfrwt beam="2">  1       -2 0.38432192E+00 0.24459774E+04</pdfrwt>
<totfact> 0.41846757E-01</totfact>
</mgrwt>
</event>
<event>
11    1  0.3219869E-012  0.3778540E+04  0.7818608E-02  0.8050776E-01
         -2   -1    0    0    0  501 -0.00000000000E+00  0.00000000000E+00  0.13195639613E+04  0.13195639613E+04  0.00000000000E+00 0.  1.
          2   -1    0    0  501    0  0.00000000000E+00 -0.00000000000E+00 -0.27049394335E+04  0.27049394335E+04  0.00000000000E+00 0. -1.
    9900016    2    1    2    0    0  0.41904686750E+03 -0.95937753052E+03 -0.39913743285E+03  0.24305165283E+04  0.21568714336E+04 0.  0.
        -24    2    3    3    0    0  0.16231108842E+03  0.34938567774E+03  0.22373320084E+03  0.45273012391E+03  0.80577780483E+02 0.  0.
        -15    1    3    3    0    0 -0.92007349215E+02 -0.91702900846E+02 -0.67462369968E+03  0.68701667411E+03  0.00000000000E+00 0.  1.
        -15    1    3    3    0    0  0.32418654381E+03 -0.11299178119E+04  0.11381840715E+03  0.11810020350E+04  0.00000000000E+00 0.  1.
         15    1    4    4    0    0  0.15038633327E+03  0.31621804987E+03  0.22705237402E+03  0.41732803026E+03  0.00000000000E+00 0. -1.
         15    1    3    3    0    0  0.24556584491E+02 -0.87142495498E+02 -0.62065341152E+02  0.10976769532E+03  0.00000000000E+00 0. -1.
        -16    1    4    4    0    0  0.11924755144E+02  0.33167627875E+02 -0.33191731822E+01  0.35402093649E+02  0.00000000000E+00 0.  1.
         16    1    1    2    0    0 -0.44146600844E+03  0.10059397287E+04 -0.10033454018E+04  0.14877866009E+04  0.00000000000E+00 0. -1.
    9900018    1    1    2    0    0  0.22419140937E+02 -0.46562198190E+02  0.17107362478E+02  0.10620026566E+03  0.91187600000E+02 0.  0.
<mgrwt>
<rscale>  0 0.37785397E+04</rscale>
<asrwt>0</asrwt>
<pdfrwt beam="1">  1        2 0.41614453E+00 0.37785397E+04</pdfrwt>
<pdfrwt beam="2">  1       -2 0.20300984E+00 0.37785397E+04</pdfrwt>
<totfact> 0.26920182E-01</totfact>
</mgrwt>
</event>
<event>
11    1  0.3219869E-012  0.2809729E+04  0.7818608E-02  0.8300254E-01
         -2   -1    0    0    0  501 -0.00000000000E+00  0.00000000000E+00  0.84531799592E+03  0.84531799592E+03  0.00000000000E+00 0.  1.
          2   -1    0    0  501    0  0.00000000000E+00 -0.00000000000E+00 -0.23347944406E+04  0.23347944406E+04  0.00000000000E+00 0. -1.
    9900016    2    1    2    0    0 -0.21380673591E+03 -0.40703791177E+03 -0.10035252857E+04  0.25111268531E+04  0.22555047975E+04 0.  0.
        -24    2    3    3    0    0 -0.16409958388E+03 -0.39747670206E+03 -0.43596103266E+03  0.61757561620E+03  0.80132500392E+02 0.  0.
        -15    1    3    3    0    0  0.60955428558E+03 -0.20123478955E+03 -0.33310275214E+03  0.72319382677E+03  0.00000000000E+00 0.  1.
        -15    1    3    3    0    0 -0.63100749978E+03  0.38327026190E+03  0.44142491102E+02  0.73960470385E+03  0.00000000000E+00 0.  1.
         15    1    4    4    0    0 -0.25190403038E+02 -0.13304998771E+03 -0.17243355819E+03  0.21924914509E+03  0.00000000000E+00 0. -1.
         15    1    3    3    0    0  0.39421597378E+02 -0.18359829152E+03 -0.25125719133E+03  0.31367590151E+03  0.00000000000E+00 0. -1.
        -16    1    4    4    0    0 -0.13890918084E+03 -0.26442671435E+03 -0.26352747447E+03  0.39832647111E+03  0.00000000000E+00 0.  1.
         16    1    1    2    0    0  0.21380673591E+03  0.40703791177E+03 -0.48595115898E+03  0.66898558344E+03  0.00000000000E+00 0. -1.
    9900018    1    3    3    0    0 -0.67675535204E+02 -0.79983905388E+01 -0.27346800719E+02  0.11707680479E+03  0.91187600000E+02 0.  0.
<mgrwt>
<rscale>  0 0.28097286E+04</rscale>
<asrwt>0</asrwt>
<pdfrwt beam="1">  1        2 0.35919914E+00 0.28097286E+04</pdfrwt>
<pdfrwt beam="2">  1       -2 0.13004892E+00 0.28097286E+04</pdfrwt>
<totfact> 0.16339098E+00</totfact>
</mgrwt>
</event>
<event>
11    1  0.3219869E-012  0.2532759E+04  0.7818608E-02  0.8391407E-01
         -1   -1    0    0    0  501 -0.00000000000E+00  0.00000000000E+00  0.14452756402E+04  0.14452756402E+04  0.00000000000E+00 0.  1.
          1   -1    0    0  501    0  0.00000000000E+00 -0.00000000000E+00 -0.11096269702E+04  0.11096269702E+04  0.00000000000E+00 0. -1.
    9900016    2    1    2    0    0  0.10562865580E+03 -0.24014510780E+03  0.27431712393E+03  0.22854798120E+04  0.22537393374E+04 0.  0.
        -24    2    3    3    0    0  0.45056316144E+03 -0.36845820760E+03  0.51389098823E+03  0.78053489620E+03  0.79888442279E+02 0.  0.
        -15    1    3    3    0    0 -0.16030744416E+03  0.10194988772E+03 -0.14745791308E+03  0.24049135616E+03  0.00000000000E+00 0.  1.
        -15    1    3    3    0    0 -0.34786685905E+03 -0.33391316852E+03  0.28343815386E+03  0.55932686580E+03  0.00000000000E+00 0.  1.
         15    1    3    3    0    0  0.18976876209E+03  0.34182352057E+03 -0.44021314278E+03  0.58876405576E+03  0.00000000000E+00 0. -1.
         15    1    4    4    0    0  0.15365798466E+03 -0.12273961664E+03  0.22533117442E+03  0.29908180805E+03  0.00000000000E+00 0. -1.
        -16    1    4    4    0    0  0.29690517678E+03 -0.24571859096E+03  0.28855981381E+03  0.48145308815E+03  0.00000000000E+00 0.  1.
         16    1    1    2    0    0 -0.10562865580E+03  0.24014510780E+03  0.61331546142E+02  0.26942279836E+03  0.00000000000E+00 0. -1.
    9900018    1    3    3    0    0 -0.26528964521E+02  0.18452860023E+02  0.64659037697E+02  0.11636263812E+03  0.91187600000E+02 0.  0.
<mgrwt>
<rscale>  0 0.25327588E+04</rscale>
<asrwt>0</asrwt>
<pdfrwt beam="1">  1        1 0.17071184E+00 0.25327588E+04</pdfrwt>
<pdfrwt beam="2">  1       -1 0.22235010E+00 0.25327588E+04</pdfrwt>
<totfact> 0.11723457E+00</totfact>
</mgrwt>
</event>
<event>
11    1  0.3219869E-012  0.4717293E+04  0.7818608E-02  0.7873662E-01
          1   -1    0    0  501    0  0.00000000000E+00  0.00000000000E+00  0.22358008206E+04  0.22358008206E+04  0.00000000000E+00 0. -1.
         -1   -1    0    0    0  501 -0.00000000000E+00 -0.00000000000E+00 -0.24882415097E+04  0.24882415097E+04  0.00000000000E+00 0.  1.
    9900016    2    1    2    0    0 -0.55580708937E+03 -0.23502077240E+03 -0.17407245842E+04  0.28345194482E+04  0.21541174852E+04 0.  0.
        -24    2    3    3    0    0 -0.17612745045E+03 -0.30787523405E+03  0.61170415007E+02  0.36886752335E+03  0.80705585746E+02 0.  0.
        -15    1    3    3    0    0  0.12274372306E+03  0.33386044586E+03  0.24879485927E+02  0.35657791250E+03  0.00000000000E+00 0.  1.
        -15    1    3    3    0    0 -0.90753281045E+02  0.20447011649E+03 -0.12207722845E+04  0.12410999787E+04  0.00000000000E+00 0.  1.
         15    1    3    3    0    0 -0.41167008093E+03 -0.46547610070E+03 -0.60600220063E+03  0.86797403362E+03  0.00000000000E+00 0. -1.
         15    1    4    4    0    0 -0.15395691139E+03 -0.22030063163E+03  0.19760452812E+02  0.26949132520E+03  0.00000000000E+00 0. -1.
        -16    1    4    4    0    0 -0.22170539060E+02 -0.87574602417E+02  0.41409962196E+02  0.99376198155E+02  0.00000000000E+00 0.  1.
         16    1    1    2    0    0  0.58356620150E+03  0.21541476810E+03  0.16144741381E+04  0.17301675573E+04  0.00000000000E+00 0. -1.
    9900018    1    1    2    0    0 -0.27759112127E+02  0.19606004293E+02 -0.12619024300E+03  0.15935532477E+03  0.91187600000E+02 0.  0.
<mgrwt>
<rscale>  0 0.47172926E+04</rscale>
<asrwt>0</asrwt>
<pdfrwt beam="1">  1        1 0.34396936E+00 0.47172926E+04</pdfrwt>
<pdfrwt beam="2">  1       -1 0.38280638E+00 0.47172926E+04</pdfrwt>
<totfact> 0.14239837E-02</totfact>
</mgrwt>
</event>
