<event>
12    1  0.1192061E-017  0.6653609E+04  0.7818608E-02  0.8182346E-01
         -2   -1    0    0    0  501 -0.00000000000E+00  0.00000000000E+00  0.34719026464E+04  0.34719026464E+04  0.00000000000E+00 0.  1.
          2   -1    0    0  501    0  0.00000000000E+00 -0.00000000000E+00 -0.37628074710E+04  0.37628074710E+04  0.00000000000E+00 0. -1.
         23    2    1    2    0    0 -0.31877370193E+03 -0.14808424154E+03 -0.44809500590E+03  0.57924470914E+03  0.10578129851E+03 0.  0.
    9900016    2    1    2    0    0 -0.66233452666E+03  0.23115590055E+04 -0.12892319686E+04  0.34729977183E+04  0.21488606333E+04 0.  0.
         24    2    4    4    0    0  0.63777329423E+03  0.28083402606E+03  0.65830840211E+02  0.70707662325E+03  0.10000563284E+03 0.  0.
        -15    1    5    5    0    0  0.60803148879E+03  0.28516591040E+03  0.50875874483E+02  0.67350593347E+03  0.00000000000E+00 0.  1.
        -15    1    3    3    0    0 -0.15272761992E+03 -0.80812159765E+02 -0.30257085411E+03  0.34843285266E+03  0.00000000000E+00 0.  1.
         15    1    3    3    0    0 -0.16604608202E+03 -0.67272081778E+02 -0.14552415179E+03  0.23081185649E+03  0.00000000000E+00 0. -1.
         15    1    4    4    0    0 -0.13001078209E+04  0.20307249795E+04 -0.13550628088E+04  0.27659210950E+04  0.00000000000E+00 0. -1.
        -16    1    1    2    0    0  0.10508207353E+04 -0.22873205677E+04  0.15758256381E+04  0.29697282769E+04  0.00000000000E+00 0.  1.
         16    1    5    5    0    0  0.29741805438E+02 -0.43318843336E+01  0.14954965728E+02  0.33570689783E+02  0.00000000000E+00 0. -1.
    9900018    1    1    2    0    0 -0.69712506756E+02  0.12384580371E+03 -0.12940348820E+03  0.21273941301E+03  0.91187600000E+02 0.  0.
<mgrwt>
<rscale>  0 0.32246169E+04</rscale>
<asrwt>0</asrwt>
<pdfrwt beam="1">  1        2 0.57889346E+00 0.66536089E+04</pdfrwt>
<pdfrwt beam="2">  1       -2 0.53413887E+00 0.66536089E+04</pdfrwt>
<totfact> 0.34652507E-04</totfact>
</mgrwt>
</event>
<event>
12    1  0.1192061E-017  0.3885338E+04  0.7818608E-02  0.8028086E-01
          1   -1    0    0  501    0  0.00000000000E+00  0.00000000000E+00  0.13256407471E+04  0.13256407471E+04  0.00000000000E+00 0. -1.
         -1   -1    0    0    0  501 -0.00000000000E+00 -0.00000000000E+00 -0.28468964985E+04  0.28468964985E+04  0.00000000000E+00 0.  1.
         23    2    1    2    0    0  0.43362658024E+03  0.12167206800E+03  0.36742218603E+03  0.59144835131E+03  0.10943484939E+03 0.  0.
    9900016    2    1    2    0    0 -0.86562455109E+03 -0.92900382473E+02 -0.19694876718E+04  0.30357923474E+04  0.21399105455E+04 0.  0.
        -24    2    4    4    0    0 -0.33750797813E+03  0.91842036355E+03 -0.32295265407E+03  0.10326063025E+04  0.67599997441E+02 0.  0.
        -15    1    3    3    0    0  0.11110842703E+03  0.15401320685E+02  0.15346637068E+03  0.19009000543E+03  0.00000000000E+00 0.  1.
        -15    1    4    4    0    0 -0.52811657296E+03 -0.10113207460E+04 -0.16465350177E+04  0.20031860449E+04  0.00000000000E+00 0.  1.
         15    1    3    3    0    0  0.32251815321E+03  0.10627074732E+03  0.21395581536E+03  0.40135834588E+03  0.00000000000E+00 0. -1.
         15    1    5    5    0    0 -0.18367223721E+03  0.47000926045E+03 -0.20037836304E+03  0.54295090386E+03  0.00000000000E+00 0. -1.
        -16    1    5    5    0    0 -0.15383574093E+03  0.44841110310E+03 -0.12257429102E+03  0.48965539861E+03  0.00000000000E+00 0.  1.
         16    1    1    2    0    0  0.43713856662E+03  0.42266406283E+01  0.94412143021E+02  0.44723779320E+03  0.00000000000E+00 0. -1.
    9900018    1    1    2    0    0 -0.51405957623E+01 -0.32998326160E+02 -0.13602408687E+02  0.98058753663E+02  0.91187600000E+02 0.  0.
<mgrwt>
<rscale>  0 0.38853376E+04</rscale>
<asrwt>0</asrwt>
<pdfrwt beam="1">  1        1 0.20394473E+00 0.38853376E+04</pdfrwt>
<pdfrwt beam="2">  1       -1 0.43798408E+00 0.38853376E+04</pdfrwt>
<totfact> 0.26822816E-02</totfact>
</mgrwt>
</event>
<event>
11    1  0.1192061E-017  0.3039490E+04  0.7818608E-02  0.8232543E-01
         -1   -1    0    0    0  501 -0.00000000000E+00  0.00000000000E+00  0.15440274590E+04  0.15440274590E+04  0.00000000000E+00 0.  1.
          1   -1    0    0  501    0  0.00000000000E+00 -0.00000000000E+00 -0.14958447680E+04  0.14958447680E+04  0.00000000000E+00 0. -1.
         23    2    1    2    0    0  0.83003471188E+01 -0.85635260662E+02  0.17917731671E+03  0.22527946279E+03  0.10603787954E+03 0.  0.
    9900016    2    1    2    0    0 -0.77630572628E+02  0.14325802829E+03 -0.61537902290E+03  0.23218907166E+04  0.22329209099E+04 0.  0.
        -15    1    4    4    0    0  0.14682602073E+03 -0.44064655226E+03  0.21692316750E+03  0.51262357045E+03  0.00000000000E+00 0.  1.
        -15    1    3    3    0    0 -0.34562484102E+02 -0.71845279045E+02  0.15468590004E+03  0.17402309358E+03  0.00000000000E+00 0.  1.
         15    1    3    3    0    0  0.42862831221E+02 -0.13789981617E+02  0.24491416667E+02  0.51256369201E+02  0.00000000000E+00 0. -1.
         15    1    4    4    0    0 -0.25467315413E+03  0.86138462058E+03 -0.10047414202E+04  0.13477192592E+04  0.00000000000E+00 0. -1.
        -16    1    1    2    0    0  0.69330225509E+02 -0.57622767624E+02  0.48438439717E+03  0.49270204763E+03  0.00000000000E+00 0.  1.
         16    1    4    4    0    0  0.36883501374E+02 -0.27775116212E+03  0.22206432395E+03  0.35751736281E+03  0.00000000000E+00 0. -1.
    9900018    1    4    4    0    0 -0.66669406029E+01  0.27112209371E+00 -0.49625094114E+02  0.10403052419E+03  0.91187600000E+02 0.  0.
<mgrwt>
<rscale>  0 0.30394903E+04</rscale>
<asrwt>0</asrwt>
<pdfrwt beam="1">  1        1 0.23012996E+00 0.30394903E+04</pdfrwt>
<pdfrwt beam="2">  1       -1 0.23754269E+00 0.30394903E+04</pdfrwt>
<totfact> 0.47003615E-01</totfact>
</mgrwt>
</event>
<event>
12    1  0.1192061E-017  0.2968241E+04  0.7818608E-02  0.8252859E-01
          1   -1    0    0  501    0  0.00000000000E+00  0.00000000000E+00  0.21072933837E+04  0.21072933837E+04  0.00000000000E+00 0. -1.
         -1   -1    0    0    0  501 -0.00000000000E+00 -0.00000000000E+00 -0.10452333168E+04  0.10452333168E+04  0.00000000000E+00 0.  1.
         23    2    1    2    0    0  0.38957009373E+03 -0.29134218847E+03 -0.22023587746E+02  0.49842241615E+03  0.10627670388E+03 0.  0.
    9900016    2    1    2    0    0 -0.33465189639E+03  0.36651881817E+03  0.10696037167E+04  0.24493489042E+04  0.21468418684E+04 0.  0.
         24    2    4    4    0    0 -0.24532644499E+03 -0.94135897105E+02 -0.62781539962E+03  0.68826586829E+03  0.10252364466E+03 0.  0.
        -15    1    3    3    0    0  0.10886508667E+03 -0.14001661346E+03 -0.27504971920E+02  0.17947919829E+03  0.00000000000E+00 0. -1.
        -15    1    5    5    0    0 -0.80315991452E+02 -0.23511233116E+02 -0.33086833098E+03  0.34128769244E+03  0.00000000000E+00 0.  1.
         15    1    3    3    0    0  0.28070500706E+03 -0.15132557502E+03  0.54813841745E+01  0.31894321786E+03  0.00000000000E+00 0.  1.
         15    1    4    4    0    0 -0.89325451404E+02  0.46065471528E+03  0.16974191163E+04  0.17610830359E+04  0.00000000000E+00 0. -1.
        -16    1    1    2    0    0 -0.25722837129E+01 -0.48952557665E+02 -0.56815850888E+02  0.75040059019E+02  0.00000000000E+00 0.  1.
         16    1    5    5    0    0 -0.16501045353E+03 -0.70624663989E+02 -0.29694706864E+03  0.34697817584E+03  0.00000000000E+00 0. -1.
    9900018    1    1    2    0    0 -0.52345913625E+02 -0.26224072036E+02  0.71295788867E+02  0.12971532111E+03  0.91187600000E+02 0.  0.
<mgrwt>
<rscale>  0 0.29682407E+04</rscale>
<asrwt>0</asrwt>
<pdfrwt beam="1">  1        1 0.32419898E+00 0.29682407E+04</pdfrwt>
<pdfrwt beam="2">  1       -1 0.16080513E+00 0.29682407E+04</pdfrwt>
<totfact> 0.61951593E-01</totfact>
</mgrwt>
</event>
<event>
11    1  0.1192061E-017  0.2459211E+04  0.7818608E-02  0.8995347E-01
          2   -1    0    0  501    0  0.00000000000E+00  0.00000000000E+00  0.55679192146E+04  0.55679192146E+04  0.00000000000E+00 0. -1.
         -2   -1    0    0    0  501 -0.00000000000E+00 -0.00000000000E+00 -0.37557092781E+03  0.37557092781E+03  0.00000000000E+00 0.  1.
         23    2    1    2    0    0  0.18999732503E+03  0.27893654890E+02  0.25048522338E+02  0.22084163399E+03  0.10614404990E+03 0.  0.
    9900016    2    1    2    0    0 -0.62373681448E+02  0.76676301976E+02  0.50223889893E+04  0.55030538750E+04  0.22470961394E+04 0.  0.
        -15    1    3    3    0    0  0.76597356257E+02 -0.39445168837E+02 -0.21307119728E+01  0.86183619462E+02  0.00000000000E+00 0.  1.
        -15    1    4    4    0    0 -0.58505986750E+03  0.93742718225E+03  0.24461829387E+04  0.26841899598E+04  0.00000000000E+00 0.  1.
         15    1    3    3    0    0  0.11339996878E+03  0.67338823726E+02  0.27179234311E+02  0.13465801453E+03  0.00000000000E+00 0. -1.
         15    1    4    4    0    0  0.26316907101E+03 -0.26500097618E+03  0.92753069071E+03  0.99989832459E+03  0.00000000000E+00 0. -1.
        -16    1    4    4    0    0  0.29700042799E+03 -0.58620386110E+03  0.13023360004E+04  0.14587403055E+04  0.00000000000E+00 0.  1.
         16    1    1    2    0    0 -0.12762364359E+03 -0.10456995687E+03  0.14491077513E+03  0.21959463343E+03  0.00000000000E+00 0. -1.
    9900018    1    4    4    0    0 -0.37483312942E+02 -0.95460429908E+01  0.34633935950E+03  0.36022528510E+03  0.91187600000E+02 0.  0.
<mgrwt>
<rscale>  0 0.13440461E+04</rscale>
<asrwt>0</asrwt>
<pdfrwt beam="1">  1        2 0.85660290E+00 0.24592111E+04</pdfrwt>
<pdfrwt beam="2">  1       -2 0.57780147E-01 0.24592111E+04</pdfrwt>
<totfact> 0.11266646E-02</totfact>
</mgrwt>
</event>
<event>
11    1  0.1192061E-017  0.3129462E+04  0.7818608E-02  0.8904984E-01
          2   -1    0    0  501    0  0.00000000000E+00  0.00000000000E+00  0.18865311874E+04  0.18865311874E+04  0.00000000000E+00 0. -1.
         -2   -1    0    0    0  501 -0.00000000000E+00 -0.00000000000E+00 -0.15043013480E+04  0.15043013480E+04  0.00000000000E+00 0.  1.
    9900016    2    1    2    0    0 -0.12055859960E+03  0.73549369196E+03  0.48731961873E+03  0.24152724571E+04  0.22451225545E+04 0.  0.
        -24    2    3    3    0    0 -0.92122727769E+03 -0.25959482198E+03  0.32869928571E+03  0.10141621038E+04  0.66576148290E+02 0.  0.
        -15    1    3    3    0    0  0.85165962688E+03  0.95175427827E+03  0.12586283027E+03  0.12833556710E+04  0.00000000000E+00 0.  1.
        -15    1    1    2    0    0  0.79803479889E+02  0.65112610814E+02 -0.10388155686E+03  0.14628610784E+03  0.00000000000E+00 0.  1.
         15    1    1    2    0    0 -0.19991680547E+02 -0.44908553307E+02 -0.49293320117E+02  0.69615205662E+02  0.00000000000E+00 0. -1.
         15    1    4    4    0    0 -0.40472940949E+03 -0.11450545727E+03  0.17947494212E+03  0.45730585990E+03  0.00000000000E+00 0. -1.
        -16    1    4    4    0    0 -0.51649786821E+03 -0.14508936470E+03  0.14922434359E+03  0.55685624387E+03  0.00000000000E+00 0.  1.
         16    1    1    2    0    0  0.60746800256E+02 -0.75569774947E+03  0.48085097592E+02  0.75965876478E+03  0.00000000000E+00 0. -1.
    9900018    1    3    3    0    0 -0.50990948788E+02  0.43334235671E+02  0.32757502752E+02  0.11775468237E+03  0.91187600000E+02 0.  0.
<mgrwt>
<rscale>  0 0.14695117E+04</rscale>
<asrwt>0</asrwt>
<pdfrwt beam="1">  1        2 0.29023557E+00 0.31294616E+04</pdfrwt>
<pdfrwt beam="2">  1       -2 0.23143098E+00 0.31294616E+04</pdfrwt>
<totfact> 0.54327573E-01</totfact>
</mgrwt>
</event>
