<event>
13    1  0.7348653E-010  0.4202156E+04  0.7818608E-02  0.7964962E-01
          2   -1    0    0  501    0  0.00000000000E+00  0.00000000000E+00  0.28007627094E+04  0.28007627094E+04  0.00000000000E+00 0. -1.
         -2   -1    0    0    0  501 -0.00000000000E+00 -0.00000000000E+00 -0.15761883905E+04  0.15761883905E+04  0.00000000000E+00 0.  1.
    9900016    2    1    2    0    0  0.81217925750E+03  0.22423628118E+03 -0.15183993335E+03  0.19268424617E+04  0.17261950790E+04 0.  0.
         23    2    3    3    0    0  0.29771125397E+03 -0.20890421583E+03  0.72688925793E+03  0.82029241381E+03  0.11062860717E+03 0.  0.
    9900016    2    1    2    0    0 -0.81217925750E+03 -0.22423628118E+03  0.13764142523E+04  0.24501086382E+04  0.18435289770E+04 0.  0.
         24    2    5    5    0    0 -0.39712463342E+03 -0.33018604457E+03  0.17753234515E+04  0.18506441836E+04  0.79873265757E+02 0.  0.
        -15    1    4    4    0    0  0.12578260559E+03 -0.44409585838E+02  0.35020143627E+03  0.37474594214E+03  0.00000000000E+00 0. -1.
        -15    1    6    6    0    0 -0.13424644972E+03 -0.15463760141E+03  0.77237443893E+03  0.79906017980E+03  0.00000000000E+00 0.  1.
         15    1    5    5    0    0 -0.21108495100E+03  0.58737600859E+02 -0.19380165677E+03  0.29251674219E+03  0.00000000000E+00 0. -1.
         15    1    4    4    0    0  0.17192864838E+03 -0.16449462999E+03  0.37668782166E+03  0.44554647167E+03  0.00000000000E+00 0.  1.
        -16    1    3    3    0    0  0.51446800353E+03  0.43314049701E+03 -0.87872919128E+03  0.11065500479E+04  0.00000000000E+00 0.  1.
         16    1    6    6    0    0 -0.26287818370E+03 -0.17554844316E+03  0.10029490125E+04  0.10515840038E+04  0.00000000000E+00 0. -1.
    9900018    1    5    5    0    0 -0.20396967308E+03  0.47212162532E+02 -0.20510754239E+03  0.30694771243E+03  0.91187600000E+02 0.  0.
<mgrwt>
<rscale>  0 0.42021564E+04</rscale>
<asrwt>0</asrwt>
<pdfrwt beam="1">  1        2 0.43088657E+00 0.42021564E+04</pdfrwt>
<pdfrwt beam="2">  1       -2 0.24249052E+00 0.42021564E+04</pdfrwt>
<totfact> 0.12814160E-01</totfact>
</mgrwt>
</event>
<event>
13    1  0.7348653E-010  0.5002217E+04  0.7818608E-02  0.7828165E-01
         -2   -1    0    0    0  501 -0.00000000000E+00  0.00000000000E+00  0.21852976060E+04  0.21852976060E+04  0.00000000000E+00 0.  1.
          2   -1    0    0  501    0  0.00000000000E+00 -0.00000000000E+00 -0.28625591623E+04  0.28625591623E+04  0.00000000000E+00 0. -1.
    9900016    2    1    2    0    0  0.84864211459E+03  0.65273046775E+03  0.87742266190E+03  0.24049694513E+04  0.19666613923E+04 0.  0.
         23    2    3    3    0    0  0.24417989717E+03 -0.16652746552E+03 -0.55901395058E+03  0.64431381344E+03  0.12364657010E+03 0.  0.
    9900016    2    1    2    0    0 -0.84864211459E+03 -0.65273046775E+03 -0.15546842183E+04  0.26428873170E+04  0.18497458878E+04 0.  0.
         24    2    5    5    0    0  0.49537312080E+03 -0.47698830976E+03 -0.39617832579E+03  0.79767384466E+03  0.80086953780E+02 0.  0.
        -15    1    4    4    0    0  0.11577799310E+03 -0.42419594806E+02 -0.12780251758E+03  0.17758786335E+03  0.00000000000E+00 0. -1.
        -15    1    6    6    0    0  0.39332822358E+03 -0.33113007309E+03 -0.30195559159E+03  0.59626453531E+03  0.00000000000E+00 0.  1.
         15    1    5    5    0    0 -0.12064788726E+04 -0.13113346171E+03 -0.11533133834E+04  0.16741920485E+04  0.00000000000E+00 0. -1.
         15    1    4    4    0    0  0.12840190407E+03 -0.12410787071E+03 -0.43121143300E+03  0.46672595009E+03  0.00000000000E+00 0.  1.
        -16    1    3    3    0    0  0.60446221743E+03  0.81925793327E+03  0.14364366125E+04  0.17606556379E+04  0.00000000000E+00 0.  1.
         16    1    6    6    0    0  0.10204489721E+03 -0.14585823668E+03 -0.94222734192E+02  0.20140930935E+03  0.00000000000E+00 0. -1.
    9900018    1    5    5    0    0 -0.13753636278E+03 -0.44608696279E+02 -0.51925091183E+01  0.17102142385E+03  0.91187600000E+02 0.  0.
<mgrwt>
<rscale>  0 0.50022170E+04</rscale>
<asrwt>0</asrwt>
<pdfrwt beam="1">  1        2 0.44039372E+00 0.50022170E+04</pdfrwt>
<pdfrwt beam="2">  1       -2 0.33619963E+00 0.50022170E+04</pdfrwt>
<totfact> 0.29276831E-02</totfact>
</mgrwt>
</event>
<event>
12    1  0.7348653E-010  0.4673237E+04  0.7818608E-02  0.7880991E-01
          2   -1    0    0  501    0  0.00000000000E+00  0.00000000000E+00  0.48506217679E+04  0.48506217679E+04  0.00000000000E+00 0. -1.
         -2   -1    0    0    0  501 -0.00000000000E+00 -0.00000000000E+00 -0.11255845704E+04  0.11255845704E+04  0.00000000000E+00 0.  1.
         23    2    1    2    0    0 -0.15924200928E+03 -0.54491756160E+03  0.15070837626E+04  0.16142762179E+04  0.11087413515E+03 0.  0.
    9900016    2    1    2    0    0 -0.26726998429E+02  0.62738153341E+03  0.29875870756E+04  0.35658643447E+04  0.18426584246E+04 0.  0.
         24    2    4    4    0    0  0.46359658220E+03  0.49635208314E+03  0.30901626472E+03  0.75064128356E+03  0.81756365208E+02 0.  0.
        -15    1    5    5    0    0  0.25494583650E+03  0.24169236048E+03  0.12123995822E+03  0.37163383072E+03  0.00000000000E+00 0.  1.
        -15    1    3    3    0    0 -0.99581877745E+02 -0.36509510105E+03  0.85026224385E+03  0.93067548936E+03  0.00000000000E+00 0. -1.
         15    1    4    4    0    0 -0.58411906558E+03 -0.10637869305E+03  0.19179455605E+04  0.20077416871E+04  0.00000000000E+00 0. -1.
         15    1    3    3    0    0 -0.59660131535E+02 -0.17982246055E+03  0.65682151873E+03  0.68360072856E+03  0.00000000000E+00 0.  1.
        -16    1    1    2    0    0  0.18596900771E+03 -0.82463971813E+02 -0.76963364062E+03  0.79606577570E+03  0.00000000000E+00 0.  1.
         16    1    5    5    0    0  0.20865074570E+03  0.25465972266E+03  0.18777630649E+03  0.37900745284E+03  0.00000000000E+00 0. -1.
    9900018    1    4    4    0    0  0.93795484949E+02  0.23740814332E+03  0.76062525033E+03  0.80748137399E+03  0.91187600000E+02 0.  0.
<mgrwt>
<rscale>  0 0.46732366E+04</rscale>
<asrwt>0</asrwt>
<pdfrwt beam="1">  1        2 0.74624949E+00 0.46732366E+04</pdfrwt>
<pdfrwt beam="2">  1       -2 0.17316686E+00 0.46732366E+04</pdfrwt>
<totfact> 0.77698007E-03</totfact>
</mgrwt>
</event>
<event>
13    1  0.7348653E-010  0.4800775E+04  0.7818608E-02  0.7859997E-01
          3   -1    0    0  501    0  0.00000000000E+00  0.00000000000E+00  0.13345624209E+04  0.13345624209E+04  0.00000000000E+00 0. -1.
         -3   -1    0    0    0  501 -0.00000000000E+00 -0.00000000000E+00 -0.43174148470E+04  0.43174148470E+04  0.00000000000E+00 0.  1.
    9900016    2    1    2    0    0  0.14683000159E+04 -0.12080813973E+03 -0.20999666477E+04  0.31192120380E+04  0.17745772096E+04 0.  0.
         23    2    3    3    0    0 -0.13917012375E+03  0.15238394486E+03  0.20193999309E+03  0.29833126277E+03  0.75050593197E+02 0.  0.
    9900016    2    1    2    0    0 -0.14683000159E+04  0.12080813973E+03 -0.88288577834E+03  0.25327652300E+04  0.18614276428E+04 0.  0.
         24    2    5    5    0    0  0.23744113437E+03  0.30985895146E+03 -0.18204484300E+03  0.43792519615E+03  0.79039803063E+02 0.  0.
        -15    1    6    6    0    0  0.10739155987E+03  0.10879166115E+03 -0.34674899636E+02  0.15675114459E+03  0.00000000000E+00 0.  1.
        -15    1    4    4    0    0 -0.12524452077E+03  0.88106536767E+02  0.13012867009E+03  0.20095378220E+03  0.00000000000E+00 0. -1.
         15    1    5    5    0    0 -0.13879948924E+03 -0.16087649085E+03  0.19412513839E+03  0.28780394869E+03  0.00000000000E+00 0. -1.
         15    1    4    4    0    0 -0.13925602987E+02  0.64277408098E+02  0.71811323000E+02  0.97377480566E+02  0.00000000000E+00 0.  1.
        -16    1    3    3    0    0  0.16074701397E+04 -0.27319208459E+03 -0.23019066408E+04  0.28208807752E+04  0.00000000000E+00 0.  1.
         16    1    6    6    0    0  0.13004957450E+03  0.20106729031E+03 -0.14736994337E+03  0.28117405156E+03  0.00000000000E+00 0. -1.
    9900018    1    5    5    0    0 -0.15669416610E+04 -0.28174320880E+02 -0.89496607373E+03  0.18070360851E+04  0.91187600000E+02 0.  0.
<mgrwt>
<rscale>  0 0.48007748E+04</rscale>
<asrwt>0</asrwt>
<pdfrwt beam="1">  1        3 0.20531729E+00 0.48007748E+04</pdfrwt>
<pdfrwt beam="2">  1       -3 0.66421768E+00 0.48007748E+04</pdfrwt>
<totfact> 0.10215521E-04</totfact>
</mgrwt>
</event>
