<event>
13    1  0.1259891E-011  0.5320313E+04  0.7818608E-02  0.7780910E-01
         -2   -1    0    0    0  501 -0.00000000000E+00  0.00000000000E+00  0.17293791780E+04  0.17293791780E+04  0.00000000000E+00 0.  1.
          2   -1    0    0  501    0  0.00000000000E+00 -0.00000000000E+00 -0.40918914762E+04  0.40918914762E+04  0.00000000000E+00 0. -1.
    9900016    2    1    2    0    0  0.14071438410E+04  0.28177749686E+03 -0.93402947932E+03  0.27886988001E+04  0.22011309780E+04 0.  0.
         23    2    3    3    0    0 -0.51931257406E+03  0.44998013248E+03 -0.21772204999E+03  0.72650996801E+03  0.90808443217E+02 0.  0.
    9900016    2    1    2    0    0 -0.13225383635E+04 -0.27651111185E+03 -0.13933241413E+04  0.29031997836E+04  0.21590856173E+04 0.  0.
        -24    2    5    5    0    0  0.31731422891E+03  0.35308210181E+01 -0.11816158448E+04  0.12261904181E+04  0.81401168936E+02 0.  0.
        -15    1    5    5    0    0 -0.16398525925E+04 -0.28004193287E+03 -0.21170829654E+03  0.16770093655E+04  0.00000000000E+00 0.  1.
        -15    1    4    4    0    0 -0.19653967869E+02  0.12527492563E+02  0.86970055219E+01  0.24876784920E+02  0.00000000000E+00 0. -1.
         15    1    4    4    0    0 -0.49965860619E+03  0.43745263992E+03 -0.22641905551E+03  0.70163318309E+03  0.00000000000E+00 0.  1.
         15    1    6    6    0    0  0.14709635383E+03  0.18561403264E+02 -0.68921225671E+03  0.70497900522E+03  0.00000000000E+00 0. -1.
        -16    1    6    6    0    0  0.17021787509E+03 -0.15030582246E+02 -0.49240358806E+03  0.52121141290E+03  0.00000000000E+00 0.  1.
         16    1    3    3    0    0  0.19264564151E+04 -0.16820263562E+03 -0.71630742933E+03  0.20621888321E+04  0.00000000000E+00 0. -1.
    9900018    1    1    2    0    0 -0.84605477456E+02 -0.52663850128E+01 -0.35158677567E+02  0.12937207051E+03  0.91187600000E+02 0.  0.
<mgrwt>
<rscale>  0 0.53203127E+04</rscale>
<asrwt>0</asrwt>
<pdfrwt beam="1">  1        2 0.62952177E+00 0.53203127E+04</pdfrwt>
<pdfrwt beam="2">  1       -2 0.26605833E+00 0.53203127E+04</pdfrwt>
<totfact> 0.10393602E-02</totfact>
</mgrwt>
</event>
<event>
13    1  0.1259891E-011  0.6147135E+04  0.7818608E-02  0.7672422E-01
          1   -1    0    0  501    0  0.00000000000E+00  0.00000000000E+00  0.27608368992E+04  0.27608368992E+04  0.00000000000E+00 0. -1.
         -1   -1    0    0    0  501 -0.00000000000E+00 -0.00000000000E+00 -0.34217225240E+04  0.34217225240E+04  0.00000000000E+00 0.  1.
    9900016    2    1    2    0    0 -0.19282097844E+04  0.91838374735E+03 -0.50888421233E+03  0.30791779734E+04  0.21589238454E+04 0.  0.
         23    2    3    3    0    0  0.28896213223E+03 -0.74723339688E+02 -0.56911733227E+03  0.64900492956E+03  0.90720280800E+02 0.  0.
    9900016    2    1    2    0    0  0.19282097844E+04 -0.91838374735E+03 -0.15200141241E+03  0.31033814499E+04  0.22464305718E+04 0.  0.
         24    2    5    5    0    0 -0.49343469578E+03 -0.84167021557E+02 -0.16008778543E+02  0.50724553273E+03  0.80497596054E+02 0.  0.
        -15    1    4    4    0    0  0.10052781073E+03 -0.57752277393E+02 -0.28477267567E+03  0.30746811718E+03  0.00000000000E+00 0. -1.
        -15    1    6    6    0    0 -0.76296389484E+02 -0.14731811664E+02  0.26821344799E+02  0.82204317770E+02  0.00000000000E+00 0.  1.
         15    1    5    5    0    0  0.22985215165E+04 -0.79744549950E+03 -0.10269006299E+03  0.24350904984E+04  0.00000000000E+00 0. -1.
         15    1    4    4    0    0  0.18843432150E+03 -0.16971062295E+02 -0.28434465660E+03  0.34153681239E+03  0.00000000000E+00 0.  1.
        -16    1    3    3    0    0 -0.22171719166E+04  0.99310708704E+03  0.60233119942E+02  0.24301730438E+04  0.00000000000E+00 0.  1.
         16    1    6    6    0    0 -0.41713830630E+03 -0.69435209893E+02 -0.42830123342E+02  0.42504121496E+03  0.00000000000E+00 0. -1.
    9900018    1    5    5    0    0  0.12312296368E+03 -0.36771226295E+02 -0.33302570875E+02  0.16104541872E+03  0.91187600000E+02 0.  0.
<mgrwt>
<rscale>  0 0.61471352E+04</rscale>
<asrwt>0</asrwt>
<pdfrwt beam="1">  1        1 0.42474414E+00 0.61471352E+04</pdfrwt>
<pdfrwt beam="2">  1       -1 0.52641885E+00 0.61471352E+04</pdfrwt>
<totfact> 0.60805978E-04</totfact>
</mgrwt>
</event>
<event>
13    1  0.1259891E-011  0.5114069E+04  0.7818608E-02  0.7811148E-01
         -1   -1    0    0    0  501 -0.00000000000E+00  0.00000000000E+00  0.17851114807E+04  0.17851114807E+04  0.00000000000E+00 0.  1.
          1   -1    0    0  501    0  0.00000000000E+00 -0.00000000000E+00 -0.36627547205E+04  0.36627547205E+04  0.00000000000E+00 0. -1.
    9900016    2    1    2    0    0  0.12324413582E+04 -0.30301287453E+03 -0.11164491391E+04  0.27597121768E+04  0.21814729233E+04 0.  0.
         23    2    3    3    0    0  0.70396781769E+02 -0.43425589754E+03  0.55860085458E+03  0.71683068000E+03  0.90980314471E+02 0.  0.
    9900016    2    1    2    0    0 -0.12324413582E+04  0.30301287453E+03 -0.76119410072E+03  0.26881540244E+04  0.22441094217E+04 0.  0.
        -24    2    5    5    0    0  0.13643561190E+03  0.11919626639E+03  0.64065248093E+03  0.67078117870E+03  0.81788521513E+02 0.  0.
        -15    1    4    4    0    0  0.44348682342E+01 -0.64256296406E+02  0.14097915890E+03  0.15499568681E+03  0.00000000000E+00 0.  1.
        -15    1    5    5    0    0 -0.12726800653E+04  0.15135715470E+03 -0.13723509773E+04  0.18777568378E+04  0.00000000000E+00 0.  1.
         15    1    4    4    0    0  0.65961913535E+02 -0.36999960113E+03  0.41762169568E+03  0.56183499319E+03  0.00000000000E+00 0. -1.
         15    1    6    6    0    0  0.10758231405E+03  0.41103856895E+02  0.35185336863E+03  0.37022192583E+03  0.00000000000E+00 0. -1.
        -16    1    6    6    0    0  0.28853297856E+02  0.78092409497E+02  0.28879911230E+03  0.30055925287E+03  0.00000000000E+00 0.  1.
         16    1    3    3    0    0  0.11620445764E+04  0.13124302301E+03 -0.16750499937E+04  0.20428814968E+04  0.00000000000E+00 0. -1.
    9900018    1    5    5    0    0 -0.96196904728E+02  0.32459453439E+02 -0.29495604396E+02  0.13961600793E+03  0.91187600000E+02 0.  0.
<mgrwt>
<rscale>  0 0.51140690E+04</rscale>
<asrwt>0</asrwt>
<pdfrwt beam="1">  1        1 0.56350072E+00 0.51140690E+04</pdfrwt>
<pdfrwt beam="2">  1       -1 0.27463254E+00 0.51140690E+04</pdfrwt>
<totfact> 0.63733580E-03</totfact>
</mgrwt>
</event>
<event>
13    1  0.1259891E-011  0.4836168E+04  0.7818608E-02  0.7854289E-01
         -2   -1    0    0    0  501 -0.00000000000E+00  0.00000000000E+00  0.22214209317E+04  0.22214209317E+04  0.00000000000E+00 0.  1.
          2   -1    0    0  501    0  0.00000000000E+00 -0.00000000000E+00 -0.26321577887E+04  0.26321577887E+04  0.00000000000E+00 0. -1.
    9900016    2    1    2    0    0  0.69945605825E+03  0.47125023051E+01 -0.83823939399E+03  0.24527249996E+04  0.21963500761E+04 0.  0.
         23    2    3    3    0    0 -0.62647672502E+03 -0.14199539647E+03  0.28482198536E+03  0.70891084229E+03  0.93782937514E+02 0.  0.
    9900016    2    1    2    0    0 -0.63028935020E+03 -0.21314431720E+01  0.38922078514E+03  0.22801418063E+04  0.21564518611E+04 0.  0.
        -24    2    5    5    0    0  0.66345130417E+02  0.28341897635E+03 -0.80972563768E+03  0.86440483694E+03  0.82535576134E+02 0.  0.
        -15    1    5    5    0    0 -0.69663448061E+03 -0.28555041952E+03  0.11989464228E+04  0.14157369694E+04  0.00000000000E+00 0.  1.
        -15    1    4    4    0    0 -0.61975240131E+03 -0.14948636067E+03  0.27337243782E+03  0.69366540977E+03  0.00000000000E+00 0. -1.
         15    1    4    4    0    0 -0.67243237157E+01  0.74909642003E+01  0.11449547539E+02  0.15245432527E+02  0.00000000000E+00 0.  1.
         15    1    6    6    0    0  0.41804814911E+02  0.26655223325E+03 -0.75967144609E+03  0.80616278853E+03  0.00000000000E+00 0. -1.
        -16    1    6    6    0    0  0.24540315505E+02  0.16866743099E+02 -0.50054191586E+02  0.58242048412E+02  0.00000000000E+00 0.  1.
         16    1    3    3    0    0  0.13259327833E+04  0.14670789877E+03 -0.11230613793E+04  0.17438141573E+04  0.00000000000E+00 0. -1.
    9900018    1    1    2    0    0 -0.69166708055E+02 -0.25810591330E+01  0.38281751853E+02  0.12071191444E+03  0.91187600000E+02 0.  0.
<mgrwt>
<rscale>  0 0.48361681E+04</rscale>
<asrwt>0</asrwt>
<pdfrwt beam="1">  1        2 0.40494735E+00 0.48361681E+04</pdfrwt>
<pdfrwt beam="2">  1       -2 0.34175707E+00 0.48361681E+04</pdfrwt>
<totfact> 0.37668402E-02</totfact>
</mgrwt>
</event>
<event>
13    1  0.1259891E-011  0.6699832E+04  0.7818608E-02  0.7609210E-01
          2   -1    0    0  501    0  0.00000000000E+00  0.00000000000E+00  0.37027649763E+04  0.37027649763E+04  0.00000000000E+00 0.  1.
         -2   -1    0    0    0  501 -0.00000000000E+00 -0.00000000000E+00 -0.30306914287E+04  0.30306914287E+04  0.00000000000E+00 0. -1.
    9900016    2    1    2    0    0  0.82523440305E+03 -0.10359687107E+04 -0.17978154485E+04  0.31340613390E+04  0.21990809672E+04 0.  0.
         23    2    3    3    0    0  0.63761944361E+02 -0.56788386058E+02  0.50376799094E+03  0.51950196077E+03  0.93859427868E+02 0.  0.
    9900016    2    1    2    0    0 -0.78405105684E+03  0.98716412634E+03  0.23713086379E+04  0.34506966435E+04  0.21667887753E+04 0.  0.
        -24    2    5    5    0    0 -0.17987951656E+03  0.20059579251E+03 -0.41069805948E+03  0.49717768156E+03  0.76924888862E+02 0.  0.
        -15    1    4    4    0    0  0.41231789759E+02 -0.79712438816E+02  0.42605169800E+03  0.43540117450E+03  0.00000000000E+00 0. -1.
        -15    1    5    5    0    0 -0.60417154028E+03  0.78656833383E+03  0.27820066974E+04  0.29535189619E+04  0.00000000000E+00 0.  1.
         15    1    6    6    0    0 -0.57422397787E+02  0.12061612662E+03 -0.20851916251E+03  0.24764051143E+03  0.00000000000E+00 0. -1.
         15    1    4    4    0    0  0.22530154602E+02  0.22924052758E+02  0.77716292944E+02  0.84100786264E+02  0.00000000000E+00 0.  1.
        -16    1    6    6    0    0 -0.12245711877E+03  0.79979665893E+02 -0.20217889697E+03  0.24953717012E+03  0.00000000000E+00 0.  1.
         16    1    3    3    0    0  0.76147245869E+03 -0.97918032459E+03 -0.23015834395E+04  0.26145593782E+04  0.00000000000E+00 0. -1.
    9900018    1    1    2    0    0 -0.41183346209E+02  0.48804584308E+02  0.98580358130E+02  0.14869842251E+03  0.91187600000E+02 0.  0.
<mgrwt>
<rscale>  0 0.66998323E+04</rscale>
<asrwt>0</asrwt>
<pdfrwt beam="1">  1        2 0.56965615E+00 0.66998323E+04</pdfrwt>
<pdfrwt beam="2">  1       -2 0.46626022E+00 0.66998323E+04</pdfrwt>
<totfact> 0.10100167E-03</totfact>
</mgrwt>
</event>
<event>
13    1  0.1259891E-011  0.5304473E+04  0.7818608E-02  0.7783182E-01
          2   -1    0    0  501    0  0.00000000000E+00  0.00000000000E+00  0.14540621785E+04  0.14540621785E+04  0.00000000000E+00 0.  1.
         -2   -1    0    0    0  501 -0.00000000000E+00 -0.00000000000E+00 -0.48377291351E+04  0.48377291351E+04  0.00000000000E+00 0. -1.
    9900016    2    1    2    0    0  0.13499925651E+04  0.39565558081E+03 -0.14632758532E+04  0.30238188122E+04  0.22412676596E+04 0.  0.
         23    2    3    3    0    0 -0.35272464802E+03 -0.26112802850E+03 -0.10643367057E+04  0.11557280594E+04  0.10145047888E+03 0.  0.
    9900016    2    1    2    0    0 -0.13499925651E+04 -0.39565558081E+03 -0.19203911034E+04  0.32679725014E+04  0.22389102294E+04 0.  0.
         24    2    5    5    0    0  0.31889603453E+03 -0.38211910675E+03 -0.13675680701E+04  0.14572728791E+04  0.75446173860E+02 0.  0.
        -15    1    6    6    0    0  0.13560089849E+03 -0.21345485443E+03 -0.63427646258E+03  0.68283029336E+03  0.00000000000E+00 0.  1.
        -15    1    4    4    0    0 -0.13243303819E+03 -0.16096671870E+03 -0.49401015979E+03  0.53618544564E+03  0.00000000000E+00 0.  1.
         15    1    5    5    0    0 -0.15782902353E+04  0.22908088875E+02 -0.44777685547E+03  0.16407403694E+04  0.00000000000E+00 0. -1.
         15    1    4    4    0    0 -0.22029160983E+03 -0.10016130981E+03 -0.57032654590E+03  0.61954261379E+03  0.00000000000E+00 0. -1.
        -16    1    3    3    0    0  0.17027172131E+04  0.65678360931E+03 -0.39893914754E+03  0.18680907528E+04  0.00000000000E+00 0.  1.
         16    1    6    6    0    0  0.18329513603E+03 -0.16866425232E+03 -0.73329160757E+03  0.77444258576E+03  0.00000000000E+00 0. -1.
    9900018    1    5    5    0    0 -0.90598364236E+02 -0.36444562933E+02 -0.10504617776E+03  0.16995925284E+03  0.91187600000E+02 0.  0.
<mgrwt>
<rscale>  0 0.53044732E+04</rscale>
<asrwt>0</asrwt>
<pdfrwt beam="1">  1        2 0.22370187E+00 0.53044732E+04</pdfrwt>
<pdfrwt beam="2">  1       -2 0.74426604E+00 0.53044732E+04</pdfrwt>
<totfact> 0.14688206E-03</totfact>
</mgrwt>
</event>
<event>
13    1  0.1259891E-011  0.4907671E+04  0.7818608E-02  0.7842910E-01
         -1   -1    0    0    0  501 -0.00000000000E+00  0.00000000000E+00  0.38016598491E+04  0.38016598491E+04  0.00000000000E+00 0.  1.
          1   -1    0    0  501    0  0.00000000000E+00 -0.00000000000E+00 -0.15838632278E+04  0.15838632278E+04  0.00000000000E+00 0. -1.
    9900016    2    1    2    0    0  0.33738839449E+03  0.92691498300E+03  0.14283334166E+04  0.28022687134E+04  0.21999025612E+04 0.  0.
         23    2    3    3    0    0  0.11794416222E+02 -0.71106737439E+03  0.25397573933E+03  0.76067286805E+03  0.91452812097E+02 0.  0.
    9900016    2    1    2    0    0 -0.33738839449E+03 -0.92691498300E+03  0.78946320475E+03  0.25832543635E+04  0.22532085213E+04 0.  0.
        -24    2    5    5    0    0  0.53637902951E+03  0.43403163051E+03 -0.18592249560E+02  0.69483378067E+03  0.79764600131E+02 0.  0.
        -15    1    4    4    0    0  0.26090703027E+02 -0.64834247503E+03  0.25266847133E+03  0.69632610616E+03  0.00000000000E+00 0.  1.
        -15    1    5    5    0    0 -0.91416098456E+03 -0.12981585793E+04  0.76983229664E+03  0.17645247994E+04  0.00000000000E+00 0.  1.
         15    1    4    4    0    0 -0.14296286806E+02 -0.62724899362E+02  0.13072680002E+01  0.64346761893E+02  0.00000000000E+00 0. -1.
         15    1    6    6    0    0  0.26047381937E+03  0.21138265931E+03 -0.48921115575E+02  0.33900223419E+03  0.00000000000E+00 0. -1.
        -16    1    6    6    0    0  0.27590521014E+03  0.22264897119E+03  0.30328866014E+02  0.35583154648E+03  0.00000000000E+00 0.  1.
         16    1    3    3    0    0  0.32559397827E+03  0.16379823574E+04  0.11743576772E+04  0.20415958454E+04  0.00000000000E+00 0. -1.
    9900018    1    5    5    0    0  0.40393560557E+02 -0.62788034164E+02  0.38223157664E+02  0.12389578340E+03  0.91187600000E+02 0.  0.
<mgrwt>
<rscale>  0 0.49076712E+04</rscale>
<asrwt>0</asrwt>
<pdfrwt beam="1">  1        1 0.24367127E+00 0.49076712E+04</pdfrwt>
<pdfrwt beam="2">  1       -1 0.58487075E+00 0.49076712E+04</pdfrwt>
<totfact> 0.21421531E-03</totfact>
</mgrwt>
</event>
<event>
13    1  0.1259891E-011  0.5094647E+04  0.7818608E-02  0.7814071E-01
          1   -1    0    0  501    0  0.00000000000E+00  0.00000000000E+00  0.28843742757E+04  0.28843742757E+04  0.00000000000E+00 0. -1.
         -1   -1    0    0    0  501 -0.00000000000E+00 -0.00000000000E+00 -0.22496583161E+04  0.22496583161E+04  0.00000000000E+00 0.  1.
    9900016    2    1    2    0    0  0.15734410644E+03 -0.34471215927E+03 -0.86597933160E+03  0.23987027945E+04  0.22046022891E+04 0.  0.
         23    2    3    3    0    0  0.45672559662E+02 -0.26797945283E+03  0.73644190881E+03  0.79056341179E+03  0.93513919559E+02 0.  0.
    9900016    2    1    2    0    0 -0.18783098478E+03  0.28898178254E+03  0.14328841483E+04  0.26051420323E+04  0.21482125306E+04 0.  0.
         24    2    5    5    0    0 -0.91411243840E+03 -0.37054613112E+03  0.16686826877E+03  0.10034997420E+04  0.79124760780E+02 0.  0.
        -15    1    6    6    0    0 -0.34292890283E+03 -0.18064441718E+03  0.63756400962E+02  0.39280722564E+03  0.00000000000E+00 0.  1.
        -15    1    4    4    0    0 -0.24654417090E+02 -0.56354825853E+02  0.21032799484E+03  0.21913824881E+03  0.00000000000E+00 0.  1.
         15    1    4    4    0    0  0.70326976752E+02 -0.21162462698E+03  0.52611391397E+03  0.57142516298E+03  0.00000000000E+00 0. -1.
         15    1    5    5    0    0  0.72628145362E+03  0.65952791367E+03  0.12660158795E+04  0.16016422903E+04  0.00000000000E+00 0. -1.
        -16    1    3    3    0    0  0.11167154678E+03 -0.76732706437E+02 -0.16024212404E+04  0.16081393827E+04  0.00000000000E+00 0.  1.
         16    1    6    6    0    0 -0.57118353557E+03 -0.18990171394E+03  0.10311186781E+03  0.61069251637E+03  0.00000000000E+00 0. -1.
    9900018    1    1    2    0    0  0.30486878337E+02  0.55730376727E+02  0.67811142943E+02  0.13018776495E+03  0.91187600000E+02 0.  0.
<mgrwt>
<rscale>  0 0.50946468E+04</rscale>
<asrwt>0</asrwt>
<pdfrwt beam="1">  1        1 0.44374989E+00 0.50946468E+04</pdfrwt>
<pdfrwt beam="2">  1       -1 0.34610128E+00 0.50946468E+04</pdfrwt>
<totfact> 0.85679173E-03</totfact>
</mgrwt>
</event>
<event>
13    1  0.1259891E-011  0.5495726E+04  0.7818608E-02  0.7756277E-01
          2   -1    0    0  501    0  0.00000000000E+00  0.00000000000E+00  0.33409563035E+04  0.33409563035E+04  0.00000000000E+00 0.  1.
         -2   -1    0    0    0  501 -0.00000000000E+00 -0.00000000000E+00 -0.22600571798E+04  0.22600571798E+04  0.00000000000E+00 0. -1.
    9900016    2    1    2    0    0 -0.26655971797E+03  0.12066172602E+04 -0.51818343040E+03  0.25843755742E+04  0.22098650966E+04 0.  0.
         23    2    3    3    0    0  0.34117257414E+03 -0.16683329273E+03  0.59735343796E+03  0.71351281468E+03  0.89651179392E+02 0.  0.
    9900016    2    1    2    0    0  0.26655971797E+03 -0.12066172602E+04  0.15990825541E+04  0.30166379092E+04  0.22396562157E+04 0.  0.
        -24    2    5    5    0    0 -0.28097457219E+03 -0.49042020352E+03 -0.46272982743E+03  0.73505190610E+03  0.81998324516E+02 0.  0.
        -15    1    5    5    0    0  0.51398902503E+03 -0.67055737467E+03  0.19568383866E+04  0.21314427935E+04  0.00000000000E+00 0.  1.
        -15    1    4    4    0    0  0.15000233231E+03 -0.25221709220E+02  0.22184708041E+03  0.26898505795E+03  0.00000000000E+00 0.  1.
         15    1    4    4    0    0  0.19117024183E+03 -0.14161158351E+03  0.37550635755E+03  0.44452775673E+03  0.00000000000E+00 0. -1.
         15    1    6    6    0    0 -0.23768666845E+03 -0.43869525746E+03 -0.43563645260E+03  0.66236515617E+03  0.00000000000E+00 0. -1.
        -16    1    6    6    0    0 -0.43287903738E+02 -0.51724946063E+02 -0.27093374838E+02  0.72686749930E+02  0.00000000000E+00 0.  1.
         16    1    3    3    0    0 -0.60773229211E+03  0.13734505529E+04 -0.11155368684E+04  0.18708627595E+04  0.00000000000E+00 0. -1.
    9900018    1    5    5    0    0  0.33545265125E+02 -0.45639682007E+02  0.10497399493E+03  0.15014320960E+03  0.91187600000E+02 0.  0.
<mgrwt>
<rscale>  0 0.54957264E+04</rscale>
<asrwt>0</asrwt>
<pdfrwt beam="1">  1        2 0.51399328E+00 0.54957264E+04</pdfrwt>
<pdfrwt beam="2">  1       -2 0.34770110E+00 0.54957264E+04</pdfrwt>
<totfact> 0.11758585E-02</totfact>
</mgrwt>
</event>
<event>
13    1  0.1259891E-011  0.4899961E+04  0.7818608E-02  0.7844127E-01
         -2   -1    0    0    0  501 -0.00000000000E+00  0.00000000000E+00  0.22156664990E+04  0.22156664990E+04  0.00000000000E+00 0.  1.
          2   -1    0    0  501    0  0.00000000000E+00 -0.00000000000E+00 -0.27090735815E+04  0.27090735815E+04  0.00000000000E+00 0. -1.
    9900016    2    1    2    0    0 -0.17743510497E+03  0.71374934025E+03 -0.94338583184E+03  0.25056068897E+04  0.22016284247E+04 0.  0.
         23    2    3    3    0    0 -0.22709096712E+03 -0.77271684609E+03 -0.16588519756E+03  0.82734747464E+03  0.91237675584E+02 0.  0.
    9900016    2    1    2    0    0  0.20659516058E+03 -0.62883509211E+03  0.40630222487E+03  0.22839164923E+04  0.21478076992E+04 0.  0.
        -24    2    5    5    0    0 -0.91771056742E+02  0.61252826596E+03 -0.42955072157E+03  0.75792319797E+03  0.79504390828E+02 0.  0.
        -15    1    4    4    0    0 -0.22714252812E+03 -0.70803861398E+03 -0.16918515572E+03  0.76258509288E+03  0.00000000000E+00 0. -1.
        -15    1    5    5    0    0  0.29836621732E+03 -0.12413633581E+04  0.83585294644E+03  0.15259932944E+04  0.00000000000E+00 0.  1.
         15    1    4    4    0    0  0.51560996220E-01 -0.64678232112E+02  0.32999581632E+01  0.64762381763E+02  0.00000000000E+00 0.  1.
         15    1    6    6    0    0 -0.28087610152E+01  0.14046895866E+03 -0.13254567293E+03  0.19315220138E+03  0.00000000000E+00 0. -1.
        -16    1    6    6    0    0 -0.88962295726E+02  0.47205930730E+03 -0.29700504864E+03  0.56477099659E+03  0.00000000000E+00 0.  1.
         16    1    3    3    0    0  0.49655862153E+02  0.14864661863E+04 -0.77750063428E+03  0.16782594150E+04  0.00000000000E+00 0. -1.
    9900018    1    1    2    0    0 -0.29160055614E+02 -0.84914248141E+02  0.43676524512E+02  0.13521669855E+03  0.91187600000E+02 0.  0.
<mgrwt>
<rscale>  0 0.48999606E+04</rscale>
<asrwt>0</asrwt>
<pdfrwt beam="1">  1        2 0.41678055E+00 0.48999606E+04</pdfrwt>
<pdfrwt beam="2">  1       -2 0.34087177E+00 0.48999606E+04</pdfrwt>
<totfact> 0.34170338E-02</totfact>
</mgrwt>
</event>
<event>
13    1  0.1259891E-011  0.5061565E+04  0.7818608E-02  0.7819080E-01
          2   -1    0    0  501    0  0.00000000000E+00  0.00000000000E+00  0.40875617799E+04  0.40875617799E+04  0.00000000000E+00 0. -1.
         -2   -1    0    0    0  501 -0.00000000000E+00 -0.00000000000E+00 -0.15669143629E+04  0.15669143629E+04  0.00000000000E+00 0.  1.
    9900016    2    1    2    0    0 -0.71447592616E+03 -0.64475266529E+03  0.45818118527E+03  0.24474753090E+04  0.22031848632E+04 0.  0.
         23    2    3    3    0    0  0.10702761299E+03 -0.20907223770E+03  0.12195894545E+04  0.12456317035E+04  0.95046266239E+02 0.  0.
    9900016    2    1    2    0    0  0.66977329419E+03  0.56107525734E+03  0.19392410521E+04  0.30267236661E+04  0.21533691236E+04 0.  0.
         24    2    5    5    0    0  0.82558239704E+02  0.54825878807E+01 -0.47080819825E+03  0.48470829950E+03  0.80223776727E+02 0.  0.
        -15    1    6    6    0    0  0.62885729685E+02  0.10832372374E+02 -0.14692360852E+03  0.16018271451E+03  0.00000000000E+00 0.  1.
        -15    1    4    4    0    0  0.91974986403E+02 -0.98189869685E+02  0.80696696280E+03  0.81810532799E+03  0.00000000000E+00 0.  1.
         15    1    4    4    0    0  0.15052626586E+02 -0.11088236801E+03  0.41262249166E+03  0.42752637548E+03  0.00000000000E+00 0. -1.
         15    1    5    5    0    0  0.58721505448E+03  0.55559266946E+03  0.24100492504E+04  0.25420153666E+04  0.00000000000E+00 0. -1.
        -16    1    3    3    0    0 -0.82150353914E+03 -0.43568042759E+03 -0.76140826920E+03  0.12018436056E+04  0.00000000000E+00 0.  1.
         16    1    6    6    0    0  0.19672510019E+02 -0.53497844937E+01 -0.32388458973E+03  0.32452558499E+03  0.00000000000E+00 0. -1.
    9900018    1    1    2    0    0  0.44702631969E+02  0.83677407943E+02  0.12322517961E+03  0.18027716769E+03  0.91187600000E+02 0.  0.
<mgrwt>
<rscale>  0 0.50615647E+04</rscale>
<asrwt>0</asrwt>
<pdfrwt beam="1">  1        2 0.62885565E+00 0.50615647E+04</pdfrwt>
<pdfrwt beam="2">  1       -2 0.24106375E+00 0.50615647E+04</pdfrwt>
<totfact> 0.15238994E-02</totfact>
</mgrwt>
</event>
<event>
13    1  0.1259891E-011  0.6377112E+04  0.7818608E-02  0.7645325E-01
         -1   -1    0    0    0  501 -0.00000000000E+00  0.00000000000E+00  0.36144455252E+04  0.36144455252E+04  0.00000000000E+00 0.  1.
          1   -1    0    0  501    0  0.00000000000E+00 -0.00000000000E+00 -0.28128488452E+04  0.28128488452E+04  0.00000000000E+00 0. -1.
    9900016    2    1    2    0    0 -0.14209842662E+04 -0.26618939477E+03  0.21586142132E+04  0.34223204918E+04  0.22276914392E+04 0.  0.
         23    2    3    3    0    0  0.23786615470E+03  0.12166986295E+03 -0.31267272342E+03  0.42074113321E+03  0.88741231158E+02 0.  0.
    9900016    2    1    2    0    0  0.14189589683E+04  0.27359720283E+03 -0.13047538025E+04  0.28995905148E+04  0.21487072125E+04 0.  0.
         24    2    5    5    0    0 -0.48486470921E+03 -0.30307971484E+03 -0.13820526591E+03  0.59352539191E+03  0.78870752050E+02 0.  0.
        -15    1    6    6    0    0 -0.45373988367E+03 -0.25694152468E+03 -0.12836807923E+03  0.53700762835E+03  0.00000000000E+00 0.  1.
        -15    1    4    4    0    0  0.17229069172E+03  0.12030472163E+03 -0.19848442742E+03  0.28905600915E+03  0.00000000000E+00 0.  1.
         15    1    5    5    0    0  0.19038236776E+04  0.57667691767E+03 -0.11665485366E+04  0.23060651229E+04  0.00000000000E+00 0. -1.
         15    1    4    4    0    0  0.65575462979E+02  0.13651413212E+01 -0.11418829600E+03  0.13168512406E+03  0.00000000000E+00 0. -1.
        -16    1    3    3    0    0 -0.16588504209E+04 -0.38785925772E+03  0.24712869366E+04  0.30015793586E+04  0.00000000000E+00 0.  1.
         16    1    6    6    0    0 -0.31124825538E+02 -0.46138190157E+02 -0.98371866784E+01  0.56517763557E+02  0.00000000000E+00 0. -1.
    9900018    1    1    2    0    0  0.20252978253E+01 -0.74078080634E+01 -0.52263730650E+02  0.10538336390E+03  0.91187600000E+02 0.  0.
<mgrwt>
<rscale>  0 0.63771119E+04</rscale>
<asrwt>0</asrwt>
<pdfrwt beam="1">  1        1 0.43274597E+00 0.63771119E+04</pdfrwt>
<pdfrwt beam="2">  1       -1 0.55606855E+00 0.63771119E+04</pdfrwt>
<totfact> 0.37736728E-04</totfact>
</mgrwt>
</event>
<event>
13    1  0.1259891E-011  0.5231600E+04  0.7818608E-02  0.7793741E-01
         -1   -1    0    0    0  501 -0.00000000000E+00  0.00000000000E+00  0.28096412814E+04  0.28096412814E+04  0.00000000000E+00 0.  1.
          1   -1    0    0  501    0  0.00000000000E+00 -0.00000000000E+00 -0.24353319611E+04  0.24353319611E+04  0.00000000000E+00 0. -1.
    9900016    2    1    2    0    0 -0.92988758177E+03  0.44591108923E+03  0.10800599951E+04  0.26650783204E+04  0.22073933149E+04 0.  0.
         23    2    3    3    0    0  0.29026995843E+03 -0.13849496173E+03 -0.49007578581E+03  0.59248544537E+03  0.86181343406E+02 0.  0.
    9900016    2    1    2    0    0  0.90258824235E+03 -0.45995830025E+03 -0.67612309943E+03  0.24792194550E+04  0.21594349926E+04 0.  0.
         24    2    5    5    0    0 -0.68905598603E+03 -0.26260773155E+03 -0.42772176942E+03  0.85626479837E+03  0.80514100229E+02 0.  0.
        -15    1    6    6    0    0 -0.36869120237E+03 -0.10151297152E+03 -0.24040861559E+03  0.45170165878E+03  0.00000000000E+00 0.  1.
        -15    1    4    4    0    0  0.67432599053E+02  0.54778163284E+01 -0.97958487047E+02  0.11905052319E+03  0.00000000000E+00 0.  1.
         15    1    4    4    0    0  0.22283735938E+03 -0.14397277806E+03 -0.39211729876E+03  0.47343492219E+03  0.00000000000E+00 0. -1.
         15    1    5    5    0    0  0.15916442284E+04 -0.19735056870E+03 -0.24840133001E+03  0.16229546566E+04  0.00000000000E+00 0. -1.
        -16    1    3    3    0    0 -0.12201575402E+04  0.58440605096E+03  0.15701357809E+04  0.20725928751E+04  0.00000000000E+00 0.  1.
         16    1    6    6    0    0 -0.32036478366E+03 -0.16109476003E+03 -0.18731315384E+03  0.40456313960E+03  0.00000000000E+00 0. -1.
    9900018    1    1    2    0    0  0.27299339427E+02  0.14047211024E+02 -0.29627575356E+02  0.10067546715E+03  0.91187600000E+02 0.  0.
<mgrwt>
<rscale>  0 0.52315998E+04</rscale>
<asrwt>0</asrwt>
<pdfrwt beam="1">  1        1 0.37466646E+00 0.52315998E+04</pdfrwt>
<pdfrwt beam="2">  1       -1 0.43225251E+00 0.52315998E+04</pdfrwt>
<totfact> 0.45770460E-03</totfact>
</mgrwt>
</event>
