<event>
11    1  0.3793704E-010  0.3097113E+04  0.7818608E-02  0.8216531E-01
         -1   -1    0    0    0  501 -0.00000000000E+00  0.00000000000E+00  0.17449040412E+04  0.17449040412E+04  0.00000000000E+00 0.  1.
          1   -1    0    0  501    0  0.00000000000E+00 -0.00000000000E+00 -0.13743029506E+04  0.13743029506E+04  0.00000000000E+00 0. -1.
    9900016    2    1    2    0    0  0.45493757007E+03  0.10149545295E+03  0.51614623218E+03  0.23047934151E+04  0.21973611979E+04 0.  0.
         24    2    3    3    0    0  0.10442209657E+04  0.55799152777E+03  0.80682156996E+03  0.14348238219E+04  0.77500864492E+02 0.  0.
        -15    1    4    4    0    0  0.60806141478E+03  0.31974728216E+03  0.42195681083E+03  0.80624100541E+03  0.00000000000E+00 0.  1.
        -15    1    3    3    0    0 -0.11695285101E+02 -0.12550023936E+02 -0.30611601616E+02  0.35090639035E+02  0.00000000000E+00 0.  1.
         15    1    3    3    0    0 -0.13605932526E+03 -0.16272631825E+03 -0.22651511917E+03  0.31032417543E+03  0.00000000000E+00 0. -1.
         15    1    3    3    0    0 -0.44152878523E+03 -0.28121973264E+03 -0.33548616993E+02  0.52455477876E+03  0.00000000000E+00 0. -1.
        -16    1    1    2    0    0  0.65148923092E+02 -0.11183123178E+03  0.15881052970E+03  0.20486920443E+03  0.00000000000E+00 0.  1.
         16    1    4    4    0    0  0.43615955088E+03  0.23824424561E+03  0.38486475913E+03  0.62858281651E+03  0.00000000000E+00 0. -1.
    9900018    1    1    2    0    0 -0.52008649316E+03  0.10335778829E+02 -0.30435567121E+03  0.60954437220E+03  0.91187600000E+02 0.  0.
<mgrwt>
<rscale>  0 0.30971127E+04</rscale>
<asrwt>0</asrwt>
<pdfrwt beam="1">  1        1 0.21143122E+00 0.30971127E+04</pdfrwt>
<pdfrwt beam="2">  1       -1 0.26844678E+00 0.30971127E+04</pdfrwt>
<totfact> 0.35749757E-01</totfact>
</mgrwt>
</event>
<event>
12    1  0.3793704E-010  0.5205042E+04  0.7818608E-02  0.7797633E-01
          1   -1    0    0  501    0  0.00000000000E+00  0.00000000000E+00  0.43034626173E+04  0.43034626173E+04  0.00000000000E+00 0. -1.
         -1   -1    0    0    0  501 -0.00000000000E+00 -0.00000000000E+00 -0.15738757510E+04  0.15738757510E+04  0.00000000000E+00 0.  1.
    9900016    2    1    2    0    0  0.50424762296E+03 -0.58848227397E+03  0.18298240431E+03  0.23350050689E+04  0.21950373709E+04 0.  0.
        -24    2    3    3    0    0  0.63442160216E+03  0.46344181701E+03 -0.35260404819E+03  0.86516484087E+03  0.83135431940E+02 0.  0.
         23    2    3    3    0    0  0.31386208699E+03 -0.22904170962E+03  0.84829016903E+01  0.39646163927E+03  0.78360432577E+02 0.  0.
        -15    1    3    3    0    0 -0.44403606619E+03 -0.82288238137E+03  0.52710355081E+03  0.10733785888E+04  0.00000000000E+00 0.  1.
        -15    1    5    5    0    0  0.81911753438E+02 -0.23496494486E+02 -0.11045339713E+02  0.85927993889E+02  0.00000000000E+00 0. -1.
         15    1    4    4    0    0  0.41289580148E+03  0.25727520557E+03 -0.23781041096E+03  0.54150463141E+03  0.00000000000E+00 0. -1.
         15    1    5    5    0    0  0.23195033355E+03 -0.20554521513E+03  0.19528241404E+02  0.31053364538E+03  0.00000000000E+00 0.  1.
        -16    1    4    4    0    0  0.22152580068E+03  0.20616661144E+03 -0.11479363723E+03  0.32366020946E+03  0.00000000000E+00 0.  1.
         16    1    1    2    0    0 -0.83090213752E+02  0.76490890230E+03  0.28726446152E+04  0.29738992413E+04  0.00000000000E+00 0. -1.
    9900018    1    1    2    0    0 -0.42115740921E+03 -0.17642662833E+03 -0.32604015309E+03  0.56843405804E+03  0.91187600000E+02 0.  0.
<mgrwt>
<rscale>  0 0.52050420E+04</rscale>
<asrwt>0</asrwt>
<pdfrwt beam="1">  1        1 0.66207117E+00 0.52050420E+04</pdfrwt>
<pdfrwt beam="2">  1       -1 0.24213473E+00 0.52050420E+04</pdfrwt>
<totfact> 0.27991693E-03</totfact>
</mgrwt>
</event>
<event>
12    1  0.3793704E-010  0.4773661E+04  0.7818608E-02  0.7864403E-01
          1   -1    0    0  501    0  0.00000000000E+00  0.00000000000E+00  0.26385082999E+04  0.26385082999E+04  0.00000000000E+00 0. -1.
         -1   -1    0    0    0  501 -0.00000000000E+00 -0.00000000000E+00 -0.21591592031E+04  0.21591592031E+04  0.00000000000E+00 0.  1.
    9900016    2    1    2    0    0 -0.80584047403E+03 -0.40325438132E+01  0.61272594393E+03  0.24330692882E+04  0.22124642252E+04 0.  0.
        -24    2    3    3    0    0 -0.33428195678E+03  0.19656225788E+03  0.13455026144E+04  0.14024748185E+04  0.78595059052E+02 0.  0.
         23    2    3    3    0    0 -0.26492386583E+03 -0.14451567269E+03 -0.62228738271E+02  0.32669300128E+03  0.10856549579E+03 0.  0.
        -15    1    5    5    0    0 -0.11221325066E+03 -0.10651635169E+03  0.67655631927E+01  0.15486548888E+03  0.00000000000E+00 0.  1.
        -15    1    3    3    0    0 -0.20663465142E+03 -0.56079129007E+02 -0.67054793220E+03  0.70390146843E+03  0.00000000000E+00 0.  1.
         15    1    4    4    0    0 -0.22040951743E+03  0.17092725017E+03  0.95665072532E+03  0.99648235834E+03  0.00000000000E+00 0. -1.
         15    1    5    5    0    0 -0.15271061517E+03 -0.37999321004E+02 -0.68994301464E+02  0.17182751240E+03  0.00000000000E+00 0. -1.
        -16    1    4    4    0    0 -0.11387243935E+03  0.25635007709E+02  0.38885188908E+03  0.40599246016E+03  0.00000000000E+00 0.  1.
         16    1    1    2    0    0  0.14062812791E+04  0.41815523534E+03  0.31907979890E+03  0.15014302364E+04  0.00000000000E+00 0. -1.
    9900018    1    1    2    0    0 -0.60044080502E+03 -0.41412269152E+03 -0.45245664609E+03  0.86316797841E+03  0.91187600000E+02 0.  0.
<mgrwt>
<rscale>  0 0.47736609E+04</rscale>
<asrwt>0</asrwt>
<pdfrwt beam="1">  1        1 0.40592435E+00 0.47736609E+04</pdfrwt>
<pdfrwt beam="2">  1       -1 0.33217834E+00 0.47736609E+04</pdfrwt>
<totfact> 0.16235444E-02</totfact>
</mgrwt>
</event>
<event>
12    1  0.3793704E-010  0.3018199E+04  0.7818608E-02  0.8238553E-01
          2   -1    0    0  501    0  0.00000000000E+00  0.00000000000E+00  0.15045561599E+04  0.15045561599E+04  0.00000000000E+00 0. -1.
         -2   -1    0    0    0  501 -0.00000000000E+00 -0.00000000000E+00 -0.15136565833E+04  0.15136565833E+04  0.00000000000E+00 0.  1.
    9900016    2    1    2    0    0 -0.54523345572E+03 -0.27484147273E+03  0.22411790956E+03  0.22960285144E+04  0.22019765542E+04 0.  0.
        -24    2    3    3    0    0 -0.16598177638E+03  0.10018047818E+03  0.97549122268E+03  0.99757355825E+03  0.77355027598E+02 0.  0.
         23    2    3    3    0    0 -0.28429172528E+03  0.97603902749E+02  0.86529757723E+02  0.33177292643E+03  0.11062354563E+03 0.  0.
        -15    1    3    3    0    0 -0.94959954056E+02 -0.47262585367E+03 -0.83790307084E+03  0.96668202971E+03  0.00000000000E+00 0.  1.
        -15    1    5    5    0    0 -0.68357513097E+01  0.28861496070E+02  0.26322982417E+02  0.39656183058E+02  0.00000000000E+00 0.  1.
         15    1    4    4    0    0 -0.12628547050E+03  0.10102516448E+03  0.65674555691E+03  0.67636442132E+03  0.00000000000E+00 0. -1.
         15    1    5    5    0    0 -0.27745597397E+03  0.68742406679E+02  0.60206775306E+02  0.29211674337E+03  0.00000000000E+00 0. -1.
        -16    1    4    4    0    0 -0.39696305887E+02 -0.84468629272E+00  0.31874566578E+03  0.32120913693E+03  0.00000000000E+00 0.  1.
         16    1    1    2    0    0  0.52540616603E+03  0.26527182724E+03 -0.18670673050E+03  0.61747889425E+03  0.00000000000E+00 0. -1.
    9900018    1    1    2    0    0  0.19827289692E+02  0.95696454890E+01 -0.46511602465E+02  0.10470533458E+03  0.91187600000E+02 0.  0.
<mgrwt>
<rscale>  0 0.30181990E+04</rscale>
<asrwt>0</asrwt>
<pdfrwt beam="1">  1        2 0.23147018E+00 0.30181990E+04</pdfrwt>
<pdfrwt beam="2">  1       -2 0.23287024E+00 0.30181990E+04</pdfrwt>
<totfact> 0.88488368E-01</totfact>
</mgrwt>
</event>
<event>
12    1  0.3793704E-010  0.2879400E+04  0.7818608E-02  0.8279033E-01
          2   -1    0    0  501    0  0.00000000000E+00  0.00000000000E+00  0.17950825550E+04  0.17950825550E+04  0.00000000000E+00 0. -1.
         -2   -1    0    0    0  501 -0.00000000000E+00 -0.00000000000E+00 -0.11546747901E+04  0.11546747901E+04  0.00000000000E+00 0.  1.
    9900016    2    1    2    0    0  0.42771625235E+03 -0.27410083362E+03  0.72023381057E+03  0.23640445471E+04  0.21936037516E+04 0.  0.
        -24    2    3    3    0    0 -0.45814684778E+03 -0.54917502548E+03  0.65151458627E+02  0.72271384438E+03  0.81110082957E+02 0.  0.
         23    2    3    3    0    0 -0.25708415622E+03  0.20840412444E+03  0.24423091104E+03  0.42495401958E+03  0.10682995078E+03 0.  0.
        -15    1    5    5    0    0 -0.16405503678E+03  0.92221724570E+02  0.18753115865E+03  0.26568183423E+03  0.00000000000E+00 0.  1.
        -15    1    3    3    0    0  0.11429472563E+04  0.66670067414E+02  0.41085144090E+03  0.12163766831E+04  0.00000000000E+00 0.  1.
         15    1    4    4    0    0 -0.23823726746E+03 -0.32335716734E+03  0.68774801803E+02  0.40748843743E+03  0.00000000000E+00 0. -1.
         15    1    5    5    0    0 -0.93029119436E+02  0.11618239987E+03  0.56699752393E+02  0.15927218535E+03  0.00000000000E+00 0. -1.
        -16    1    4    4    0    0 -0.21990958032E+03 -0.22581785814E+03 -0.36233431758E+01  0.31522540695E+03  0.00000000000E+00 0.  1.
         16    1    1    2    0    0 -0.27332920723E+03  0.21331484849E+03  0.57995084431E+02  0.35153308512E+03  0.00000000000E+00 0. -1.
    9900018    1    1    2    0    0 -0.15438704512E+03  0.60785985130E+02 -0.13782113006E+03  0.23417971298E+03  0.91187600000E+02 0.  0.
<mgrwt>
<rscale>  0 0.28794003E+04</rscale>
<asrwt>0</asrwt>
<pdfrwt beam="1">  1        2 0.27616655E+00 0.28794003E+04</pdfrwt>
<pdfrwt beam="2">  1       -2 0.17764228E+00 0.28794003E+04</pdfrwt>
<totfact> 0.14136587E+00</totfact>
</mgrwt>
</event>
