<event>
12    1  0.3777551E-009  0.9871153E+03  0.7818608E-02  0.9322790E-01
          1   -1    0    0  501    0  0.00000000000E+00  0.00000000000E+00  0.99983169380E+03  0.99983169380E+03  0.00000000000E+00 0. -1.
         -1   -1    0    0    0  501 -0.00000000000E+00 -0.00000000000E+00 -0.24364016132E+03  0.24364016132E+03  0.00000000000E+00 0.  1.
         23    2    1    2    0    0  0.97821501124E+01  0.93621055204E+02  0.59582331764E+02  0.14365489270E+03  0.90697748039E+02 0.  0.
    9900016    2    1    2    0    0 -0.11232631768E+03 -0.14349785004E+03  0.56985929002E+03  0.92932197474E+03  0.71111946092E+03 0.  0.
         23    2    4    4    0    0 -0.25901815052E+03 -0.29933209192E+03  0.31551131173E+03  0.51447150101E+03  0.91888160092E+02 0.  0.
        -15    1    3    3    0    0  0.37965664434E+02  0.94037175223E+02  0.38573697605E+02  0.10850028639E+03  0.00000000000E+00 0.  1.
        -15    1    5    5    0    0 -0.20085386931E+03 -0.19258190533E+03  0.26000501050E+03  0.38083155406E+03  0.00000000000E+00 0. -1.
         15    1    3    3    0    0 -0.28183514322E+02 -0.41612001926E+00  0.21008634160E+02  0.35154606308E+02  0.00000000000E+00 0. -1.
         15    1    5    5    0    0 -0.58164281212E+02 -0.10675018659E+03  0.55506301232E+02  0.13363994695E+03  0.00000000000E+00 0.  1.
        -16    1    4    4    0    0  0.17818247453E+03  0.67204507554E+02  0.18957426589E+03  0.26870772663E+03  0.00000000000E+00 0.  1.
         16    1    1    2    0    0  0.10254416756E+03  0.49876794839E+02  0.12674991068E+03  0.17049498768E+03  0.00000000000E+00 0. -1.
    9900018    1    4    4    0    0 -0.31490641677E+02  0.88629734323E+02  0.64773712408E+02  0.14614274711E+03  0.91187600000E+02 0.  0.
<mgrwt>
<rscale>  0 0.98711530E+03</rscale>
<asrwt>0</asrwt>
<pdfrwt beam="1">  1        1 0.15382026E+00 0.98711530E+03</pdfrwt>
<pdfrwt beam="2">  1       -1 0.37483102E-01 0.98711530E+03</pdfrwt>
<totfact> 0.10401919E+02</totfact>
</mgrwt>
</event>
<event>
12    1  0.3986301E-009  0.1942078E+04  0.7818608E-02  0.9229783E-01
         -2   -1    0    0    0  501 -0.00000000000E+00  0.00000000000E+00  0.61490019968E+03  0.61490019968E+03  0.00000000000E+00 0.  1.
          2   -1    0    0  501    0  0.00000000000E+00 -0.00000000000E+00 -0.18842744062E+04  0.18842744062E+04  0.00000000000E+00 0. -1.
         23    2    1    2    0    0  0.15122186837E+03 -0.40007092495E+02 -0.63426019483E+01  0.18251381862E+03  0.93821343319E+02 0.  0.
    9900016    2    1    2    0    0  0.54493847213E+03 -0.15719128509E+03 -0.13093902496E+04  0.15916259303E+04  0.70505548567E+03 0.  0.
         23    2    4    4    0    0  0.16588420878E+03 -0.23477937922E+03 -0.28645166255E+03  0.41583875695E+03  0.90710468929E+02 0.  0.
        -15    1    5    5    0    0  0.12132980527E+03 -0.10208262522E+03 -0.12323678612E+03  0.20082103842E+03  0.00000000000E+00 0.  1.
        -15    1    3    3    0    0  0.14214370922E+03 -0.63616984058E+02 -0.13248721028E+02  0.15629294079E+03  0.00000000000E+00 0.  1.
         15    1    3    3    0    0  0.90781591504E+01  0.23609891563E+02  0.69061190794E+01  0.26220877825E+02  0.00000000000E+00 0. -1.
         15    1    5    5    0    0  0.44554403517E+02 -0.13269675400E+03 -0.16321487643E+03  0.21501771854E+03  0.00000000000E+00 0. -1.
        -16    1    1    2    0    0 -0.69616034050E+03  0.19719837758E+03  0.46358645002E+02  0.72503485694E+03  0.00000000000E+00 0.  1.
         16    1    4    4    0    0  0.51379165253E+02  0.19635290523E+03 -0.51062347553E+03  0.54948213417E+03  0.00000000000E+00 0. -1.
    9900018    1    4    4    0    0  0.32767509810E+03 -0.11876481109E+03 -0.51231511151E+03  0.62630503921E+03  0.91187600000E+02 0.  0.
<mgrwt>
<rscale>  0 0.10751236E+04</rscale>
<asrwt>0</asrwt>
<pdfrwt beam="1">  1        2 0.28988837E+00 0.19420784E+04</pdfrwt>
<pdfrwt beam="2">  1       -2 0.94600030E-01 0.19420784E+04</pdfrwt>
<totfact> 0.67673156E+00</totfact>
</mgrwt>
</event>
<event>
12    1  0.3777551E-009  0.1408010E+04  0.7818608E-02  0.9602064E-01
         -1   -1    0    0    0  501 -0.00000000000E+00  0.00000000000E+00  0.67625436978E+03  0.67625436978E+03  0.00000000000E+00 0.  1.
          1   -1    0    0  501    0  0.00000000000E+00 -0.00000000000E+00 -0.87145140338E+03  0.87145140338E+03  0.00000000000E+00 0. -1.
         23    2    1    2    0    0  0.64539945045E+02 -0.59490613657E+02 -0.70263122600E+01  0.12717726827E+03  0.91761380110E+02 0.  0.
    9900016    2    1    2    0    0  0.70866893107E+02 -0.24699790159E+03  0.32426747623E+03  0.80826783481E+03  0.69434675539E+03 0.  0.
         23    2    4    4    0    0 -0.20784959404E+02 -0.91555596514E+02 -0.11434948058E+03  0.17458257138E+03  0.92675933935E+02 0.  0.
        -15    1    5    5    0    0  0.16894474116E+02 -0.21729648427E+01 -0.62123822253E+02  0.64416723940E+02  0.00000000000E+00 0. -1.
        -15    1    3    3    0    0  0.45585928210E+02 -0.83057324238E+02  0.44015534242E+01  0.94847085527E+02  0.00000000000E+00 0. -1.
         15    1    3    3    0    0  0.18954016835E+02  0.23566710581E+02 -0.11427865684E+02  0.32330182738E+02  0.00000000000E+00 0.  1.
         15    1    5    5    0    0 -0.37679433520E+02 -0.89382631672E+02 -0.52225658328E+02  0.11016584744E+03  0.00000000000E+00 0.  1.
        -16    1    4    4    0    0  0.22296396776E+03  0.32797728433E+01  0.15538993416E+03  0.27178984430E+03  0.00000000000E+00 0.  1.
         16    1    1    2    0    0 -0.13540683815E+03  0.30648851525E+03 -0.51243819758E+03  0.61226067008E+03  0.00000000000E+00 0. -1.
    9900018    1    4    4    0    0 -0.13131211525E+03 -0.15872207792E+03  0.28322702265E+03  0.36189541912E+03  0.91187600000E+02 0.  0.
<mgrwt>
<rscale>  0 0.77159746E+03</rscale>
<asrwt>0</asrwt>
<pdfrwt beam="1">  1        1 0.13406945E+00 0.14080103E+04</pdfrwt>
<pdfrwt beam="2">  1       -1 0.10403913E+00 0.14080103E+04</pdfrwt>
<totfact> 0.16249793E+01</totfact>
</mgrwt>
</event>
<event>
12    1  0.3777551E-009  0.1350462E+04  0.7818608E-02  0.9381791E-01
          2   -1    0    0  501    0  0.00000000000E+00  0.00000000000E+00  0.22141377200E+04  0.22141377200E+04  0.00000000000E+00 0. -1.
         -2   -1    0    0    0  501 -0.00000000000E+00 -0.00000000000E+00 -0.32027442279E+03  0.32027442279E+03  0.00000000000E+00 0.  1.
         23    2    1    2    0    0  0.27623804121E+03  0.11157246007E+03  0.53202307357E+03  0.61650803997E+03  0.90982104212E+02 0.  0.
    9900016    2    1    2    0    0  0.22997674026E+03  0.35718703863E+02  0.47902800874E+03  0.88965048685E+03  0.71263246399E+03 0.  0.
         23    2    4    4    0    0 -0.15689830320E+02 -0.22255063604E+02 -0.83983579050E+02  0.13418703275E+03  0.10105176681E+03 0.  0.
        -15    1    3    3    0    0  0.22104097762E+03  0.12327068304E+03  0.45985475190E+03  0.52490110300E+03  0.00000000000E+00 0. -1.
        -15    1    5    5    0    0 -0.48949815957E+02 -0.41114412201E+02 -0.37934606915E+02  0.74333799678E+02  0.00000000000E+00 0.  1.
         15    1    3    3    0    0  0.55197063592E+02 -0.11698222968E+02  0.72168321663E+02  0.91606936973E+02  0.00000000000E+00 0.  1.
         15    1    5    5    0    0  0.33259985637E+02  0.18859348597E+02 -0.46048972135E+02  0.59853233069E+02  0.00000000000E+00 0. -1.
        -16    1    1    2    0    0 -0.50621478147E+03 -0.14729116394E+03  0.88281221489E+03  0.10282536159E+04  0.00000000000E+00 0.  1.
         16    1    4    4    0    0  0.62885317088E+02 -0.53992728789E+02  0.50983934583E+03  0.51653260925E+03  0.00000000000E+00 0. -1.
    9900018    1    4    4    0    0  0.18278125349E+03  0.11196649626E+03  0.53172241962E+02  0.23893084485E+03  0.91187600000E+02 0.  0.
<mgrwt>
<rscale>  0 0.93589479E+03</rscale>
<asrwt>0</asrwt>
<pdfrwt beam="1">  1        2 0.34063656E+00 0.13504619E+04</pdfrwt>
<pdfrwt beam="2">  1       -2 0.49272989E-01 0.13504619E+04</pdfrwt>
<totfact> 0.19285734E+01</totfact>
</mgrwt>
</event>
<event>
12    1  0.3777551E-009  0.1727802E+04  0.7818608E-02  0.9151646E-01
          1   -1    0    0  501    0  0.00000000000E+00  0.00000000000E+00  0.35132806755E+04  0.35132806755E+04  0.00000000000E+00 0. -1.
         -1   -1    0    0    0  501 -0.00000000000E+00 -0.00000000000E+00 -0.34938892073E+03  0.34938892073E+03  0.00000000000E+00 0.  1.
         23    2    1    2    0    0  0.10711454154E+02  0.33428827862E+03  0.12865153754E+03  0.37010837119E+03  0.92550525888E+02 0.  0.
    9900016    2    1    2    0    0  0.46298138891E+03 -0.66889423399E+03  0.24120399271E+04  0.26412536093E+04  0.70463661283E+03 0.  0.
         23    2    4    4    0    0  0.48341447355E+02 -0.33507864194E+03  0.46811145737E+03  0.58469831049E+03  0.90161998335E+02 0.  0.
        -15    1    3    3    0    0  0.84561346375E+01  0.17236777639E+03  0.11545714560E+03  0.20763551965E+03  0.00000000000E+00 0. -1.
        -15    1    5    5    0    0  0.41831113814E+02 -0.12088733796E+03  0.11698463565E+03  0.17334646100E+03  0.00000000000E+00 0. -1.
         15    1    3    3    0    0  0.22553195164E+01  0.16192050223E+03  0.13194391936E+02  0.16247285154E+03  0.00000000000E+00 0.  1.
         15    1    5    5    0    0  0.65103335415E+01 -0.21419130397E+03  0.35112682173E+03  0.41135184949E+03  0.00000000000E+00 0.  1.
        -16    1    1    2    0    0 -0.47369284306E+03  0.33460595537E+03  0.62320029010E+03  0.85130761568E+03  0.00000000000E+00 0.  1.
         16    1    4    4    0    0  0.18011528087E+03 -0.27023732481E+01  0.11117255549E+04  0.11262249006E+04  0.00000000000E+00 0. -1.
    9900018    1    4    4    0    0  0.23452466068E+03 -0.33111321881E+03  0.83220291481E+03  0.93033039827E+03  0.91187600000E+02 0.  0.
<mgrwt>
<rscale>  0 0.11566765E+04</rscale>
<asrwt>0</asrwt>
<pdfrwt beam="1">  1        1 0.54050469E+00 0.17278023E+04</pdfrwt>
<pdfrwt beam="2">  1       -1 0.53752144E-01 0.17278023E+04</pdfrwt>
<totfact> 0.80962479E-01</totfact>
</mgrwt>
</event>
<event>
12    1  0.3777551E-009  0.2410945E+04  0.7818608E-02  0.9191891E-01
         -1   -1    0    0    0  501 -0.00000000000E+00  0.00000000000E+00  0.87065890352E+03  0.87065890352E+03  0.00000000000E+00 0.  1.
          1   -1    0    0  501    0  0.00000000000E+00 -0.00000000000E+00 -0.21441648184E+04  0.21441648184E+04  0.00000000000E+00 0. -1.
         23    2    1    2    0    0  0.22677475768E+02  0.59062206197E+02 -0.45602459667E+03  0.46905641986E+03  0.89737841171E+02 0.  0.
    9900016    2    1    2    0    0  0.58326601139E+02  0.98177507610E+03  0.36914632542E+01  0.12175246113E+04  0.71768256191E+03 0.  0.
         23    2    4    4    0    0 -0.20494874779E+03  0.20799873142E+03  0.51783320627E+02  0.31011648480E+03  0.90682194267E+02 0.  0.
        -15    1    5    5    0    0 -0.92145575680E+02  0.66818323015E+02 -0.20192006149E+02  0.11559936211E+03  0.00000000000E+00 0.  1.
        -15    1    3    3    0    0 -0.28342143134E+02  0.42782735095E+02 -0.29301509493E+03  0.29747518444E+03  0.00000000000E+00 0.  1.
         15    1    3    3    0    0  0.51019618902E+02  0.16279471102E+02 -0.16300950174E+03  0.17158123543E+03  0.00000000000E+00 0. -1.
         15    1    5    5    0    0 -0.11280317211E+03  0.14118040841E+03  0.71975326776E+02  0.19451712269E+03  0.00000000000E+00 0. -1.
        -16    1    4    4    0    0  0.13681327482E+03  0.60281570651E+02 -0.92367115318E+02  0.17573680297E+03  0.00000000000E+00 0.  1.
         16    1    1    2    0    0 -0.81004076908E+02 -0.10408372823E+04 -0.82117278151E+03  0.13282426908E+04  0.00000000000E+00 0. -1.
    9900018    1    4    4    0    0  0.12646207411E+03  0.71349477403E+03  0.44275257944E+02  0.73167132349E+03  0.91187600000E+02 0.  0.
<mgrwt>
<rscale>  0 0.11137522E+04</rscale>
<asrwt>0</asrwt>
<pdfrwt beam="1">  1        1 0.32987151E+00 0.24109449E+04</pdfrwt>
<pdfrwt beam="2">  1       -1 0.13394753E+00 0.24109449E+04</pdfrwt>
<totfact> 0.99095628E-01</totfact>
</mgrwt>
</event>
<event>
12    1  0.3777551E-009  0.8888625E+03  0.7818608E-02  0.9439612E-01
          1   -1    0    0  501    0  0.00000000000E+00  0.00000000000E+00  0.21637101635E+03  0.21637101635E+03  0.00000000000E+00 0. -1.
         -1   -1    0    0    0  501 -0.00000000000E+00 -0.00000000000E+00 -0.91287242416E+03  0.91287242416E+03  0.00000000000E+00 0.  1.
         23    2    1    2    0    0  0.55536452930E+02  0.35275366764E+02 -0.61534852882E+01  0.11194113666E+03  0.90356535969E+02 0.  0.
    9900016    2    1    2    0    0 -0.96920943285E+02 -0.45639811841E+02 -0.52426107369E+03  0.84582361969E+03  0.65505057863E+03 0.  0.
         23    2    4    4    0    0  0.94683960322E+02  0.31268775908E+02 -0.22595776713E+03  0.26266726990E+03  0.89411372108E+02 0.  0.
        -15    1    5    5    0    0 -0.99366285148E+01  0.24970658689E+02 -0.67810193873E+02  0.72941708060E+02  0.00000000000E+00 0.  1.
        -15    1    3    3    0    0 -0.94526747010E+01  0.44874870188E+02 -0.59700853062E+01  0.46246610167E+02  0.00000000000E+00 0.  1.
         15    1    5    5    0    0  0.10462058884E+03  0.62981172182E+01 -0.15814757326E+03  0.18972556184E+03  0.00000000000E+00 0. -1.
         15    1    3    3    0    0  0.64989127631E+02 -0.95995034243E+01 -0.18339998203E+00  0.65694526498E+02  0.00000000000E+00 0. -1.
        -16    1    1    2    0    0  0.41384490356E+02  0.10364445077E+02 -0.16608684884E+03  0.17147868416E+03  0.00000000000E+00 0.  1.
         16    1    4    4    0    0  0.87010181607E+02 -0.76207157733E+02 -0.26371390086E+03  0.28796410210E+03  0.00000000000E+00 0. -1.
    9900018    1    4    4    0    0 -0.27861508521E+03 -0.70143001558E+00 -0.34589405698E+02  0.29519224769E+03  0.91187600000E+02 0.  0.
<mgrwt>
<rscale>  0 0.88886250E+03</rscale>
<asrwt>0</asrwt>
<pdfrwt beam="1">  1        1 0.33287849E-01 0.88886250E+03</pdfrwt>
<pdfrwt beam="2">  1       -1 0.14044191E+00 0.88886250E+03</pdfrwt>
<totfact> 0.56327573E+01</totfact>
</mgrwt>
</event>
<event>
12    1  0.3777551E-009  0.1614324E+04  0.7818608E-02  0.9520096E-01
          2   -1    0    0  501    0  0.00000000000E+00  0.00000000000E+00  0.17571328178E+04  0.17571328178E+04  0.00000000000E+00 0. -1.
         -2   -1    0    0    0  501 -0.00000000000E+00 -0.00000000000E+00 -0.43109025680E+03  0.43109025680E+03  0.00000000000E+00 0.  1.
         23    2    1    2    0    0  0.37760715192E+02  0.51444332052E+02  0.16670314600E+03  0.20073475260E+03  0.91826527220E+02 0.  0.
    9900016    2    1    2    0    0  0.91638995066E+02 -0.62284905039E+03  0.10023359925E+04  0.13809426008E+04  0.71132719610E+03 0.  0.
         23    2    4    4    0    0 -0.26788867662E+03 -0.18264583383E+03  0.21370542574E+03  0.39883535962E+03  0.90971376918E+02 0.  0.
        -15    1    5    5    0    0 -0.21911156902E+03 -0.18519564652E+03  0.17123099310E+03  0.33410680952E+03  0.00000000000E+00 0.  1.
        -15    1    3    3    0    0  0.20533326691E+02 -0.23547002700E+02  0.27222713960E+02  0.41438568948E+02  0.00000000000E+00 0.  1.
         15    1    5    5    0    0 -0.48777107596E+02  0.25498126910E+01  0.42474432642E+02  0.64728550104E+02  0.00000000000E+00 0. -1.
         15    1    3    3    0    0  0.17227388502E+02  0.74991334752E+02  0.13948043204E+03  0.15929618365E+03  0.00000000000E+00 0. -1.
        -16    1    4    4    0    0  0.17277065097E+03 -0.20061580654E+03  0.30663293261E+03  0.40511745832E+03  0.00000000000E+00 0.  1.
         16    1    1    2    0    0 -0.12939971026E+03  0.57140471833E+03  0.15700342243E+03  0.60654572112E+03  0.00000000000E+00 0. -1.
    9900018    1    4    4    0    0  0.18675702072E+03 -0.23958741001E+03  0.48199763419E+03  0.57698978291E+03  0.91187600000E+02 0.  0.
<mgrwt>
<rscale>  0 0.82818303E+03</rscale>
<asrwt>0</asrwt>
<pdfrwt beam="1">  1        2 0.27032812E+00 0.16143240E+04</pdfrwt>
<pdfrwt beam="2">  1       -2 0.66321579E-01 0.16143240E+04</pdfrwt>
<totfact> 0.18201405E+01</totfact>
</mgrwt>
</event>
<event>
12    1  0.3777551E-009  0.1927746E+04  0.7818608E-02  0.9376358E-01
          3   -1    0    0  501    0  0.00000000000E+00  0.00000000000E+00  0.10510495198E+04  0.10510495198E+04  0.00000000000E+00 0. -1.
         -3   -1    0    0    0  501 -0.00000000000E+00 -0.00000000000E+00 -0.11748769787E+04  0.11748769787E+04  0.00000000000E+00 0.  1.
         23    2    1    2    0    0  0.53065851335E+02  0.29756312135E+02 -0.27139453595E+03  0.29254099683E+03  0.90685268875E+02 0.  0.
    9900016    2    1    2    0    0 -0.83583456269E+02  0.33422239462E+03 -0.67056661901E+03  0.10374197838E+04  0.71266360505E+03 0.  0.
         23    2    4    4    0    0  0.20065220700E+03  0.32936010997E+03 -0.29899554652E+03  0.49629254444E+03  0.90380100782E+02 0.  0.
        -15    1    3    3    0    0  0.35047142370E+02  0.59450683322E+02 -0.21951562180E+03  0.23010822269E+03  0.00000000000E+00 0.  1.
        -15    1    5    5    0    0  0.15647205295E+03  0.25645993406E+03 -0.27610267119E+03  0.40802927122E+03  0.00000000000E+00 0. -1.
         15    1    5    5    0    0  0.44180154055E+02  0.72900175903E+02 -0.22892875330E+02  0.88263273222E+02  0.00000000000E+00 0.  1.
         15    1    3    3    0    0  0.18018708965E+02 -0.29694371186E+02 -0.51878914151E+02  0.62432774137E+02  0.00000000000E+00 0. -1.
        -16    1    4    4    0    0 -0.20916491096E+03 -0.64498529409E+02 -0.10797396183E+03  0.24406637767E+03  0.00000000000E+00 0.  1.
         16    1    1    2    0    0  0.30517604934E+02 -0.36397870675E+03  0.81813369602E+03  0.89596571795E+03  0.00000000000E+00 0. -1.
    9900018    1    4    4    0    0 -0.75070752310E+02  0.69360814059E+02 -0.26359711066E+03  0.29706086164E+03  0.91187600000E+02 0.  0.
<mgrwt>
<rscale>  0 0.94047163E+03</rscale>
<asrwt>0</asrwt>
<pdfrwt beam="1">  1        3 0.16169993E+00 0.19277457E+04</pdfrwt>
<pdfrwt beam="2">  1       -3 0.18075030E+00 0.19277457E+04</pdfrwt>
<totfact> 0.12495351E-01</totfact>
</mgrwt>
</event>
<event>
12    1  0.3777551E-009  0.1015087E+04  0.7818608E-02  0.9890971E-01
         -1   -1    0    0    0  501 -0.00000000000E+00  0.00000000000E+00  0.10271987148E+04  0.10271987148E+04  0.00000000000E+00 0.  1.
          1   -1    0    0  501    0  0.00000000000E+00 -0.00000000000E+00 -0.89490168978E+03  0.89490168978E+03  0.00000000000E+00 0. -1.
         23    2    1    2    0    0  0.68658864401E+02 -0.60913474351E+02 -0.63595624430E+03  0.64906701649E+03  0.91777754478E+02 0.  0.
    9900016    2    1    2    0    0 -0.13674438647E+03  0.17243601952E+03  0.33182171718E+03  0.81746186121E+03  0.71393629581E+03 0.  0.
         23    2    4    4    0    0 -0.14163661145E+03  0.17691782372E+03  0.35855606356E+03  0.43506963513E+03  0.96758930561E+02 0.  0.
        -15    1    3    3    0    0  0.80330266780E+02 -0.76055165477E+02 -0.54893144586E+03  0.55996702779E+03  0.00000000000E+00 0. -1.
        -15    1    5    5    0    0 -0.54671050808E+02  0.22492547185E+02  0.15089281309E+03  0.16206011081E+03  0.00000000000E+00 0.  1.
         15    1    5    5    0    0 -0.86965560640E+02  0.15442527654E+03  0.20766325047E+03  0.27300952432E+03  0.00000000000E+00 0. -1.
         15    1    3    3    0    0 -0.11671402379E+02  0.15141691125E+02 -0.87024798443E+02  0.89099988707E+02  0.00000000000E+00 0.  1.
        -16    1    1    2    0    0  0.68085522071E+02 -0.11152254516E+03  0.43643155210E+03  0.45557152684E+03  0.00000000000E+00 0.  1.
         16    1    4    4    0    0 -0.21996236968E+02 -0.14311566731E+03  0.96459146317E+02  0.17398360721E+03  0.00000000000E+00 0. -1.
    9900018    1    4    4    0    0  0.26888461946E+02  0.13863386310E+03 -0.12319349269E+03  0.20840861887E+03  0.91187600000E+02 0.  0.
<mgrwt>
<rscale>  0 0.60700846E+03</rscale>
<asrwt>0</asrwt>
<pdfrwt beam="1">  1        1 0.13767718E+00 0.10150867E+04</pdfrwt>
<pdfrwt beam="2">  1       -1 0.15803057E+00 0.10150867E+04</pdfrwt>
<totfact> 0.55626624E+00</totfact>
</mgrwt>
</event>
<event>
12    1  0.3777551E-009  0.1771230E+04  0.7818608E-02  0.9257520E-01
         -2   -1    0    0    0  501 -0.00000000000E+00  0.00000000000E+00  0.35637582494E+03  0.35637582494E+03  0.00000000000E+00 0.  1.
          2   -1    0    0  501    0  0.00000000000E+00 -0.00000000000E+00 -0.30316492654E+04  0.30316492654E+04  0.00000000000E+00 0. -1.
         23    2    1    2    0    0  0.41133254377E+02 -0.19167300457E+03 -0.52612413765E+02  0.22328064407E+03  0.93035985721E+02 0.  0.
    9900016    2    1    2    0    0  0.21354784088E+03 -0.54760191194E+03 -0.10024529576E+04  0.13657269228E+04  0.71751485089E+03 0.  0.
         23    2    4    4    0    0 -0.22437513848E+03 -0.23782152459E+03 -0.47818353998E+03  0.58826346906E+03  0.10242622120E+03 0.  0.
        -15    1    3    3    0    0  0.24315743405E+02 -0.55241576659E+02 -0.60672374252E+02  0.85580512772E+02  0.00000000000E+00 0. -1.
        -15    1    5    5    0    0 -0.70913969826E+02 -0.21734388916E+02 -0.14167464053E+03  0.15991522300E+03  0.00000000000E+00 0. -1.
         15    1    5    5    0    0 -0.15346116865E+03 -0.21608713567E+03 -0.33650889945E+03  0.42834824606E+03  0.00000000000E+00 0.  1.
         15    1    3    3    0    0  0.16817510972E+02 -0.13643142791E+03  0.80599604869E+01  0.13770013130E+03  0.00000000000E+00 0.  1.
        -16    1    4    4    0    0  0.15821792522E+03 -0.93910686513E+02 -0.29129299030E+03  0.34453408410E+03  0.00000000000E+00 0.  1.
         16    1    1    2    0    0 -0.25468109525E+03  0.73927491651E+03 -0.16202080692E+04  0.17990175235E+04  0.00000000000E+00 0. -1.
    9900018    1    4    4    0    0  0.27970505413E+03 -0.21586970084E+03 -0.23297642727E+03  0.43292936965E+03  0.91187600000E+02 0.  0.
<mgrwt>
<rscale>  0 0.10478954E+04</rscale>
<asrwt>0</asrwt>
<pdfrwt beam="1">  1        2 0.46640756E+00 0.17712302E+04</pdfrwt>
<pdfrwt beam="2">  1       -2 0.54827052E-01 0.17712302E+04</pdfrwt>
<totfact> 0.49205036E+00</totfact>
</mgrwt>
</event>
<event>
12    1  0.3777551E-009  0.2454509E+04  0.7818608E-02  0.8841327E-01
         -2   -1    0    0    0  501 -0.00000000000E+00  0.00000000000E+00  0.13785192052E+04  0.13785192052E+04  0.00000000000E+00 0.  1.
          2   -1    0    0  501    0  0.00000000000E+00 -0.00000000000E+00 -0.15103633153E+04  0.15103633153E+04  0.00000000000E+00 0. -1.
         23    2    1    2    0    0  0.39273177141E+03 -0.50197887686E+02  0.11156114715E+03  0.42233435306E+03  0.95720133798E+02 0.  0.
    9900016    2    1    2    0    0  0.77702864902E+03  0.33739777978E+02  0.40668232104E+03  0.11281819358E+04  0.70886675471E+03 0.  0.
         23    2    4    4    0    0  0.15929990067E+03  0.21172275314E+03  0.15241454725E+03  0.32247419225E+03  0.10274447870E+03 0.  0.
        -15    1    3    3    0    0  0.41552342893E+02 -0.23181606717E+02  0.41673016402E+02  0.63250489215E+02  0.00000000000E+00 0.  1.
        -15    1    5    5    0    0  0.10393384247E+03  0.17696670121E+03  0.69048950691E+02  0.21653455738E+03  0.00000000000E+00 0. -1.
         15    1    3    3    0    0  0.35117942852E+03 -0.27016280969E+02  0.69888130748E+02  0.35908386384E+03  0.00000000000E+00 0. -1.
         15    1    5    5    0    0  0.55366058206E+02  0.34756051928E+02  0.83365596564E+02  0.10593963487E+03  0.00000000000E+00 0.  1.
        -16    1    4    4    0    0  0.63139810266E+02 -0.13361522314E+03 -0.60867277089E+02  0.15982643372E+03  0.00000000000E+00 0.  1.
         16    1    1    2    0    0 -0.11697604204E+04  0.16458109708E+02 -0.65008757824E+03  0.13383662316E+04  0.00000000000E+00 0. -1.
    9900018    1    4    4    0    0  0.55458893809E+03 -0.44367752021E+02  0.31513505087E+03  0.64588130980E+03  0.91187600000E+02 0.  0.
<mgrwt>
<rscale>  0 0.15666101E+04</rscale>
<asrwt>0</asrwt>
<pdfrwt beam="1">  1        2 0.23236359E+00 0.24545089E+04</pdfrwt>
<pdfrwt beam="2">  1       -2 0.21207988E+00 0.24545089E+04</pdfrwt>
<totfact> 0.12270667E+00</totfact>
</mgrwt>
</event>
