<event>
11    1  0.4048592E-010  0.1750599E+04  0.7818608E-02  0.8733021E-01
         -2   -1    0    0    0  501 -0.00000000000E+00  0.00000000000E+00  0.20463536540E+03  0.20463536540E+03  0.00000000000E+00 0.  1.
          2   -1    0    0  501    0  0.00000000000E+00 -0.00000000000E+00 -0.37439723586E+04  0.37439723586E+04  0.00000000000E+00 0. -1.
    9900016    2    1    2    0    0  0.40124110663E+03  0.37148815227E+03 -0.31988289489E+04  0.33044465631E+04  0.62278613598E+03 0.  0.
         25    2    3    3    0    0  0.60667537966E+02  0.27598301312E+03 -0.12673929836E+04  0.13045145363E+04  0.12500410675E+03 0.  0.
        -15    1    4    4    0    0  0.72208017838E+02  0.13276818772E+03 -0.59473281912E+03  0.61363549086E+03  0.00000000000E+00 0. -1.
        -15    1    4    4    0    0 -0.19161624187E+01  0.97816908858E+02 -0.52963909708E+03  0.53859947317E+03  0.00000000000E+00 0.  1.
         15    1    4    4    0    0 -0.13029998813E+02  0.23416668079E+02 -0.10366402296E+03  0.10707170900E+03  0.00000000000E+00 0. -1.
         15    1    4    4    0    0  0.34056813601E+01  0.21981248460E+02 -0.39357044473E+02  0.45207863244E+02  0.00000000000E+00 0.  1.
        -16    1    1    2    0    0 -0.40124110663E+03 -0.37148815227E+03 -0.34050804422E+03  0.64416116081E+03  0.00000000000E+00 0.  1.
         16    1    3    3    0    0  0.49945453737E+02  0.33397613181E+02 -0.12442837384E+04  0.12457335071E+04  0.00000000000E+00 0. -1.
    9900018    1    3    3    0    0  0.29062811492E+03  0.62107525966E+02 -0.68715222688E+03  0.75419851980E+03  0.91187600000E+02 0.  0.
<mgrwt>
<rscale>  0 0.17505989E+04</rscale>
<asrwt>0</asrwt>
<pdfrwt beam="1">  1        2 0.57599576E+00 0.17505989E+04</pdfrwt>
<pdfrwt beam="2">  1       -2 0.31482363E-01 0.17505989E+04</pdfrwt>
<totfact> 0.48649827E+00</totfact>
</mgrwt>
</event>
<event>
12    1  0.4048592E-010  0.1023113E+04  0.7818608E-02  0.9283552E-01
         -2   -1    0    0    0  501 -0.00000000000E+00  0.00000000000E+00  0.21226472063E+03  0.21226472063E+03  0.00000000000E+00 0.  1.
          2   -1    0    0  501    0  0.00000000000E+00 -0.00000000000E+00 -0.12328472616E+04  0.12328472616E+04  0.00000000000E+00 0. -1.
    9900016    2    1    2    0    0  0.13115008810E+03  0.25089883095E+03 -0.55076739126E+03  0.89658956346E+03  0.64836529600E+03 0.  0.
         25    2    3    3    0    0 -0.66279825339E+02  0.53471985529E+02 -0.11438969076E+03  0.18962522436E+03  0.12498182219E+03 0.  0.
         23    2    4    4    0    0 -0.18662077478E+02  0.29871746277E+02 -0.54601489066E+02  0.99028113843E+02  0.74730518276E+02 0.  0.
        -15    1    4    4    0    0  0.48804996628E+01  0.10783684553E+02 -0.20900243745E+02  0.24019311357E+02  0.00000000000E+00 0. -1.
        -15    1    5    5    0    0 -0.14268724111E+02  0.51301407726E+02 -0.17669744775E+02  0.56103928586E+02  0.00000000000E+00 0.  1.
         15    1    4    4    0    0 -0.52498247524E+02  0.12816554699E+02 -0.38887957954E+02  0.66577799162E+02  0.00000000000E+00 0. -1.
         15    1    5    5    0    0 -0.43933533669E+01 -0.21429661449E+02 -0.36931744291E+02  0.42924185257E+02  0.00000000000E+00 0.  1.
        -16    1    3    3    0    0  0.34527555072E+03  0.12679018845E+03 -0.27004678431E+03  0.45630715919E+03  0.00000000000E+00 0.  1.
         16    1    1    2    0    0 -0.13115008810E+03 -0.25089883095E+03 -0.46981514972E+03  0.54852241877E+03  0.00000000000E+00 0. -1.
    9900018    1    3    3    0    0 -0.14784563728E+03  0.70636656974E+02 -0.16633091618E+03  0.25065717991E+03  0.91187600000E+02 0.  0.
<mgrwt>
<rscale>  0 0.10231129E+04</rscale>
<asrwt>0</asrwt>
<pdfrwt beam="1">  1        2 0.18966881E+00 0.10231129E+04</pdfrwt>
<pdfrwt beam="2">  1       -2 0.32656111E-01 0.10231129E+04</pdfrwt>
<totfact> 0.15763214E+02</totfact>
</mgrwt>
</event>
<event>
12    1  0.4048592E-010  0.9802735E+03  0.7818608E-02  0.9330449E-01
          2   -1    0    0  501    0  0.00000000000E+00  0.00000000000E+00  0.10088247653E+04  0.10088247653E+04  0.00000000000E+00 0.  1.
         -2   -1    0    0    0  501 -0.00000000000E+00 -0.00000000000E+00 -0.23813254812E+03  0.23813254812E+03  0.00000000000E+00 0. -1.
    9900016    2    1    2    0    0 -0.85040704917E+00  0.23544710558E+03  0.80143931472E+03  0.10095095366E+04  0.56689369953E+03 0.  0.
         25    2    3    3    0    0  0.76651262978E+02  0.84498884681E+02  0.16858645724E+03  0.23887544838E+03  0.12499843457E+03 0.  0.
         23    2    4    4    0    0  0.18490134208E+02  0.69513719280E+02  0.63385837389E+02  0.11252642513E+03  0.58910013911E+02 0.  0.
        -15    1    5    5    0    0  0.25233572771E+02  0.38227294797E+02  0.66085985234E+02  0.80407814960E+02  0.00000000000E+00 0.  1.
        -15    1    4    4    0    0  0.12775974635E+02  0.31278263970E+01  0.59220232205E+02  0.60663372213E+02  0.00000000000E+00 0. -1.
         15    1    4    4    0    0  0.45385154135E+02  0.11857339003E+02  0.45980387647E+02  0.65685651038E+02  0.00000000000E+00 0. -1.
         15    1    5    5    0    0 -0.67434385632E+01  0.31286424484E+02 -0.27001478455E+01  0.32118610166E+02  0.00000000000E+00 0.  1.
        -16    1    3    3    0    0 -0.46153007134E+02 -0.12668202574E+03  0.28473656760E+03  0.31504499463E+03  0.00000000000E+00 0.  1.
         16    1    1    2    0    0  0.85040704917E+00 -0.23544710558E+03 -0.30747097531E+02  0.23744777684E+03  0.00000000000E+00 0. -1.
    9900018    1    3    3    0    0 -0.31348662893E+02  0.27763024665E+03  0.34811628988E+03  0.45558909358E+03  0.91187600000E+02 0.  0.
<mgrwt>
<rscale>  0 0.98027346E+03</rscale>
<asrwt>0</asrwt>
<pdfrwt beam="1">  1        2 0.15520381E+00 0.98027346E+03</pdfrwt>
<pdfrwt beam="2">  1       -2 0.36635777E-01 0.98027346E+03</pdfrwt>
<totfact> 0.17413135E+02</totfact>
</mgrwt>
</event>
<event>
12    1  0.4048592E-010  0.7457104E+03  0.7818608E-02  0.9642104E-01
         -2   -1    0    0    0  501 -0.00000000000E+00  0.00000000000E+00  0.32790560893E+03  0.32790560893E+03  0.00000000000E+00 0.  1.
          2   -1    0    0  501    0  0.00000000000E+00 -0.00000000000E+00 -0.42396647579E+03  0.42396647579E+03  0.00000000000E+00 0. -1.
    9900016    2    1    2    0    0 -0.22470902230E+02 -0.84753386316E+02 -0.12110103990E+03  0.66068497924E+03  0.64354572642E+03 0.  0.
         25    2    3    3    0    0 -0.13734579179E+03 -0.93343923275E+02 -0.69402475926E+02  0.21913420524E+03  0.12500456674E+03 0.  0.
         23    2    4    4    0    0 -0.47621865614E+02 -0.20624202358E+02 -0.61705720467E+02  0.99051988472E+02  0.57536950514E+02 0.  0.
        -15    1    4    4    0    0 -0.23719166150E+02 -0.36872373162E+02  0.41666548341E+01  0.44040115326E+02  0.00000000000E+00 0.  1.
        -15    1    5    5    0    0 -0.56849669829E+02 -0.99708822486E+01 -0.31579440886E+02  0.65791827298E+02  0.00000000000E+00 0.  1.
         15    1    5    5    0    0  0.92278042148E+01 -0.10653320109E+02 -0.30126279581E+02  0.33260161174E+02  0.00000000000E+00 0. -1.
         15    1    4    4    0    0 -0.66004760029E+02 -0.35847347755E+02 -0.11863410293E+02  0.76042101440E+02  0.00000000000E+00 0. -1.
        -16    1    3    3    0    0  0.22580078451E+03  0.11274426598E+03  0.13028701846E+02  0.25271923328E+03  0.00000000000E+00 0.  1.
         16    1    1    2    0    0  0.22470902230E+02  0.84753386316E+02  0.25040173043E+02  0.91187105476E+02  0.00000000000E+00 0. -1.
    9900018    1    3    3    0    0 -0.11092589494E+03 -0.10415372903E+03 -0.64727265823E+02  0.18883154073E+03  0.91187600000E+02 0.  0.
<mgrwt>
<rscale>  0 0.74571036E+03</rscale>
<asrwt>0</asrwt>
<pdfrwt beam="1">  1        2 0.65225611E-01 0.74571036E+03</pdfrwt>
<pdfrwt beam="2">  1       -2 0.50447017E-01 0.74571036E+03</pdfrwt>
<totfact> 0.27898627E+02</totfact>
</mgrwt>
</event>
<event>
12    1  0.4048592E-010  0.1046015E+04  0.7818608E-02  0.9259468E-01
         -1   -1    0    0    0  501 -0.00000000000E+00  0.00000000000E+00  0.64992074744E+03  0.64992074744E+03  0.00000000000E+00 0.  1.
          1   -1    0    0  501    0  0.00000000000E+00 -0.00000000000E+00 -0.42087759342E+03  0.42087759342E+03  0.00000000000E+00 0. -1.
    9900016    2    1    2    0    0 -0.12336884027E+03  0.96900503860E+02  0.21099893502E+03  0.91288959431E+03  0.87420665888E+03 0.  0.
         25    2    3    3    0    0 -0.14676664318E+03  0.99540385628E+02 -0.14599015247E+03  0.26150843329E+03  0.12499920055E+03 0.  0.
         23    2    4    4    0    0 -0.11436598943E+03  0.74144220230E+02 -0.10580915944E+03  0.18310349164E+03  0.61272877342E+02 0.  0.
        -15    1    4    4    0    0 -0.69321592627E+01  0.23858995258E+02 -0.45958166569E+02  0.52244229932E+02  0.00000000000E+00 0. -1.
        -15    1    5    5    0    0 -0.82766279067E+02  0.23045477206E+02 -0.81081479996E+02  0.11813364198E+03  0.00000000000E+00 0. -1.
         15    1    5    5    0    0 -0.31599710367E+02  0.51098743024E+02 -0.24727679442E+02  0.64969849657E+02  0.00000000000E+00 0.  1.
         15    1    4    4    0    0 -0.25468494485E+02  0.15371701407E+01  0.57771735315E+01  0.26160711714E+02  0.00000000000E+00 0.  1.
        -16    1    1    2    0    0  0.12336884027E+03 -0.96900503860E+02  0.18044219004E+02  0.15790874655E+03  0.00000000000E+00 0.  1.
         16    1    3    3    0    0  0.67681104723E+02  0.11019105759E+03 -0.10408311824E+03  0.16600029100E+03  0.00000000000E+00 0. -1.
    9900018    1    3    3    0    0 -0.44283301810E+02 -0.11283093935E+03  0.46107220573E+03  0.48538087002E+03  0.91187600000E+02 0.  0.
<mgrwt>
<rscale>  0 0.10460154E+04</rscale>
<asrwt>0</asrwt>
<pdfrwt beam="1">  1        1 0.64750399E-01 0.10460154E+04</pdfrwt>
<pdfrwt beam="2">  1       -1 0.99987808E-01 0.10460154E+04</pdfrwt>
<totfact> 0.53457409E+01</totfact>
</mgrwt>
</event>
<event>
12    1  0.4048592E-010  0.9208221E+03  0.7818608E-02  0.9399921E-01
          1   -1    0    0  501    0  0.00000000000E+00  0.00000000000E+00  0.32365215457E+03  0.32365215457E+03  0.00000000000E+00 0. -1.
         -1   -1    0    0    0  501 -0.00000000000E+00 -0.00000000000E+00 -0.65495728505E+03  0.65495728505E+03  0.00000000000E+00 0.  1.
    9900016    2    1    2    0    0  0.82988477062E+02 -0.25690996679E+02 -0.24685858979E+03  0.85745526977E+03  0.81654348425E+03 0.  0.
         25    2    3    3    0    0 -0.14533637304E+03 -0.58115919620E+02 -0.51290021531E+02  0.20677470636E+03  0.12499996577E+03 0.  0.
         23    2    4    4    0    0 -0.59002498609E+02  0.46295389886E+01 -0.19020490563E+02  0.93451453350E+02  0.69775838215E+02 0.  0.
        -15    1    5    5    0    0  0.11144950446E+02  0.15764380481E+02 -0.10330198781E+02  0.21896086848E+02  0.00000000000E+00 0.  1.
        -15    1    4    4    0    0 -0.85051331059E+01 -0.13854846782E+02 -0.11931387010E+01  0.16300848090E+02  0.00000000000E+00 0.  1.
         15    1    5    5    0    0 -0.70147449055E+02 -0.11134841492E+02 -0.86902917822E+01  0.71555366502E+02  0.00000000000E+00 0. -1.
         15    1    4    4    0    0 -0.77828741321E+02 -0.48890611827E+02 -0.31076392267E+02  0.97022404922E+02  0.00000000000E+00 0. -1.
        -16    1    1    2    0    0 -0.82988477062E+02  0.25690996679E+02 -0.84446540699E+02  0.12115416985E+03  0.00000000000E+00 0.  1.
         16    1    3    3    0    0  0.23835100903E+03 -0.44563810623E+02  0.14987834273E+03  0.28506254462E+03  0.00000000000E+00 0. -1.
    9900018    1    3    3    0    0 -0.10026158930E+02  0.76988733565E+02 -0.34544691099E+03  0.36561801879E+03  0.91187600000E+02 0.  0.
<mgrwt>
<rscale>  0 0.92082210E+03</rscale>
<asrwt>0</asrwt>
<pdfrwt beam="1">  1        1 0.49792640E-01 0.92082210E+03</pdfrwt>
<pdfrwt beam="2">  1       -1 0.10076266E+00 0.92082210E+03</pdfrwt>
<totfact> 0.74907541E+01</totfact>
</mgrwt>
</event>
