<event>
12    1  0.3003327E-008  0.5049598E+04  0.7818608E-02  0.7820901E-01
         -2   -1    0    0    0  501 -0.00000000000E+00  0.00000000000E+00  0.17016942078E+04  0.17016942078E+04  0.00000000000E+00 0. -1.
          2   -1    0    0  501    0  0.00000000000E+00 -0.00000000000E+00 -0.37460372482E+04  0.37460372482E+04  0.00000000000E+00 0.  1.
    9900016    2    1    2    0    0 -0.62251429360E+03  0.57387243979E+03 -0.45686247173E+02  0.23549085997E+04  0.21969646462E+04 0.  0.
    9900016    2    1    2    0    0  0.62251429360E+03 -0.57387243979E+03 -0.19986567932E+04  0.30928228564E+04  0.22031955476E+04 0.  0.
         24    2    4    4    0    0  0.53367307001E+02 -0.68515175124E+03 -0.22698052596E+04  0.23728858362E+04  0.79311306645E+02 0.  0.
        -15    1    5    5    0    0  0.41932241250E+02 -0.50248691049E+03 -0.15383182382E+04  0.16188497181E+04  0.00000000000E+00 0.  1.
        -15    1    3    3    0    0 -0.33575389269E+03  0.11572860365E+03  0.28602228660E+00  0.35513922336E+03  0.00000000000E+00 0.  1.
         15    1    3    3    0    0 -0.97960542893E+03  0.27126941513E+03  0.46605329848E+03  0.11182216100E+04  0.00000000000E+00 0. -1.
         15    1    4    4    0    0  0.47856758260E+02  0.88940876620E+02  0.14284153072E+03  0.17494128084E+03  0.00000000000E+00 0. -1.
        -16    1    3    3    0    0  0.69284502803E+03  0.18687442102E+03 -0.51202556794E+03  0.88154776632E+03  0.00000000000E+00 0.  1.
         16    1    5    5    0    0  0.11435065751E+02 -0.18266484075E+03 -0.73148702142E+03  0.75403611802E+03  0.00000000000E+00 0. -1.
    9900018    1    4    4    0    0  0.52129022834E+03  0.22338434825E+02  0.12830693563E+03  0.54499573939E+03  0.91187600000E+02 0.  0.
<mgrwt>
<rscale>  0 0.50495980E+04</rscale>
<asrwt>0</asrwt>
<pdfrwt beam="1">  1        2 0.57631342E+00 0.50495980E+04</pdfrwt>
<pdfrwt beam="2">  1       -2 0.26179911E+00 0.50495980E+04</pdfrwt>
<totfact> 0.21211746E-02</totfact>
</mgrwt>
</event>
<event>
13    1  0.3003327E-008  0.4807043E+04  0.7818608E-02  0.7858982E-01
         -2   -1    0    0    0  501 -0.00000000000E+00  0.00000000000E+00  0.17082802704E+04  0.17082802704E+04  0.00000000000E+00 0. -1.
          2   -1    0    0  501    0  0.00000000000E+00 -0.00000000000E+00 -0.33817145164E+04  0.33817145164E+04  0.00000000000E+00 0.  1.
    9900016    2    1    2    0    0  0.87002606044E+02 -0.54168569840E+02  0.17183257877E+03  0.22200307479E+04  0.22109966981E+04 0.  0.
         23    2    3    3    0    0 -0.30743748501E+03 -0.71784646184E+02  0.11342993977E+04  0.11797251730E+04  0.73793751538E+02 0.  0.
    9900016    2    1    2    0    0 -0.87002606044E+02  0.54168569840E+02 -0.18452668248E+04  0.28699640390E+04  0.21957186165E+04 0.  0.
         24    2    5    5    0    0 -0.23329890464E+03 -0.59956442482E+03 -0.14811875504E+04  0.16169510412E+04  0.81903796832E+02 0.  0.
        -15    1    6    6    0    0 -0.10871189479E+03 -0.22474001851E+03 -0.66199319821E+03  0.70750360173E+03  0.00000000000E+00 0.  1.
        -15    1    4    4    0    0 -0.14024092502E+03  0.45585432098E+01  0.50562616387E+03  0.52473432798E+03  0.00000000000E+00 0.  1.
         15    1    5    5    0    0 -0.19695845853E+03  0.31079334761E+03  0.26492044589E+03  0.45339605419E+03  0.00000000000E+00 0. -1.
         15    1    4    4    0    0 -0.16719655999E+03 -0.76343189394E+02  0.62867323378E+03  0.65499084506E+03  0.00000000000E+00 0. -1.
        -16    1    3    3    0    0  0.39444009105E+03  0.17616076344E+02 -0.96246681888E+03  0.10403055748E+04  0.00000000000E+00 0.  1.
         16    1    6    6    0    0 -0.12458700985E+03 -0.37482440632E+03 -0.81919435215E+03  0.90944743949E+03  0.00000000000E+00 0. -1.
    9900018    1    5    5    0    0  0.34325475713E+03  0.34293964705E+03 -0.62899972035E+03  0.79961694355E+03  0.91187600000E+02 0.  0.
<mgrwt>
<rscale>  0 0.48070432E+04</rscale>
<asrwt>0</asrwt>
<pdfrwt beam="1">  1        2 0.52026376E+00 0.48070432E+04</pdfrwt>
<pdfrwt beam="2">  1       -2 0.26281235E+00 0.48070432E+04</pdfrwt>
<totfact> 0.38837571E-02</totfact>
</mgrwt>
</event>
<event>
12    1  0.3003327E-008  0.4733865E+04  0.7818608E-02  0.7870926E-01
          2   -1    0    0  501    0  0.00000000000E+00  0.00000000000E+00  0.20716846298E+04  0.20716846298E+04  0.00000000000E+00 0. -1.
         -2   -1    0    0    0  501 -0.00000000000E+00 -0.00000000000E+00 -0.27042582058E+04  0.27042582058E+04  0.00000000000E+00 0.  1.
    9900016    2    1    2    0    0  0.16195379384E+03  0.80504321398E+03 -0.54213780067E+02  0.23491583546E+04  0.22002913973E+04 0.  0.
    9900016    2    1    2    0    0 -0.16195379384E+03 -0.80504321398E+03 -0.57835979594E+03  0.24267844809E+04  0.22091761486E+04 0.  0.
        -24    2    4    4    0    0  0.21557345591E+03 -0.23197851005E+03 -0.12560890688E+04  0.12980652852E+04  0.83233358626E+02 0.  0.
        -15    1    3    3    0    0 -0.39165879121E+02 -0.11747218933E+03  0.11891468045E+03  0.17168104898E+03  0.00000000000E+00 0.  1.
        -15    1    4    4    0    0 -0.33760710056E+03 -0.29710357393E+03  0.70270527763E+03  0.83429239191E+03  0.00000000000E+00 0.  1.
         15    1    5    5    0    0  0.67969447979E+02 -0.13339404994E+03 -0.55087912897E+03  0.57086043229E+03  0.00000000000E+00 0. -1.
         15    1    3    3    0    0  0.11652435553E+03 -0.42671892615E+03  0.49974760703E+03  0.66739391524E+03  0.00000000000E+00 0. -1.
        -16    1    5    5    0    0  0.14760400793E+03 -0.98584460113E+02 -0.70520993982E+03  0.72720485295E+03  0.00000000000E+00 0.  1.
         16    1    3    3    0    0  0.84595317426E+02  0.13492343295E+04 -0.67287606755E+03  0.15100833903E+04  0.00000000000E+00 0. -1.
    9900018    1    4    4    0    0 -0.39920149196E+02 -0.27596113000E+03 -0.24976004777E+02  0.29442680379E+03  0.91187600000E+02 0.  0.
<mgrwt>
<rscale>  0 0.47338653E+04</rscale>
<asrwt>0</asrwt>
<pdfrwt beam="1">  1        2 0.31872071E+00 0.47338653E+04</pdfrwt>
<pdfrwt beam="2">  1       -2 0.41603972E+00 0.47338653E+04</pdfrwt>
<totfact> 0.26405296E-02</totfact>
</mgrwt>
</event>
<event>
13    1  0.3003327E-008  0.5678238E+04  0.7818608E-02  0.7731629E-01
         -2   -1    0    0    0  501 -0.00000000000E+00  0.00000000000E+00  0.43547402063E+04  0.43547402063E+04  0.00000000000E+00 0. -1.
          2   -1    0    0  501    0  0.00000000000E+00 -0.00000000000E+00 -0.18509936002E+04  0.18509936002E+04  0.00000000000E+00 0.  1.
    9900016    2    1    2    0    0 -0.26439335361E+03 -0.14613582624E+04  0.23503404042E+04  0.35476612878E+04  0.22037079616E+04 0.  0.
         23    2    3    3    0    0  0.26760333101E+03  0.38357858250E+03  0.12395359720E+04  0.13293964431E+04  0.11000638782E+03 0.  0.
    9900016    2    1    2    0    0  0.26439335361E+03  0.14613582624E+04  0.15340620189E+03  0.26580725188E+04  0.21991689876E+04 0.  0.
        -24    2    5    5    0    0  0.27168987583E+03 -0.39078227873E+03  0.47610914410E+03  0.67784891662E+03  0.79202643074E+02 0.  0.
        -15    1    4    4    0    0  0.73131461252E+02  0.19717293754E+03  0.50600899442E+03  0.54796941553E+03  0.00000000000E+00 0. -1.
        -15    1    5    5    0    0 -0.13288077055E+03  0.13194608794E+04 -0.46867057697E+03  0.14065157024E+04  0.00000000000E+00 0.  1.
         15    1    6    6    0    0  0.22478636748E+03 -0.35120357074E+03  0.44194785043E+03  0.60761069906E+03  0.00000000000E+00 0. -1.
         15    1    4    4    0    0  0.19447186976E+03  0.18640564497E+03  0.73352697761E+03  0.78142702761E+03  0.00000000000E+00 0.  1.
        -16    1    6    6    0    0  0.46903508349E+02 -0.39578707986E+02  0.34161293670E+02  0.70238217564E+02  0.00000000000E+00 0.  1.
         16    1    3    3    0    0 -0.53199668462E+03 -0.18449368449E+04  0.11108044322E+04  0.22182648446E+04  0.00000000000E+00 0. -1.
    9900018    1    5    5    0    0  0.12558424832E+03  0.53267966178E+03  0.14596763475E+03  0.57370789980E+03  0.91187600000E+02 0.  0.
<mgrwt>
<rscale>  0 0.56782378E+04</rscale>
<asrwt>0</asrwt>
<pdfrwt beam="1">  1        2 0.28476825E+00 0.56782378E+04</pdfrwt>
<pdfrwt beam="2">  1       -2 0.66996003E+00 0.56782378E+04</pdfrwt>
<totfact> 0.16359569E-03</totfact>
</mgrwt>
</event>
<event>
13    1  0.3003327E-008  0.5227057E+04  0.7818608E-02  0.7794405E-01
         -2   -1    0    0    0  501 -0.00000000000E+00  0.00000000000E+00  0.20809445523E+04  0.20809445523E+04  0.00000000000E+00 0.  1.
          2   -1    0    0  501    0  0.00000000000E+00 -0.00000000000E+00 -0.32824189932E+04  0.32824189932E+04  0.00000000000E+00 0. -1.
    9900016    2    1    2    0    0 -0.12050917525E+04 -0.72515398566E+03 -0.76226233070E+03  0.26969416859E+04  0.21712568161E+04 0.  0.
         23    2    3    3    0    0  0.11828682936E+02  0.52662876525E+02  0.65902172983E+03  0.67062907478E+03  0.11189467925E+03 0.  0.
    9900016    2    1    2    0    0  0.12050917525E+04  0.72515398566E+03 -0.43921211025E+03  0.26664218596E+04  0.22223419675E+04 0.  0.
         24    2    5    5    0    0 -0.24308959396E+03  0.30893418657E+03 -0.51103446543E+03  0.64977494089E+03  0.80736402140E+02 0.  0.
        -15    1    6    6    0    0 -0.16014043359E+03  0.20061975459E+03 -0.26824152854E+03  0.37127720377E+03  0.00000000000E+00 0.  1.
        -15    1    4    4    0    0 -0.36742521857E+02  0.63258293131E+02  0.43967023533E+03  0.44571464010E+03  0.00000000000E+00 0. -1.
         15    1    4    4    0    0  0.48571204793E+02 -0.10595416606E+02  0.21935149450E+03  0.22491443468E+03  0.00000000000E+00 0.  1.
         15    1    5    5    0    0  0.42944915314E+03 -0.26250530248E+03  0.50686676049E+03  0.71431752173E+03  0.00000000000E+00 0. -1.
        -16    1    3    3    0    0 -0.12169204354E+04 -0.77781686218E+03 -0.14212840605E+04  0.20263126111E+04  0.00000000000E+00 0.  1.
         16    1    6    6    0    0 -0.82949160369E+02  0.10831443198E+03 -0.24279293688E+03  0.27849773712E+03  0.00000000000E+00 0. -1.
    9900018    1    5    5    0    0  0.10187321933E+04  0.67872510157E+03 -0.43504440531E+03  0.13023293970E+04  0.91187600000E+02 0.  0.
<mgrwt>
<rscale>  0 0.52270573E+04</rscale>
<asrwt>0</asrwt>
<pdfrwt beam="1">  1        2 0.50498754E+00 0.52270573E+04</pdfrwt>
<pdfrwt beam="2">  1       -2 0.32014532E+00 0.52270573E+04</pdfrwt>
<totfact> 0.19528389E-02</totfact>
</mgrwt>
</event>
<event>
12    1  0.3003327E-008  0.5199774E+04  0.7818608E-02  0.7798408E-01
          2   -1    0    0  501    0  0.00000000000E+00  0.00000000000E+00  0.26490507979E+04  0.26490507979E+04  0.00000000000E+00 0.  1.
         -2   -1    0    0    0  501 -0.00000000000E+00 -0.00000000000E+00 -0.25516354386E+04  0.25516354386E+04  0.00000000000E+00 0. -1.
    9900016    2    1    2    0    0 -0.11106154727E+04  0.78121321318E+03  0.34175158999E+03  0.26059825636E+04  0.21978603595E+04 0.  0.
    9900016    2    1    2    0    0  0.11106154727E+04 -0.78121321318E+03 -0.24433623065E+03  0.25947036728E+04  0.21975045264E+04 0.  0.
        -24    2    4    4    0    0  0.85396659883E+02  0.13850162358E+03  0.54125401414E+03  0.57075304421E+03  0.79547724043E+02 0.  0.
        -15    1    3    3    0    0 -0.28443457470E+00 -0.43703460344E+03  0.53882104168E+03  0.69377765924E+03  0.00000000000E+00 0.  1.
        -15    1    4    4    0    0  0.68677610623E+03 -0.41370847129E+03 -0.10771978038E+04  0.13428221133E+04  0.00000000000E+00 0.  1.
         15    1    5    5    0    0  0.10638435449E+02  0.92538753629E+02  0.26492076495E+03  0.28081953090E+03  0.00000000000E+00 0. -1.
         15    1    3    3    0    0 -0.67878687349E+02 -0.13330428802E+03  0.99642287771E+02  0.17973907453E+03  0.00000000000E+00 0. -1.
        -16    1    5    5    0    0  0.74758224433E+02  0.45962869955E+02  0.27633324919E+03  0.28993351332E+03  0.00000000000E+00 0.  1.
         16    1    3    3    0    0 -0.10424523508E+04  0.13515521046E+04 -0.29671173946E+03  0.17324658299E+04  0.00000000000E+00 0. -1.
    9900018    1    4    4    0    0  0.33844270663E+03 -0.50600636547E+03  0.29160755902E+03  0.68112851536E+03  0.91187600000E+02 0.  0.
<mgrwt>
<rscale>  0 0.51997738E+04</rscale>
<asrwt>0</asrwt>
<pdfrwt beam="1">  1        2 0.40754627E+00 0.51997738E+04</pdfrwt>
<pdfrwt beam="2">  1       -2 0.39255930E+00 0.51997738E+04</pdfrwt>
<totfact> 0.16946166E-02</totfact>
</mgrwt>
</event>
<event>
13    1  0.3003327E-008  0.5017047E+04  0.7818608E-02  0.7825883E-01
         -1   -1    0    0    0  501 -0.00000000000E+00  0.00000000000E+00  0.18554933456E+04  0.18554933456E+04  0.00000000000E+00 0.  1.
          1   -1    0    0  501    0  0.00000000000E+00 -0.00000000000E+00 -0.33913844255E+04  0.33913844255E+04  0.00000000000E+00 0. -1.
    9900016    2    1    2    0    0  0.39047363335E+03 -0.10435394996E+04 -0.29526070586E+03  0.24817169672E+04  0.21977934106E+04 0.  0.
         23    2    3    3    0    0  0.84225079891E+02 -0.22659256196E+03  0.93826421866E+03  0.97083172511E+03  0.61126436527E+02 0.  0.
    9900016    2    1    2    0    0 -0.39047363335E+03  0.10435394996E+04 -0.12406303740E+04  0.27651608038E+04  0.22057892466E+04 0.  0.
        -24    2    5    5    0    0  0.85993810855E+02  0.98840287996E+03 -0.14318687005E+04  0.17438055134E+04  0.79211770099E+02 0.  0.
        -15    1    4    4    0    0  0.79377187058E+02 -0.12786542375E+03  0.56815254209E+03  0.58774791833E+03  0.00000000000E+00 0.  1.
        -15    1    5    5    0    0 -0.29998961112E+03 -0.22199514831E+03 -0.26068764537E+03  0.45522924016E+03  0.00000000000E+00 0.  1.
         15    1    4    4    0    0  0.48478928322E+01 -0.98727138211E+02  0.37011167657E+03  0.38308380679E+03  0.00000000000E+00 0. -1.
         15    1    6    6    0    0  0.85254484641E+02  0.87420201226E+03 -0.13055200679E+04  0.15734929720E+04  0.00000000000E+00 0. -1.
        -16    1    6    6    0    0  0.73932621408E+00  0.11420086770E+03 -0.12634863259E+03  0.17031254136E+03  0.00000000000E+00 0.  1.
         16    1    3    3    0    0  0.30624855346E+03 -0.81694693768E+03 -0.12335249245E+04  0.15108852421E+04  0.00000000000E+00 0. -1.
    9900018    1    5    5    0    0 -0.17647783308E+03  0.27713176798E+03  0.45192597181E+03  0.56612605026E+03  0.91187600000E+02 0.  0.
<mgrwt>
<rscale>  0 0.50170474E+04</rscale>
<asrwt>0</asrwt>
<pdfrwt beam="1">  1        1 0.52175145E+00 0.50170474E+04</pdfrwt>
<pdfrwt beam="2">  1       -1 0.28546051E+00 0.50170474E+04</pdfrwt>
<totfact> 0.89799030E-03</totfact>
</mgrwt>
</event>
<event>
13    1  0.3003327E-008  0.5143821E+04  0.7818608E-02  0.7806697E-01
          2   -1    0    0  501    0  0.00000000000E+00  0.00000000000E+00  0.31528689452E+04  0.31528689452E+04  0.00000000000E+00 0.  1.
         -2   -1    0    0    0  501 -0.00000000000E+00 -0.00000000000E+00 -0.20980013112E+04  0.20980013112E+04  0.00000000000E+00 0. -1.
    9900016    2    1    2    0    0 -0.11115253377E+04  0.45857327429E+03 -0.25893062640E+02  0.25292972821E+04  0.22250609579E+04 0.  0.
         23    2    3    3    0    0  0.22993482417E+03 -0.24996397460E+03  0.74655195607E+03  0.82688378767E+03  0.10509501998E+03 0.  0.
    9900016    2    1    2    0    0  0.11115253377E+04 -0.45857327429E+03  0.10807606967E+04  0.27215729743E+04  0.21893235820E+04 0.  0.
        -24    2    5    5    0    0  0.37121122640E+03 -0.25575355052E+03 -0.65198095786E+03  0.79673840030E+03  0.80655166630E+02 0.  0.
        -15    1    4    4    0    0  0.88320187846E+02 -0.42596691347E+02  0.28571423083E+03  0.30207210297E+03  0.00000000000E+00 0. -1.
        -15    1    5    5    0    0  0.59158594281E+03 -0.11751310915E+03  0.10093288061E+04  0.11758094648E+04  0.00000000000E+00 0.  1.
         15    1    4    4    0    0  0.14161463632E+03 -0.20736728326E+03  0.46083772524E+03  0.52481168469E+03  0.00000000000E+00 0.  1.
         15    1    6    6    0    0  0.16832955946E+03 -0.69488877249E+02 -0.27626447113E+03  0.33088608713E+03  0.00000000000E+00 0. -1.
        -16    1    6    6    0    0  0.20288166693E+03 -0.18626467328E+03 -0.37571648673E+03  0.46585231317E+03  0.00000000000E+00 0.  1.
         16    1    3    3    0    0 -0.13414601619E+04  0.70853724889E+03 -0.77244501871E+03  0.17024134944E+04  0.00000000000E+00 0. -1.
    9900018    1    5    5    0    0  0.14872816854E+03 -0.85306614618E+02  0.72341284842E+03  0.74902510924E+03  0.91187600000E+02 0.  0.
<mgrwt>
<rscale>  0 0.51438208E+04</rscale>
<asrwt>0</asrwt>
<pdfrwt beam="1">  1        2 0.48505676E+00 0.51438208E+04</pdfrwt>
<pdfrwt beam="2">  1       -2 0.32276943E+00 0.51438208E+04</pdfrwt>
<totfact> 0.23035686E-02</totfact>
</mgrwt>
</event>
<event>
12    1  0.3003327E-008  0.5073616E+04  0.7818608E-02  0.7817250E-01
         -1   -1    0    0    0  501 -0.00000000000E+00  0.00000000000E+00  0.17822333287E+04  0.17822333287E+04  0.00000000000E+00 0.  1.
          1   -1    0    0  501    0  0.00000000000E+00 -0.00000000000E+00 -0.36108604064E+04  0.36108604064E+04  0.00000000000E+00 0. -1.
    9900016    2    1    2    0    0 -0.11511164514E+04 -0.29603028317E+03 -0.13732261428E+04  0.28535124607E+04  0.22009271480E+04 0.  0.
    9900016    2    1    2    0    0  0.11511164514E+04  0.29603028317E+03 -0.45540093488E+03  0.25395812744E+04  0.21975850438E+04 0.  0.
         24    2    4    4    0    0  0.13899599317E+04 -0.16460340506E+03 -0.63127984318E+03  0.15376006715E+04  0.81355342263E+02 0.  0.
        -15    1    3    3    0    0 -0.15948019027E+03  0.40108984702E+03  0.15179132127E+03  0.45754519086E+03  0.00000000000E+00 0.  1.
        -15    1    5    5    0    0  0.57115542264E+03 -0.42081180119E+02 -0.29214344563E+03  0.64291300761E+03  0.00000000000E+00 0.  1.
         15    1    4    4    0    0 -0.45045897543E+03  0.36932342579E+02  0.24603724369E+03  0.51459849569E+03  0.00000000000E+00 0. -1.
         15    1    3    3    0    0  0.41844050943E+02  0.22305175221E+03  0.11148959275E+03  0.25284963527E+03  0.00000000000E+00 0. -1.
        -16    1    3    3    0    0 -0.10334803120E+04 -0.92017188241E+03 -0.16365070568E+04  0.21431176345E+04  0.00000000000E+00 0.  1.
         16    1    5    5    0    0  0.81880450910E+03 -0.12252222494E+03 -0.33913639755E+03  0.89468766386E+03  0.00000000000E+00 0. -1.
    9900018    1    4    4    0    0  0.21161549505E+03  0.42370134565E+03 -0.70158335393E+02  0.48738210725E+03  0.91187600000E+02 0.  0.
<mgrwt>
<rscale>  0 0.50736164E+04</rscale>
<asrwt>0</asrwt>
<pdfrwt beam="1">  1        1 0.55551698E+00 0.50736164E+04</pdfrwt>
<pdfrwt beam="2">  1       -1 0.27418975E+00 0.50736164E+04</pdfrwt>
<totfact> 0.70917380E-03</totfact>
</mgrwt>
</event>
<event>
13    1  0.3003327E-008  0.6070320E+04  0.7818608E-02  0.7681744E-01
         -1   -1    0    0    0  501 -0.00000000000E+00  0.00000000000E+00  0.45145368000E+04  0.45145368000E+04  0.00000000000E+00 0.  1.
          1   -1    0    0  501    0  0.00000000000E+00 -0.00000000000E+00 -0.20405629295E+04  0.20405629295E+04  0.00000000000E+00 0. -1.
    9900016    2    1    2    0    0  0.63815645186E+03  0.13200185129E+04 -0.37269016547E+03  0.26704493307E+04  0.22006156268E+04 0.  0.
         23    2    3    3    0    0  0.44888967253E+03  0.15777862401E+03  0.84520873519E+03  0.97637105466E+03  0.11192228567E+03 0.  0.
    9900016    2    1    2    0    0 -0.63815645186E+03 -0.13200185129E+04  0.28466640359E+04  0.38846503987E+04  0.21993908373E+04 0.  0.
        -24    2    5    5    0    0  0.75319272283E+03 -0.12137702036E+03  0.94153703615E+03  0.12144812815E+04  0.80256674277E+02 0.  0.
        -15    1    5    5    0    0 -0.90982511583E+03 -0.83601071024E+03  0.14745277462E+04  0.19237795413E+04  0.00000000000E+00 0.  1.
        -15    1    4    4    0    0  0.37330999745E+03  0.11633139078E+03  0.59731019622E+03  0.71391373231E+03  0.00000000000E+00 0. -1.
         15    1    6    6    0    0  0.40710521866E+03 -0.65534495129E+02  0.44515180541E+03  0.60678625476E+03  0.00000000000E+00 0. -1.
         15    1    4    4    0    0  0.75579675079E+02  0.41447233228E+02  0.24789853897E+03  0.26245732234E+03  0.00000000000E+00 0.  1.
        -16    1    6    6    0    0  0.34608750417E+03 -0.55842525228E+02  0.49638523074E+03  0.60769502669E+03  0.00000000000E+00 0.  1.
         16    1    3    3    0    0  0.18926677933E+03  0.11622398889E+04 -0.12178989007E+04  0.16940782761E+04  0.00000000000E+00 0. -1.
    9900018    1    5    5    0    0 -0.48152405886E+03 -0.36263078234E+03  0.43059925356E+03  0.74638957597E+03  0.91187600000E+02 0.  0.
<mgrwt>
<rscale>  0 0.60703201E+04</rscale>
<asrwt>0</asrwt>
<pdfrwt beam="1">  1        1 0.31393276E+00 0.60703201E+04</pdfrwt>
<pdfrwt beam="2">  1       -1 0.69454412E+00 0.60703201E+04</pdfrwt>
<totfact> 0.39592200E-04</totfact>
</mgrwt>
</event>
<event>
13    1  0.3003327E-008  0.5698829E+04  0.7818608E-02  0.7728907E-01
         -2   -1    0    0    0  501 -0.00000000000E+00  0.00000000000E+00  0.26295249084E+04  0.26295249084E+04  0.00000000000E+00 0.  1.
          2   -1    0    0  501    0  0.00000000000E+00 -0.00000000000E+00 -0.30876924372E+04  0.30876924372E+04  0.00000000000E+00 0. -1.
    9900016    2    1    2    0    0  0.87704303048E+03 -0.67300203775E+03 -0.16440694554E+04  0.29868759797E+04  0.22352466360E+04 0.  0.
         23    2    3    3    0    0 -0.70657339465E+03 -0.14304606736E+03 -0.89779889242E+03  0.11577739963E+04  0.12120080787E+03 0.  0.
    9900016    2    1    2    0    0 -0.87704303048E+03  0.67300203775E+03  0.11859019265E+04  0.27303413660E+04  0.21968760491E+04 0.  0.
        -24    2    5    5    0    0  0.26938399185E+02 -0.32274693677E+03  0.63344773124E+02  0.33971082033E+03  0.80620212236E+02 0.  0.
        -15    1    4    4    0    0 -0.63678616808E+03 -0.90814019542E+02 -0.77450614877E+03  0.10067788161E+04  0.00000000000E+00 0. -1.
        -15    1    5    5    0    0  0.37003635353E+03  0.70869720667E+03  0.37464158304E+03  0.88291276433E+03  0.00000000000E+00 0.  1.
         15    1    4    4    0    0 -0.69787226567E+02 -0.52232047814E+02 -0.12329274366E+03  0.15099518022E+03  0.00000000000E+00 0.  1.
         15    1    6    6    0    0  0.40743469354E+02 -0.15135158867E+03  0.59692626256E+02  0.16772162447E+03  0.00000000000E+00 0. -1.
        -16    1    6    6    0    0 -0.13805070169E+02 -0.17139534810E+03  0.36521468682E+01  0.17198919585E+03  0.00000000000E+00 0.  1.
         16    1    3    3    0    0  0.15836164251E+04 -0.52995597039E+03 -0.74627056293E+03  0.18291019834E+04  0.00000000000E+00 0. -1.
    9900018    1    5    5    0    0 -0.12740177832E+04  0.28705176785E+03  0.74791557031E+03  0.15077177813E+04  0.91187600000E+02 0.  0.
<mgrwt>
<rscale>  0 0.56988294E+04</rscale>
<asrwt>0</asrwt>
<pdfrwt beam="1">  1        2 0.47502961E+00 0.56988294E+04</pdfrwt>
<pdfrwt beam="2">  1       -2 0.40454229E+00 0.56988294E+04</pdfrwt>
<totfact> 0.73217801E-03</totfact>
</mgrwt>
</event>
