<event>
11    1  0.1904391E-012  0.3456911E+04  0.7818608E-02  0.8124078E-01
          2   -1    0    0  501    0  0.00000000000E+00  0.00000000000E+00  0.20683964457E+04  0.20683964457E+04  0.00000000000E+00 0. -1.
         -2   -1    0    0    0  501 -0.00000000000E+00 -0.00000000000E+00 -0.14443840095E+04  0.14443840095E+04  0.00000000000E+00 0.  1.
    9900016    2    1    2    0    0  0.44216615665E+03 -0.33753980775E+03  0.32037575830E+03  0.96140249804E+03  0.71568855296E+03 0.  0.
         23    2    3    3    0    0  0.88714503093E+02 -0.42195163892E+03  0.31602653875E+03  0.54484619665E+03  0.10521956169E+03 0.  0.
        -15    1    3    3    0    0  0.63523876222E+02 -0.19084014689E+02 -0.63698093718E+02  0.91961565940E+02  0.00000000000E+00 0.  1.
        -15    1    4    4    0    0  0.21454891933E+02 -0.24821599725E+03  0.23214318533E+03  0.34053186661E+03  0.00000000000E+00 0.  1.
         15    1    3    3    0    0  0.22110599098E+03  0.58695298120E+02  0.20443881905E+02  0.22967574878E+03  0.00000000000E+00 0. -1.
         15    1    4    4    0    0  0.67259611160E+02 -0.17373564167E+03  0.83883353414E+02  0.20431433004E+03  0.00000000000E+00 0. -1.
        -16    1    1    2    0    0 -0.10106574772E+04  0.10551452713E+04 -0.24308192444E+03  0.14811647113E+04  0.00000000000E+00 0.  1.
         16    1    3    3    0    0  0.68821786349E+02  0.44800547737E+02  0.47603431366E+02  0.94918986676E+02  0.00000000000E+00 0. -1.
    9900018    1    1    2    0    0  0.56849132060E+03 -0.71760546358E+03  0.54671860235E+03  0.10702132458E+04  0.91187600000E+02 0.  0.
<mgrwt>
<rscale>  0 0.34569112E+04</rscale>
<asrwt>0</asrwt>
<pdfrwt beam="1">  1        2 0.31821484E+00 0.34569112E+04</pdfrwt>
<pdfrwt beam="2">  1       -2 0.22221292E+00 0.34569112E+04</pdfrwt>
<totfact> 0.48295684E-01</totfact>
</mgrwt>
</event>
<event>
11    1  0.1904391E-012  0.1840398E+04  0.7818608E-02  0.8685107E-01
          2   -1    0    0  501    0  0.00000000000E+00  0.00000000000E+00  0.26288204961E+04  0.26288204961E+04  0.00000000000E+00 0. -1.
         -2   -1    0    0    0  501 -0.00000000000E+00 -0.00000000000E+00 -0.32210874324E+03  0.32210874324E+03  0.00000000000E+00 0.  1.
    9900016    2    1    2    0    0 -0.60913255582E+03 -0.24090845830E+03  0.10631538198E+04  0.14374471994E+04  0.71195438794E+03 0.  0.
         23    2    3    3    0    0 -0.10348478203E+03 -0.51036446001E+02  0.30666545576E+03  0.34563116924E+03  0.11001538284E+03 0.  0.
        -15    1    3    3    0    0 -0.24271402161E+03 -0.37670923011E+03  0.52184988960E+03  0.68785699648E+03  0.00000000000E+00 0.  1.
        -15    1    4    4    0    0  0.16393679080E+02 -0.19029374675E+02  0.16504480562E+02  0.30054412204E+02  0.00000000000E+00 0.  1.
         15    1    3    3    0    0 -0.25477262470E+01  0.18652352612E+02  0.14561881626E+02  0.23800200912E+02  0.00000000000E+00 0. -1.
         15    1    4    4    0    0 -0.11987846111E+03 -0.32007071327E+02  0.29016097520E+03  0.31557675703E+03  0.00000000000E+00 0. -1.
        -16    1    3    3    0    0 -0.26038602594E+03  0.16818486520E+03  0.22007659284E+03  0.38015883273E+03  0.00000000000E+00 0.  1.
         16    1    1    2    0    0  0.80060983594E+02  0.30659010810E+03  0.53917569793E+03  0.62539402677E+03  0.00000000000E+00 0. -1.
    9900018    1    1    2    0    0  0.52907157223E+03 -0.65681649797E+02  0.70438223508E+03  0.88808801318E+03  0.91187600000E+02 0.  0.
<mgrwt>
<rscale>  0 0.18403979E+04</rscale>
<asrwt>0</asrwt>
<pdfrwt beam="1">  1        2 0.40443391E+00 0.18403979E+04</pdfrwt>
<pdfrwt beam="2">  1       -2 0.49555193E-01 0.18403979E+04</pdfrwt>
<totfact> 0.10629772E+01</totfact>
</mgrwt>
</event>
<event>
11    1  0.1904391E-012  0.1361042E+04  0.7818608E-02  0.8982511E-01
         -2   -1    0    0    0  501 -0.00000000000E+00  0.00000000000E+00  0.11789051110E+04  0.11789051110E+04  0.00000000000E+00 0.  1.
          2   -1    0    0  501    0  0.00000000000E+00 -0.00000000000E+00 -0.39282988876E+03  0.39282988876E+03  0.00000000000E+00 0. -1.
    9900016    2    1    2    0    0  0.77283491687E+02  0.18055932176E+03  0.72116731119E+02  0.73839827355E+03  0.70813613148E+03 0.  0.
         23    2    3    3    0    0 -0.10266356068E+03 -0.61036690368E+02  0.79083628285E+02  0.17695997816E+03  0.10390057432E+03 0.  0.
        -15    1    4    4    0    0 -0.51009281684E+02 -0.85031903168E+02  0.64078149164E+02  0.11806091891E+03  0.00000000000E+00 0.  1.
        -15    1    3    3    0    0 -0.41324027322E+02  0.43387424420E+02  0.74006315720E+02  0.95221208764E+02  0.00000000000E+00 0. -1.
         15    1    3    3    0    0 -0.68752422801E+02  0.11213821273E+03  0.44276858007E+02  0.13878874072E+03  0.00000000000E+00 0. -1.
         15    1    4    4    0    0 -0.51654279000E+02  0.23995212799E+02  0.15005479120E+02  0.58899059245E+02  0.00000000000E+00 0.  1.
        -16    1    1    2    0    0 -0.78808821710E+02 -0.27839935916E+03  0.55246050908E+03  0.62364224332E+03  0.00000000000E+00 0.  1.
         16    1    3    3    0    0  0.29002350249E+03  0.86070374978E+02 -0.12525007089E+03  0.32742834591E+03  0.00000000000E+00 0. -1.
    9900018    1    1    2    0    0  0.15253300233E+01  0.97840037406E+02  0.16149798200E+03  0.20969448284E+03  0.91187600000E+02 0.  0.
<mgrwt>
<rscale>  0 0.13610425E+04</rscale>
<asrwt>0</asrwt>
<pdfrwt beam="1">  1        2 0.60435368E-01 0.13610425E+04</pdfrwt>
<pdfrwt beam="2">  1       -2 0.18137001E+00 0.13610425E+04</pdfrwt>
<totfact> 0.14037807E+01</totfact>
</mgrwt>
</event>
<event>
10    1  0.1904391E-012  0.1820544E+04  0.7818608E-02  0.8695450E-01
          1   -1    0    0  501    0  0.00000000000E+00  0.00000000000E+00  0.22283838900E+04  0.22283838900E+04  0.00000000000E+00 0. -1.
         -1   -1    0    0    0  501 -0.00000000000E+00 -0.00000000000E+00 -0.37183676471E+03  0.37183676471E+03  0.00000000000E+00 0.  1.
    9900016    2    1    2    0    0  0.50643663066E+02  0.41679888069E+03  0.12062506297E+04  0.14638619713E+04  0.71523786373E+03 0.  0.
        -15    1    3    3    0    0  0.74379506710E+02 -0.39487013477E+02  0.16280715869E+03  0.18329677076E+03  0.00000000000E+00 0. -1.
        -15    1    3    3    0    0 -0.35984298264E+02  0.43129506153E+03  0.59242022160E+03  0.73367023845E+03  0.00000000000E+00 0.  1.
         15    1    3    3    0    0 -0.26029249039E+02  0.20901481125E+02  0.13373882223E+03  0.13784217893E+03  0.00000000000E+00 0. -1.
         15    1    3    3    0    0  0.73796353137E+02 -0.97790961100E+02  0.25878682688E+03  0.28632079138E+03  0.00000000000E+00 0.  1.
        -16    1    1    2    0    0  0.11480353107E+03 -0.51424382922E+03  0.86672465255E+02  0.53398378521E+03  0.00000000000E+00 0.  1.
         16    1    3    3    0    0 -0.35518649479E+02  0.10188031262E+03  0.58497600298E+02  0.12273199175E+03  0.00000000000E+00 0. -1.
    9900018    1    1    2    0    0 -0.16544719414E+03  0.97444948532E+02  0.56362403029E+03  0.60237489818E+03  0.91187600000E+02 0.  0.
<mgrwt>
<rscale>  0 0.18205439E+04</rscale>
<asrwt>0</asrwt>
<pdfrwt beam="1">  1        1 0.34282828E+00 0.18205439E+04</pdfrwt>
<pdfrwt beam="2">  1       -1 0.57205657E-01 0.18205439E+04</pdfrwt>
<totfact> 0.60750597E+00</totfact>
</mgrwt>
</event>
