<event>
12    1  0.4537026E-013  0.2488092E+04  0.7818608E-02  0.9175680E-01
          1   -1    0    0  501    0  0.00000000000E+00  0.00000000000E+00  0.12927555152E+04  0.12927555152E+04  0.00000000000E+00 0. -1.
         -1   -1    0    0    0  501 -0.00000000000E+00 -0.00000000000E+00 -0.13224793854E+04  0.13224793854E+04  0.00000000000E+00 0.  1.
         23    2    1    2    0    0 -0.11479628704E+02 -0.53382612673E+02  0.66529820574E+02  0.12528129234E+03  0.91036805593E+02 0.  0.
    9900016    2    1    2    0    0  0.15054066922E+03  0.13830757769E+02  0.16584970130E+03  0.21906201649E+04  0.21790954088E+04 0.  0.
         24    2    4    4    0    0 -0.76057509380E+03  0.24503078302E+03 -0.41602173632E+03  0.90670528539E+03  0.10259547516E+03 0.  0.
        -15    1    5    5    0    0 -0.24321499516E+03  0.84902980419E+02 -0.81708806663E+02  0.27025613599E+03  0.00000000000E+00 0.  1.
        -15    1    3    3    0    0 -0.45730247732E+02 -0.36949750613E+02  0.64447651409E+02  0.87235539777E+02  0.00000000000E+00 0.  1.
         15    1    3    3    0    0  0.34250619029E+02 -0.16432862060E+02  0.20821691652E+01  0.38045752559E+02  0.00000000000E+00 0. -1.
         15    1    4    4    0    0  0.29844336498E+03 -0.34520964267E+03  0.44907874136E+03  0.64024202879E+03  0.00000000000E+00 0. -1.
        -16    1    1    2    0    0 -0.13906104052E+03  0.39551854904E+02 -0.26210339209E+03  0.29933344344E+03  0.00000000000E+00 0.  1.
         16    1    5    5    0    0 -0.51736009864E+03  0.16012780260E+03 -0.33431292966E+03  0.63644914940E+03  0.00000000000E+00 0. -1.
    9900018    1    4    4    0    0  0.61267239804E+03  0.11400961741E+03  0.13279269627E+03  0.64367285072E+03  0.91187600000E+02 0.  0.
<mgrwt>
<rscale>  0 0.11308017E+04</rscale>
<asrwt>0</asrwt>
<pdfrwt beam="1">  1        1 0.19888546E+00 0.24880925E+04</pdfrwt>
<pdfrwt beam="2">  1       -1 0.20345837E+00 0.24880925E+04</pdfrwt>
<totfact> 0.11550726E+00</totfact>
</mgrwt>
</event>
<event>
12    1  0.4537026E-013  0.2878185E+04  0.7818608E-02  0.8959722E-01
          2   -1    0    0  501    0  0.00000000000E+00  0.00000000000E+00  0.21253155044E+04  0.21253155044E+04  0.00000000000E+00 0.  1.
         -2   -1    0    0    0  501 -0.00000000000E+00 -0.00000000000E+00 -0.10884305884E+04  0.10884305884E+04  0.00000000000E+00 0. -1.
         23    2    1    2    0    0 -0.10461218474E+03 -0.72291796098E+02  0.95312049434E+01  0.15770202308E+03  0.92786158648E+02 0.  0.
    9900016    2    1    2    0    0 -0.50046032728E+03  0.24866487157E+02  0.68334256025E+03  0.23584011979E+04  0.22009135090E+04 0.  0.
         24    2    4    4    0    0  0.55971361078E+03 -0.41029820202E+02 -0.44018879314E+03  0.71527625979E+03  0.53769712448E+02 0.  0.
        -15    1    3    3    0    0 -0.10122559399E+03 -0.48561101981E+02  0.39776766877E+02  0.11910916290E+03  0.00000000000E+00 0.  1.
        -15    1    5    5    0    0  0.30045003919E+03  0.16345121561E+00 -0.25411563872E+03  0.39350350775E+03  0.00000000000E+00 0.  1.
         15    1    4    4    0    0 -0.73360070505E+03  0.20417157724E+03  0.47245811944E+03  0.89614323745E+03  0.00000000000E+00 0. -1.
         15    1    3    3    0    0 -0.33865907542E+01 -0.23730694116E+02 -0.30245561934E+02  0.38592860180E+02  0.00000000000E+00 0. -1.
        -16    1    1    2    0    0  0.60507251202E+03  0.47425308941E+02  0.34401115084E+03  0.69764287184E+03  0.00000000000E+00 0.  1.
         16    1    5    5    0    0  0.25926357159E+03 -0.41193271418E+02 -0.18607315442E+03  0.32177275204E+03  0.00000000000E+00 0. -1.
    9900018    1    4    4    0    0 -0.32657323301E+03 -0.13827526988E+03  0.65107323395E+03  0.74698170067E+03  0.91187600000E+02 0.  0.
<mgrwt>
<rscale>  0 0.13918733E+04</rscale>
<asrwt>0</asrwt>
<pdfrwt beam="1">  1        2 0.32697162E+00 0.28781851E+04</pdfrwt>
<pdfrwt beam="2">  1       -2 0.16745086E+00 0.28781851E+04</pdfrwt>
<totfact> 0.10866936E+00</totfact>
</mgrwt>
</event>
<event>
12    1  0.4537026E-013  0.2531798E+04  0.7818608E-02  0.9051089E-01
          2   -1    0    0  501    0  0.00000000000E+00  0.00000000000E+00  0.28371316564E+04  0.28371316564E+04  0.00000000000E+00 0. -1.
         -2   -1    0    0    0  501 -0.00000000000E+00 -0.00000000000E+00 -0.63946568085E+03  0.63946568085E+03  0.00000000000E+00 0.  1.
         23    2    1    2    0    0 -0.11738722026E+03  0.65314048689E+02  0.14126724017E+03  0.21488376900E+03  0.90404184634E+02 0.  0.
    9900016    2    1    2    0    0 -0.58896895020E+02  0.16077865914E+03  0.16876620874E+04  0.27946367894E+04  0.22209171172E+04 0.  0.
         24    2    4    4    0    0 -0.17280525733E+03  0.70408622344E+03  0.16521745733E+04  0.18054151527E+04  0.65145883299E+02 0.  0.
        -15    1    5    5    0    0 -0.92190953832E+02  0.48969753611E+03  0.11642949115E+04  0.12664460075E+04  0.00000000000E+00 0.  1.
        -15    1    3    3    0    0 -0.82788785126E+02 -0.50234379396E+01  0.63420526004E+02  0.10440967862E+03  0.00000000000E+00 0.  1.
         15    1    4    4    0    0  0.17989201048E+03 -0.66984940034E+03 -0.17863512469E+03  0.71621914407E+03  0.00000000000E+00 0. -1.
         15    1    3    3    0    0 -0.34598435132E+02  0.70337486629E+02  0.77846714168E+02  0.11047409038E+03  0.00000000000E+00 0. -1.
        -16    1    1    2    0    0  0.17628411528E+03 -0.22609270783E+03  0.36873664795E+03  0.46707677888E+03  0.00000000000E+00 0.  1.
         16    1    5    5    0    0 -0.80614303501E+02  0.21438868733E+03  0.48787966174E+03  0.53896914524E+03  0.00000000000E+00 0. -1.
    9900018    1    4    4    0    0 -0.65983648168E+02  0.12654183603E+03  0.21412263886E+03  0.27300249259E+03  0.91187600000E+02 0.  0.
<mgrwt>
<rscale>  0 0.12732038E+04</rscale>
<asrwt>0</asrwt>
<pdfrwt beam="1">  1        2 0.43648179E+00 0.25317977E+04</pdfrwt>
<pdfrwt beam="2">  1       -2 0.98379337E-01 0.25317977E+04</pdfrwt>
<totfact> 0.16687833E+00</totfact>
</mgrwt>
</event>
<event>
11    1  0.4537026E-013  0.2416438E+04  0.7818608E-02  0.9045254E-01
         -2   -1    0    0    0  501 -0.00000000000E+00  0.00000000000E+00  0.53446616394E+03  0.53446616394E+03  0.00000000000E+00 0.  1.
          2   -1    0    0  501    0  0.00000000000E+00 -0.00000000000E+00 -0.32982999690E+04  0.32982999690E+04  0.00000000000E+00 0. -1.
         23    2    1    2    0    0  0.31013491897E+02 -0.16322942361E+03 -0.45845320754E+02  0.19592225710E+03  0.93156083968E+02 0.  0.
    9900016    2    1    2    0    0  0.12329573072E+03  0.20803919898E+02 -0.24096547824E+04  0.32637942383E+04  0.21977902584E+04 0.  0.
        -15    1    4    4    0    0  0.39435511472E+03  0.11022094630E+03 -0.62434368776E+03  0.74663890466E+03  0.00000000000E+00 0.  1.
        -15    1    3    3    0    0  0.63544487600E+02 -0.12513389235E+03 -0.35630698944E+02  0.14479620032E+03  0.00000000000E+00 0.  1.
         15    1    3    3    0    0 -0.32530995703E+02 -0.38095531260E+02 -0.10214621810E+02  0.51126056783E+02  0.00000000000E+00 0. -1.
         15    1    4    4    0    0 -0.39646397429E+03  0.16377011879E+03 -0.11416190307E+04  0.12195484188E+04  0.00000000000E+00 0. -1.
        -16    1    1    2    0    0 -0.15430922262E+03  0.14242550372E+03 -0.30833370194E+03  0.37304963751E+03  0.00000000000E+00 0.  1.
         16    1    4    4    0    0  0.48225637114E+03  0.16711692704E+03 -0.51305986312E+03  0.72369171472E+03  0.00000000000E+00 0. -1.
    9900018    1    4    4    0    0 -0.35685178085E+03 -0.42030407224E+03 -0.13063220082E+03  0.57391520012E+03  0.91187600000E+02 0.  0.
<mgrwt>
<rscale>  0 0.12804002E+04</rscale>
<asrwt>0</asrwt>
<pdfrwt beam="1">  1        2 0.50743077E+00 0.24164379E+04</pdfrwt>
<pdfrwt beam="2">  1       -2 0.82225563E-01 0.24164379E+04</pdfrwt>
<totfact> 0.12966285E+00</totfact>
</mgrwt>
</event>
