<event>
12    1  0.4871978E-013  0.1390474E+04  0.7818608E-02  0.9665810E-01
         -1   -1    0    0    0  501 -0.00000000000E+00  0.00000000000E+00  0.70820135754E+03  0.70820135754E+03  0.00000000000E+00 0.  1.
          1   -1    0    0  501    0  0.00000000000E+00 -0.00000000000E+00 -0.79137089981E+03  0.79137089981E+03  0.00000000000E+00 0. -1.
         23    2    1    2    0    0 -0.15850142555E+02  0.52180067350E+02 -0.17177332387E+02  0.10753331146E+03  0.91073409284E+02 0.  0.
    9900016    2    1    2    0    0  0.33855799560E+01  0.11952762748E+03 -0.37512670183E+03  0.77180848599E+03  0.66382978296E+03 0.  0.
         23    2    4    4    0    0 -0.14341492446E+03  0.68225136069E+02  0.14223088376E+03  0.23158519411E+03  0.90440964660E+02 0.  0.
        -15    1    3    3    0    0 -0.51507342377E+02  0.34060843717E+02  0.47269426398E+01  0.61931344085E+02  0.00000000000E+00 0. -1.
        -15    1    5    5    0    0 -0.91003766624E+02  0.86658345997E+02  0.11201952205E+03  0.16834407561E+03  0.00000000000E+00 0.  1.
         15    1    5    5    0    0 -0.52411157837E+02 -0.18433209928E+02  0.30211361705E+02  0.63241118508E+02  0.00000000000E+00 0. -1.
         15    1    3    3    0    0  0.35657199823E+02  0.18119223633E+02 -0.21904275027E+02  0.45601967378E+02  0.00000000000E+00 0.  1.
        -16    1    1    2    0    0  0.47914627049E+02 -0.21727969562E+03  0.41383765940E+03  0.46985943212E+03  0.00000000000E+00 0.  1.
         16    1    4    4    0    0  0.14680050442E+03  0.51302491416E+02 -0.51735758559E+03  0.54022329188E+03  0.00000000000E+00 0. -1.
    9900018    1    1    2    0    0 -0.35450064451E+02  0.45572000783E+02 -0.10470316745E+03  0.15037102777E+03  0.91187600000E+02 0.  0.
<mgrwt>
<rscale>  0 0.73089445E+03</rscale>
<asrwt>0</asrwt>
<pdfrwt beam="1">  1        1 0.12174937E+00 0.13904738E+04</pdfrwt>
<pdfrwt beam="2">  1       -1 0.10895406E+00 0.13904738E+04</pdfrwt>
<totfact> 0.17107360E+01</totfact>
</mgrwt>
</event>
<event>
12    1  0.4871978E-013  0.1057342E+04  0.7818608E-02  0.9247796E-01
          1   -1    0    0  501    0  0.00000000000E+00  0.00000000000E+00  0.10037609883E+04  0.10037609883E+04  0.00000000000E+00 0. -1.
         -1   -1    0    0    0  501 -0.00000000000E+00 -0.00000000000E+00 -0.27844594173E+03  0.27844594173E+03  0.00000000000E+00 0.  1.
         23    2    1    2    0    0  0.43266772516E+02  0.11045639974E+03  0.78260510096E+02  0.16841435376E+03  0.90366239620E+02 0.  0.
    9900016    2    1    2    0    0 -0.33422091546E+02  0.31334817310E+02  0.55350712946E+03  0.94363739905E+03  0.76287776973E+03 0.  0.
         23    2    4    4    0    0 -0.33729092542E+03  0.10304548996E+03  0.27354930848E+03  0.45583211255E+03  0.92575100808E+02 0.  0.
        -15    1    3    3    0    0  0.44206836340E+02  0.48217209690E+02 -0.36725310564E+01  0.65518174378E+02  0.00000000000E+00 0.  1.
        -15    1    5    5    0    0 -0.19781320297E+03  0.76803779637E+02  0.21566732304E+03  0.30255789209E+03  0.00000000000E+00 0.  1.
         15    1    3    3    0    0 -0.94006382411E+00  0.62239190050E+02  0.81933041152E+02  0.10289617938E+03  0.00000000000E+00 0. -1.
         15    1    5    5    0    0 -0.13947772245E+03  0.26241710321E+02  0.57881985442E+02  0.15327422047E+03  0.00000000000E+00 0. -1.
        -16    1    1    2    0    0 -0.98446809694E+01 -0.14179121705E+03  0.93547406991E+02  0.17015517721E+03  0.00000000000E+00 0.  1.
         16    1    4    4    0    0  0.27755298023E+03 -0.66702141316E+02  0.13823572747E+03  0.31716549125E+03  0.00000000000E+00 0. -1.
    9900018    1    4    4    0    0  0.26315853651E+02 -0.50085313314E+01  0.14172209351E+03  0.17063979525E+03  0.91187600000E+02 0.  0.
<mgrwt>
<rscale>  0 0.10573423E+04</rscale>
<asrwt>0</asrwt>
<pdfrwt beam="1">  1        1 0.15442477E+00 0.10573423E+04</pdfrwt>
<pdfrwt beam="2">  1       -1 0.42837838E-01 0.10573423E+04</pdfrwt>
<totfact> 0.80547697E+01</totfact>
</mgrwt>
</event>
<event>
12    1  0.4871978E-013  0.1176788E+04  0.7818608E-02  0.9828380E-01
         -1   -1    0    0    0  501 -0.00000000000E+00  0.00000000000E+00  0.90947360018E+03  0.90947360018E+03  0.00000000000E+00 0.  1.
          1   -1    0    0  501    0  0.00000000000E+00 -0.00000000000E+00 -0.44956971736E+03  0.44956971736E+03  0.00000000000E+00 0. -1.
         23    2    1    2    0    0  0.45079608460E+02  0.17973733284E+02  0.38283998104E+02  0.10900553710E+03  0.89784834024E+02 0.  0.
    9900016    2    1    2    0    0  0.28528664322E+03 -0.32516035224E+02  0.31285936868E+03  0.78007709360E+03  0.65436497923E+03 0.  0.
         23    2    4    4    0    0  0.85941888425E+02  0.74251386613E+02 -0.18329730132E+03  0.23481655513E+03  0.92960407129E+02 0.  0.
        -15    1    3    3    0    0 -0.14954776317E+02 -0.22475593418E+02  0.21955328679E+02  0.34797041420E+02  0.00000000000E+00 0.  1.
        -15    1    5    5    0    0 -0.86024852482E+00  0.45237020747E+02 -0.24296202101E+02  0.51355949121E+02  0.00000000000E+00 0.  1.
         15    1    5    5    0    0  0.86802136950E+02  0.29014365866E+02 -0.15900109922E+03  0.18346060601E+03  0.00000000000E+00 0. -1.
         15    1    3    3    0    0  0.60034384776E+02  0.40449326702E+02  0.16328669426E+02  0.74208495682E+02  0.00000000000E+00 0. -1.
        -16    1    1    2    0    0 -0.33712199163E+03  0.77174710175E+02  0.72613571760E+02  0.35338350829E+03  0.00000000000E+00 0.  1.
         16    1    4    4    0    0  0.19934475479E+03 -0.10676742184E+03  0.49615666999E+03  0.54526053847E+03  0.00000000000E+00 0. -1.
    9900018    1    1    2    0    0  0.67557399501E+01 -0.62632408235E+02  0.36146944278E+02  0.11657717855E+03  0.91187600000E+02 0.  0.
<mgrwt>
<rscale>  0 0.63861521E+03</rscale>
<asrwt>0</asrwt>
<pdfrwt beam="1">  1        1 0.69164572E-01 0.11767885E+04</pdfrwt>
<pdfrwt beam="2">  1       -1 0.13991902E+00 0.11767885E+04</pdfrwt>
<totfact> 0.21318832E+01</totfact>
</mgrwt>
</event>
<event>
12    1  0.4871978E-013  0.1248886E+04  0.7818608E-02  0.9679011E-01
         -1   -1    0    0    0  501 -0.00000000000E+00  0.00000000000E+00  0.35104864742E+03  0.35104864742E+03  0.00000000000E+00 0.  1.
          1   -1    0    0  501    0  0.00000000000E+00 -0.00000000000E+00 -0.13853177424E+04  0.13853177424E+04  0.00000000000E+00 0. -1.
         23    2    1    2    0    0  0.10521448546E+03  0.34001070170E+01 -0.15534117834E+03  0.20920220894E+03  0.92482613811E+02 0.  0.
    9900016    2    1    2    0    0 -0.23297396608E+03 -0.33396223094E+03 -0.78204345609E+03  0.11597673908E+04  0.75343267318E+03 0.  0.
         23    2    4    4    0    0  0.43256004663E+02  0.11806667907E+02  0.99211371824E+02  0.13932957847E+03  0.86944555845E+02 0.  0.
        -15    1    5    5    0    0  0.51190276841E+02 -0.25334596059E+02  0.43012281818E+02  0.71500647464E+02  0.00000000000E+00 0. -1.
        -15    1    3    3    0    0  0.12476824953E+01 -0.26229984527E+02 -0.10079503009E+02  0.28127658644E+02  0.00000000000E+00 0.  1.
         15    1    5    5    0    0 -0.79342721781E+01  0.37141263966E+02  0.56199090006E+02  0.67828931007E+02  0.00000000000E+00 0.  1.
         15    1    3    3    0    0  0.10396680296E+03  0.29630091544E+02 -0.14526167533E+03  0.18107455029E+03  0.00000000000E+00 0. -1.
        -16    1    1    2    0    0  0.12775948062E+03  0.33056212392E+03 -0.96884460572E+02  0.36739679008E+03  0.00000000000E+00 0.  1.
         16    1    4    4    0    0 -0.25897047529E+03 -0.31952074861E+03 -0.77183632397E+03  0.87458020037E+03  0.00000000000E+00 0. -1.
    9900018    1    4    4    0    0 -0.17259495450E+02 -0.26248150236E+02 -0.10941850394E+03  0.14585761198E+03  0.91187600000E+02 0.  0.
<mgrwt>
<rscale>  0 0.72280321E+03</rscale>
<asrwt>0</asrwt>
<pdfrwt beam="1">  1        1 0.21312580E+00 0.12488860E+04</pdfrwt>
<pdfrwt beam="2">  1       -1 0.54007485E-01 0.12488860E+04</pdfrwt>
<totfact> 0.26822120E+01</totfact>
</mgrwt>
</event>
<event>
12    1  0.4871978E-013  0.9763052E+03  0.7818608E-02  0.9334922E-01
          1   -1    0    0  501    0  0.00000000000E+00  0.00000000000E+00  0.17033623600E+04  0.17033623600E+04  0.00000000000E+00 0. -1.
         -1   -1    0    0    0  501 -0.00000000000E+00 -0.00000000000E+00 -0.13989562427E+03  0.13989562427E+03  0.00000000000E+00 0.  1.
         23    2    1    2    0    0 -0.21322370394E+02 -0.20302886673E+02  0.19945912809E+02  0.97643081347E+02  0.90936687925E+02 0.  0.
    9900016    2    1    2    0    0 -0.52260203763E+01  0.38838105869E+02  0.15346775361E+04  0.17120504109E+04  0.75785602849E+03 0.  0.
         23    2    4    4    0    0 -0.28816624367E+03 -0.93092499447E+02  0.41584343764E+03  0.52400508821E+03  0.99747533286E+02 0.  0.
        -15    1    5    5    0    0 -0.24253619373E+03 -0.54470980932E+02  0.38067353690E+03  0.45464627429E+03  0.00000000000E+00 0.  1.
        -15    1    3    3    0    0 -0.57274965504E+02 -0.12304123932E+02  0.15079412693E+02  0.60491336787E+02  0.00000000000E+00 0. -1.
         15    1    3    3    0    0  0.35952595109E+02 -0.79987627407E+01  0.48665001162E+01  0.37151744560E+02  0.00000000000E+00 0.  1.
         15    1    5    5    0    0 -0.45630049943E+02 -0.38621518515E+02  0.35169900746E+02  0.69358813922E+02  0.00000000000E+00 0. -1.
        -16    1    1    2    0    0  0.26548390771E+02 -0.18535219196E+02  0.88432868317E+01  0.33564492029E+02  0.00000000000E+00 0.  1.
         16    1    4    4    0    0  0.26663286230E+03  0.79742497319E+02  0.93648439050E+03  0.97696210919E+03  0.00000000000E+00 0. -1.
    9900018    1    4    4    0    0  0.16307360996E+02  0.52188107997E+02  0.18234970800E+03  0.21108321354E+03  0.91187600000E+02 0.  0.
<mgrwt>
<rscale>  0 0.97630516E+03</rscale>
<asrwt>0</asrwt>
<pdfrwt beam="1">  1        1 0.26205573E+00 0.97630516E+03</pdfrwt>
<pdfrwt beam="2">  1       -1 0.21522405E-01 0.97630516E+03</pdfrwt>
<totfact> 0.86206349E+01</totfact>
</mgrwt>
</event>
<event>
12    1  0.4871978E-013  0.9767360E+03  0.7818608E-02  0.9334435E-01
         -2   -1    0    0    0  501 -0.00000000000E+00  0.00000000000E+00  0.17446251996E+03  0.17446251996E+03  0.00000000000E+00 0.  1.
          2   -1    0    0  501    0  0.00000000000E+00 -0.00000000000E+00 -0.13670746044E+04  0.13670746044E+04  0.00000000000E+00 0. -1.
         23    2    1    2    0    0 -0.10796054298E+03  0.66170933307E+02 -0.93423306619E+02  0.18208736495E+03  0.91617809400E+02 0.  0.
    9900016    2    1    2    0    0  0.11205992402E+03 -0.82499570316E+02 -0.11006758028E+04  0.13425488555E+04  0.75603346545E+03 0.  0.
         23    2    4    4    0    0  0.29284525381E+03 -0.69043660362E+02 -0.17573557485E+03  0.35999882531E+03  0.90502995750E+02 0.  0.
        -15    1    5    5    0    0  0.12254482316E+03 -0.19117952574E+02 -0.23612424175E+02  0.12625480731E+03  0.00000000000E+00 0.  1.
        -15    1    3    3    0    0 -0.92913756996E+00  0.28806901418E+02 -0.55515969512E+02  0.62551768455E+02  0.00000000000E+00 0. -1.
         15    1    5    5    0    0  0.17030043065E+03 -0.49925707788E+02 -0.15212315068E+03  0.23374401800E+03  0.00000000000E+00 0. -1.
         15    1    3    3    0    0 -0.10703140541E+03  0.37364031889E+02 -0.37907337107E+02  0.11953559649E+03  0.00000000000E+00 0.  1.
        -16    1    1    2    0    0 -0.40993810468E+01  0.16328637008E+02  0.14870249242E+01  0.16900903959E+02  0.00000000000E+00 0.  1.
         16    1    4    4    0    0 -0.22605185276E+03 -0.58403738177E+01 -0.69773496399E+03  0.73346276666E+03  0.00000000000E+00 0. -1.
    9900018    1    4    4    0    0  0.45266522969E+02 -0.76155361361E+01 -0.22720526393E+03  0.24908726351E+03  0.91187600000E+02 0.  0.
<mgrwt>
<rscale>  0 0.97673595E+03</rscale>
<asrwt>0</asrwt>
<pdfrwt beam="1">  1        2 0.21031917E+00 0.97673595E+03</pdfrwt>
<pdfrwt beam="2">  1       -2 0.26840387E-01 0.97673595E+03</pdfrwt>
<totfact> 0.19013143E+02</totfact>
</mgrwt>
</event>
<event>
12    1  0.4871978E-013  0.1312086E+04  0.7818608E-02  0.9020036E-01
         -2   -1    0    0    0  501 -0.00000000000E+00  0.00000000000E+00  0.26328995846E+03  0.26328995846E+03  0.00000000000E+00 0.  1.
          2   -1    0    0  501    0  0.00000000000E+00 -0.00000000000E+00 -0.16346702012E+04  0.16346702012E+04  0.00000000000E+00 0. -1.
         23    2    1    2    0    0 -0.53797760788E+02 -0.22764371191E+03 -0.22974883429E+03  0.33945612842E+03  0.87920860033E+02 0.  0.
    9900016    2    1    2    0    0  0.23523513422E+03  0.91471919256E+02 -0.70319950927E+03  0.10648596169E+04  0.75877122604E+03 0.  0.
         23    2    4    4    0    0  0.25549260907E+03 -0.84954577268E+02 -0.21366715895E+02  0.28908081031E+03  0.10304088924E+03 0.  0.
        -15    1    5    5    0    0  0.54385628297E+02 -0.60367809044E+02 -0.29158623410E+02  0.86326671737E+02  0.00000000000E+00 0.  1.
        -15    1    3    3    0    0 -0.57349210734E+02 -0.82209792282E+02 -0.12482102538E+03  0.16008644632E+03  0.00000000000E+00 0. -1.
         15    1    3    3    0    0  0.35514499466E+01 -0.14543391963E+03 -0.10492780891E+03  0.17936968210E+03  0.00000000000E+00 0.  1.
         15    1    5    5    0    0  0.20110698077E+03 -0.24586768224E+02  0.77919075150E+01  0.20275413858E+03  0.00000000000E+00 0. -1.
        -16    1    1    2    0    0 -0.18143737344E+03  0.13617179265E+03 -0.43843189923E+03  0.49364441438E+03  0.00000000000E+00 0.  1.
         16    1    4    4    0    0 -0.98673256583E+02  0.19456069649E+03 -0.57090068621E+03  0.61116108326E+03  0.00000000000E+00 0. -1.
    9900018    1    4    4    0    0  0.78415781736E+02 -0.18134199970E+02 -0.11093210717E+03  0.16461772331E+03  0.91187600000E+02 0.  0.
<mgrwt>
<rscale>  0 0.13120857E+04</rscale>
<asrwt>0</asrwt>
<pdfrwt beam="1">  1        2 0.25148773E+00 0.13120857E+04</pdfrwt>
<pdfrwt beam="2">  1       -2 0.40506147E-01 0.13120857E+04</pdfrwt>
<totfact> 0.60252192E+01</totfact>
</mgrwt>
</event>
<event>
12    1  0.4871978E-013  0.1020504E+04  0.7818608E-02  0.9286338E-01
          2   -1    0    0  501    0  0.00000000000E+00  0.00000000000E+00  0.19369311248E+04  0.19369311248E+04  0.00000000000E+00 0. -1.
         -2   -1    0    0    0  501 -0.00000000000E+00 -0.00000000000E+00 -0.13441726598E+03  0.13441726598E+03  0.00000000000E+00 0.  1.
         23    2    1    2    0    0  0.96516171318E+02 -0.93069769205E+02  0.53497151819E+03  0.55908181131E+03  0.91654749989E+02 0.  0.
    9900016    2    1    2    0    0 -0.37494671013E+02  0.77711864135E+02  0.95202377562E+03  0.11589131386E+04  0.65519875550E+03 0.  0.
         23    2    4    4    0    0 -0.65112625194E+02  0.27429255004E+03  0.15011438663E+03  0.33279850632E+03  0.93511816188E+02 0.  0.
        -15    1    3    3    0    0  0.90163717109E+02 -0.46347163685E+02  0.45575254156E+03  0.46689178040E+03  0.00000000000E+00 0. -1.
        -15    1    5    5    0    0  0.75209539521E+01  0.54558230181E+02 -0.32445498345E+01  0.55169668591E+02  0.00000000000E+00 0.  1.
         15    1    3    3    0    0  0.63524542096E+01 -0.46722605520E+02  0.79218976632E+02  0.92190030913E+02  0.00000000000E+00 0.  1.
         15    1    5    5    0    0 -0.72633579146E+02  0.21973431986E+03  0.15335893647E+03  0.27762883773E+03  0.00000000000E+00 0. -1.
        -16    1    4    4    0    0  0.27617954181E+02 -0.19658068590E+03  0.80190938899E+03  0.82611463224E+03  0.00000000000E+00 0.  1.
         16    1    1    2    0    0 -0.38963425278E+02  0.30734652549E+02  0.45849238673E+02  0.67564192170E+02  0.00000000000E+00 0. -1.
    9900018    1    1    2    0    0 -0.20058075028E+02 -0.15376747478E+02  0.26966932635E+03  0.28578924876E+03  0.91187600000E+02 0.  0.
<mgrwt>
<rscale>  0 0.10205038E+04</rscale>
<asrwt>0</asrwt>
<pdfrwt beam="1">  1        2 0.29798938E+00 0.10205038E+04</pdfrwt>
<pdfrwt beam="2">  1       -2 0.20679581E-01 0.10205038E+04</pdfrwt>
<totfact> 0.14594278E+02</totfact>
</mgrwt>
</event>
<event>
12    1  0.4871978E-013  0.2399359E+04  0.7818608E-02  0.8940285E-01
          2   -1    0    0  501    0  0.00000000000E+00  0.00000000000E+00  0.29645044289E+04  0.29645044289E+04  0.00000000000E+00 0. -1.
         -2   -1    0    0    0  501 -0.00000000000E+00 -0.00000000000E+00 -0.64638373260E+03  0.64638373260E+03  0.00000000000E+00 0.  1.
         23    2    1    2    0    0  0.11771648965E+03 -0.25666448651E+03  0.29194706983E+02  0.29485056639E+03  0.79691248018E+02 0.  0.
    9900016    2    1    2    0    0 -0.59331227249E+03 -0.39960708739E+03  0.15832853925E+04  0.18577297598E+04  0.65777043813E+03 0.  0.
         23    2    4    4    0    0 -0.11021658042E+03 -0.15523860390E+03  0.11363366685E+04  0.11556894722E+04  0.90057833519E+02 0.  0.
        -15    1    5    5    0    0 -0.12309002011E+03 -0.11573232725E+03  0.92638510267E+03  0.94166580222E+03  0.00000000000E+00 0.  1.
        -15    1    3    3    0    0 -0.27939005364E+01 -0.75758721535E+02  0.25421906918E+01  0.75852834505E+02  0.00000000000E+00 0.  1.
         15    1    3    3    0    0  0.12051039019E+03 -0.18090576498E+03  0.26652516291E+02  0.21899773188E+03  0.00000000000E+00 0. -1.
         15    1    5    5    0    0  0.12873439685E+02 -0.39506276644E+02  0.20995156582E+03  0.21402367003E+03  0.00000000000E+00 0. -1.
        -16    1    1    2    0    0  0.64598777505E+03  0.77037464127E+03  0.40674962616E+03  0.10845379439E+04  0.00000000000E+00 0.  1.
         16    1    4    4    0    0 -0.48309569207E+03 -0.24436848349E+03  0.44694872401E+03  0.70204028753E+03  0.00000000000E+00 0. -1.
    9900018    1    1    2    0    0 -0.17039199222E+03 -0.11410306736E+03  0.29889097068E+03  0.37376989143E+03  0.91187600000E+02 0.  0.
<mgrwt>
<rscale>  0 0.14188518E+04</rscale>
<asrwt>0</asrwt>
<pdfrwt beam="1">  1        2 0.45607760E+00 0.23993589E+04</pdfrwt>
<pdfrwt beam="2">  1       -2 0.99443653E-01 0.23993589E+04</pdfrwt>
<totfact> 0.13663178E+00</totfact>
</mgrwt>
</event>
<event>
12    1  0.4871978E-013  0.2533804E+04  0.7818608E-02  0.9103085E-01
         -1   -1    0    0    0  501 -0.00000000000E+00  0.00000000000E+00  0.64852641923E+03  0.64852641923E+03  0.00000000000E+00 0.  1.
          1   -1    0    0  501    0  0.00000000000E+00 -0.00000000000E+00 -0.29274086513E+04  0.29274086513E+04  0.00000000000E+00 0. -1.
         23    2    1    2    0    0 -0.92841915922E+02 -0.31575032036E+02  0.43059296810E+02  0.13913801097E+03  0.88818236046E+02 0.  0.
    9900016    2    1    2    0    0 -0.49180271479E+03  0.86167104143E+03 -0.20207374804E+04  0.23777443660E+04  0.76546809953E+03 0.  0.
         23    2    4    4    0    0  0.91631805537E+02  0.15206467400E+02 -0.52857378806E+03  0.54457313770E+03  0.92423094729E+02 0.  0.
        -15    1    5    5    0    0 -0.13512065467E+02 -0.15871543387E+02 -0.10423364360E+03  0.10629738596E+03  0.00000000000E+00 0.  1.
        -15    1    3    3    0    0 -0.31193149555E+02  0.22906471138E+02  0.41648087846E+02  0.56853163679E+02  0.00000000000E+00 0. -1.
         15    1    5    5    0    0  0.10514387100E+03  0.31078010786E+02 -0.42434014446E+03  0.43827575174E+03  0.00000000000E+00 0. -1.
         15    1    3    3    0    0 -0.61648766367E+02 -0.54481503174E+02  0.14112089648E+01  0.82284847289E+02  0.00000000000E+00 0.  1.
        -16    1    1    2    0    0  0.58464463071E+03 -0.83009600939E+03 -0.30120404853E+03  0.10590526936E+04  0.00000000000E+00 0.  1.
         16    1    4    4    0    0 -0.52751098455E+03  0.64099324351E+03 -0.11065308421E+04  0.13833114912E+04  0.00000000000E+00 0. -1.
    9900018    1    4    4    0    0 -0.55923535774E+02  0.20547133051E+03 -0.38563285023E+03  0.44985973712E+03  0.91187600000E+02 0.  0.
<mgrwt>
<rscale>  0 0.12112279E+04</rscale>
<asrwt>0</asrwt>
<pdfrwt beam="1">  1        1 0.45037057E+00 0.25338038E+04</pdfrwt>
<pdfrwt beam="2">  1       -1 0.99773293E-01 0.25338038E+04</pdfrwt>
<totfact> 0.56926539E-01</totfact>
</mgrwt>
</event>
<event>
12    1  0.4871978E-013  0.1548303E+04  0.7818608E-02  0.9381105E-01
          1   -1    0    0  501    0  0.00000000000E+00  0.00000000000E+00  0.84218342150E+03  0.84218342150E+03  0.00000000000E+00 0. -1.
         -1   -1    0    0    0  501 -0.00000000000E+00 -0.00000000000E+00 -0.10520658779E+04  0.10520658779E+04  0.00000000000E+00 0.  1.
         23    2    1    2    0    0 -0.94088106789E+02  0.16083787684E+03  0.20483700530E+03  0.29136584103E+03  0.90633658815E+02 0.  0.
    9900016    2    1    2    0    0  0.43933387559E+03 -0.26177133249E+03 -0.69148416530E+03  0.11490322664E+04  0.76196214705E+03 0.  0.
         23    2    4    4    0    0  0.71435398290E+02 -0.17560165413E+03  0.94960748718E+02  0.23111880773E+03  0.91975009801E+02 0.  0.
        -15    1    3    3    0    0 -0.15469114908E+02  0.39988446648E+02  0.11190485461E+03  0.11983766464E+03  0.00000000000E+00 0.  1.
        -15    1    5    5    0    0 -0.19904637859E+02 -0.52158317973E+02  0.37036598623E+02  0.66995480292E+02  0.00000000000E+00 0. -1.
         15    1    5    5    0    0  0.91340036149E+02 -0.12344333616E+03  0.57924150096E+02  0.16412332744E+03  0.00000000000E+00 0.  1.
         15    1    3    3    0    0 -0.78618991881E+02  0.12084943020E+03  0.92932150697E+02  0.17152817639E+03  0.00000000000E+00 0. -1.
        -16    1    4    4    0    0  0.24100534972E+03 -0.10277695238E+02 -0.66099841090E+03  0.70363918938E+03  0.00000000000E+00 0.  1.
         16    1    1    2    0    0 -0.34524576880E+03  0.10093345565E+03  0.27676470359E+03  0.45385119202E+03  0.00000000000E+00 0. -1.
    9900018    1    4    4    0    0  0.12689312758E+03 -0.75891983120E+02 -0.12544650312E+03  0.21427426926E+03  0.91187600000E+02 0.  0.
<mgrwt>
<rscale>  0 0.93647146E+03</rscale>
<asrwt>0</asrwt>
<pdfrwt beam="1">  1        1 0.12956668E+00 0.15483033E+04</pdfrwt>
<pdfrwt beam="2">  1       -1 0.16185629E+00 0.15483033E+04</pdfrwt>
<totfact> 0.55038997E+00</totfact>
</mgrwt>
</event>
<event>
12    1  0.4871978E-013  0.1080875E+04  0.7818608E-02  0.9224035E-01
         -2   -1    0    0    0  501 -0.00000000000E+00  0.00000000000E+00  0.33443695429E+03  0.33443695429E+03  0.00000000000E+00 0.  1.
          2   -1    0    0  501    0  0.00000000000E+00 -0.00000000000E+00 -0.87332667009E+03  0.87332667009E+03  0.00000000000E+00 0. -1.
         23    2    1    2    0    0 -0.17397141120E+02 -0.42475850077E+02 -0.27140144128E+03  0.29025099047E+03  0.92087115177E+02 0.  0.
    9900016    2    1    2    0    0 -0.89918193303E+01  0.65065175030E+02 -0.16681331908E+03  0.68213200116E+03  0.65815123928E+03 0.  0.
         23    2    4    4    0    0  0.29841329273E+03  0.68215869231E+01  0.26241182116E+02  0.31449051968E+03  0.95491675061E+02 0.  0.
        -15    1    5    5    0    0  0.12094799788E+03  0.47542785757E+02 -0.34808224846E+01  0.13000327224E+03  0.00000000000E+00 0.  1.
        -15    1    3    3    0    0  0.21782109803E+02 -0.47197859748E+02 -0.84340570935E+02  0.99072852881E+02  0.00000000000E+00 0. -1.
         15    1    3    3    0    0 -0.39179250923E+02  0.47220096707E+01 -0.18706087035E+03  0.19117813759E+03  0.00000000000E+00 0.  1.
         15    1    5    5    0    0  0.17746529485E+03 -0.40721198834E+02  0.29722004600E+02  0.18448724744E+03  0.00000000000E+00 0. -1.
        -16    1    4    4    0    0 -0.30740511206E+03  0.58243588107E+02 -0.19305450119E+03  0.36764148148E+03  0.00000000000E+00 0.  1.
         16    1    1    2    0    0  0.54046714292E+02 -0.30354312292E+02 -0.12252248091E+03  0.13731056015E+03  0.00000000000E+00 0. -1.
    9900018    1    1    2    0    0 -0.27657753841E+02  0.77649873380E+01  0.21847525464E+02  0.98070072594E+02  0.91187600000E+02 0.  0.
<mgrwt>
<rscale>  0 0.10808750E+04</rscale>
<asrwt>0</asrwt>
<pdfrwt beam="1">  1        2 0.13435795E+00 0.10808750E+04</pdfrwt>
<pdfrwt beam="2">  1       -2 0.51451840E-01 0.10808750E+04</pdfrwt>
<totfact> 0.10846349E+02</totfact>
</mgrwt>
</event>
<event>
12    1  0.4871978E-013  0.1217659E+04  0.7818608E-02  0.9097539E-01
          2   -1    0    0  501    0  0.00000000000E+00  0.00000000000E+00  0.21472875975E+04  0.21472875975E+04  0.00000000000E+00 0.  1.
         -2   -1    0    0    0  501 -0.00000000000E+00 -0.00000000000E+00 -0.17262392152E+03  0.17262392152E+03  0.00000000000E+00 0. -1.
         23    2    1    2    0    0  0.85044619302E+02  0.13030049338E+03  0.99887549299E+02  0.20541385567E+03  0.89479180539E+02 0.  0.
    9900016    2    1    2    0    0 -0.11820050268E+03 -0.18901375683E+03  0.12193072414E+04  0.14555697314E+04  0.76306981001E+03 0.  0.
         23    2    4    4    0    0 -0.31984574368E+02  0.16094511571E+03  0.30615502908E+02  0.18927004959E+03  0.89216026508E+02 0.  0.
        -15    1    5    5    0    0  0.82965902970E+01  0.12760267975E+03 -0.15445805876E+01  0.12788144126E+03  0.00000000000E+00 0.  1.
        -15    1    3    3    0    0  0.19298971759E+02 -0.22222140045E+01 -0.93098347588E+01  0.21542088322E+02  0.00000000000E+00 0.  1.
         15    1    3    3    0    0  0.65745647543E+02  0.13252270739E+03  0.10919738406E+03  0.18387176735E+03  0.00000000000E+00 0. -1.
         15    1    5    5    0    0 -0.40281164665E+02  0.33342435964E+02  0.32160083496E+02  0.61388608335E+02  0.00000000000E+00 0. -1.
        -16    1    1    2    0    0  0.33155883373E+02  0.58713263442E+02  0.65546888530E+03  0.65892793195E+03  0.00000000000E+00 0.  1.
         16    1    4    4    0    0 -0.11500401297E+03 -0.28743944267E+03  0.98796597696E+03  0.10353376878E+04  0.00000000000E+00 0. -1.
    9900018    1    4    4    0    0  0.28788084659E+02 -0.62519429864E+02  0.20072576148E+03  0.23096199394E+03  0.91187600000E+02 0.  0.
<mgrwt>
<rscale>  0 0.12176587E+04</rscale>
<asrwt>0</asrwt>
<pdfrwt beam="1">  1        2 0.33035192E+00 0.12176587E+04</pdfrwt>
<pdfrwt beam="2">  1       -2 0.26557528E-01 0.12176587E+04</pdfrwt>
<totfact> 0.70173514E+01</totfact>
</mgrwt>
</event>
<event>
12    1  0.4871978E-013  0.1130719E+04  0.7818608E-02  0.9865853E-01
          1   -1    0    0  501    0  0.00000000000E+00  0.00000000000E+00  0.13692302340E+04  0.13692302340E+04  0.00000000000E+00 0. -1.
         -1   -1    0    0    0  501 -0.00000000000E+00 -0.00000000000E+00 -0.28279273737E+03  0.28279273737E+03  0.00000000000E+00 0.  1.
         23    2    1    2    0    0  0.45351332681E+02 -0.27342866883E+01  0.34191485230E+02  0.10743692185E+03  0.91155991659E+02 0.  0.
    9900016    2    1    2    0    0  0.11527333504E+03  0.83538649929E+02  0.41227864535E+03  0.87983958763E+03  0.76411868891E+03 0.  0.
         23    2    4    4    0    0  0.19962544142E+03 -0.31771615581E+02  0.54587053403E+03  0.58902543207E+03  0.90091993439E+02 0.  0.
        -15    1    5    5    0    0  0.63634815177E+02 -0.34399669121E+02  0.10391926807E+03  0.12661730219E+03  0.00000000000E+00 0. -1.
        -15    1    3    3    0    0  0.38558335163E+02 -0.44869275806E+02  0.19075505100E+02  0.62160051615E+02  0.00000000000E+00 0. -1.
         15    1    5    5    0    0  0.13599062625E+03  0.26280535402E+01  0.44195126596E+03  0.46240812988E+03  0.00000000000E+00 0.  1.
         15    1    3    3    0    0  0.67929975181E+01  0.42134989118E+02  0.15115980130E+02  0.45276870238E+02  0.00000000000E+00 0.  1.
        -16    1    4    4    0    0 -0.60101973020E+02  0.64409333771E+02 -0.15796351296E+03  0.18086813115E+03  0.00000000000E+00 0.  1.
         16    1    1    2    0    0 -0.16062466772E+03 -0.80804363241E+02  0.63996736605E+03  0.66474646190E+03  0.00000000000E+00 0. -1.
    9900018    1    4    4    0    0 -0.24250133365E+02  0.50900931739E+02  0.24371624279E+02  0.10994602441E+03  0.91187600000E+02 0.  0.
<mgrwt>
<rscale>  0 0.61945142E+03</rscale>
<asrwt>0</asrwt>
<pdfrwt beam="1">  1        1 0.21065080E+00 0.11307185E+04</pdfrwt>
<pdfrwt beam="2">  1       -1 0.43506576E-01 0.11307185E+04</pdfrwt>
<totfact> 0.41868842E+01</totfact>
</mgrwt>
</event>
<event>
12    1  0.4871978E-013  0.1134954E+04  0.7818608E-02  0.9886890E-01
          1   -1    0    0  501    0  0.00000000000E+00  0.00000000000E+00  0.79836094330E+03  0.79836094330E+03  0.00000000000E+00 0. -1.
         -1   -1    0    0    0  501 -0.00000000000E+00 -0.00000000000E+00 -0.47387616225E+03  0.47387616225E+03  0.00000000000E+00 0.  1.
         23    2    1    2    0    0 -0.19904732031E+02 -0.11906603235E+02  0.10665572368E+02  0.94695823501E+02  0.91189796561E+02 0.  0.
    9900016    2    1    2    0    0 -0.23007497902E+03  0.82275079313E+01  0.16445029991E+03  0.72056668022E+03  0.66269921658E+03 0.  0.
         23    2    4    4    0    0  0.20586919671E+03  0.40301749103E+02 -0.55449060100E+02  0.23124898196E+03  0.79969595840E+02 0.  0.
        -15    1    5    5    0    0  0.42652544206E+02  0.35257121265E+02  0.82898941663E+01  0.55955575883E+02  0.00000000000E+00 0.  1.
        -15    1    3    3    0    0 -0.12997085260E+01 -0.38446703241E+02  0.36666437414E+02  0.53143822454E+02  0.00000000000E+00 0.  1.
         15    1    3    3    0    0 -0.18605023505E+02  0.26540100006E+02 -0.26000865046E+02  0.41552001048E+02  0.00000000000E+00 0. -1.
         15    1    5    5    0    0  0.16321665250E+03  0.50446278380E+01 -0.63738954266E+02  0.17529340608E+03  0.00000000000E+00 0. -1.
        -16    1    1    2    0    0  0.31073904953E+03 -0.41184050875E+02  0.10998656702E+03  0.33219260660E+03  0.00000000000E+00 0.  1.
         16    1    4    4    0    0 -0.43594417573E+03 -0.32074241171E+02  0.21989936001E+03  0.48931769826E+03  0.00000000000E+00 0. -1.
    9900018    1    1    2    0    0 -0.60759338480E+02  0.44863146179E+02  0.39382341756E+02  0.12478199523E+03  0.91187600000E+02 0.  0.
<mgrwt>
<rscale>  0 0.60900855E+03</rscale>
<asrwt>0</asrwt>
<pdfrwt beam="1">  1        1 0.12282476E+00 0.11349542E+04</pdfrwt>
<pdfrwt beam="2">  1       -1 0.72904025E-01 0.11349542E+04</pdfrwt>
<totfact> 0.41809527E+01</totfact>
</mgrwt>
</event>
<event>
12    1  0.4871978E-013  0.1808273E+04  0.7818608E-02  0.9166139E-01
          2   -1    0    0  501    0  0.00000000000E+00  0.00000000000E+00  0.29747074225E+04  0.29747074225E+04  0.00000000000E+00 0. -1.
         -2   -1    0    0    0  501 -0.00000000000E+00 -0.00000000000E+00 -0.42163515875E+03  0.42163515875E+03  0.00000000000E+00 0.  1.
         23    2    1    2    0    0  0.32424590253E+02 -0.26925177871E+03  0.90644916059E+03  0.95068920825E+03  0.92800945884E+02 0.  0.
    9900016    2    1    2    0    0 -0.22980774676E+03  0.11040934678E+03  0.14851630953E+04  0.16427657760E+04  0.65419274748E+03 0.  0.
         23    2    4    4    0    0 -0.19177496637E+03  0.63624057921E+02  0.77954969729E+02  0.23426655190E+03  0.89320667041E+02 0.  0.
        -15    1    5    5    0    0 -0.18922789786E+02  0.33028495634E+01 -0.19072281469E+02  0.27069035981E+02  0.00000000000E+00 0.  1.
        -15    1    3    3    0    0 -0.19394578432E+02 -0.15777814290E+03  0.42385249455E+03  0.45268203983E+03  0.00000000000E+00 0.  1.
         15    1    3    3    0    0  0.51819168686E+02 -0.11147363582E+03  0.48259666604E+03  0.49800716842E+03  0.00000000000E+00 0. -1.
         15    1    5    5    0    0 -0.17285217659E+03  0.60321208358E+02  0.97027251198E+02  0.20719751592E+03  0.00000000000E+00 0. -1.
        -16    1    1    2    0    0  0.30612402591E+03  0.11330254859E+03 -0.21980444748E+03  0.39352685028E+03  0.00000000000E+00 0.  1.
         16    1    4    4    0    0 -0.38032780384E+02  0.46785288862E+02  0.14072081256E+04  0.14084992241E+04  0.00000000000E+00 0. -1.
    9900018    1    1    2    0    0 -0.10874086941E+03  0.45539883334E+02  0.38126445537E+03  0.40936074675E+03  0.91187600000E+02 0.  0.
<mgrwt>
<rscale>  0 0.11409866E+04</rscale>
<asrwt>0</asrwt>
<pdfrwt beam="1">  1        2 0.45764728E+00 0.18082734E+04</pdfrwt>
<pdfrwt beam="2">  1       -2 0.64866949E-01 0.18082734E+04</pdfrwt>
<totfact> 0.37197536E+00</totfact>
</mgrwt>
</event>
