<event>
11    1  0.5956325E-012  0.2794032E+04  0.7818608E-02  0.8483154E-01
          2   -1    0    0  501    0  0.00000000000E+00  0.00000000000E+00  0.27295723313E+04  0.27295723313E+04  0.00000000000E+00 0. -1.
         -2   -1    0    0    0  501 -0.00000000000E+00 -0.00000000000E+00 -0.18203066483E+04  0.18203066483E+04  0.00000000000E+00 0.  1.
    9900016    2    1    2    0    0 -0.55427847680E+03 -0.54348582205E+03  0.56143924269E+03  0.20749521657E+04  0.18405463858E+04 0.  0.
        -24    2    3    3    0    0 -0.10535617494E+04 -0.46787906682E+03 -0.18851211698E+03  0.11708353538E+04  0.80096358590E+02 0.  0.
        -15    1    3    3    0    0  0.49928327256E+03 -0.75606755234E+02  0.74995135966E+03  0.90411681190E+03  0.00000000000E+00 0.  1.
        -15    1    1    2    0    0  0.58561313742E+03  0.49142931065E+03 -0.55551055360E+03  0.94500660805E+03  0.00000000000E+00 0.  1.
         15    1    4    4    0    0 -0.49116156211E+03 -0.20396322201E+03 -0.48705618922E+02  0.53405328698E+03  0.00000000000E+00 0. -1.
         15    1    1    2    0    0 -0.14197708962E+03  0.41290891636E+03 -0.27125907410E+02  0.43747809321E+03  0.00000000000E+00 0. -1.
        -16    1    4    4    0    0 -0.56240018725E+03 -0.26391584481E+03 -0.13980649805E+03  0.63678206684E+03  0.00000000000E+00 0.  1.
         16    1    1    2    0    0 -0.35751853716E+02 -0.37959482220E+03  0.50344479824E+03  0.63152758369E+03  0.00000000000E+00 0. -1.
    9900018    1    1    2    0    0  0.14639428271E+03  0.18742417242E+02  0.42701810305E+03  0.46091452889E+03  0.91187600000E+02 0.  0.
<mgrwt>
<rscale>  0 0.22867734E+04</rscale>
<asrwt>0</asrwt>
<pdfrwt beam="1">  1        2 0.41993420E+00 0.27940319E+04</pdfrwt>
<pdfrwt beam="2">  1       -2 0.28004718E+00 0.27940319E+04</pdfrwt>
<totfact> 0.89121927E-02</totfact>
</mgrwt>
</event>
<event>
11    1  0.5956325E-012  0.4442518E+04  0.7818608E-02  0.8268546E-01
          1   -1    0    0  501    0  0.00000000000E+00  0.00000000000E+00  0.39587465801E+04  0.39587465801E+04  0.00000000000E+00 0. -1.
         -1   -1    0    0    0  501 -0.00000000000E+00 -0.00000000000E+00 -0.20337436818E+04  0.20337436818E+04  0.00000000000E+00 0.  1.
    9900016    2    1    2    0    0 -0.97363883248E+03  0.14944922000E+03 -0.86112889952E+03  0.22602330136E+04  0.18430416839E+04 0.  0.
        -24    2    3    3    0    0 -0.89713031896E+03 -0.24696219667E+03 -0.13401812552E+04  0.16337454052E+04  0.84882957954E+02 0.  0.
        -15    1    1    2    0    0 -0.12860321212E+03  0.33442273644E+03  0.21488290737E+03  0.41779422769E+03  0.00000000000E+00 0.  1.
        -15    1    3    3    0    0 -0.76508513522E+02  0.39641141667E+03  0.47905235568E+03  0.62648760833E+03  0.00000000000E+00 0.  1.
         15    1    1    2    0    0 -0.25681419544E+03  0.15987919666E+03  0.10385401785E+04  0.10817026351E+04  0.00000000000E+00 0. -1.
         15    1    4    4    0    0 -0.40295039696E+03 -0.89738534289E+02 -0.52997560449E+03  0.67178580537E+03  0.00000000000E+00 0. -1.
        -16    1    4    4    0    0 -0.49417992200E+03 -0.15722366238E+03 -0.81020565072E+03  0.96195959987E+03  0.00000000000E+00 0.  1.
         16    1    1    2    0    0  0.11678471155E+04 -0.38149942745E+03  0.92522302721E+03  0.15380007635E+04  0.00000000000E+00 0. -1.
    9900018    1    1    2    0    0  0.19120912455E+03 -0.26225172564E+03  0.60748568478E+03  0.69475962211E+03  0.91187600000E+02 0.  0.
<mgrwt>
<rscale>  0 0.29146022E+04</rscale>
<asrwt>0</asrwt>
<pdfrwt beam="1">  1        1 0.60903794E+00 0.44425185E+04</pdfrwt>
<pdfrwt beam="2">  1       -1 0.31288364E+00 0.44425185E+04</pdfrwt>
<totfact> 0.20566549E-03</totfact>
</mgrwt>
</event>
<event>
11    1  0.5956325E-012  0.4011660E+04  0.7818608E-02  0.8256732E-01
         -2   -1    0    0    0  501 -0.00000000000E+00  0.00000000000E+00  0.27491952876E+04  0.27491952876E+04  0.00000000000E+00 0.  1.
          2   -1    0    0  501    0  0.00000000000E+00 -0.00000000000E+00 -0.24771887192E+04  0.24771887192E+04  0.00000000000E+00 0. -1.
    9900016    2    1    2    0    0 -0.61491524041E+03  0.23545180265E+03  0.84092715213E+03  0.21283605266E+04  0.18409784767E+04 0.  0.
        -24    2    3    3    0    0 -0.19695458598E+03 -0.21350640025E+03  0.13175793049E+04  0.13515388924E+04  0.79158456357E+02 0.  0.
        -15    1    3    3    0    0 -0.41796065443E+03  0.44895820290E+03 -0.47665215276E+03  0.77682163418E+03  0.00000000000E+00 0.  1.
        -15    1    1    2    0    0 -0.49911007872E+03  0.10589233613E+02  0.54084968140E+03  0.73603082844E+03  0.00000000000E+00 0.  1.
         15    1    4    4    0    0 -0.90698188998E+02 -0.59035164946E+02  0.61090761081E+03  0.62041874660E+03  0.00000000000E+00 0. -1.
         15    1    1    2    0    0 -0.39610730760E+03 -0.81713266874E+02 -0.25602551880E+03  0.47867225050E+03  0.00000000000E+00 0. -1.
        -16    1    4    4    0    0 -0.10625639698E+03 -0.15447123531E+03  0.70667169407E+03  0.73112014583E+03  0.00000000000E+00 0.  1.
         16    1    1    2    0    0  0.12250173843E+04 -0.26352970227E+03 -0.37119904469E+03  0.13068680984E+04  0.00000000000E+00 0. -1.
    9900018    1    1    2    0    0  0.28511524247E+03  0.99201932889E+02 -0.48254570167E+03  0.57645230295E+03  0.91187600000E+02 0.  0.
<mgrwt>
<rscale>  0 0.29548859E+04</rscale>
<asrwt>0</asrwt>
<pdfrwt beam="1">  1        2 0.38110596E+00 0.40116605E+04</pdfrwt>
<pdfrwt beam="2">  1       -2 0.42295312E+00 0.40116605E+04</pdfrwt>
<totfact> 0.14242631E-02</totfact>
</mgrwt>
</event>
<event>
11    1  0.5956325E-012  0.4363139E+04  0.7818608E-02  0.8068171E-01
         -2   -1    0    0    0  501 -0.00000000000E+00  0.00000000000E+00  0.36448392135E+04  0.36448392135E+04  0.00000000000E+00 0.  1.
          2   -1    0    0  501    0  0.00000000000E+00 -0.00000000000E+00 -0.30110095169E+04  0.30110095169E+04  0.00000000000E+00 0. -1.
    9900016    2    1    2    0    0 -0.34203121733E+03 -0.72332067121E+03  0.98464798670E+02  0.20240476162E+04  0.18565816139E+04 0.  0.
         24    2    3    3    0    0  0.10512460527E+03  0.59439633664E+03 -0.10424039574E+03  0.61784142994E+03  0.80646046387E+02 0.  0.
        -15    1    1    2    0    0  0.46487526853E+03 -0.48560721092E+03  0.80798644455E+03  0.10510782431E+04  0.00000000000E+00 0.  1.
        -15    1    4    4    0    0  0.93096904886E+02  0.50317095497E+03 -0.58377002123E+02  0.51503001661E+03  0.00000000000E+00 0.  1.
         15    1    1    2    0    0  0.75046550472E+03 -0.56772203026E+03 -0.75061494073E+03  0.12037149026E+04  0.00000000000E+00 0. -1.
         15    1    3    3    0    0 -0.44715582261E+03 -0.13177170079E+04  0.20270519441E+03  0.14062061863E+04  0.00000000000E+00 0. -1.
        -16    1    1    2    0    0 -0.29629893844E+03  0.16753165681E+04  0.17250857321E+03  0.17100403130E+04  0.00000000000E+00 0.  1.
         16    1    4    4    0    0  0.12027700386E+02  0.91225381667E+02 -0.45863393622E+02  0.10281141333E+03  0.00000000000E+00 0. -1.
    9900018    1    1    2    0    0 -0.57701061747E+03  0.10133334434E+03  0.30548482092E+03  0.66696765555E+03  0.91187600000E+02 0.  0.
<mgrwt>
<rscale>  0 0.36990555E+04</rscale>
<asrwt>0</asrwt>
<pdfrwt beam="1">  1        2 0.46323223E+00 0.43631395E+04</pdfrwt>
<pdfrwt beam="2">  1       -2 0.56074450E+00 0.43631395E+04</pdfrwt>
<totfact> 0.92871417E-04</totfact>
</mgrwt>
</event>
<event>
11    1  0.5956325E-012  0.4393714E+04  0.7818608E-02  0.7972491E-01
          1   -1    0    0  501    0  0.00000000000E+00  0.00000000000E+00  0.39310611337E+04  0.39310611337E+04  0.00000000000E+00 0. -1.
         -1   -1    0    0    0  501 -0.00000000000E+00 -0.00000000000E+00 -0.40810591010E+04  0.40810591010E+04  0.00000000000E+00 0.  1.
    9900016    2    1    2    0    0  0.79439654585E+03  0.77191005324E+03  0.63025979919E+03  0.22410085691E+04  0.18433613291E+04 0.  0.
         24    2    3    3    0    0  0.12710317916E+04  0.25617720561E+03  0.79104075105E+03  0.15205836652E+04  0.72667993258E+02 0.  0.
        -15    1    1    2    0    0 -0.13013559591E+02 -0.12395771742E+04  0.57319802600E+03  0.13657514051E+04  0.00000000000E+00 0.  1.
        -15    1    4    4    0    0  0.42719992135E+03  0.56991653271E+02  0.28489336536E+03  0.51663531719E+03  0.00000000000E+00 0.  1.
         15    1    1    2    0    0 -0.10209945137E+04 -0.15824988544E+04 -0.11902902400E+04  0.22278966037E+04  0.00000000000E+00 0. -1.
         15    1    3    3    0    0 -0.47663524571E+03  0.51573284764E+03 -0.16078095186E+03  0.72042490384E+03  0.00000000000E+00 0. -1.
        -16    1    1    2    0    0  0.33805799955E+03  0.19108857178E+04 -0.26668775896E+02  0.19407417812E+04  0.00000000000E+00 0.  1.
         16    1    4    4    0    0  0.84383187022E+03  0.19918555233E+03  0.50614738569E+03  0.10039483480E+04  0.00000000000E+00 0. -1.
    9900018    1    1    2    0    0 -0.98446472076E+02  0.13928025760E+03 -0.13649677659E+03  0.23672187570E+03  0.91187600000E+02 0.  0.
<mgrwt>
<rscale>  0 0.41627744E+04</rscale>
<asrwt>0</asrwt>
<pdfrwt beam="1">  1        1 0.60477864E+00 0.43937137E+04</pdfrwt>
<pdfrwt beam="2">  1       -1 0.62785524E+00 0.43937137E+04</pdfrwt>
<totfact> 0.26519383E-05</totfact>
</mgrwt>
</event>
<event>
11    1  0.5956325E-012  0.4066662E+04  0.7818608E-02  0.8257221E-01
         -1   -1    0    0    0  501 -0.00000000000E+00  0.00000000000E+00  0.36475078762E+04  0.36475078762E+04  0.00000000000E+00 0.  1.
          1   -1    0    0  501    0  0.00000000000E+00 -0.00000000000E+00 -0.18535461452E+04  0.18535461452E+04  0.00000000000E+00 0. -1.
    9900016    2    1    2    0    0 -0.10185728403E+04 -0.37350097089E+03  0.46920629095E+03  0.21966750046E+04  0.18515487912E+04 0.  0.
         24    2    3    3    0    0 -0.53664950648E+03 -0.51366550174E+03 -0.63705965609E+03  0.98188261869E+03  0.80022065612E+02 0.  0.
        -15    1    1    2    0    0  0.47279241413E+03 -0.87234920319E+02 -0.27965783283E+03  0.55619340309E+03  0.00000000000E+00 0.  1.
        -15    1    4    4    0    0 -0.10198140150E+03 -0.73024074307E+02 -0.14067198731E+03  0.18847103144E+03  0.00000000000E+00 0.  1.
         15    1    1    2    0    0 -0.11165327493E+03 -0.11341912763E+03  0.59790040191E+03  0.61872065015E+03  0.00000000000E+00 0. -1.
         15    1    3    3    0    0 -0.48192333380E+03  0.14016453085E+03  0.11062659470E+04  0.12147923859E+04  0.00000000000E+00 0. -1.
        -16    1    1    2    0    0  0.81134074002E+03  0.74451873974E+03  0.83682709214E+01  0.11012047849E+04  0.00000000000E+00 0.  1.
         16    1    4    4    0    0 -0.43466810498E+03 -0.44064142744E+03 -0.49638766878E+03  0.79341158725E+03  0.00000000000E+00 0. -1.
    9900018    1    1    2    0    0 -0.15390703894E+03 -0.17036372090E+03  0.99814460010E+03  0.10282601787E+04  0.91187600000E+02 0.  0.
<mgrwt>
<rscale>  0 0.29532045E+04</rscale>
<asrwt>0</asrwt>
<pdfrwt beam="1">  1        1 0.28516095E+00 0.40666620E+04</pdfrwt>
<pdfrwt beam="2">  1       -1 0.56115506E+00 0.40666620E+04</pdfrwt>
<totfact> 0.18565513E-03</totfact>
</mgrwt>
</event>
<event>
11    1  0.5956326E-012  0.3736399E+04  0.7818608E-02  0.8251054E-01
          1   -1    0    0  501    0  0.00000000000E+00  0.00000000000E+00  0.45425599783E+04  0.45425599783E+04  0.00000000000E+00 0. -1.
         -1   -1    0    0    0  501 -0.00000000000E+00 -0.00000000000E+00 -0.15096164264E+04  0.15096164264E+04  0.00000000000E+00 0.  1.
    9900016    2    1    2    0    0  0.54867728406E+03 -0.36141484530E+03  0.17346623453E+04  0.26098506833E+04  0.18359193022E+04 0.  0.
         24    2    3    3    0    0  0.71140973015E+03 -0.19071959810E+03  0.20707254722E+04  0.21992935719E+04  0.80687451570E+02 0.  0.
        -15    1    1    2    0    0  0.11089019314E+03  0.57763717350E+03  0.37041749775E+02  0.58935000668E+03  0.00000000000E+00 0.  1.
        -15    1    4    4    0    0  0.42222999100E+03 -0.87354724817E+02  0.13000278881E+04  0.13696647485E+04  0.00000000000E+00 0.  1.
         15    1    3    3    0    0 -0.16273244609E+03 -0.17069524719E+03 -0.33606312691E+03  0.41055711137E+03  0.00000000000E+00 0. -1.
         15    1    1    2    0    0  0.77494117591E+03 -0.51445977218E+02  0.86095626414E+03  0.11594939428E+04  0.00000000000E+00 0. -1.
        -16    1    1    2    0    0 -0.14886429588E+04 -0.68875783778E+02  0.42207221393E+03  0.15488533456E+04  0.00000000000E+00 0.  1.
         16    1    4    4    0    0  0.28917973915E+03 -0.10336487329E+03  0.77069758410E+03  0.82962882345E+03  0.00000000000E+00 0. -1.
    9900018    1    1    2    0    0  0.54134305697E+02 -0.95900567210E+02 -0.21789021296E+02  0.14462842628E+03  0.91187600000E+02 0.  0.
<mgrwt>
<rscale>  0 0.29744886E+04</rscale>
<asrwt>0</asrwt>
<pdfrwt beam="1">  1        1 0.69885538E+00 0.37363990E+04</pdfrwt>
<pdfrwt beam="2">  1       -1 0.23224868E+00 0.37363990E+04</pdfrwt>
<totfact> 0.20264381E-03</totfact>
</mgrwt>
</event>
<event>
11    1  0.5956325E-012  0.4018068E+04  0.7818608E-02  0.8140976E-01
         -2   -1    0    0    0  501 -0.00000000000E+00  0.00000000000E+00  0.56752939558E+04  0.56752939558E+04  0.00000000000E+00 0. -1.
          2   -1    0    0  501    0  0.00000000000E+00 -0.00000000000E+00 -0.16681902299E+04  0.16681902299E+04  0.00000000000E+00 0.  1.
    9900016    2    1    2    0    0 -0.15689441820E+04 -0.37206292275E+03  0.10460672777E+04  0.26630454538E+04  0.18432410789E+04 0.  0.
        -24    2    3    3    0    0 -0.12809630256E+04 -0.96981307350E+03  0.25192451811E+03  0.16282019334E+04  0.78561456960E+02 0.  0.
        -15    1    3    3    0    0 -0.28798115637E+03  0.59775015075E+03  0.79414275960E+03  0.10348435204E+04  0.00000000000E+00 0.  1.
        -15    1    1    2    0    0  0.34029425931E+03  0.74566666352E+03 -0.38306099237E+03  0.90474011731E+03  0.00000000000E+00 0.  1.
         15    1    4    4    0    0 -0.61851508583E+03 -0.45478495119E+03  0.82179456290E+02  0.77210344272E+03  0.00000000000E+00 0. -1.
         15    1    1    2    0    0  0.57902054805E+03 -0.22331801059E+02  0.11086607518E+04  0.12509565008E+04  0.00000000000E+00 0. -1.
        -16    1    4    4    0    0 -0.66244793975E+03 -0.51502812231E+03  0.16974506182E+03  0.85609849063E+03  0.00000000000E+00 0.  1.
         16    1    1    2    0    0  0.82797187379E+03 -0.75508979476E+02  0.16379765059E+04  0.18369012123E+04  0.00000000000E+00 0. -1.
    9900018    1    1    2    0    0 -0.17834249920E+03 -0.27576296023E+03  0.59746018284E+03  0.68784090146E+03  0.91187600000E+02 0.  0.
<mgrwt>
<rscale>  0 0.33875222E+04</rscale>
<asrwt>0</asrwt>
<pdfrwt beam="1">  1        2 0.25664465E+00 0.40180681E+04</pdfrwt>
<pdfrwt beam="2">  1       -2 0.87312214E+00 0.40180681E+04</pdfrwt>
<totfact> 0.14604235E-04</totfact>
</mgrwt>
</event>
