<event>
11    1  0.1829018E-013  0.4278203E+04  0.7818608E-02  0.8679029E-01
          2   -1    0    0  501    0  0.00000000000E+00  0.00000000000E+00  0.24311353604E+04  0.24311353604E+04  0.00000000000E+00 0. -1.
         -2   -1    0    0    0  501 -0.00000000000E+00 -0.00000000000E+00 -0.20335130129E+04  0.20335130129E+04  0.00000000000E+00 0.  1.
        -24    2    1    2    0    0 -0.57992734439E+03 -0.86214511706E+03  0.33971063478E+03  0.10961973618E+04  0.81458044856E+02 0.  0.
         23    2    1    2    0    0  0.65924574254E+02  0.10039634755E+03  0.90485209621E+02  0.17543455571E+03  0.90356151341E+02 0.  0.
        -15    1    4    4    0    0  0.50629014882E+02  0.57350391338E+02  0.10278094697E+03  0.12812606134E+03  0.00000000000E+00 0. -1.
        -15    1    1    2    0    0  0.12703669513E+04 -0.21205166033E+03 -0.31806718838E+02  0.12883360450E+04  0.00000000000E+00 0.  1.
         15    1    4    4    0    0  0.15295559372E+02  0.43045956209E+02 -0.12295737349E+02  0.47308494368E+02  0.00000000000E+00 0.  1.
         15    1    3    3    0    0 -0.23900416678E+03 -0.32191619407E+03  0.16799182600E+03  0.43471172211E+03  0.00000000000E+00 0. -1.
        -16    1    3    3    0    0 -0.34092317761E+03 -0.54022892300E+03  0.17171880879E+03  0.66148563973E+03  0.00000000000E+00 0.  1.
         16    1    1    2    0    0 -0.20976184828E+03 -0.38432813220E+03 -0.10754765764E+01  0.43784620912E+03  0.00000000000E+00 0. -1.
    9900018    1    1    2    0    0 -0.54660233287E+03  0.13581285620E+04  0.30869844457E+00  0.14668342016E+04  0.91187600000E+02 0.  0.
<mgrwt>
<rscale>  0 0.18521872E+04</rscale>
<asrwt>0</asrwt>
<pdfrwt beam="1">  1        2 0.37402083E+00 0.42782031E+04</pdfrwt>
<pdfrwt beam="2">  1       -2 0.31284816E+00 0.42782031E+04</pdfrwt>
<totfact> 0.77501271E-02</totfact>
</mgrwt>
</event>
<event>
11    1  0.1829018E-013  0.2030823E+04  0.7818608E-02  0.9071760E-01
          2   -1    0    0  501    0  0.00000000000E+00  0.00000000000E+00  0.17158997604E+04  0.17158997604E+04  0.00000000000E+00 0. -1.
         -2   -1    0    0    0  501 -0.00000000000E+00 -0.00000000000E+00 -0.84703359935E+03  0.84703359935E+03  0.00000000000E+00 0.  1.
        -24    2    1    2    0    0 -0.13109518899E+03 -0.24210049832E+03 -0.10822317291E+03  0.30928171715E+03  0.90245917066E+02 0.  0.
         23    2    1    2    0    0  0.23976803081E+03 -0.15908822908E+03  0.25332804528E+03  0.39378971511E+03  0.89985932094E+02 0.  0.
        -15    1    4    4    0    0  0.11871369316E+03 -0.10125167140E+03  0.18876398096E+03  0.24490137283E+03  0.00000000000E+00 0.  1.
        -15    1    1    2    0    0  0.53302077170E+02  0.69872904533E+03  0.33474148970E+03  0.77660495436E+03  0.00000000000E+00 0.  1.
         15    1    4    4    0    0  0.12105433764E+03 -0.57836557682E+02  0.64564064319E+02  0.14888834228E+03  0.00000000000E+00 0. -1.
         15    1    3    3    0    0 -0.47556835676E+02 -0.76682070694E+02 -0.82364066741E+02  0.12217050411E+03  0.00000000000E+00 0. -1.
        -16    1    3    3    0    0 -0.83538353319E+02 -0.16541842762E+03 -0.25859106167E+02  0.18711121304E+03  0.00000000000E+00 0.  1.
         16    1    1    2    0    0 -0.13974244802E+02  0.49034365950E+02 -0.29371476662E+03  0.29810738449E+03  0.00000000000E+00 0. -1.
    9900018    1    1    2    0    0 -0.14800067418E+03 -0.34657468388E+03  0.68273456556E+03  0.78514958859E+03  0.91187600000E+02 0.  0.
<mgrwt>
<rscale>  0 0.12481077E+04</rscale>
<asrwt>0</asrwt>
<pdfrwt beam="1">  1        2 0.26398458E+00 0.20308230E+04</pdfrwt>
<pdfrwt beam="2">  1       -2 0.13031286E+00 0.20308230E+04</pdfrwt>
<totfact> 0.38007207E+00</totfact>
</mgrwt>
</event>
<event>
11    1  0.1829018E-013  0.1993171E+04  0.7818608E-02  0.9009172E-01
          2   -1    0    0  501    0  0.00000000000E+00  0.00000000000E+00  0.12698609468E+04  0.12698609468E+04  0.00000000000E+00 0.  1.
         -2   -1    0    0    0  501 -0.00000000000E+00 -0.00000000000E+00 -0.11766927995E+04  0.11766927995E+04  0.00000000000E+00 0. -1.
        -24    2    1    2    0    0 -0.35217840942E+03 -0.14864180261E+03 -0.18848948218E+03  0.43358070828E+03  0.79623665774E+02 0.  0.
         23    2    1    2    0    0  0.23254842958E+03 -0.39117400469E+03  0.71109280027E+03  0.84918847683E+03  0.91499860896E+02 0.  0.
        -15    1    4    4    0    0  0.11654322383E+02 -0.63206831300E+00  0.41925408504E+02  0.43519680822E+02  0.00000000000E+00 0.  1.
        -15    1    1    2    0    0 -0.19016585963E+03  0.42394286387E+03 -0.27317878606E+03  0.53899652610E+03  0.00000000000E+00 0.  1.
         15    1    4    4    0    0  0.22089410719E+03 -0.39054193637E+03  0.66916739177E+03  0.80566879601E+03  0.00000000000E+00 0. -1.
         15    1    3    3    0    0 -0.50162781380E+02 -0.25226301479E+02  0.12463664277E+01  0.56162481706E+02  0.00000000000E+00 0. -1.
        -16    1    3    3    0    0 -0.30201562804E+03 -0.12341550113E+03 -0.18973584861E+03  0.37741822657E+03  0.00000000000E+00 0.  1.
         16    1    1    2    0    0 -0.42729650567E+02  0.72948660411E+02 -0.23502916773E+03  0.24977197556E+03  0.00000000000E+00 0. -1.
    9900018    1    1    2    0    0  0.35252549004E+03  0.42924283010E+02  0.78772783036E+02  0.37501605958E+03  0.91187600000E+02 0.  0.
<mgrwt>
<rscale>  0 0.13260328E+04</rscale>
<asrwt>0</asrwt>
<pdfrwt beam="1">  1        2 0.19536322E+00 0.19931707E+04</pdfrwt>
<pdfrwt beam="2">  1       -2 0.18102966E+00 0.19931707E+04</pdfrwt>
<totfact> 0.28152908E+00</totfact>
</mgrwt>
</event>
<event>
11    1  0.1829018E-013  0.3696804E+04  0.7818608E-02  0.8551063E-01
         -2   -1    0    0    0  501 -0.00000000000E+00  0.00000000000E+00  0.13823312754E+04  0.13823312754E+04  0.00000000000E+00 0. -1.
          2   -1    0    0  501    0  0.00000000000E+00 -0.00000000000E+00 -0.30671571284E+04  0.30671571284E+04  0.00000000000E+00 0.  1.
         24    2    1    2    0    0  0.17198923915E+02  0.50699652477E+03  0.45623219881E+03  0.68678573295E+03  0.78648233524E+02 0.  0.
         23    2    1    2    0    0  0.11676848780E+03 -0.37382420301E+03 -0.43280043232E+02  0.40461146044E+03  0.91966609592E+02 0.  0.
        -15    1    3    3    0    0  0.31300553957E+01  0.37978483948E+02  0.67229850641E+02  0.77278815383E+02  0.00000000000E+00 0.  1.
        -15    1    4    4    0    0  0.11573698492E+03 -0.33541339497E+03 -0.64623619542E+02  0.36065691094E+03  0.00000000000E+00 0.  1.
         15    1    4    4    0    0  0.10315028777E+01 -0.38410808037E+02  0.21343576310E+02  0.43954549503E+02  0.00000000000E+00 0. -1.
         15    1    1    2    0    0  0.57287529260E+03  0.98323484479E+03 -0.10481668713E+04  0.15471233471E+04  0.00000000000E+00 0. -1.
        -16    1    1    2    0    0 -0.56274811393E+03 -0.10201311830E+04 -0.11067904233E+04  0.16069654979E+04  0.00000000000E+00 0.  1.
         16    1    3    3    0    0  0.14068868519E+02  0.46901804083E+03  0.38900234817E+03  0.60950691757E+03  0.00000000000E+00 0. -1.
    9900018    1    1    2    0    0 -0.14409459038E+03 -0.96275983556E+02  0.57179286044E+02  0.20400236551E+03  0.91187600000E+02 0.  0.
<mgrwt>
<rscale>  0 0.21232670E+04</rscale>
<asrwt>0</asrwt>
<pdfrwt beam="1">  1        2 0.47187033E+00 0.36968036E+04</pdfrwt>
<pdfrwt beam="2">  1       -2 0.21266635E+00 0.36968036E+04</pdfrwt>
<totfact> 0.13840687E-01</totfact>
</mgrwt>
</event>
<event>
12    1  0.1829018E-013  0.3069776E+04  0.7818608E-02  0.8224082E-01
         -1   -1    0    0    0  501 -0.00000000000E+00  0.00000000000E+00  0.18690444650E+04  0.18690444650E+04  0.00000000000E+00 0.  1.
          1   -1    0    0  501    0  0.00000000000E+00 -0.00000000000E+00 -0.12604738360E+04  0.12604738360E+04  0.00000000000E+00 0. -1.
         24    2    1    2    0    0 -0.31322400783E+03  0.21052285191E+03  0.41872325407E+02  0.38818732622E+03  0.80665719744E+02 0.  0.
    9900016    2    1    2    0    0  0.25356841809E+03 -0.13314423798E+03  0.95659270435E+03  0.23393808747E+04  0.21155635051E+04 0.  0.
         23    2    4    4    0    0  0.17906263967E+03 -0.25893354968E+03  0.36867906689E+03  0.49300973879E+03  0.89578658770E+02 0.  0.
        -15    1    3    3    0    0 -0.25847023751E+03  0.13454325522E+03  0.42878497784E+02  0.29452897443E+03  0.00000000000E+00 0.  1.
        -15    1    5    5    0    0  0.54226764851E+02 -0.59740123344E+02  0.43213057868E+02  0.91524820315E+02  0.00000000000E+00 0. -1.
         15    1    5    5    0    0  0.12483587482E+03 -0.19919342634E+03  0.32546600902E+03  0.40148491848E+03  0.00000000000E+00 0.  1.
         15    1    1    2    0    0  0.59655589749E+02 -0.77378613930E+02 -0.38989440073E+03  0.40195010014E+03  0.00000000000E+00 0. -1.
        -16    1    4    4    0    0 -0.73781918249E+02 -0.10699359455E+03 -0.60487250243E+03  0.61867773916E+03  0.00000000000E+00 0.  1.
         16    1    3    3    0    0 -0.54753770322E+02  0.75979596687E+02 -0.10061723770E+01  0.93658351790E+02  0.00000000000E+00 0. -1.
    9900018    1    4    4    0    0  0.14828769667E+03  0.23278290626E+03  0.11927861399E+04  0.12276933967E+04  0.91187600000E+02 0.  0.
<mgrwt>
<rscale>  0 0.30697763E+04</rscale>
<asrwt>0</asrwt>
<pdfrwt beam="1">  1        1 0.19391905E+00 0.30697763E+04</pdfrwt>
<pdfrwt beam="2">  1       -1 0.28754530E+00 0.30697763E+04</pdfrwt>
<totfact> 0.32488929E-01</totfact>
</mgrwt>
</event>
